<LesHouchesEvents version="3.0">
<header>
<!--
#*********************************************************************
#                                                                    *
#                        MadGraph5_aMC@NLO                           *
#                                                                    *
#                           Going Beyond                             *
#                                                                    *
#                   http://madgraph.hep.uiuc.edu                     *
#                   http://madgraph.phys.ucl.ac.be                   *
#                   http://amcatnlo.cern.ch                          *
#                                                                    *
#                     The MadGraph5_aMC@NLO team                     *
#                                                                    *
#....................................................................*
#                                                                    *
# This file contains all the information necessary to reproduce      *
# the events generated:                                              *
#                                                                    *
# 1. software version                                                *
# 2. proc_card          : code generation info including model       *
# 3. param_card         : model primary parameters in the LH format  *
# 4. run_card           : running parameters (collider and cuts)     *
# 5. pythia_card        : present only if pythia has been run        *
# 6. pgs_card           : present only if pgs has been run           *
# 7. delphes_cards      : present only if delphes has been run       *
#                                                                    *
#                                                                    *
#*********************************************************************
-->
<MGVersion>
#5.2.2.3
</MGVersion>
<MG5ProcCard>
#************************************************************
#*                     MadGraph5_aMC@NLO                    *
#*                                                          *
#*                *                       *                 *
#*                  *        * *        *                   *
#*                    * * * * 5 * * * *                     *
#*                  *        * *        *                   *
#*                *                       *                 *
#*                                                          *
#*                                                          *
#*         VERSION 2.2.3                 2015-02-10         *
#*                                                          *
#*    The MadGraph5_aMC@NLO Development Team - Find us at   *
#*    https://server06.fynu.ucl.ac.be/projects/madgraph     *
#*                                                          *
#************************************************************
#*                                                          *
#*               Command File for MadGraph5_aMC@NLO         *
#*                                                          *
#*     run as ./bin/mg5_aMC  filename                       *
#*                                                          *
#************************************************************
set group_subprocesses Auto
set ignore_six_quark_processes False
set loop_optimized_output True
set gauge unitary
set complex_mass_scheme False
import model sm
define p = g u c d s u~ c~ d~ s~
define j = g u c d s u~ c~ d~ s~
define l+ = e+ mu+
define l- = e- mu-
define vl = ve vm vt
define vl~ = ve~ vm~ vt~
import model Zprime_UFO
generate p p > zph, zph > j j
add process p p > zph, zph > b b~
output Dijet_signal
</MG5ProcCard>
<MGProcCard>
#*********************************************************************
#                        MadGraph/MadEvent                           *
#                   http://madgraph.hep.uiuc.edu                     *
#                                                                    *
#                          proc_card.dat                             *
#*********************************************************************
#                                                                    *
#            This Files is generated by MADGRAPH 5                   *
#                                                                    *
# WARNING: This Files is generated for MADEVENT (compatibility issue)*
#          This files is NOT a valid MG4 proc_card.dat               *
#          Running this in MG4 will NEVER reproduce the result of MG5*
#                                                                    *
#*********************************************************************
#*********************************************************************
# Process(es) requested : mg2 input                                  *
#*********************************************************************
# Begin PROCESS # This is TAG. Do not modify this line
p p > zph , zph > j j           #Process
# Be carefull the coupling are here in MG5 convention
          
end_coup           # End the couplings input

done               # this tells MG there are no more procs
# End PROCESS  # This is TAG. Do not modify this line
#*********************************************************************
# Model information                                                  *
#*********************************************************************
# Begin MODEL  # This is TAG. Do not modify this line
Zprime_UFO
# End   MODEL  # This is TAG. Do not modify this line
#*********************************************************************
# Start multiparticle definitions                                    *
#*********************************************************************
# Begin MULTIPARTICLES # This is TAG. Do not modify this line

# End  MULTIPARTICLES # This is TAG. Do not modify this line
</MGProcCard>
<MGRunCard>
#*********************************************************************
#                       MadGraph5_aMC@NLO                            *
#                                                                    *
#                     run_card.dat MadEvent                          *
#                                                                    *
#  This file is used to set the parameters of the run.               *
#                                                                    *
#  Some notation/conventions:                                        *
#                                                                    *
#   Lines starting with a '# ' are info or comments                  *
#                                                                    *
#   mind the format:   value    = variable     ! comment             *
#*********************************************************************
#
#*******************                                                 
# Running parameters
#*******************                                                 
#                                                                    
#*********************************************************************
# Tag name for the run (one word)                                    *
#*********************************************************************
  tag_1     = run_tag ! name of the run 
#*********************************************************************
# Run to generate the grid pack                                      *
#*********************************************************************
  .false.     = gridpack  !True = setting up the grid pack
#*********************************************************************
# Number of events and rnd seed                                      *
# Warning: Do not generate more than 1M events in a single run       *
# If you want to run Pythia, avoid more than 50k events in a run.    *
#*********************************************************************
  2000 = nevents ! Number of unweighted events requested 
 2154 = iseed   ! rnd seed (0=assigned automatically=default))
#*********************************************************************
# Collider type and energy                                           *
# lpp: 0=No PDF, 1=proton, -1=antiproton, 2=photon from proton,      *
#                                         3=photon from electron     *
#*********************************************************************
        1     = lpp1    ! beam 1 type 
        1     = lpp2    ! beam 2 type
     4000     = ebeam1  ! beam 1 total energy in GeV
     4000     = ebeam2  ! beam 2 total energy in GeV
#*********************************************************************
# Beam polarization from -100 (left-handed) to 100 (right-handed)    *
#*********************************************************************
        0     = polbeam1 ! beam polarization for beam 1
        0     = polbeam2 ! beam polarization for beam 2
#*********************************************************************
# PDF CHOICE: this automatically fixes also alpha_s and its evol.    *
#*********************************************************************
 'nn23lo1'    = pdlabel     ! PDF set                                     
 230000    = lhaid     ! if pdlabel=lhapdf, this is the lhapdf number
#*********************************************************************
# Renormalization and factorization scales                           *
#*********************************************************************
 F        = fixed_ren_scale  ! if .true. use fixed ren scale
 F        = fixed_fac_scale  ! if .true. use fixed fac scale
 91.1880  = scale            ! fixed ren scale
 91.1880  = dsqrt_q2fact1    ! fixed fact scale for pdf1
 91.1880  = dsqrt_q2fact2    ! fixed fact scale for pdf2
 1        = scalefact        ! scale factor for event-by-event scales
#*********************************************************************
# Matching - Warning! ickkw > 1 is still beta
#*********************************************************************
 0        = ickkw            ! 0 no matching, 1 MLM, 2 CKKW matching
 1        = highestmult      ! for ickkw=2, highest mult group
 1        = ktscheme         ! for ickkw=1, 1 Durham kT, 2 Pythia pTE
 1        = alpsfact         ! scale factor for QCD emission vx
 F        = chcluster        ! cluster only according to channel diag
 T        = pdfwgt           ! for ickkw=1, perform pdf reweighting
 5        = asrwgtflavor     ! highest quark flavor for a_s reweight
 T        = clusinfo         ! include clustering tag in output
 3.0      = lhe_version       ! Change the way clustering information pass to shower.        
#*********************************************************************
#**********************************************************
#
#**********************************************************
# Automatic ptj and mjj cuts if xqcut > 0
# (turn off for VBF and single top processes)
#**********************************************************
   T  = auto_ptj_mjj  ! Automatic setting of ptj and mjj
#**********************************************************
#                                                                    
#**********************************
# BW cutoff (M+/-bwcutoff*Gamma)
#**********************************
  15  = bwcutoff      ! (M+/-bwcutoff*Gamma)
#**********************************************************
# Apply pt/E/eta/dr/mij cuts on decay products or not
# (note that etmiss/ptll/ptheavy/ht/sorted cuts always apply)
#**********************************************************
   T  = cut_decays    ! Cut decay products 
#*************************************************************
# Number of helicities to sum per event (0 = all helicities)
# 0 gives more stable result, but longer run time (needed for
# long decay chains e.g.).
# Use >=2 if most helicities contribute, e.g. pure QCD.
#*************************************************************
   0  = nhel          ! Number of helicities used per event
#*******************                                                 
# Standard Cuts
#*******************                                                 
#                                                                    
#*********************************************************************
# Minimum and maximum pt's (for max, -1 means no cut)                *
#*********************************************************************
 20  = ptj       ! minimum pt for the jets 
  0  = ptb       ! minimum pt for the b 
 10  = pta       ! minimum pt for the photons 
 10  = ptl       ! minimum pt for the charged leptons 
  0  = misset    ! minimum missing Et (sum of neutrino's momenta)
  0  = ptheavy   ! minimum pt for one heavy final state
 1.0 = ptonium   ! minimum pt for the quarkonium states
 -1  = ptjmax    ! maximum pt for the jets
 -1  = ptbmax    ! maximum pt for the b
 -1  = ptamax    ! maximum pt for the photons
 -1  = ptlmax    ! maximum pt for the charged leptons
 -1  = missetmax ! maximum missing Et (sum of neutrino's momenta)
#*********************************************************************
# Minimum and maximum E's (in the center of mass frame)              *
#*********************************************************************
  0  = ej     ! minimum E for the jets 
  0  = eb     ! minimum E for the b 
  0  = ea     ! minimum E for the photons 
  0  = el     ! minimum E for the charged leptons 
 -1   = ejmax ! maximum E for the jets
 -1   = ebmax ! maximum E for the b
 -1   = eamax ! maximum E for the photons
 -1   = elmax ! maximum E for the charged leptons
#*********************************************************************
# Maximum and minimum absolute rapidity (for max, -1 means no cut)   *
#*********************************************************************
   5  = etaj    ! max rap for the jets 
  -1  = etab    ! max rap for the b
 2.5  = etaa    ! max rap for the photons 
 2.5  = etal    ! max rap for the charged leptons 
 0.6  = etaonium ! max rap for the quarkonium states
   0  = etajmin ! min rap for the jets
   0  = etabmin ! min rap for the b
   0  = etaamin ! min rap for the photons
   0  = etalmin ! main rap for the charged leptons
#*********************************************************************
# Minimum and maximum DeltaR distance                                *
#*********************************************************************
 0.4 = drjj    ! min distance between jets 
 0   = drbb    ! min distance between b's 
 0.4 = drll    ! min distance between leptons 
 0.4 = draa    ! min distance between gammas 
 0   = drbj    ! min distance between b and jet 
 0.4 = draj    ! min distance between gamma and jet 
 0.4 = drjl    ! min distance between jet and lepton 
 0   = drab    ! min distance between gamma and b 
 0   = drbl    ! min distance between b and lepton 
 0.4 = dral    ! min distance between gamma and lepton 
 -1  = drjjmax ! max distance between jets
 -1  = drbbmax ! max distance between b's
 -1  = drllmax ! max distance between leptons
 -1  = draamax ! max distance between gammas
 -1  = drbjmax ! max distance between b and jet
 -1  = drajmax ! max distance between gamma and jet
 -1  = drjlmax ! max distance between jet and lepton
 -1  = drabmax ! max distance between gamma and b
 -1  = drblmax ! max distance between b and lepton
 -1  = dralmax ! maxdistance between gamma and lepton
#*********************************************************************
# Minimum and maximum invariant mass for pairs                       *
# WARNING: for four lepton final state mmll cut require to have      *
#          different lepton masses for each flavor!                  *           
#*********************************************************************
 0   = mmjj    ! min invariant mass of a jet pair 
 0   = mmbb    ! min invariant mass of a b pair 
 0   = mmaa    ! min invariant mass of gamma gamma pair
 0   = mmll    ! min invariant mass of l+l- (same flavour) lepton pair
 -1  = mmjjmax ! max invariant mass of a jet pair
 -1  = mmbbmax ! max invariant mass of a b pair
 -1  = mmaamax ! max invariant mass of gamma gamma pair
 -1  = mmllmax ! max invariant mass of l+l- (same flavour) lepton pair
#*********************************************************************
# Minimum and maximum invariant mass for all letpons                 *
#*********************************************************************
 0   = mmnl    ! min invariant mass for all letpons (l+- and vl) 
 -1  = mmnlmax ! max invariant mass for all letpons (l+- and vl) 
#*********************************************************************
# Minimum and maximum pt for 4-momenta sum of leptons                *
#*********************************************************************
 0   = ptllmin  ! Minimum pt for 4-momenta sum of leptons(l and vl)
 -1  = ptllmax  ! Maximum pt for 4-momenta sum of leptons(l and vl)
#*********************************************************************
# Inclusive cuts                                                     *
#*********************************************************************
 0  = xptj ! minimum pt for at least one jet  
 0  = xptb ! minimum pt for at least one b 
 0  = xpta ! minimum pt for at least one photon 
 0  = xptl ! minimum pt for at least one charged lepton 
#*********************************************************************
# Control the pt's of the jets sorted by pt                          *
#*********************************************************************
 0   = ptj1min ! minimum pt for the leading jet in pt
 0   = ptj2min ! minimum pt for the second jet in pt
 0   = ptj3min ! minimum pt for the third jet in pt
 0   = ptj4min ! minimum pt for the fourth jet in pt
 -1  = ptj1max ! maximum pt for the leading jet in pt 
 -1  = ptj2max ! maximum pt for the second jet in pt
 -1  = ptj3max ! maximum pt for the third jet in pt
 -1  = ptj4max ! maximum pt for the fourth jet in pt
 0   = cutuse  ! reject event if fails any (0) / all (1) jet pt cuts
#*********************************************************************
# Control the pt's of leptons sorted by pt                           *
#*********************************************************************
 0   = ptl1min ! minimum pt for the leading lepton in pt
 0   = ptl2min ! minimum pt for the second lepton in pt
 0   = ptl3min ! minimum pt for the third lepton in pt
 0   = ptl4min ! minimum pt for the fourth lepton in pt
 -1  = ptl1max ! maximum pt for the leading lepton in pt 
 -1  = ptl2max ! maximum pt for the second lepton in pt
 -1  = ptl3max ! maximum pt for the third lepton in pt
 -1  = ptl4max ! maximum pt for the fourth lepton in pt
#*********************************************************************
# Control the Ht(k)=Sum of k leading jets                            *
#*********************************************************************
 0   = htjmin ! minimum jet HT=Sum(jet pt)
 -1  = htjmax ! maximum jet HT=Sum(jet pt)
 0   = ihtmin  !inclusive Ht for all partons (including b)
 -1  = ihtmax  !inclusive Ht for all partons (including b)
 0   = ht2min ! minimum Ht for the two leading jets
 0   = ht3min ! minimum Ht for the three leading jets
 0   = ht4min ! minimum Ht for the four leading jets
 -1  = ht2max ! maximum Ht for the two leading jets
 -1  = ht3max ! maximum Ht for the three leading jets
 -1  = ht4max ! maximum Ht for the four leading jets
#***********************************************************************
# Photon-isolation cuts, according to hep-ph/9801442                   *
# When ptgmin=0, all the other parameters are ignored                  *
# When ptgmin>0, pta and draj are not going to be used                 *
#***********************************************************************
   0 = ptgmin ! Min photon transverse momentum
 0.4 = R0gamma ! Radius of isolation code
 1.0 = xn ! n parameter of eq.(3.4) in hep-ph/9801442
 1.0 = epsgamma ! epsilon_gamma parameter of eq.(3.4) in hep-ph/9801442
 .true. = isoEM ! isolate photons from EM energy (photons and leptons)
#*********************************************************************
# WBF cuts                                                           *
#*********************************************************************
 0   = xetamin ! minimum rapidity for two jets in the WBF case  
 0   = deltaeta ! minimum rapidity for two jets in the WBF case 
#*********************************************************************
# KT DURHAM CUT                                                      *
#*********************************************************************
 -1    =  ktdurham        
 0.4  =  dparameter 
#*********************************************************************
# maximal pdg code for quark to be considered as a light jet         *
# (otherwise b cuts are applied)                                     *
#*********************************************************************
 4 = maxjetflavor    ! Maximum jet pdg code
#*********************************************************************
# Jet measure cuts                                                   *
#*********************************************************************
 0   = xqcut   ! minimum kt jet measure between partons
#*********************************************************************
#
#*********************************************************************
# Store info for systematics studies                                 *
# WARNING: If use_syst is T, matched Pythia output is                *
#          meaningful ONLY if plotted taking matchscale              *
#          reweighting into account!                                 *
#*********************************************************************
   F  = use_syst      ! Enable systematics studies
#
#**************************************
# Parameter of the systematics study
#  will be used by SysCalc (if installed)
#**************************************                                  
#
0.5 1 2 = sys_scalefact  # factorization/renormalization scale factor
0.5 1 2 = sys_alpsfact  # \alpha_s emission scale factors
30 50 = sys_matchscale # variation of merging scale
# PDF sets and number of members (0 or none for all members).
CT10nlo.LHgrid = sys_pdf # matching scales
# MSTW2008nlo68cl.LHgrid 1  = sys_pdf
</MGRunCard>
<slha>
######################################################################
## PARAM_CARD AUTOMATICALY GENERATED BY MG5 FOLLOWING UFO MODEL   ####
######################################################################
##                                                                  ##
##  Width set on Auto will be computed following the information    ##
##        present in the decay.py files of the model.               ##
##        See  arXiv:1402.1178 for more details.                    ##
##                                                                  ##
######################################################################

###################################
## INFORMATION FOR CKMBLOCK
###################################
Block ckmblock 
    1 2.277360e-01 # cabi 

###################################
## INFORMATION FOR FRBLOCK
###################################
Block frblock 
    1 1.200000e+00 # gz 

###################################
## INFORMATION FOR MASS
###################################
Block mass 
    1 5.040000e-03 # MD 
    2 2.550000e-03 # MU 
    3 1.010000e-01 # MS 
    4 1.270000e+00 # MC 
    5 4.700000e+00 # MB 
    6 1.720000e+02 # MT 
   11 5.110000e-04 # Me 
   13 1.056600e-01 # MM 
   15 1.777000e+00 # MTA 
   23 9.118760e+01 # MZ 
   25 1.200000e+02 # MH 
  10030 9.000000e+02 # MZph 
  10031 3.000000e+02 # MZpl 
## Dependent parameters, given by model restrictions.
## Those values should be edited following the 
## analytical expression. MG5 ignores those values 
## but they are important for interfacing the output of MG5
## to external program such as Pythia.
  12 0.000000 # ve : 0.0 
  14 0.000000 # vm : 0.0 
  16 0.000000 # vt : 0.0 
  21 0.000000 # g : 0.0 
  22 0.000000 # a : 0.0 
  24 79.824360 # w+ : cmath.sqrt(MZ__exp__2/2. + cmath.sqrt(MZ__exp__4/4. - (aEW*cmath.pi*MZ__exp__2)/(Gf*sqrt__2))) 

###################################
## INFORMATION FOR SMINPUTS
###################################
Block sminputs 
    1 1.279000e+02 # aEWM1 
    2 1.166370e-05 # Gf 
    3 1.184000e-01 # aS 

###################################
## INFORMATION FOR YUKAWA
###################################
Block yukawa 
    1 5.040000e-03 # ymdo 
    2 2.550000e-03 # ymup 
    3 1.010000e-01 # yms 
    4 1.270000e+00 # ymc 
    5 4.700000e+00 # ymb 
    6 1.720000e+02 # ymt 
   11 5.110000e-04 # yme 
   13 1.056600e-01 # ymm 
   15 1.777000e+00 # ymtau 

###################################
## INFORMATION FOR DECAY
###################################
DECAY   6 1.508336e+00 # WT 
DECAY  23 2.495200e+00 # WZ 
DECAY  24 2.085000e+00 # WW 
DECAY  25 5.753088e-03 # WH 
## Dependent parameters, given by model restrictions.
## Those values should be edited following the 
## analytical expression. MG5 ignores those values 
## but they are important for interfacing the output of MG5
## to external program such as Pythia.
DECAY  1 0.000000 # d : 0.0 
DECAY  2 0.000000 # u : 0.0 
DECAY  3 0.000000 # s : 0.0 
DECAY  4 0.000000 # c : 0.0 
DECAY  5 0.000000 # b : 0.0 
DECAY  11 0.000000 # e- : 0.0 
DECAY  12 0.000000 # ve : 0.0 
DECAY  13 0.000000 # mu- : 0.0 
DECAY  14 0.000000 # vm : 0.0 
DECAY  15 0.000000 # ta- : 0.0 
DECAY  16 0.000000 # vt : 0.0 
DECAY  21 0.000000 # g : 0.0 
DECAY  22 0.000000 # a : 0.0 
DECAY  10030 0.308725 # zph : (gz__exp__2*MZph*(5 + cmath.sqrt(1 - (4*MT__exp__2)/MZph__exp__2)))/(144.*cmath.pi) 
DECAY  10031 0.132629 # zpl : (5*gz__exp__2*MZpl)/(144.*cmath.pi) 
#===========================================================
# QUANTUM NUMBERS OF NEW STATE(S) (NON SM PDG CODE)
#===========================================================

Block QNUMBERS 10030  # zph 
        1 0  # 3 times electric charge
        2 3  # number of spin states (2S+1)
        3 1  # colour rep (1: singlet, 3: triplet, 8: octet)
        4 0  # Particle/Antiparticle distinction (0=own anti)
Block QNUMBERS 10031  # zpl 
        1 0  # 3 times electric charge
        2 3  # number of spin states (2S+1)
        3 1  # colour rep (1: singlet, 3: triplet, 8: octet)
        4 0  # Particle/Antiparticle distinction (0=own anti)
</slha>
## END BANNER##
<MGGenerationInfo>
#  Number of Events        :         4087
#  Integrated weight (pb)  :  0.46161E+01
#  Max wgt                 :  0.15359E-02
#  Average wgt             :  0.11295E-02
</MGGenerationInfo>
</header>
<init>
     2212     2212  0.40000000000E+04  0.40000000000E+04 0 0  247000  247000 2   1
  0.46101597817E+01  0.95202331230E-02  0.15359060000E-02   0
</init>
<event>
 5   0  0.1483326E-02  0.8918804E+03  0.7818609E-02  0.9435789E-01
        2   -1    0    0  501    0  0.00000000000E+00  0.00000000000E+00  0.15833395744E+04  0.15833395744E+04  0.25500000920E-02 0. -1.
       -2   -1    0    0    0  501  0.00000000000E+00  0.00000000000E+00 -0.12559698483E+03  0.12559698485E+03  0.25500000920E-02 0.  1.
    10030    2    1    2    0    0  0.00000000000E+00  0.00000000000E+00  0.14577425895E+04  0.17089365592E+04  0.89188043262E+03 0.  0.
        1    1    3    3  502    0  0.43208586533E+03  0.52167522711E+02  0.54267329396E+03  0.69563923801E+03  0.50400001928E-02 0.  1.
       -1    1    3    3    0  502 -0.43208586533E+03 -0.52167522711E+02  0.91506929558E+03  0.10132973212E+04  0.50400001928E-02 0. -1.
</event>
<event>
 5   0  0.5770125E-03  0.9230504E+03  0.7818609E-02  0.9397217E-01
        3   -1    0    0  501    0  0.00000000000E+00  0.00000000000E+00  0.40524660191E+03  0.40524661449E+03  0.10100000352E+00 0.  1.
       -3   -1    0    0    0  501  0.00000000000E+00  0.00000000000E+00 -0.52561943520E+03  0.52561944490E+03  0.10100000352E+00 0. -1.
    10030    2    1    2    0    0  0.00000000000E+00  0.00000000000E+00 -0.12037283329E+03  0.93086605939E+03  0.92305037866E+03 0.  0.
        5    1    3    3  502    0  0.19254965262E+03 -0.26632092309E+03  0.26656507053E+03  0.42317990220E+03  0.46999998093E+01 0.  1.
       -5    1    3    3    0  502 -0.19254965262E+03  0.26632092309E+03 -0.38693790382E+03  0.50768615720E+03  0.46999998093E+01 0. -1.
</event>
<event>
 5   0  0.1483326E-02  0.9014040E+03  0.7818609E-02  0.9423828E-01
        2   -1    0    0  501    0  0.00000000000E+00  0.00000000000E+00  0.93653393470E+03  0.93653393470E+03  0.25500000920E-02 0. -1.
       -2   -1    0    0    0  501  0.00000000000E+00  0.00000000000E+00 -0.21689795043E+03  0.21689795045E+03  0.25500000920E-02 0.  1.
    10030    2    1    2    0    0  0.00000000000E+00  0.00000000000E+00  0.71963598427E+03  0.11534318851E+04  0.90140399590E+03 0.  0.
        1    1    3    3  502    0 -0.35674641070E+03  0.88658873495E+01  0.75557741807E+01  0.35693654233E+03  0.50400001928E-02 0.  1.
       -1    1    3    3    0  502  0.35674641070E+03 -0.88658873495E+01  0.71208021009E+03  0.79649534282E+03  0.50400001928E-02 0. -1.
</event>
<event>
 5   0  0.1440615E-02  0.9218881E+03  0.7818609E-02  0.9398626E-01
       -2   -1    0    0    0  501  0.00000000000E+00  0.00000000000E+00  0.16923488958E+03  0.16923488960E+03  0.25500000920E-02 0.  1.
        2   -1    0    0  501    0  0.00000000000E+00  0.00000000000E+00 -0.12554704126E+04  0.12554704126E+04  0.25500000920E-02 0. -1.
    10030    2    1    2    0    0  0.00000000000E+00  0.00000000000E+00 -0.10862355230E+04  0.14247053022E+04  0.92188805537E+03 0.  0.
        3    1    3    3  502    0  0.17985064663E+03 -0.40249906170E+03 -0.33510133761E+03  0.55375505996E+03  0.10100000352E+00 0.  1.
       -3    1    3    3    0  502 -0.17985064663E+03  0.40249906170E+03 -0.75113418538E+03  0.87095024221E+03  0.10100000352E+00 0. -1.
</event>
<event>
 5   0  0.1483326E-02  0.8989056E+03  0.7818609E-02  0.9426950E-01
       -2   -1    0    0    0  501  0.00000000000E+00  0.00000000000E+00  0.28823992836E+03  0.28823992838E+03  0.25500000920E-02 0. -1.
        2   -1    0    0  501    0  0.00000000000E+00  0.00000000000E+00 -0.70083222715E+03  0.70083222716E+03  0.25500000920E-02 0.  1.
    10030    2    1    2    0    0  0.00000000000E+00  0.00000000000E+00 -0.41259229879E+03  0.98907215553E+03  0.89890562565E+03 0.  0.
        1    1    3    3  502    0 -0.57424327230E+02 -0.33328012965E+03  0.11942935319E+03  0.35865940473E+03  0.50400001928E-02 0. -1.
       -1    1    3    3    0  502  0.57424327230E+02  0.33328012965E+03 -0.53202165198E+03  0.63041275080E+03  0.50400001928E-02 0.  1.
</event>
<event>
 5   0  0.1440615E-02  0.9453749E+03  0.7818609E-02  0.9370573E-01
       -2   -1    0    0    0  501  0.00000000000E+00  0.00000000000E+00  0.49685553867E+03  0.49685553867E+03  0.25500000920E-02 0. -1.
        2   -1    0    0  501    0  0.00000000000E+00  0.00000000000E+00 -0.44969493053E+03  0.44969493054E+03  0.25500000920E-02 0.  1.
    10030    2    1    2    0    0  0.00000000000E+00  0.00000000000E+00  0.47160608138E+02  0.94655046921E+03  0.94537488215E+03 0.  0.
        3    1    3    3  502    0 -0.22084432599E+03 -0.32231766689E+03  0.28994215329E+03  0.48654635665E+03  0.10100000352E+00 0. -1.
       -3    1    3    3    0  502  0.22084432599E+03  0.32231766689E+03 -0.24278154515E+03  0.46000411257E+03  0.10100000352E+00 0.  1.
</event>
<event>
 5   0  0.8291252E-03  0.8214803E+03  0.7818609E-02  0.9529435E-01
       -1   -1    0    0    0  501  0.00000000000E+00  0.00000000000E+00  0.56655179453E+03  0.56655179455E+03  0.50400001928E-02 0.  1.
        1   -1    0    0  501    0  0.00000000000E+00  0.00000000000E+00 -0.29777940570E+03  0.29777940574E+03  0.50400001928E-02 0. -1.
    10030    2    1    2    0    0  0.00000000000E+00  0.00000000000E+00  0.26877238883E+03  0.86433120029E+03  0.82148026562E+03 0.  0.
        1    1    3    3  502    0  0.37682341470E+03  0.10875117850E+03  0.60190569347E+01  0.39224856120E+03  0.50400001928E-02 0. -1.
       -1    1    3    3    0  502 -0.37682341470E+03 -0.10875117850E+03  0.26275333189E+03  0.47208263910E+03  0.50400001928E-02 0.  1.
</event>
<event>
 5   0  0.8738044E-03  0.9344413E+03  0.7818609E-02  0.9383523E-01
       -1   -1    0    0    0  501  0.00000000000E+00  0.00000000000E+00  0.10559345206E+03  0.10559345218E+03  0.50400001928E-02 0.  1.
        1   -1    0    0  501    0  0.00000000000E+00  0.00000000000E+00 -0.20673170256E+04  0.20673170256E+04  0.50400001928E-02 0. -1.
    10030    2    1    2    0    0  0.00000000000E+00  0.00000000000E+00 -0.19617235735E+04  0.21729104777E+04  0.93444131195E+03 0.  0.
        3    1    3    3  502    0  0.43582023521E+03 -0.90705655226E+02 -0.13107704806E+04  0.13842998434E+04  0.10100000352E+00 0. -1.
       -3    1    3    3    0  502 -0.43582023521E+03  0.90705655226E+02 -0.65095309286E+03  0.78861063435E+03  0.10100000352E+00 0.  1.
</event>
<event>
 5   0  0.1483326E-02  0.8956124E+03  0.7818609E-02  0.9431083E-01
       -2   -1    0    0    0  501  0.00000000000E+00  0.00000000000E+00  0.32211780669E+03  0.32211780670E+03  0.25500000920E-02 0. -1.
        2   -1    0    0  501    0  0.00000000000E+00  0.00000000000E+00 -0.62253745087E+03  0.62253745088E+03  0.25500000920E-02 0.  1.
    10030    2    1    2    0    0  0.00000000000E+00  0.00000000000E+00 -0.30041964418E+03  0.94465525758E+03  0.89561241229E+03 0.  0.
        1    1    3    3  502    0  0.38236655715E+03  0.22318140596E+03 -0.22109303513E+03  0.49486993665E+03  0.50400001928E-02 0.  1.
       -1    1    3    3    0  502 -0.38236655715E+03 -0.22318140596E+03 -0.79326609051E+02  0.44978532093E+03  0.50400001928E-02 0. -1.
</event>
<event>
 5   0  0.5770125E-03  0.8986273E+03  0.7818609E-02  0.9427299E-01
       -4   -1    0    0    0  501  0.00000000000E+00  0.00000000000E+00  0.40467558146E+03  0.40467757429E+03  0.12699999809E+01 0.  1.
        4   -1    0    0  501    0  0.00000000000E+00  0.00000000000E+00 -0.49887153924E+03  0.49887315578E+03  0.12699999809E+01 0. -1.
    10030    2    1    2    0    0  0.00000000000E+00  0.00000000000E+00 -0.94195957772E+02  0.90355073007E+03  0.89862731060E+03 0.  0.
        5    1    3    3  502    0  0.14493792858E+03  0.29958163727E+03 -0.35058691757E+03  0.48341435364E+03  0.46999998093E+01 0. -1.
       -5    1    3    3    0  502 -0.14493792858E+03 -0.29958163727E+03  0.25639095980E+03  0.42013637643E+03  0.46999998093E+01 0.  1.
</event>
<event>
 5   0  0.1483326E-02  0.8970748E+03  0.7818609E-02  0.9429245E-01
       -2   -1    0    0    0  501  0.00000000000E+00  0.00000000000E+00  0.23848194042E+03  0.23848194043E+03  0.25500000920E-02 0. -1.
        2   -1    0    0  501    0  0.00000000000E+00  0.00000000000E+00 -0.84361019593E+03  0.84361019593E+03  0.25500000920E-02 0.  1.
    10030    2    1    2    0    0  0.00000000000E+00  0.00000000000E+00 -0.60512825551E+03  0.10820921364E+04  0.89707479396E+03 0.  0.
        1    1    3    3  502    0  0.26062460443E+03  0.34539169977E+03 -0.44511141123E+03  0.62076145107E+03  0.50400001928E-02 0.  1.
       -1    1    3    3    0  502 -0.26062460443E+03 -0.34539169977E+03 -0.16001684429E+03  0.46133068529E+03  0.50400001928E-02 0. -1.
</event>
<event>
 5   0  0.5770125E-03  0.8522873E+03  0.7818609E-02  0.9487272E-01
       -4   -1    0    0    0  501  0.00000000000E+00  0.00000000000E+00  0.27287638076E+03  0.27287933611E+03  0.12699999809E+01 0.  1.
        4   -1    0    0  501    0  0.00000000000E+00  0.00000000000E+00 -0.66548975713E+03  0.66549096894E+03  0.12699999809E+01 0. -1.
    10030    2    1    2    0    0  0.00000000000E+00  0.00000000000E+00 -0.39261337637E+03  0.93837030505E+03  0.85228725562E+03 0.  0.
        2    1    3    3  502    0  0.30194378154E+03  0.25813837497E+03 -0.36613581132E+03  0.54024152023E+03  0.25500000920E-02 0. -1.
       -2    1    3    3    0  502 -0.30194378154E+03 -0.25813837497E+03 -0.26477565054E+02  0.39812878482E+03  0.25500000920E-02 0.  1.
</event>
<event>
 5   0  0.1441195E-02  0.9235889E+03  0.7818609E-02  0.9396565E-01
        2   -1    0    0  501    0  0.00000000000E+00  0.00000000000E+00  0.37092744446E+03  0.37092744447E+03  0.25500000920E-02 0.  1.
       -2   -1    0    0    0  501  0.00000000000E+00  0.00000000000E+00 -0.57492141204E+03  0.57492141204E+03  0.25500000920E-02 0. -1.
    10030    2    1    2    0    0  0.00000000000E+00  0.00000000000E+00 -0.20399396758E+03  0.94584885651E+03  0.92358893484E+03 0.  0.
        5    1    3    3  502    0 -0.26188881783E+03  0.35107999263E+03 -0.25177205734E+03  0.50522685299E+03  0.46999998093E+01 0.  1.
       -5    1    3    3    0  502  0.26188881783E+03 -0.35107999263E+03  0.47778089758E+02  0.44062200352E+03  0.46999998093E+01 0. -1.
</event>
<event>
 5   0  0.8524692E-03  0.8933276E+03  0.7818609E-02  0.9433961E-01
       -1   -1    0    0    0  501  0.00000000000E+00  0.00000000000E+00  0.21539988076E+03  0.21539988082E+03  0.50400001928E-02 0. -1.
        1   -1    0    0  501    0  0.00000000000E+00  0.00000000000E+00 -0.92622404077E+03  0.92622404078E+03  0.50400001928E-02 0.  1.
    10030    2    1    2    0    0  0.00000000000E+00  0.00000000000E+00 -0.71082416001E+03  0.11416239216E+04  0.89332759497E+03 0.  0.
        5    1    3    3  502    0 -0.18018316701E+03  0.11128386627E+03 -0.85794921055E+03  0.88371319468E+03  0.46999998093E+01 0.  1.
       -5    1    3    3    0  502  0.18018316701E+03 -0.11128386627E+03  0.14712505055E+03  0.25791072693E+03  0.46999998093E+01 0. -1.
</event>
<event>
 5   0  0.5770125E-03  0.8917840E+03  0.7818609E-02  0.9435910E-01
        3   -1    0    0  501    0  0.00000000000E+00  0.00000000000E+00  0.83437517837E+03  0.83437518448E+03  0.10100000352E+00 0.  1.
       -3   -1    0    0    0  501  0.00000000000E+00  0.00000000000E+00 -0.23828570462E+03  0.23828572603E+03  0.10100000352E+00 0. -1.
    10030    2    1    2    0    0  0.00000000000E+00  0.00000000000E+00  0.59608947375E+03  0.10726609105E+04  0.89178403676E+03 0.  0.
        4    1    3    3  502    0 -0.36173279390E+03  0.13225281198E+03  0.56828375856E+03  0.68650525387E+03  0.12699999809E+01 0.  1.
       -4    1    3    3    0  502  0.36173279390E+03 -0.13225281198E+03  0.27805715186E+02  0.38615565664E+03  0.12699999809E+01 0. -1.
</event>
<event>
 5   0  0.8291252E-03  0.8219741E+03  0.7818609E-02  0.9528744E-01
        1   -1    0    0  501    0  0.00000000000E+00  0.00000000000E+00  0.65723319628E+03  0.65723319630E+03  0.50400001928E-02 0. -1.
       -1   -1    0    0    0  501  0.00000000000E+00  0.00000000000E+00 -0.25700218490E+03  0.25700218495E+03  0.50400001928E-02 0.  1.
    10030    2    1    2    0    0  0.00000000000E+00  0.00000000000E+00  0.40023101138E+03  0.91423538125E+03  0.82197412968E+03 0.  0.
        1    1    3    3  502    0  0.32863152238E+03 -0.36761097971E-02  0.47462046813E+03  0.57728958618E+03  0.50400001928E-02 0. -1.
       -1    1    3    3    0  502 -0.32863152238E+03  0.36761097971E-02 -0.74389456749E+02  0.33694579507E+03  0.50400001928E-02 0.  1.
</event>
<event>
 5   0  0.8738044E-03  0.8949456E+03  0.7818609E-02  0.9431922E-01
       -1   -1    0    0    0  501  0.00000000000E+00  0.00000000000E+00  0.17165399016E+03  0.17165399023E+03  0.50400001928E-02 0.  1.
        1   -1    0    0  501    0  0.00000000000E+00  0.00000000000E+00 -0.11664856540E+04  0.11664856540E+04  0.50400001928E-02 0. -1.
    10030    2    1    2    0    0  0.00000000000E+00  0.00000000000E+00 -0.99483166380E+03  0.13381396442E+04  0.89494562298E+03 0.  0.
        3    1    3    3  502    0  0.17989361680E+03  0.39116700968E+03 -0.67967660526E+03  0.80457046973E+03  0.10100000352E+00 0.  1.
       -3    1    3    3    0  502 -0.17989361680E+03 -0.39116700968E+03 -0.31515505854E+03  0.53356917447E+03  0.10100000352E+00 0. -1.
</event>
<event>
 5   0  0.8738044E-03  0.9025391E+03  0.7818609E-02  0.9422413E-01
        1   -1    0    0  501    0  0.00000000000E+00  0.00000000000E+00  0.60041703356E+03  0.60041703358E+03  0.50400001928E-02 0. -1.
       -1   -1    0    0    0  501  0.00000000000E+00  0.00000000000E+00 -0.33917129860E+03  0.33917129863E+03  0.50400001928E-02 0.  1.
    10030    2    1    2    0    0  0.00000000000E+00  0.00000000000E+00  0.26124573496E+03  0.93958833221E+03  0.90253914042E+03 0.  0.
        3    1    3    3  502    0 -0.32333503662E+03 -0.31420377495E+03  0.11047225170E+03  0.46419143324E+03  0.10100000352E+00 0.  1.
       -3    1    3    3    0  502  0.32333503662E+03  0.31420377495E+03  0.15077348326E+03  0.47539689897E+03  0.10100000352E+00 0. -1.
</event>
<event>
 5   0  0.1483326E-02  0.9057526E+03  0.7818609E-02  0.9418419E-01
        2   -1    0    0  501    0  0.00000000000E+00  0.00000000000E+00  0.21186135410E+04  0.21186135410E+04  0.25500000920E-02 0. -1.
       -2   -1    0    0    0  501  0.00000000000E+00  0.00000000000E+00 -0.96807144173E+02  0.96807144207E+02  0.25500000920E-02 0.  1.
    10030    2    1    2    0    0  0.00000000000E+00  0.00000000000E+00  0.20218063969E+04  0.22154206852E+04  0.90575256346E+03 0.  0.
        1    1    3    3  502    0  0.94206089605E+02  0.73269178156E+02  0.20794584976E+04  0.20828804101E+04  0.50400001928E-02 0. -1.
       -1    1    3    3    0  502 -0.94206089605E+02 -0.73269178156E+02 -0.57652100702E+02  0.13254027511E+03  0.50400001928E-02 0.  1.
</event>
<event>
 5   0  0.8612969E-03  0.8940345E+03  0.7818609E-02  0.9433069E-01
        1   -1    0    0  501    0  0.00000000000E+00  0.00000000000E+00  0.11912656724E+04  0.11912656724E+04  0.50400001928E-02 0. -1.
       -1   -1    0    0    0  501  0.00000000000E+00  0.00000000000E+00 -0.16774126300E+03  0.16774126308E+03  0.50400001928E-02 0.  1.
    10030    2    1    2    0    0  0.00000000000E+00  0.00000000000E+00  0.10235244094E+04  0.13590069355E+04  0.89403447031E+03 0.  0.
        4    1    3    3  502    0  0.30053133863E+03  0.11019105163E+03  0.98607119307E+03  0.10367252114E+04  0.12699999809E+01 0. -1.
       -4    1    3    3    0  502 -0.30053133863E+03 -0.11019105163E+03  0.37453216371E+02  0.32228172408E+03  0.12699999809E+01 0.  1.
</event>
<event>
 5   0  0.8291252E-03  0.8894464E+03  0.7818609E-02  0.9438871E-01
        1   -1    0    0  501    0  0.00000000000E+00  0.00000000000E+00  0.89339862530E+03  0.89339862532E+03  0.50400001928E-02 0. -1.
       -1   -1    0    0    0  501  0.00000000000E+00  0.00000000000E+00 -0.22137790100E+03  0.22137790106E+03  0.50400001928E-02 0.  1.
    10030    2    1    2    0    0  0.00000000000E+00  0.00000000000E+00  0.67202072430E+03  0.11147765264E+04  0.88944637268E+03 0.  0.
        1    1    3    3  502    0  0.15664613846E+03 -0.41065195054E+03  0.42106827149E+03  0.60866372198E+03  0.50400001928E-02 0. -1.
       -1    1    3    3    0  502 -0.15664613846E+03  0.41065195054E+03  0.25095245281E+03  0.50611280439E+03  0.50400001928E-02 0.  1.
</event>
<event>
 5   0  0.1535906E-02  0.9292711E+03  0.7818609E-02  0.9389713E-01
       -2   -1    0    0    0  501  0.00000000000E+00  0.00000000000E+00  0.13062944440E+03  0.13062944443E+03  0.25500000920E-02 0.  1.
        2   -1    0    0  501    0  0.00000000000E+00  0.00000000000E+00 -0.16526611430E+04  0.16526611430E+04  0.25500000920E-02 0. -1.
    10030    2    1    2    0    0  0.00000000000E+00  0.00000000000E+00 -0.15220316986E+04  0.17832905874E+04  0.92927112711E+03 0.  0.
        2    1    3    3  502    0  0.24190705901E+03  0.48380332345E+02 -0.15165997225E+04  0.15365332407E+04  0.25500000920E-02 0. -1.
       -2    1    3    3    0  502 -0.24190705901E+03 -0.48380332345E+02 -0.54319761059E+01  0.24675734665E+03  0.25500000920E-02 0.  1.
</event>
<event>
 5   0  0.8738044E-03  0.8991289E+03  0.7818609E-02  0.9426671E-01
        1   -1    0    0  501    0  0.00000000000E+00  0.00000000000E+00  0.22226253385E+03  0.22226253391E+03  0.50400001928E-02 0. -1.
       -1   -1    0    0    0  501  0.00000000000E+00  0.00000000000E+00 -0.90932188577E+03  0.90932188578E+03  0.50400001928E-02 0.  1.
    10030    2    1    2    0    0  0.00000000000E+00  0.00000000000E+00 -0.68705935191E+03  0.11315844197E+04  0.89912888166E+03 0.  0.
        3    1    3    3  502    0  0.35988937374E+01 -0.42986422936E+03 -0.17793810051E+03  0.46525066957E+03  0.10100000352E+00 0.  1.
       -3    1    3    3    0  502 -0.35988937374E+01  0.42986422936E+03 -0.50912125140E+03  0.66633375012E+03  0.10100000352E+00 0. -1.
</event>
<event>
 5   0  0.5770125E-03  0.9341982E+03  0.7818609E-02  0.9383814E-01
       -3   -1    0    0    0  501  0.00000000000E+00  0.00000000000E+00  0.45880109909E+03  0.45880111020E+03  0.10100000352E+00 0.  1.
        3   -1    0    0  501    0  0.00000000000E+00  0.00000000000E+00 -0.47554713472E+03  0.47554714544E+03  0.10100000352E+00 0. -1.
    10030    2    1    2    0    0  0.00000000000E+00  0.00000000000E+00 -0.16746035629E+02  0.93434825565E+03  0.93419817658E+03 0.  0.
        4    1    3    3  502    0 -0.63844974964E+02  0.43388590277E+03 -0.16916820796E+03  0.47005601043E+03  0.12699999809E+01 0. -1.
       -4    1    3    3    0  502  0.63844974964E+02 -0.43388590277E+03  0.15242217233E+03  0.46429224522E+03  0.12699999809E+01 0.  1.
</event>
<event>
 5   0  0.1440615E-02  0.8989330E+03  0.7818609E-02  0.9426916E-01
       -2   -1    0    0    0  501  0.00000000000E+00  0.00000000000E+00  0.61495611528E+03  0.61495611528E+03  0.25500000920E-02 0. -1.
        2   -1    0    0  501    0  0.00000000000E+00  0.00000000000E+00 -0.32851144945E+03  0.32851144946E+03  0.25500000920E-02 0.  1.
    10030    2    1    2    0    0  0.00000000000E+00  0.00000000000E+00  0.28644466582E+03  0.94346756474E+03  0.89893297812E+03 0.  0.
        3    1    3    3  502    0  0.29840550389E+03 -0.31577734036E+03  0.26407439983E+03  0.50842548351E+03  0.10100000352E+00 0. -1.
       -3    1    3    3    0  502 -0.29840550389E+03  0.31577734036E+03  0.22370265991E+02  0.43504208123E+03  0.10100000352E+00 0.  1.
</event>
<event>
 5   0  0.8291252E-03  0.8847028E+03  0.7818609E-02  0.9444908E-01
        1   -1    0    0  501    0  0.00000000000E+00  0.00000000000E+00  0.53199772610E+03  0.53199772613E+03  0.50400001928E-02 0.  1.
       -1   -1    0    0    0  501  0.00000000000E+00  0.00000000000E+00 -0.36781125047E+03  0.36781125050E+03  0.50400001928E-02 0. -1.
    10030    2    1    2    0    0  0.00000000000E+00  0.00000000000E+00  0.16418647563E+03  0.89980897663E+03  0.88470277248E+03 0.  0.
        1    1    3    3  502    0  0.37008592647E+03 -0.17531747605E+03  0.25220623776E+03  0.48094469201E+03  0.50400001928E-02 0.  1.
       -1    1    3    3    0  502 -0.37008592647E+03  0.17531747605E+03 -0.88019762128E+02  0.41886428462E+03  0.50400001928E-02 0. -1.
</event>
<event>
 5   0  0.1535906E-02  0.8926229E+03  0.7818609E-02  0.9434850E-01
        2   -1    0    0  501    0  0.00000000000E+00  0.00000000000E+00  0.13601643120E+04  0.13601643120E+04  0.25500000920E-02 0.  1.
       -2   -1    0    0    0  501  0.00000000000E+00  0.00000000000E+00 -0.14644840645E+03  0.14644840647E+03  0.25500000920E-02 0. -1.
    10030    2    1    2    0    0  0.00000000000E+00  0.00000000000E+00  0.12137159056E+04  0.15066127185E+04  0.89262286780E+03 0.  0.
        2    1    3    3  502    0 -0.18894075910E+03  0.18090284549E+03 -0.35030286710E+01  0.26160413064E+03  0.25500000920E-02 0. -1.
       -2    1    3    3    0  502  0.18894075910E+03 -0.18090284549E+03  0.12172189343E+04  0.12450085879E+04  0.25500000920E-02 0.  1.
</event>
<event>
 5   0  0.8885324E-03  0.9117664E+03  0.7818609E-02  0.9410991E-01
        1   -1    0    0  501    0  0.00000000000E+00  0.00000000000E+00  0.94700233962E+03  0.94700233963E+03  0.50400001928E-02 0. -1.
       -1   -1    0    0    0  501  0.00000000000E+00  0.00000000000E+00 -0.21946035852E+03  0.21946035857E+03  0.50400001928E-02 0.  1.
    10030    2    1    2    0    0  0.00000000000E+00  0.00000000000E+00  0.72754198110E+03  0.11664626982E+04  0.91176635825E+03 0.  0.
        2    1    3    3  502    0  0.25119442303E+03 -0.66612738751E+02 -0.11541728879E+03  0.28435373338E+03  0.25500000920E-02 0.  1.
       -2    1    3    3    0  502 -0.25119442303E+03  0.66612738751E+02  0.84295926990E+03  0.88210896483E+03  0.25500000920E-02 0. -1.
</event>
<event>
 5   0  0.1440615E-02  0.9104082E+03  0.7818609E-02  0.9412663E-01
       -2   -1    0    0    0  501  0.00000000000E+00  0.00000000000E+00  0.22895629405E+03  0.22895629407E+03  0.25500000920E-02 0. -1.
        2   -1    0    0  501    0  0.00000000000E+00  0.00000000000E+00 -0.90502328161E+03  0.90502328161E+03  0.25500000920E-02 0.  1.
    10030    2    1    2    0    0  0.00000000000E+00  0.00000000000E+00 -0.67606698755E+03  0.11339795757E+04  0.91040820866E+03 0.  0.
        3    1    3    3  502    0 -0.33272013544E+03 -0.29443209405E+03 -0.46145095181E+03  0.64057000997E+03  0.10100000352E+00 0.  1.
       -3    1    3    3    0  502  0.33272013544E+03  0.29443209405E+03 -0.21461603574E+03  0.49340956571E+03  0.10100000352E+00 0. -1.
</event>
<event>
 5   0  0.1441195E-02  0.9020709E+03  0.7818609E-02  0.9422996E-01
       -2   -1    0    0    0  501  0.00000000000E+00  0.00000000000E+00  0.18970423356E+03  0.18970423358E+03  0.25500000920E-02 0. -1.
        2   -1    0    0  501    0  0.00000000000E+00  0.00000000000E+00 -0.10723693006E+04  0.10723693006E+04  0.25500000920E-02 0.  1.
    10030    2    1    2    0    0  0.00000000000E+00  0.00000000000E+00 -0.88266506700E+03  0.12620735341E+04  0.90207094239E+03 0.  0.
        5    1    3    3  502    0  0.26729379348E+03  0.13397200376E+03 -0.91375190520E+03  0.96143595943E+03  0.46999998093E+01 0.  1.
       -5    1    3    3    0  502 -0.26729379348E+03 -0.13397200376E+03  0.31086838201E+02  0.30063757472E+03  0.46999998093E+01 0. -1.
</event>
<event>
 5   0  0.8885324E-03  0.8940765E+03  0.7818609E-02  0.9433017E-01
       -1   -1    0    0    0  501  0.00000000000E+00  0.00000000000E+00  0.60111606011E+03  0.60111606013E+03  0.50400001928E-02 0. -1.
        1   -1    0    0  501    0  0.00000000000E+00  0.00000000000E+00 -0.33245360842E+03  0.33245360846E+03  0.50400001928E-02 0.  1.
    10030    2    1    2    0    0  0.00000000000E+00  0.00000000000E+00  0.26866245169E+03  0.93356966860E+03  0.89407651416E+03 0.  0.
        2    1    3    3  502    0  0.13093592046E+03  0.13686659897E+02  0.58041595665E+03  0.59515898941E+03  0.25500000920E-02 0. -1.
       -2    1    3    3    0  502 -0.13093592046E+03 -0.13686659897E+02 -0.31175350497E+03  0.33841067919E+03  0.25500000920E-02 0.  1.
</event>
<event>
 5   0  0.1440615E-02  0.8765387E+03  0.7818609E-02  0.9455394E-01
        2   -1    0    0  501    0  0.00000000000E+00  0.00000000000E+00  0.64348756866E+03  0.64348756867E+03  0.25500000920E-02 0.  1.
       -2   -1    0    0    0  501  0.00000000000E+00  0.00000000000E+00 -0.29849842621E+03  0.29849842622E+03  0.25500000920E-02 0. -1.
    10030    2    1    2    0    0  0.00000000000E+00  0.00000000000E+00  0.34498914245E+03  0.94198599489E+03  0.87653870773E+03 0.  0.
        3    1    3    3  502    0 -0.42549663961E+03 -0.43835647383E+02  0.69915715900E+02  0.43342493218E+03  0.10100000352E+00 0.  1.
       -3    1    3    3    0  502  0.42549663961E+03  0.43835647383E+02  0.27507342655E+03  0.50856106271E+03  0.10100000352E+00 0. -1.
</event>
<event>
 5   0  0.1483326E-02  0.8992588E+03  0.7818609E-02  0.9426508E-01
       -2   -1    0    0    0  501  0.00000000000E+00  0.00000000000E+00  0.17454245973E+03  0.17454245975E+03  0.25500000920E-02 0. -1.
        2   -1    0    0  501    0  0.00000000000E+00  0.00000000000E+00 -0.11582660430E+04  0.11582660430E+04  0.25500000920E-02 0.  1.
    10030    2    1    2    0    0  0.00000000000E+00  0.00000000000E+00 -0.98372358325E+03  0.13328085027E+04  0.89925881520E+03 0.  0.
        1    1    3    3  502    0  0.34800956918E+03 -0.28116795429E+03 -0.55815287018E+03  0.71533258368E+03  0.50400001928E-02 0.  1.
       -1    1    3    3    0  502 -0.34800956918E+03  0.28116795429E+03 -0.42557071307E+03  0.61747591905E+03  0.50400001928E-02 0. -1.
</event>
<event>
 5   0  0.8738044E-03  0.8883257E+03  0.7818609E-02  0.9440294E-01
       -1   -1    0    0    0  501  0.00000000000E+00  0.00000000000E+00  0.12773646998E+04  0.12773646998E+04  0.50400001928E-02 0. -1.
        1   -1    0    0  501    0  0.00000000000E+00  0.00000000000E+00 -0.15444347172E+03  0.15444347181E+03  0.50400001928E-02 0.  1.
    10030    2    1    2    0    0  0.00000000000E+00  0.00000000000E+00  0.11229212281E+04  0.14318081716E+04  0.88832570370E+03 0.  0.
        3    1    3    3  502    0  0.33900092504E+02 -0.31485411562E+03  0.10634501518E+04  0.11095983805E+04  0.10100000352E+00 0. -1.
       -3    1    3    3    0  502 -0.33900092504E+02  0.31485411562E+03  0.59471076280E+02  0.32220979114E+03  0.10100000352E+00 0.  1.
</event>
<event>
 5   0  0.1440615E-02  0.8965701E+03  0.7818609E-02  0.9429879E-01
       -2   -1    0    0    0  501  0.00000000000E+00  0.00000000000E+00  0.19670593941E+03  0.19670593943E+03  0.25500000920E-02 0. -1.
        2   -1    0    0  501    0  0.00000000000E+00  0.00000000000E+00 -0.10216239909E+04  0.10216239909E+04  0.25500000920E-02 0.  1.
    10030    2    1    2    0    0  0.00000000000E+00  0.00000000000E+00 -0.82491805150E+03  0.12183299303E+04  0.89657014643E+03 0.  0.
        3    1    3    3  502    0 -0.25942084872E+03  0.13129607967E+03  0.51198733691E+02  0.29522729857E+03  0.10100000352E+00 0. -1.
       -3    1    3    3    0  502  0.25942084872E+03 -0.13129607967E+03 -0.87611678519E+03  0.92310263177E+03  0.10100000352E+00 0.  1.
</event>
<event>
 5   0  0.8612969E-03  0.9049777E+03  0.7818609E-02  0.9419380E-01
       -1   -1    0    0    0  501  0.00000000000E+00  0.00000000000E+00  0.98571705248E+03  0.98571705250E+03  0.50400001928E-02 0. -1.
        1   -1    0    0  501    0  0.00000000000E+00  0.00000000000E+00 -0.20771289079E+03  0.20771289085E+03  0.50400001928E-02 0.  1.
    10030    2    1    2    0    0  0.00000000000E+00  0.00000000000E+00  0.77800416170E+03  0.11934299433E+04  0.90497765390E+03 0.  0.
        4    1    3    3  502    0  0.93309689636E+02 -0.27922464381E+03  0.84214111884E+03  0.89211903737E+03  0.12699999809E+01 0. -1.
       -4    1    3    3    0  502 -0.93309689636E+02  0.27922464381E+03 -0.64136957148E+02  0.30131090598E+03  0.12699999809E+01 0.  1.
</event>
<event>
 5   0  0.8291252E-03  0.6881618E+03  0.7818609E-02  0.9737694E-01
        1   -1    0    0  501    0  0.00000000000E+00  0.00000000000E+00  0.11545422523E+04  0.11545422523E+04  0.50400001928E-02 0.  1.
       -1   -1    0    0    0  501  0.00000000000E+00  0.00000000000E+00 -0.10254423508E+03  0.10254423520E+03  0.50400001928E-02 0. -1.
    10030    2    1    2    0    0  0.00000000000E+00  0.00000000000E+00  0.10519980172E+04  0.12570864875E+04  0.68816176068E+03 0.  0.
        1    1    3    3  502    0 -0.83306207294E+02  0.12541462780E+03 -0.39175471627E+02  0.15557464653E+03  0.50400001928E-02 0. -1.
       -1    1    3    3    0  502  0.83306207294E+02 -0.12541462780E+03  0.10911734889E+04  0.11015118410E+04  0.50400001928E-02 0.  1.
</event>
<event>
 5   0  0.8738044E-03  0.9016141E+03  0.7818609E-02  0.9423566E-01
        1   -1    0    0  501    0  0.00000000000E+00  0.00000000000E+00  0.23071266168E+03  0.23071266173E+03  0.50400001928E-02 0.  1.
       -1   -1    0    0    0  501  0.00000000000E+00  0.00000000000E+00 -0.88086632520E+03  0.88086632522E+03  0.50400001928E-02 0. -1.
    10030    2    1    2    0    0  0.00000000000E+00  0.00000000000E+00 -0.65015366352E+03  0.11115789870E+04  0.90161414033E+03 0.  0.
        3    1    3    3  502    0  0.11183822372E+03  0.32338680455E+03  0.36768128715E+02  0.34414926868E+03  0.10100000352E+00 0.  1.
       -3    1    3    3    0  502 -0.11183822372E+03 -0.32338680455E+03 -0.68692179224E+03  0.76742971828E+03  0.10100000352E+00 0. -1.
</event>
<event>
 5   0  0.1454652E-02  0.9109739E+03  0.7818609E-02  0.9411967E-01
        2   -1    0    0  501    0  0.00000000000E+00  0.00000000000E+00  0.12501119469E+04  0.12501119469E+04  0.25500000920E-02 0. -1.
       -2   -1    0    0    0  501  0.00000000000E+00  0.00000000000E+00 -0.16595983340E+03  0.16595983342E+03  0.25500000920E-02 0.  1.
    10030    2    1    2    0    0  0.00000000000E+00  0.00000000000E+00  0.10841521135E+04  0.14160717803E+04  0.91097391939E+03 0.  0.
        4    1    3    3  502    0  0.99604531470E+01 -0.88247292905E+02 -0.15236884301E+03  0.17636516820E+03  0.12699999809E+01 0.  1.
       -4    1    3    3    0  502 -0.99604531470E+01  0.88247292905E+02  0.12365209565E+04  0.12397066121E+04  0.12699999809E+01 0. -1.
</event>
<event>
 5   0  0.1454652E-02  0.8900955E+03  0.7818609E-02  0.9438048E-01
        2   -1    0    0  501    0  0.00000000000E+00  0.00000000000E+00  0.94886060357E+03  0.94886060358E+03  0.25500000920E-02 0. -1.
       -2   -1    0    0    0  501  0.00000000000E+00  0.00000000000E+00 -0.20874245547E+03  0.20874245549E+03  0.25500000920E-02 0.  1.
    10030    2    1    2    0    0  0.00000000000E+00  0.00000000000E+00  0.74011814810E+03  0.11576030591E+04  0.89009548320E+03 0.  0.
        4    1    3    3  502    0  0.88346573832E+01  0.37961209959E+03  0.67194777952E+03  0.77181528142E+03  0.12699999809E+01 0.  1.
       -4    1    3    3    0  502 -0.88346573832E+01 -0.37961209959E+03  0.68170368578E+02  0.38578777765E+03  0.12699999809E+01 0. -1.
</event>
<event>
 5   0  0.5770125E-03  0.9004190E+03  0.7818609E-02  0.9425058E-01
       -4   -1    0    0    0  501  0.00000000000E+00  0.00000000000E+00  0.35448867290E+03  0.35449094786E+03  0.12699999809E+01 0. -1.
        4   -1    0    0  501    0  0.00000000000E+00  0.00000000000E+00 -0.57177247790E+03  0.57177388834E+03  0.12699999809E+01 0.  1.
    10030    2    1    2    0    0  0.00000000000E+00  0.00000000000E+00 -0.21728380500E+03  0.92626483620E+03  0.90041895519E+03 0.  0.
        4    1    3    3  502    0 -0.15702637755E+03  0.38671671920E+03 -0.28224579070E+03  0.50385653060E+03  0.12699999809E+01 0. -1.
       -4    1    3    3    0  502  0.15702637755E+03 -0.38671671920E+03  0.64961985702E+02  0.42240830560E+03  0.12699999809E+01 0.  1.
</event>
<event>
 5   0  0.8738044E-03  0.8843477E+03  0.7818609E-02  0.9445362E-01
       -1   -1    0    0    0  501  0.00000000000E+00  0.00000000000E+00  0.40931917146E+03  0.40931917149E+03  0.50400001928E-02 0.  1.
        1   -1    0    0  501    0  0.00000000000E+00  0.00000000000E+00 -0.47766561813E+03  0.47766561815E+03  0.50400001928E-02 0. -1.
    10030    2    1    2    0    0  0.00000000000E+00  0.00000000000E+00 -0.68346446662E+02  0.88698478965E+03  0.88434765805E+03 0.  0.
        3    1    3    3  502    0  0.43992900494E+03 -0.64805917025E+01 -0.78329014010E+02  0.44689481099E+03  0.10100000352E+00 0.  1.
       -3    1    3    3    0  502 -0.43992900494E+03  0.64805917025E+01  0.99825673476E+01  0.44008997865E+03  0.10100000352E+00 0. -1.
</event>
<event>
 5   0  0.8524692E-03  0.8929995E+03  0.7818609E-02  0.9434375E-01
        1   -1    0    0  501    0  0.00000000000E+00  0.00000000000E+00  0.45383375473E+03  0.45383375475E+03  0.50400001928E-02 0.  1.
       -1   -1    0    0    0  501  0.00000000000E+00  0.00000000000E+00 -0.43928426339E+03  0.43928426342E+03  0.50400001928E-02 0. -1.
    10030    2    1    2    0    0  0.00000000000E+00  0.00000000000E+00  0.14549491338E+02  0.89311801817E+03  0.89299949982E+03 0.  0.
        5    1    3    3  502    0  0.66101436529E+02 -0.14191983863E+03  0.42545617247E+03  0.45337146491E+03  0.46999998093E+01 0.  1.
       -5    1    3    3    0  502 -0.66101436529E+02  0.14191983863E+03 -0.41090668113E+03  0.43974655326E+03  0.46999998093E+01 0. -1.
</event>
<event>
 5   0  0.1535906E-02  0.9164610E+03  0.7818609E-02  0.9405235E-01
       -2   -1    0    0    0  501  0.00000000000E+00  0.00000000000E+00  0.73374699183E+03  0.73374699184E+03  0.25500000920E-02 0. -1.
        2   -1    0    0  501    0  0.00000000000E+00  0.00000000000E+00 -0.28616840711E+03  0.28616840712E+03  0.25500000920E-02 0.  1.
    10030    2    1    2    0    0  0.00000000000E+00  0.00000000000E+00  0.44757858472E+03  0.10199153990E+04  0.91646103656E+03 0.  0.
        2    1    3    3  502    0 -0.13564818143E+03 -0.22533358749E+02 -0.26266609311E+03  0.29648213750E+03  0.25500000920E-02 0.  1.
       -2    1    3    3    0  502  0.13564818143E+03  0.22533358749E+02  0.71024467783E+03  0.72343326145E+03  0.25500000920E-02 0. -1.
</event>
<event>
 5   0  0.1440615E-02  0.9227557E+03  0.7818609E-02  0.9397574E-01
        2   -1    0    0  501    0  0.00000000000E+00  0.00000000000E+00  0.14235263547E+04  0.14235263547E+04  0.25500000920E-02 0.  1.
       -2   -1    0    0    0  501  0.00000000000E+00  0.00000000000E+00 -0.14953675817E+03  0.14953675820E+03  0.25500000920E-02 0. -1.
    10030    2    1    2    0    0  0.00000000000E+00  0.00000000000E+00  0.12739895965E+04  0.15730631129E+04  0.92275569090E+03 0.  0.
        3    1    3    3  502    0 -0.64927313810E+01  0.42482903523E+03  0.33038874515E+03  0.53821798358E+03  0.10100000352E+00 0. -1.
       -3    1    3    3    0  502  0.64927313810E+01 -0.42482903523E+03  0.94360085134E+03  0.10348451293E+04  0.10100000352E+00 0.  1.
</event>
<event>
 5   0  0.1483326E-02  0.9167902E+03  0.7818609E-02  0.9404833E-01
        2   -1    0    0  501    0  0.00000000000E+00  0.00000000000E+00  0.17290971725E+03  0.17290971727E+03  0.25500000920E-02 0. -1.
       -2   -1    0    0    0  501  0.00000000000E+00  0.00000000000E+00 -0.12152358099E+04  0.12152358099E+04  0.25500000920E-02 0.  1.
    10030    2    1    2    0    0  0.00000000000E+00  0.00000000000E+00 -0.10423260927E+04  0.13881455272E+04  0.91679022748E+03 0.  0.
        1    1    3    3  502    0  0.37598509941E+03  0.17146615650E+03 -0.22076568598E+03  0.46851139360E+03  0.50400001928E-02 0. -1.
       -1    1    3    3    0  502 -0.37598509941E+03 -0.17146615650E+03 -0.82156040669E+03  0.91963413359E+03  0.50400001928E-02 0.  1.
</event>
<event>
 5   0  0.1535906E-02  0.9058282E+03  0.7818609E-02  0.9418325E-01
       -2   -1    0    0    0  501  0.00000000000E+00  0.00000000000E+00  0.25138406885E+03  0.25138406887E+03  0.25500000920E-02 0. -1.
        2   -1    0    0  501    0  0.00000000000E+00  0.00000000000E+00 -0.81600710956E+03  0.81600710956E+03  0.25500000920E-02 0.  1.
    10030    2    1    2    0    0  0.00000000000E+00  0.00000000000E+00 -0.56462304070E+03  0.10673911784E+04  0.90582821202E+03 0.  0.
        2    1    3    3  502    0  0.14292231528E+03 -0.90965585641E+02  0.21264103060E+03  0.27187815998E+03  0.25500000920E-02 0. -1.
       -2    1    3    3    0  502 -0.14292231528E+03  0.90965585641E+02 -0.77726407130E+03  0.79551301845E+03  0.25500000920E-02 0.  1.
</event>
<event>
 5   0  0.1440615E-02  0.9076868E+03  0.7818609E-02  0.9416023E-01
        2   -1    0    0  501    0  0.00000000000E+00  0.00000000000E+00  0.51882254092E+03  0.51882254092E+03  0.25500000920E-02 0.  1.
       -2   -1    0    0    0  501  0.00000000000E+00  0.00000000000E+00 -0.39700243744E+03  0.39700243745E+03  0.25500000920E-02 0. -1.
    10030    2    1    2    0    0  0.00000000000E+00  0.00000000000E+00  0.12182010348E+03  0.91582497837E+03  0.90768675951E+03 0.  0.
        3    1    3    3  502    0 -0.23016934637E+03  0.17576665960E+03  0.41347391426E+03  0.50480940424E+03  0.10100000352E+00 0.  1.
       -3    1    3    3    0  502  0.23016934637E+03 -0.17576665960E+03 -0.29165381078E+03  0.41101557413E+03  0.10100000352E+00 0. -1.
</event>
<event>
 5   0  0.8738044E-03  0.8947323E+03  0.7818609E-02  0.9432190E-01
       -1   -1    0    0    0  501  0.00000000000E+00  0.00000000000E+00  0.29396707892E+03  0.29396707896E+03  0.50400001928E-02 0.  1.
        1   -1    0    0  501    0  0.00000000000E+00  0.00000000000E+00 -0.68081258606E+03  0.68081258608E+03  0.50400001928E-02 0. -1.
    10030    2    1    2    0    0  0.00000000000E+00  0.00000000000E+00 -0.38684550714E+03  0.97477966504E+03  0.89473233371E+03 0.  0.
        3    1    3    3  502    0 -0.13186209232E+03 -0.28293096549E+02  0.27129301487E+03  0.30296537891E+03  0.10100000352E+00 0.  1.
       -3    1    3    3    0  502  0.13186209232E+03  0.28293096549E+02 -0.65813852200E+03  0.67181428613E+03  0.10100000352E+00 0. -1.
</event>
<event>
 5   0  0.1441195E-02  0.7902598E+03  0.7818609E-02  0.9574224E-01
       -2   -1    0    0    0  501  0.00000000000E+00  0.00000000000E+00  0.22220940899E+03  0.22220940901E+03  0.25500000920E-02 0. -1.
        2   -1    0    0  501    0  0.00000000000E+00  0.00000000000E+00 -0.70261479443E+03  0.70261479443E+03  0.25500000920E-02 0.  1.
    10030    2    1    2    0    0  0.00000000000E+00  0.00000000000E+00 -0.48040538543E+03  0.92482420344E+03  0.79025975028E+03 0.  0.
        5    1    3    3  502    0  0.21383185974E+03 -0.31507431324E+03 -0.36355274539E+03  0.52648701388E+03  0.46999998093E+01 0.  1.
       -5    1    3    3    0  502 -0.21383185974E+03  0.31507431324E+03 -0.11685264005E+03  0.39833718956E+03  0.46999998093E+01 0. -1.
</event>
<event>
 5   0  0.8524692E-03  0.8980726E+03  0.7818609E-02  0.9427994E-01
       -1   -1    0    0    0  501  0.00000000000E+00  0.00000000000E+00  0.12813183327E+03  0.12813183337E+03  0.50400001928E-02 0. -1.
        1   -1    0    0  501    0  0.00000000000E+00  0.00000000000E+00 -0.15736417685E+04  0.15736417685E+04  0.50400001928E-02 0.  1.
    10030    2    1    2    0    0  0.00000000000E+00  0.00000000000E+00 -0.14455099352E+04  0.17017736018E+04  0.89807261353E+03 0.  0.
        5    1    3    3  502    0 -0.38034750252E+03  0.29695713046E+02 -0.27407362379E+03  0.46977068800E+03  0.46999998093E+01 0. -1.
       -5    1    3    3    0  502  0.38034750252E+03 -0.29695713046E+02 -0.11714363114E+04  0.12320029138E+04  0.46999998093E+01 0.  1.
</event>
<event>
 5   0  0.8738044E-03  0.8734597E+03  0.7818609E-02  0.9459380E-01
        1   -1    0    0  501    0  0.00000000000E+00  0.00000000000E+00  0.34139177906E+03  0.34139177910E+03  0.50400001928E-02 0.  1.
       -1   -1    0    0    0  501  0.00000000000E+00  0.00000000000E+00 -0.55869228288E+03  0.55869228290E+03  0.50400001928E-02 0. -1.
    10030    2    1    2    0    0  0.00000000000E+00  0.00000000000E+00 -0.21730050382E+03  0.90008406200E+03  0.87345967835E+03 0.  0.
        3    1    3    3  502    0  0.43248323285E+03 -0.45199819466E+02 -0.66815089795E+02  0.43994208346E+03  0.10100000352E+00 0.  1.
       -3    1    3    3    0  502 -0.43248323285E+03  0.45199819466E+02 -0.15048541402E+03  0.46014197854E+03  0.10100000352E+00 0. -1.
</event>
<event>
 5   0  0.1440615E-02  0.8669431E+03  0.7818609E-02  0.9467874E-01
       -2   -1    0    0    0  501  0.00000000000E+00  0.00000000000E+00  0.33662084874E+03  0.33662084875E+03  0.25500000920E-02 0.  1.
        2   -1    0    0  501    0  0.00000000000E+00  0.00000000000E+00 -0.55818758419E+03  0.55818758419E+03  0.25500000920E-02 0. -1.
    10030    2    1    2    0    0  0.00000000000E+00  0.00000000000E+00 -0.22156673544E+03  0.89480843294E+03  0.86694308545E+03 0.  0.
        3    1    3    3  502    0  0.86146346326E+02 -0.10501052375E+03  0.31408969552E+03  0.34219986867E+03  0.10100000352E+00 0.  1.
       -3    1    3    3    0  502 -0.86146346326E+02  0.10501052375E+03 -0.53565643096E+03  0.55260856428E+03  0.10100000352E+00 0. -1.
</event>
<event>
 5   0  0.8291252E-03  0.8958830E+03  0.7818609E-02  0.9430743E-01
        1   -1    0    0  501    0  0.00000000000E+00  0.00000000000E+00  0.12446803560E+04  0.12446803560E+04  0.50400001928E-02 0. -1.
       -1   -1    0    0    0  501  0.00000000000E+00  0.00000000000E+00 -0.16120733598E+03  0.16120733606E+03  0.50400001928E-02 0.  1.
    10030    2    1    2    0    0  0.00000000000E+00  0.00000000000E+00  0.10834730200E+04  0.14058876920E+04  0.89588303789E+03 0.  0.
        1    1    3    3  502    0 -0.23065573737E+03  0.29762661493E+03  0.16098756439E+03  0.40951271899E+03  0.50400001928E-02 0.  1.
       -1    1    3    3    0  502  0.23065573737E+03 -0.29762661493E+03  0.92248545560E+03  0.99637497305E+03  0.50400001928E-02 0. -1.
</event>
<event>
 5   0  0.8738044E-03  0.8867808E+03  0.7818609E-02  0.9442259E-01
        1   -1    0    0  501    0  0.00000000000E+00  0.00000000000E+00  0.10017003076E+04  0.10017003076E+04  0.50400001928E-02 0. -1.
       -1   -1    0    0    0  501  0.00000000000E+00  0.00000000000E+00 -0.19626133671E+03  0.19626133678E+03  0.50400001928E-02 0.  1.
    10030    2    1    2    0    0  0.00000000000E+00  0.00000000000E+00  0.80543897092E+03  0.11979616444E+04  0.88678078781E+03 0.  0.
        3    1    3    3  502    0  0.37961407127E+03  0.16802595164E+03  0.61311257164E+03  0.74043676248E+03  0.10100000352E+00 0.  1.
       -3    1    3    3    0  502 -0.37961407127E+03 -0.16802595164E+03  0.19232639928E+03  0.45752488194E+03  0.10100000352E+00 0. -1.
</event>
<event>
 5   0  0.8885324E-03  0.8978982E+03  0.7818609E-02  0.9428213E-01
       -1   -1    0    0    0  501  0.00000000000E+00  0.00000000000E+00  0.26003692611E+03  0.26003692616E+03  0.50400001928E-02 0.  1.
        1   -1    0    0  501    0  0.00000000000E+00  0.00000000000E+00 -0.77510253465E+03  0.77510253466E+03  0.50400001928E-02 0. -1.
    10030    2    1    2    0    0  0.00000000000E+00  0.00000000000E+00 -0.51506560854E+03  0.10351394608E+04  0.89789816920E+03 0.  0.
        2    1    3    3  502    0  0.22204029305E+03 -0.44604566837E+02 -0.70442111342E+03  0.73993281057E+03  0.25500000920E-02 0. -1.
       -2    1    3    3    0  502 -0.22204029305E+03  0.44604566837E+02  0.18935550488E+03  0.29520665025E+03  0.25500000920E-02 0.  1.
</event>
<event>
 5   0  0.8524692E-03  0.9075256E+03  0.7818609E-02  0.9416223E-01
       -1   -1    0    0    0  501  0.00000000000E+00  0.00000000000E+00  0.54291343025E+03  0.54291343027E+03  0.50400001928E-02 0.  1.
        1   -1    0    0  501    0  0.00000000000E+00  0.00000000000E+00 -0.37925142111E+03  0.37925142115E+03  0.50400001928E-02 0. -1.
    10030    2    1    2    0    0  0.00000000000E+00  0.00000000000E+00  0.16366200913E+03  0.92216485142E+03  0.90752562496E+03 0.  0.
        5    1    3    3  502    0  0.28117843900E+03 -0.23413396926E+03 -0.19082282584E+03  0.41269295000E+03  0.46999998093E+01 0. -1.
       -5    1    3    3    0  502 -0.28117843900E+03  0.23413396926E+03  0.35448483498E+03  0.50947190143E+03  0.46999998093E+01 0.  1.
</event>
<event>
 5   0  0.1454652E-02  0.8962339E+03  0.7818609E-02  0.9430301E-01
        2   -1    0    0  501    0  0.00000000000E+00  0.00000000000E+00  0.27874297824E+03  0.27874297825E+03  0.25500000920E-02 0.  1.
       -2   -1    0    0    0  501  0.00000000000E+00  0.00000000000E+00 -0.72040850890E+03  0.72040850890E+03  0.25500000920E-02 0. -1.
    10030    2    1    2    0    0  0.00000000000E+00  0.00000000000E+00 -0.44166553066E+03  0.99915148716E+03  0.89623392779E+03 0.  0.
        4    1    3    3  502    0 -0.14321263820E+03  0.33259120499E+03  0.73450368975E+02  0.36949064803E+03  0.12699999809E+01 0.  1.
       -4    1    3    3    0  502  0.14321263820E+03 -0.33259120499E+03 -0.51511589963E+03  0.62966083913E+03  0.12699999809E+01 0. -1.
</event>
<event>
 5   0  0.1483326E-02  0.8979205E+03  0.7818609E-02  0.9428185E-01
        2   -1    0    0  501    0  0.00000000000E+00  0.00000000000E+00  0.20854640228E+04  0.20854640228E+04  0.25500000920E-02 0. -1.
       -2   -1    0    0    0  501  0.00000000000E+00  0.00000000000E+00 -0.96652506287E+02  0.96652506320E+02  0.25500000920E-02 0.  1.
    10030    2    1    2    0    0  0.00000000000E+00  0.00000000000E+00  0.19888115165E+04  0.21821165291E+04  0.89792054128E+03 0.  0.
        1    1    3    3  502    0  0.13950261444E+03  0.33753357355E+03  0.16289384190E+04  0.16693802041E+04  0.50400001928E-02 0. -1.
       -1    1    3    3    0  502 -0.13950261444E+03 -0.33753357355E+03  0.35987309748E+03  0.51273632505E+03  0.50400001928E-02 0.  1.
</event>
<event>
 5   0  0.8612969E-03  0.8981784E+03  0.7818609E-02  0.9427861E-01
        1   -1    0    0  501    0  0.00000000000E+00  0.00000000000E+00  0.77590844847E+03  0.77590844849E+03  0.50400001928E-02 0.  1.
       -1   -1    0    0    0  501  0.00000000000E+00  0.00000000000E+00 -0.25992899513E+03  0.25992899518E+03  0.50400001928E-02 0. -1.
    10030    2    1    2    0    0  0.00000000000E+00  0.00000000000E+00  0.51597945335E+03  0.10358374437E+04  0.89817838619E+03 0.  0.
        4    1    3    3  502    0  0.31542046196E+03 -0.43409132971E+02 -0.10726046139E+03  0.33597743990E+03  0.12699999809E+01 0. -1.
       -4    1    3    3    0  502 -0.31542046196E+03  0.43409132971E+02  0.62323991474E+03  0.69986000376E+03  0.12699999809E+01 0.  1.
</event>
<event>
 5   0  0.1535906E-02  0.9255547E+03  0.7818609E-02  0.9394189E-01
       -2   -1    0    0    0  501  0.00000000000E+00  0.00000000000E+00  0.24503886657E+03  0.24503886658E+03  0.25500000920E-02 0. -1.
        2   -1    0    0  501    0  0.00000000000E+00  0.00000000000E+00 -0.87399551511E+03  0.87399551511E+03  0.25500000920E-02 0.  1.
    10030    2    1    2    0    0  0.00000000000E+00  0.00000000000E+00 -0.62895664854E+03  0.11190343817E+04  0.92555468864E+03 0.  0.
        2    1    3    3  502    0  0.41596614081E+03  0.15854342509E+03 -0.16154995093E+03  0.47356333747E+03  0.25500000920E-02 0. -1.
       -2    1    3    3    0  502 -0.41596614081E+03 -0.15854342509E+03 -0.46740669761E+03  0.64547104422E+03  0.25500000920E-02 0.  1.
</event>
<event>
 5   0  0.8524692E-03  0.8887515E+03  0.7818609E-02  0.9439753E-01
        1   -1    0    0  501    0  0.00000000000E+00  0.00000000000E+00  0.32915305515E+03  0.32915305519E+03  0.50400001928E-02 0. -1.
       -1   -1    0    0    0  501  0.00000000000E+00  0.00000000000E+00 -0.59993303950E+03  0.59993303952E+03  0.50400001928E-02 0.  1.
    10030    2    1    2    0    0  0.00000000000E+00  0.00000000000E+00 -0.27077998435E+03  0.92908609471E+03  0.88875146777E+03 0.  0.
        5    1    3    3  502    0 -0.30294178473E+03  0.30396142668E+03 -0.25586529650E+03  0.49965529498E+03  0.46999998093E+01 0.  1.
       -5    1    3    3    0  502  0.30294178473E+03 -0.30396142668E+03 -0.14914687855E+02  0.42943079973E+03  0.46999998093E+01 0. -1.
</event>
<event>
 5   0  0.1535906E-02  0.8998576E+03  0.7818609E-02  0.9425760E-01
       -2   -1    0    0    0  501  0.00000000000E+00  0.00000000000E+00  0.12838712477E+04  0.12838712477E+04  0.25500000920E-02 0.  1.
        2   -1    0    0  501    0  0.00000000000E+00  0.00000000000E+00 -0.15767617227E+03  0.15767617229E+03  0.25500000920E-02 0. -1.
    10030    2    1    2    0    0  0.00000000000E+00  0.00000000000E+00  0.11261950754E+04  0.14415474200E+04  0.89985755326E+03 0.  0.
        2    1    3    3  502    0  0.19517790583E+03 -0.38433943322E+03  0.76965074070E+03  0.88214141583E+03  0.25500000920E-02 0.  1.
       -2    1    3    3    0  502 -0.19517790583E+03  0.38433943322E+03  0.35654433474E+03  0.55940600417E+03  0.25500000920E-02 0. -1.
</event>
<event>
 5   0  0.8885324E-03  0.8846310E+03  0.7818609E-02  0.9445000E-01
        1   -1    0    0  501    0  0.00000000000E+00  0.00000000000E+00  0.26749132105E+03  0.26749132110E+03  0.50400001928E-02 0.  1.
       -1   -1    0    0    0  501  0.00000000000E+00  0.00000000000E+00 -0.73139936638E+03  0.73139936640E+03  0.50400001928E-02 0. -1.
    10030    2    1    2    0    0  0.00000000000E+00  0.00000000000E+00 -0.46390804533E+03  0.99889068750E+03  0.88463095755E+03 0.  0.
        2    1    3    3  502    0  0.41612405304E+03  0.89801148716E+01 -0.62944952105E+02  0.42095360432E+03  0.25500000920E-02 0.  1.
       -2    1    3    3    0  502 -0.41612405304E+03 -0.89801148716E+01 -0.40096309323E+03  0.57793708318E+03  0.25500000920E-02 0. -1.
</event>
<event>
 5   0  0.8885324E-03  0.8888211E+03  0.7818609E-02  0.9439665E-01
       -1   -1    0    0    0  501  0.00000000000E+00  0.00000000000E+00  0.20255488913E+03  0.20255488919E+03  0.50400001928E-02 0.  1.
        1   -1    0    0  501    0  0.00000000000E+00  0.00000000000E+00 -0.97504790365E+03  0.97504790367E+03  0.50400001928E-02 0. -1.
    10030    2    1    2    0    0  0.00000000000E+00  0.00000000000E+00 -0.77249301452E+03  0.11776027929E+04  0.88882106201E+03 0.  0.
        2    1    3    3  502    0 -0.13455649008E+03 -0.30045540184E+03 -0.78177385701E+03  0.84826249535E+03  0.25500000920E-02 0. -1.
       -2    1    3    3    0  502  0.13455649008E+03  0.30045540184E+03  0.92808424865E+01  0.32934029751E+03  0.25500000920E-02 0.  1.
</event>
<event>
 5   0  0.8885324E-03  0.8752828E+03  0.7818609E-02  0.9457018E-01
        1   -1    0    0  501    0  0.00000000000E+00  0.00000000000E+00  0.75438505734E+03  0.75438505736E+03  0.50400001928E-02 0.  1.
       -1   -1    0    0    0  501  0.00000000000E+00  0.00000000000E+00 -0.25388889217E+03  0.25388889222E+03  0.50400001928E-02 0. -1.
    10030    2    1    2    0    0  0.00000000000E+00  0.00000000000E+00  0.50049616517E+03  0.10082739496E+04  0.87528278062E+03 0.  0.
        2    1    3    3  502    0 -0.10278126949E+03  0.41878732007E+03  0.33632186482E+03  0.54686305925E+03  0.25500000920E-02 0. -1.
       -2    1    3    3    0  502  0.10278126949E+03 -0.41878732007E+03  0.16417430035E+03  0.46141089033E+03  0.25500000920E-02 0.  1.
</event>
<event>
 5   0  0.1454652E-02  0.8937867E+03  0.7818609E-02  0.9433382E-01
       -2   -1    0    0    0  501  0.00000000000E+00  0.00000000000E+00  0.21185207180E+03  0.21185207181E+03  0.25500000920E-02 0. -1.
        2   -1    0    0  501    0  0.00000000000E+00  0.00000000000E+00 -0.94270334140E+03  0.94270334141E+03  0.25500000920E-02 0.  1.
    10030    2    1    2    0    0  0.00000000000E+00  0.00000000000E+00 -0.73085126961E+03  0.11545554132E+04  0.89378667696E+03 0.  0.
        4    1    3    3  502    0 -0.17850230681E+03  0.32410311832E+02 -0.89299191469E+03  0.91123524649E+03  0.12699999809E+01 0.  1.
       -4    1    3    3    0  502  0.17850230681E+03 -0.32410311832E+02  0.16214064508E+03  0.24332016673E+03  0.12699999809E+01 0. -1.
</event>
<event>
 5   0  0.8524692E-03  0.8736827E+03  0.7818609E-02  0.9459091E-01
       -1   -1    0    0    0  501  0.00000000000E+00  0.00000000000E+00  0.14962704761E+03  0.14962704769E+03  0.50400001928E-02 0. -1.
        1   -1    0    0  501    0  0.00000000000E+00  0.00000000000E+00 -0.12753734704E+04  0.12753734704E+04  0.50400001928E-02 0.  1.
    10030    2    1    2    0    0  0.00000000000E+00  0.00000000000E+00 -0.11257464228E+04  0.14250005181E+04  0.87368270452E+03 0.  0.
        5    1    3    3  502    0  0.11269270653E+03  0.40105932348E+03 -0.34859288052E+03  0.54321939712E+03  0.46999998093E+01 0. -1.
       -5    1    3    3    0  502 -0.11269270653E+03 -0.40105932348E+03 -0.77715354230E+03  0.88178112101E+03  0.46999998093E+01 0.  1.
</event>
<event>
 5   0  0.1441195E-02  0.8905228E+03  0.7818609E-02  0.9437507E-01
        2   -1    0    0  501    0  0.00000000000E+00  0.00000000000E+00  0.84496059724E+03  0.84496059725E+03  0.25500000920E-02 0.  1.
       -2   -1    0    0    0  501  0.00000000000E+00  0.00000000000E+00 -0.23463544132E+03  0.23463544134E+03  0.25500000920E-02 0. -1.
    10030    2    1    2    0    0  0.00000000000E+00  0.00000000000E+00  0.61032515592E+03  0.10795960386E+04  0.89052277375E+03 0.  0.
        5    1    3    3  502    0  0.23918740909E+03 -0.36717777103E+03  0.40066270681E+03  0.59378685303E+03  0.46999998093E+01 0. -1.
       -5    1    3    3    0  502 -0.23918740909E+03  0.36717777103E+03  0.20966244911E+03  0.48580918555E+03  0.46999998093E+01 0.  1.
</event>
<event>
 5   0  0.1441195E-02  0.8981979E+03  0.7818609E-02  0.9427837E-01
       -2   -1    0    0    0  501  0.00000000000E+00  0.00000000000E+00  0.11192794121E+03  0.11192794124E+03  0.25500000920E-02 0.  1.
        2   -1    0    0  501    0  0.00000000000E+00  0.00000000000E+00 -0.18019616787E+04  0.18019616787E+04  0.25500000920E-02 0. -1.
    10030    2    1    2    0    0  0.00000000000E+00  0.00000000000E+00 -0.16900337375E+04  0.19138896199E+04  0.89819788659E+03 0.  0.
        5    1    3    3  502    0  0.41867353325E+02  0.38889958049E+03 -0.13151106514E+04  0.13720546179E+04  0.46999998093E+01 0. -1.
       -5    1    3    3    0  502 -0.41867353325E+02 -0.38889958049E+03 -0.37492308603E+03  0.54183500202E+03  0.46999998093E+01 0.  1.
</event>
<event>
 5   0  0.1454652E-02  0.8929967E+03  0.7818609E-02  0.9434378E-01
        2   -1    0    0  501    0  0.00000000000E+00  0.00000000000E+00  0.10625095559E+04  0.10625095559E+04  0.25500000920E-02 0.  1.
       -2   -1    0    0    0  501  0.00000000000E+00  0.00000000000E+00 -0.18763198822E+03  0.18763198824E+03  0.25500000920E-02 0. -1.
    10030    2    1    2    0    0  0.00000000000E+00  0.00000000000E+00  0.87487756763E+03  0.12501415441E+04  0.89299670881E+03 0.  0.
        4    1    3    3  502    0  0.14337976336E+02 -0.12163920080E+03  0.10385290960E+04  0.10457274830E+04  0.12699999809E+01 0.  1.
       -4    1    3    3    0  502 -0.14337976336E+02  0.12163920080E+03 -0.16365152832E+03  0.20441406106E+03  0.12699999809E+01 0. -1.
</event>
<event>
 5   0  0.8612969E-03  0.9113744E+03  0.7818609E-02  0.9411474E-01
        1   -1    0    0  501    0  0.00000000000E+00  0.00000000000E+00  0.31554847754E+03  0.31554847758E+03  0.50400001928E-02 0. -1.
       -1   -1    0    0    0  501  0.00000000000E+00  0.00000000000E+00 -0.65806314390E+03  0.65806314392E+03  0.50400001928E-02 0.  1.
    10030    2    1    2    0    0  0.00000000000E+00  0.00000000000E+00 -0.34251466636E+03  0.97361162149E+03  0.91137439773E+03 0.  0.
        4    1    3    3  502    0  0.66508989356E+01 -0.25943823480E+03 -0.57139807587E+03  0.62757454229E+03  0.12699999809E+01 0.  1.
       -4    1    3    3    0  502 -0.66508989356E+01  0.25943823480E+03  0.22888340951E+03  0.34603707920E+03  0.12699999809E+01 0. -1.
</event>
<event>
 5   0  0.8885324E-03  0.9069202E+03  0.7818609E-02  0.9416972E-01
       -1   -1    0    0    0  501  0.00000000000E+00  0.00000000000E+00  0.59551985365E+03  0.59551985367E+03  0.50400001928E-02 0. -1.
        1   -1    0    0  501    0  0.00000000000E+00  0.00000000000E+00 -0.34528833984E+03  0.34528833988E+03  0.50400001928E-02 0.  1.
    10030    2    1    2    0    0  0.00000000000E+00  0.00000000000E+00  0.25023151381E+03  0.94080819355E+03  0.90692019856E+03 0.  0.
        2    1    3    3  502    0  0.39748361550E+03  0.18495037675E+03  0.49146423040E+01  0.43843359835E+03  0.25500000920E-02 0.  1.
       -2    1    3    3    0  502 -0.39748361550E+03 -0.18495037675E+03  0.24531687150E+03  0.50237459520E+03  0.25500000920E-02 0. -1.
</event>
<event>
 5   0  0.5770125E-03  0.8830949E+03  0.7818609E-02  0.9446964E-01
       -3   -1    0    0    0  501  0.00000000000E+00  0.00000000000E+00  0.33440059322E+03  0.33440060847E+03  0.10100000352E+00 0. -1.
        3   -1    0    0  501    0  0.00000000000E+00  0.00000000000E+00 -0.58302574888E+03  0.58302575763E+03  0.10100000352E+00 0.  1.
    10030    2    1    2    0    0  0.00000000000E+00  0.00000000000E+00 -0.24862515566E+03  0.91742636610E+03  0.88309493781E+03 0.  0.
        1    1    3    3  502    0  0.36021134205E+03 -0.25525232918E+03 -0.13223837823E+03  0.46086109751E+03  0.50400001928E-02 0.  1.
       -1    1    3    3    0  502 -0.36021134205E+03  0.25525232918E+03 -0.11638677743E+03  0.45656526859E+03  0.50400001928E-02 0. -1.
</event>
<event>
 5   0  0.1535906E-02  0.9020568E+03  0.7818609E-02  0.9423014E-01
        2   -1    0    0  501    0  0.00000000000E+00  0.00000000000E+00  0.37861516609E+03  0.37861516610E+03  0.25500000920E-02 0.  1.
       -2   -1    0    0    0  501  0.00000000000E+00  0.00000000000E+00 -0.53729126231E+03  0.53729126232E+03  0.25500000920E-02 0. -1.
    10030    2    1    2    0    0  0.00000000000E+00  0.00000000000E+00 -0.15867609623E+03  0.91590642841E+03  0.90205680647E+03 0.  0.
        2    1    3    3  502    0  0.37966612868E+03 -0.23224147916E+03 -0.15356410692E+03  0.47081249861E+03  0.25500000920E-02 0. -1.
       -2    1    3    3    0  502 -0.37966612868E+03  0.23224147916E+03 -0.51119893047E+01  0.44509392980E+03  0.25500000920E-02 0.  1.
</event>
<event>
 5   0  0.8885324E-03  0.8912837E+03  0.7818609E-02  0.9436543E-01
        1   -1    0    0  501    0  0.00000000000E+00  0.00000000000E+00  0.19908100856E+03  0.19908100863E+03  0.50400001928E-02 0.  1.
       -1   -1    0    0    0  501  0.00000000000E+00  0.00000000000E+00 -0.99756709429E+03  0.99756709430E+03  0.50400001928E-02 0. -1.
    10030    2    1    2    0    0  0.00000000000E+00  0.00000000000E+00 -0.79848608572E+03  0.11966481029E+04  0.89128371080E+03 0.  0.
        2    1    3    3  502    0  0.29742135717E+03  0.33854636999E+02  0.44004086572E+02  0.30255901868E+03  0.25500000920E-02 0.  1.
       -2    1    3    3    0  502 -0.29742135717E+03 -0.33854636999E+02 -0.84249017229E+03  0.89408908424E+03  0.25500000920E-02 0. -1.
</event>
<event>
 5   0  0.1440615E-02  0.9079836E+03  0.7818609E-02  0.9415656E-01
       -2   -1    0    0    0  501  0.00000000000E+00  0.00000000000E+00  0.48148153813E+03  0.48148153814E+03  0.25500000920E-02 0.  1.
        2   -1    0    0  501    0  0.00000000000E+00  0.00000000000E+00 -0.42807157717E+03  0.42807157718E+03  0.25500000920E-02 0. -1.
    10030    2    1    2    0    0  0.00000000000E+00  0.00000000000E+00  0.53409960961E+02  0.90955311531E+03  0.90798361530E+03 0.  0.
        3    1    3    3  502    0  0.23989216286E+03 -0.36523302326E+03  0.15006467006E+03  0.46202037453E+03  0.10100000352E+00 0.  1.
       -3    1    3    3    0  502 -0.23989216286E+03  0.36523302326E+03 -0.96654709099E+02  0.44753274078E+03  0.10100000352E+00 0. -1.
</event>
<event>
 5   0  0.1441195E-02  0.9041766E+03  0.7818609E-02  0.9420375E-01
        2   -1    0    0  501    0  0.00000000000E+00  0.00000000000E+00  0.22324650194E+04  0.22324650194E+04  0.25500000920E-02 0. -1.
       -2   -1    0    0    0  501  0.00000000000E+00  0.00000000000E+00 -0.91550752859E+02  0.91550752894E+02  0.25500000920E-02 0.  1.
    10030    2    1    2    0    0  0.00000000000E+00  0.00000000000E+00  0.21409142666E+04  0.23240157723E+04  0.90417664934E+03 0.  0.
        5    1    3    3  502    0 -0.17119767402E+03  0.31416141258E+03  0.17806995266E+04  0.18162926335E+04  0.46999998093E+01 0.  1.
       -5    1    3    3    0  502  0.17119767402E+03 -0.31416141258E+03  0.36021474002E+03  0.50772313880E+03  0.46999998093E+01 0. -1.
</event>
<event>
 5   0  0.8524692E-03  0.8063199E+03  0.7818609E-02  0.9550914E-01
        1   -1    0    0  501    0  0.00000000000E+00  0.00000000000E+00  0.19975019252E+03  0.19975019258E+03  0.50400001928E-02 0. -1.
       -1   -1    0    0    0  501  0.00000000000E+00  0.00000000000E+00 -0.81370599196E+03  0.81370599197E+03  0.50400001928E-02 0.  1.
    10030    2    1    2    0    0  0.00000000000E+00  0.00000000000E+00 -0.61395579944E+03  0.10134561846E+04  0.80631985858E+03 0.  0.
        5    1    3    3  502    0 -0.29105915920E+03 -0.69381090803E+02  0.32584342019E+02  0.30101993166E+03  0.46999998093E+01 0. -1.
       -5    1    3    3    0  502  0.29105915920E+03  0.69381090803E+02 -0.64654014146E+03  0.71243625289E+03  0.46999998093E+01 0.  1.
</event>
<event>
 5   0  0.8738044E-03  0.9073830E+03  0.7818609E-02  0.9416399E-01
       -1   -1    0    0    0  501  0.00000000000E+00  0.00000000000E+00  0.98289832399E+03  0.98289832400E+03  0.50400001928E-02 0. -1.
        1   -1    0    0  501    0  0.00000000000E+00  0.00000000000E+00 -0.20941738665E+03  0.20941738671E+03  0.50400001928E-02 0.  1.
    10030    2    1    2    0    0  0.00000000000E+00  0.00000000000E+00  0.77348093734E+03  0.11923157107E+04  0.90738304678E+03 0.  0.
        3    1    3    3  502    0  0.36135157567E+03 -0.25355559643E+03  0.24910970226E+03  0.50687380647E+03  0.10100000352E+00 0. -1.
       -3    1    3    3    0  502 -0.36135157567E+03  0.25355559643E+03  0.52437123508E+03  0.68544190425E+03  0.10100000352E+00 0.  1.
</event>
<event>
 5   0  0.1440615E-02  0.8513592E+03  0.7818609E-02  0.9488514E-01
       -2   -1    0    0    0  501  0.00000000000E+00  0.00000000000E+00  0.25824532244E+03  0.25824532245E+03  0.25500000920E-02 0. -1.
        2   -1    0    0  501    0  0.00000000000E+00  0.00000000000E+00 -0.70167050816E+03  0.70167050817E+03  0.25500000920E-02 0.  1.
    10030    2    1    2    0    0  0.00000000000E+00  0.00000000000E+00 -0.44342518572E+03  0.95991583062E+03  0.85135921123E+03 0.  0.
        3    1    3    3  502    0  0.38660110885E+03 -0.17589334494E+03 -0.18973759505E+03  0.46518732930E+03  0.10100000352E+00 0. -1.
       -3    1    3    3    0  502 -0.38660110885E+03  0.17589334494E+03 -0.25368759067E+03  0.49472850133E+03  0.10100000352E+00 0.  1.
</event>
<event>
 5   0  0.1483326E-02  0.1043893E+04  0.7818609E-02  0.9261672E-01
        2   -1    0    0  501    0  0.00000000000E+00  0.00000000000E+00  0.12748641320E+04  0.12748641320E+04  0.25500000920E-02 0.  1.
       -2   -1    0    0    0  501  0.00000000000E+00  0.00000000000E+00 -0.21369191597E+03  0.21369191599E+03  0.25500000920E-02 0. -1.
    10030    2    1    2    0    0  0.00000000000E+00  0.00000000000E+00  0.10611722161E+04  0.14885560480E+04  0.10438930194E+04 0.  0.
        1    1    3    3  502    0  0.15104498115E+03 -0.48496461900E+03  0.70183799211E+03  0.86636126137E+03  0.50400001928E-02 0.  1.
       -1    1    3    3    0  502 -0.15104498115E+03  0.48496461900E+03  0.35933422395E+03  0.62219478665E+03  0.50400001928E-02 0. -1.
</event>
<event>
 5   0  0.1483326E-02  0.8982398E+03  0.7818609E-02  0.9427784E-01
        2   -1    0    0  501    0  0.00000000000E+00  0.00000000000E+00  0.56915241942E+03  0.56915241942E+03  0.25500000920E-02 0. -1.
       -2   -1    0    0    0  501  0.00000000000E+00  0.00000000000E+00 -0.35440188637E+03  0.35440188638E+03  0.25500000920E-02 0.  1.
    10030    2    1    2    0    0  0.00000000000E+00  0.00000000000E+00  0.21475053304E+03  0.92355430580E+03  0.89823981448E+03 0.  0.
        1    1    3    3  502    0  0.23415390395E+03 -0.15924000011E+03 -0.25105101500E+03  0.37843366727E+03  0.50400001928E-02 0.  1.
       -1    1    3    3    0  502 -0.23415390395E+03  0.15924000011E+03  0.46580154804E+03  0.54512063853E+03  0.50400001928E-02 0. -1.
</event>
<event>
 5   0  0.1535906E-02  0.8571898E+03  0.7818609E-02  0.9480737E-01
       -2   -1    0    0    0  501  0.00000000000E+00  0.00000000000E+00  0.22876205480E+03  0.22876205482E+03  0.25500000920E-02 0. -1.
        2   -1    0    0  501    0  0.00000000000E+00  0.00000000000E+00 -0.80298982444E+03  0.80298982445E+03  0.25500000920E-02 0.  1.
    10030    2    1    2    0    0  0.00000000000E+00  0.00000000000E+00 -0.57422776964E+03  0.10317518793E+04  0.85718983250E+03 0.  0.
        2    1    3    3  502    0 -0.36869661574E+03  0.21851483157E+03 -0.29044868674E+03  0.51773194388E+03  0.25500000920E-02 0. -1.
       -2    1    3    3    0  502  0.36869661574E+03 -0.21851483157E+03 -0.28377908290E+03  0.51401993538E+03  0.25500000920E-02 0.  1.
</event>
<event>
 5   0  0.8291252E-03  0.8956264E+03  0.7818609E-02  0.9431065E-01
        1   -1    0    0  501    0  0.00000000000E+00  0.00000000000E+00  0.63420147193E+03  0.63420147195E+03  0.50400001928E-02 0.  1.
       -1   -1    0    0    0  501  0.00000000000E+00  0.00000000000E+00 -0.31620341395E+03  0.31620341399E+03  0.50400001928E-02 0. -1.
    10030    2    1    2    0    0  0.00000000000E+00  0.00000000000E+00  0.31799805798E+03  0.95040488594E+03  0.89562641896E+03 0.  0.
        1    1    3    3  502    0 -0.37190667534E+03  0.23519014041E+03  0.24719490666E+03  0.50471209537E+03  0.50400001928E-02 0.  1.
       -1    1    3    3    0  502  0.37190667534E+03 -0.23519014041E+03  0.70803151326E+02  0.44569279057E+03  0.50400001928E-02 0. -1.
</event>
<event>
 5   0  0.1483326E-02  0.8139791E+03  0.7818609E-02  0.9540000E-01
        2   -1    0    0  501    0  0.00000000000E+00  0.00000000000E+00  0.27707077218E+03  0.27707077219E+03  0.25500000920E-02 0. -1.
       -2   -1    0    0    0  501  0.00000000000E+00  0.00000000000E+00 -0.59782745135E+03  0.59782745136E+03  0.25500000920E-02 0.  1.
    10030    2    1    2    0    0  0.00000000000E+00  0.00000000000E+00 -0.32075667917E+03  0.87489822354E+03  0.81397914858E+03 0.  0.
        1    1    3    3  502    0 -0.22692844020E+02 -0.27246088363E+03  0.16366550526E+03  0.31864760460E+03  0.50400001928E-02 0. -1.
       -1    1    3    3    0  502  0.22692844020E+02  0.27246088363E+03 -0.48442218443E+03  0.55625061894E+03  0.50400001928E-02 0.  1.
</event>
<event>
 5   0  0.1454652E-02  0.8985566E+03  0.7818609E-02  0.9427388E-01
       -2   -1    0    0    0  501  0.00000000000E+00  0.00000000000E+00  0.28418131084E+03  0.28418131085E+03  0.25500000920E-02 0.  1.
        2   -1    0    0  501    0  0.00000000000E+00  0.00000000000E+00 -0.71028939694E+03  0.71028939695E+03  0.25500000920E-02 0. -1.
    10030    2    1    2    0    0  0.00000000000E+00  0.00000000000E+00 -0.42610808611E+03  0.99447070779E+03  0.89855655783E+03 0.  0.
        4    1    3    3  502    0 -0.18343493613E+03 -0.20048505542E+03  0.18291658453E+03  0.32757094352E+03  0.12699999809E+01 0.  1.
       -4    1    3    3    0  502  0.18343493613E+03  0.20048505542E+03 -0.60902467064E+03  0.66689976427E+03  0.12699999809E+01 0. -1.
</event>
<event>
 5   0  0.1440615E-02  0.8939517E+03  0.7818609E-02  0.9433174E-01
       -2   -1    0    0    0  501  0.00000000000E+00  0.00000000000E+00  0.27256841523E+03  0.27256841524E+03  0.25500000920E-02 0.  1.
        2   -1    0    0  501    0  0.00000000000E+00  0.00000000000E+00 -0.73298085998E+03  0.73298085999E+03  0.25500000920E-02 0. -1.
    10030    2    1    2    0    0  0.00000000000E+00  0.00000000000E+00 -0.46041244475E+03  0.10055492752E+04  0.89395174682E+03 0.  0.
        3    1    3    3  502    0 -0.41743352929E+03  0.13671178623E+02 -0.40929826117E+03  0.58477579405E+03  0.10100000352E+00 0.  1.
       -3    1    3    3    0  502  0.41743352929E+03 -0.13671178623E+02 -0.51114183577E+02  0.42077348118E+03  0.10100000352E+00 0. -1.
</event>
<event>
 5   0  0.8738044E-03  0.9017506E+03  0.7818609E-02  0.9423396E-01
        1   -1    0    0  501    0  0.00000000000E+00  0.00000000000E+00  0.36064658939E+03  0.36064658942E+03  0.50400001928E-02 0.  1.
       -1   -1    0    0    0  501  0.00000000000E+00  0.00000000000E+00 -0.56367793516E+03  0.56367793518E+03  0.50400001928E-02 0. -1.
    10030    2    1    2    0    0  0.00000000000E+00  0.00000000000E+00 -0.20303134578E+03  0.92432452461E+03  0.90175057495E+03 0.  0.
        3    1    3    3  502    0 -0.78462080159E+02  0.94710302718E+02  0.34311990550E+03  0.36449639122E+03  0.10100000352E+00 0.  1.
       -3    1    3    3    0  502  0.78462080159E+02 -0.94710302718E+02 -0.54615125127E+03  0.55982813339E+03  0.10100000352E+00 0. -1.
</event>
<event>
 5   0  0.5770125E-03  0.1027975E+04  0.7818609E-02  0.9278384E-01
        4   -1    0    0  501    0  0.00000000000E+00  0.00000000000E+00  0.20543538176E+03  0.20543930729E+03  0.12699999809E+01 0. -1.
       -4   -1    0    0    0  501  0.00000000000E+00  0.00000000000E+00 -0.12859497191E+04  0.12859503462E+04  0.12699999809E+01 0.  1.
    10030    2    1    2    0    0  0.00000000000E+00  0.00000000000E+00 -0.10805143373E+04  0.14913896535E+04  0.10279746424E+04 0.  0.
        1    1    3    3  502    0  0.43396541903E+03 -0.25712277983E+03 -0.68347479459E+03  0.84945624001E+03  0.50400001928E-02 0.  1.
       -1    1    3    3    0  502 -0.43396541903E+03  0.25712277983E+03 -0.39703954272E+03  0.64193341347E+03  0.50400001928E-02 0. -1.
</event>
<event>
 5   0  0.1483326E-02  0.8273361E+03  0.7818609E-02  0.9521271E-01
        2   -1    0    0  501    0  0.00000000000E+00  0.00000000000E+00  0.40497306353E+03  0.40497306354E+03  0.25500000920E-02 0. -1.
       -2   -1    0    0    0  501  0.00000000000E+00  0.00000000000E+00 -0.42254975202E+03  0.42254975202E+03  0.25500000920E-02 0.  1.
    10030    2    1    2    0    0  0.00000000000E+00  0.00000000000E+00 -0.17576688485E+02  0.82752281556E+03  0.82733612897E+03 0.  0.
        1    1    3    3  502    0 -0.96376721865E+02 -0.29648529024E+03 -0.28074906829E+03  0.41953788770E+03  0.50400001928E-02 0.  1.
       -1    1    3    3    0  502  0.96376721865E+02  0.29648529024E+03  0.26317237980E+03  0.40798492786E+03  0.50400001928E-02 0. -1.
</event>
<event>
 5   0  0.1454652E-02  0.8974758E+03  0.7818609E-02  0.9428742E-01
        2   -1    0    0  501    0  0.00000000000E+00  0.00000000000E+00  0.20872222669E+04  0.20872222669E+04  0.25500000920E-02 0.  1.
       -2   -1    0    0    0  501  0.00000000000E+00  0.00000000000E+00 -0.96475455066E+02  0.96475455100E+02  0.25500000920E-02 0. -1.
    10030    2    1    2    0    0  0.00000000000E+00  0.00000000000E+00  0.19907468118E+04  0.21836977220E+04  0.89747583379E+03 0.  0.
        4    1    3    3  502    0  0.43000425276E+03 -0.10462901554E+03  0.81470912521E+03  0.92714802480E+03  0.12699999809E+01 0.  1.
       -4    1    3    3    0  502 -0.43000425276E+03  0.10462901554E+03  0.11760376866E+04  0.12565496972E+04  0.12699999809E+01 0. -1.
</event>
<event>
 5   0  0.1440615E-02  0.8871726E+03  0.7818609E-02  0.9441760E-01
       -2   -1    0    0    0  501  0.00000000000E+00  0.00000000000E+00  0.27186437525E+03  0.27186437526E+03  0.25500000920E-02 0.  1.
        2   -1    0    0  501    0  0.00000000000E+00  0.00000000000E+00 -0.72377568146E+03  0.72377568146E+03  0.25500000920E-02 0. -1.
    10030    2    1    2    0    0  0.00000000000E+00  0.00000000000E+00 -0.45191130621E+03  0.99564005672E+03  0.88717264040E+03 0.  0.
        3    1    3    3  502    0 -0.22078596332E+03 -0.34170994933E+03 -0.27544692711E+02  0.40776322955E+03  0.10100000352E+00 0.  1.
       -3    1    3    3    0  502  0.22078596332E+03  0.34170994933E+03 -0.42436661350E+03  0.58787682718E+03  0.10100000352E+00 0. -1.
</event>
<event>
 5   0  0.8291252E-03  0.9771778E+03  0.7818609E-02  0.9333936E-01
        1   -1    0    0  501    0  0.00000000000E+00  0.00000000000E+00  0.29240418151E+03  0.29240418156E+03  0.50400001928E-02 0.  1.
       -1   -1    0    0    0  501  0.00000000000E+00  0.00000000000E+00 -0.81640108260E+03  0.81640108261E+03  0.50400001928E-02 0. -1.
    10030    2    1    2    0    0  0.00000000000E+00  0.00000000000E+00 -0.52399690108E+03  0.11088052642E+04  0.97717775328E+03 0.  0.
        1    1    3    3  502    0 -0.21758969342E+03  0.21841234099E+03  0.16809670397E+03  0.35114915249E+03  0.50400001928E-02 0.  1.
       -1    1    3    3    0  502  0.21758969342E+03 -0.21841234099E+03 -0.69209360506E+03  0.75765611168E+03  0.50400001928E-02 0. -1.
</event>
<event>
 5   0  0.1535906E-02  0.9102841E+03  0.7818609E-02  0.9412816E-01
       -2   -1    0    0    0  501  0.00000000000E+00  0.00000000000E+00  0.52303409397E+03  0.52303409398E+03  0.25500000920E-02 0.  1.
        2   -1    0    0  501    0  0.00000000000E+00  0.00000000000E+00 -0.39606267551E+03  0.39606267552E+03  0.25500000920E-02 0. -1.
    10030    2    1    2    0    0  0.00000000000E+00  0.00000000000E+00  0.12697141846E+03  0.91909676950E+03  0.91028409334E+03 0.  0.
        2    1    3    3  502    0  0.41835819418E+03 -0.12836886040E+03 -0.62834007585E+02  0.44209756329E+03  0.25500000920E-02 0. -1.
       -2    1    3    3    0  502 -0.41835819418E+03  0.12836886040E+03  0.18980542605E+03  0.47699920620E+03  0.25500000920E-02 0.  1.
</event>
<event>
 5   0  0.8612969E-03  0.9030141E+03  0.7818609E-02  0.9421821E-01
       -1   -1    0    0    0  501  0.00000000000E+00  0.00000000000E+00  0.13848778600E+04  0.13848778600E+04  0.50400001928E-02 0. -1.
        1   -1    0    0  501    0  0.00000000000E+00  0.00000000000E+00 -0.14720333048E+03  0.14720333057E+03  0.50400001928E-02 0.  1.
    10030    2    1    2    0    0  0.00000000000E+00  0.00000000000E+00  0.12376745295E+04  0.15320811905E+04  0.90301413804E+03 0.  0.
        4    1    3    3  502    0 -0.39166105748E+03  0.18493139455E+03  0.83517603558E+03  0.94080743404E+03  0.12699999809E+01 0. -1.
       -4    1    3    3    0  502  0.39166105748E+03 -0.18493139455E+03  0.40249849390E+03  0.59127375650E+03  0.12699999809E+01 0.  1.
</event>
<event>
 5   0  0.8885324E-03  0.9352016E+03  0.7818609E-02  0.9382617E-01
        1   -1    0    0  501    0  0.00000000000E+00  0.00000000000E+00  0.91323792367E+03  0.91323792368E+03  0.50400001928E-02 0.  1.
       -1   -1    0    0    0  501  0.00000000000E+00  0.00000000000E+00 -0.23942335213E+03  0.23942335218E+03  0.50400001928E-02 0. -1.
    10030    2    1    2    0    0  0.00000000000E+00  0.00000000000E+00  0.67381457154E+03  0.11526612759E+04  0.93520155050E+03 0.  0.
        2    1    3    3  502    0 -0.14362275952E+03 -0.30224482921E+03 -0.65642659855E+02  0.34101083947E+03  0.25500000920E-02 0. -1.
       -2    1    3    3    0  502  0.14362275952E+03  0.30224482921E+03  0.73945723139E+03  0.81165043639E+03  0.25500000920E-02 0.  1.
</event>
<event>
 5   0  0.1441195E-02  0.8932645E+03  0.7818609E-02  0.9434040E-01
        2   -1    0    0  501    0  0.00000000000E+00  0.00000000000E+00  0.53332770181E+03  0.53332770182E+03  0.25500000920E-02 0.  1.
       -2   -1    0    0    0  501  0.00000000000E+00  0.00000000000E+00 -0.37402966981E+03  0.37402966981E+03  0.25500000920E-02 0. -1.
    10030    2    1    2    0    0  0.00000000000E+00  0.00000000000E+00  0.15929803200E+03  0.90735737163E+03  0.89326453912E+03 0.  0.
        5    1    3    3  502    0 -0.33734177583E+03  0.15481875688E+03 -0.17264419744E+03  0.40938542977E+03  0.46999998093E+01 0. -1.
       -5    1    3    3    0  502  0.33734177583E+03 -0.15481875688E+03  0.33194222944E+03  0.49797194186E+03  0.46999998093E+01 0.  1.
</event>
<event>
 5   0  0.8291252E-03  0.8951107E+03  0.7818609E-02  0.9431714E-01
       -1   -1    0    0    0  501  0.00000000000E+00  0.00000000000E+00  0.28895641477E+03  0.28895641482E+03  0.50400001928E-02 0. -1.
        1   -1    0    0  501    0  0.00000000000E+00  0.00000000000E+00 -0.69320420569E+03  0.69320420571E+03  0.50400001928E-02 0.  1.
    10030    2    1    2    0    0  0.00000000000E+00  0.00000000000E+00 -0.40424779092E+03  0.98216062053E+03  0.89511072391E+03 0.  0.
        1    1    3    3  502    0 -0.38790940328E+03 -0.12154031193E+02 -0.44670093198E+03  0.59174584771E+03  0.50400001928E-02 0.  1.
       -1    1    3    3    0  502  0.38790940328E+03  0.12154031193E+02  0.42453141057E+02  0.39041477282E+03  0.50400001928E-02 0. -1.
</event>
<event>
 5   0  0.1454652E-02  0.9013737E+03  0.7818609E-02  0.9423866E-01
        2   -1    0    0  501    0  0.00000000000E+00  0.00000000000E+00  0.18550341547E+04  0.18550341547E+04  0.25500000920E-02 0. -1.
       -2   -1    0    0    0  501  0.00000000000E+00  0.00000000000E+00 -0.10949591306E+03  0.10949591309E+03  0.25500000920E-02 0.  1.
    10030    2    1    2    0    0  0.00000000000E+00  0.00000000000E+00  0.17455382416E+04  0.19645300678E+04  0.90137374836E+03 0.  0.
        4    1    3    3  502    0 -0.37151454948E+03 -0.16429118199E+03  0.12982008717E+04  0.13602726819E+04  0.12699999809E+01 0. -1.
       -4    1    3    3    0  502  0.37151454948E+03  0.16429118199E+03  0.44733736995E+03  0.60425738589E+03  0.12699999809E+01 0.  1.
</event>
<event>
 5   0  0.8524692E-03  0.9142586E+03  0.7818609E-02  0.9407931E-01
       -1   -1    0    0    0  501  0.00000000000E+00  0.00000000000E+00  0.50436414313E+03  0.50436414316E+03  0.50400001928E-02 0.  1.
        1   -1    0    0  501    0  0.00000000000E+00  0.00000000000E+00 -0.41431814282E+03  0.41431814285E+03  0.50400001928E-02 0. -1.
    10030    2    1    2    0    0  0.00000000000E+00  0.00000000000E+00  0.90046000315E+02  0.91868228601E+03  0.91425863980E+03 0.  0.
        5    1    3    3  502    0  0.46964074424E+02 -0.27381119644E+03 -0.31973051194E+03  0.42358928911E+03  0.46999998093E+01 0. -1.
       -5    1    3    3    0  502 -0.46964074424E+02  0.27381119644E+03  0.40977651226E+03  0.49509299690E+03  0.46999998093E+01 0.  1.
</event>
<event>
 5   0  0.1440615E-02  0.8921929E+03  0.7818609E-02  0.9435394E-01
       -2   -1    0    0    0  501  0.00000000000E+00  0.00000000000E+00  0.37795452485E+03  0.37795452486E+03  0.25500000920E-02 0. -1.
        2   -1    0    0  501    0  0.00000000000E+00  0.00000000000E+00 -0.52652378742E+03  0.52652378742E+03  0.25500000920E-02 0.  1.
    10030    2    1    2    0    0  0.00000000000E+00  0.00000000000E+00 -0.14856926256E+03  0.90447831228E+03  0.89219291166E+03 0.  0.
        3    1    3    3  502    0  0.17623968766E+03 -0.10833445406E+03  0.32638572394E+03  0.38642519643E+03  0.10100000352E+00 0. -1.
       -3    1    3    3    0  502 -0.17623968766E+03  0.10833445406E+03 -0.47495498650E+03  0.51805311586E+03  0.10100000352E+00 0.  1.
</event>
<event>
 5   0  0.1440615E-02  0.8588740E+03  0.7818609E-02  0.9478503E-01
       -2   -1    0    0    0  501  0.00000000000E+00  0.00000000000E+00  0.26587582895E+03  0.26587582896E+03  0.25500000920E-02 0.  1.
        2   -1    0    0  501    0  0.00000000000E+00  0.00000000000E+00 -0.69361749576E+03  0.69361749577E+03  0.25500000920E-02 0. -1.
    10030    2    1    2    0    0  0.00000000000E+00  0.00000000000E+00 -0.42774166682E+03  0.95949332473E+03  0.85887397601E+03 0.  0.
        3    1    3    3  502    0 -0.71659400808E+02  0.36696727352E+03  0.22099907024E+02  0.37455101876E+03  0.10100000352E+00 0.  1.
       -3    1    3    3    0  502  0.71659400808E+02 -0.36696727352E+03 -0.44984157384E+03  0.58494230597E+03  0.10100000352E+00 0. -1.
</event>
<event>
 5   0  0.8738044E-03  0.9007973E+03  0.7818609E-02  0.9424585E-01
       -1   -1    0    0    0  501  0.00000000000E+00  0.00000000000E+00  0.95591539288E+03  0.95591539289E+03  0.50400001928E-02 0. -1.
        1   -1    0    0  501    0  0.00000000000E+00  0.00000000000E+00 -0.21221432929E+03  0.21221432935E+03  0.50400001928E-02 0.  1.
    10030    2    1    2    0    0  0.00000000000E+00  0.00000000000E+00  0.74370106359E+03  0.11681297222E+04  0.90079730018E+03 0.  0.
        3    1    3    3  502    0 -0.26374844128E+02 -0.15553072836E+03  0.91891897232E+03  0.93236126462E+03  0.10100000352E+00 0. -1.
       -3    1    3    3    0  502  0.26374844128E+02  0.15553072836E+03 -0.17521790874E+03  0.23576845762E+03  0.10100000352E+00 0.  1.
</event>
<event>
 5   0  0.1535906E-02  0.9173462E+03  0.7818609E-02  0.9404154E-01
       -2   -1    0    0    0  501  0.00000000000E+00  0.00000000000E+00  0.53739883527E+03  0.53739883528E+03  0.25500000920E-02 0. -1.
        2   -1    0    0  501    0  0.00000000000E+00  0.00000000000E+00 -0.39148018049E+03  0.39148018050E+03  0.25500000920E-02 0.  1.
    10030    2    1    2    0    0  0.00000000000E+00  0.00000000000E+00  0.14591865478E+03  0.92887901577E+03  0.91734615720E+03 0.  0.
        2    1    3    3  502    0 -0.23643131585E+03  0.38347520338E+03  0.16022866646E+03  0.47814874703E+03  0.25500000920E-02 0.  1.
       -2    1    3    3    0  502  0.23643131585E+03 -0.38347520338E+03 -0.14310011677E+02  0.45073026874E+03  0.25500000920E-02 0. -1.
</event>
<event>
 5   0  0.1454652E-02  0.8837614E+03  0.7818609E-02  0.9446111E-01
       -2   -1    0    0    0  501  0.00000000000E+00  0.00000000000E+00  0.14198769596E+03  0.14198769599E+03  0.25500000920E-02 0.  1.
        2   -1    0    0  501    0  0.00000000000E+00  0.00000000000E+00 -0.13751794297E+04  0.13751794297E+04  0.25500000920E-02 0. -1.
    10030    2    1    2    0    0  0.00000000000E+00  0.00000000000E+00 -0.12331917337E+04  0.15171671257E+04  0.88376141300E+03 0.  0.
        4    1    3    3  502    0  0.18031182983E+01 -0.18265951247E+03 -0.13073242830E+04  0.13200250538E+04  0.12699999809E+01 0. -1.
       -4    1    3    3    0  502 -0.18031182983E+01  0.18265951247E+03  0.74132549324E+02  0.19714207187E+03  0.12699999809E+01 0.  1.
</event>
<event>
 5   0  0.1454652E-02  0.9019533E+03  0.7818609E-02  0.9423143E-01
        2   -1    0    0  501    0  0.00000000000E+00  0.00000000000E+00  0.16584340155E+04  0.16584340155E+04  0.25500000920E-02 0.  1.
       -2   -1    0    0    0  501  0.00000000000E+00  0.00000000000E+00 -0.12263372260E+03  0.12263372263E+03  0.25500000920E-02 0. -1.
    10030    2    1    2    0    0  0.00000000000E+00  0.00000000000E+00  0.15358002929E+04  0.17810677381E+04  0.90195329600E+03 0.  0.
        4    1    3    3  502    0 -0.19344589129E+03 -0.40264508535E+03  0.64563028704E+03  0.78510155907E+03  0.12699999809E+01 0. -1.
       -4    1    3    3    0  502  0.19344589129E+03  0.40264508535E+03  0.89017000587E+03  0.99596617907E+03  0.12699999809E+01 0.  1.
</event>
<event>
 5   0  0.8612969E-03  0.8655962E+03  0.7818609E-02  0.9469640E-01
       -1   -1    0    0    0  501  0.00000000000E+00  0.00000000000E+00  0.10639228475E+03  0.10639228487E+03  0.50400001928E-02 0.  1.
        1   -1    0    0  501    0  0.00000000000E+00  0.00000000000E+00 -0.17605994775E+04  0.17605994775E+04  0.50400001928E-02 0. -1.
    10030    2    1    2    0    0  0.00000000000E+00  0.00000000000E+00 -0.16542071928E+04  0.18669917624E+04  0.86559621316E+03 0.  0.
        4    1    3    3  502    0 -0.39133389251E+03 -0.26150324175E+02 -0.12217990724E+04  0.12832071699E+04  0.12699999809E+01 0.  1.
       -4    1    3    3    0  502  0.39133389251E+03  0.26150324175E+02 -0.43240812042E+03  0.58378459246E+03  0.12699999809E+01 0. -1.
</event>
<event>
 5   0  0.8738044E-03  0.9049327E+03  0.7818609E-02  0.9419436E-01
       -1   -1    0    0    0  501  0.00000000000E+00  0.00000000000E+00  0.76624511127E+03  0.76624511128E+03  0.50400001928E-02 0. -1.
        1   -1    0    0  501    0  0.00000000000E+00  0.00000000000E+00 -0.26718057417E+03  0.26718057422E+03  0.50400001928E-02 0.  1.
    10030    2    1    2    0    0  0.00000000000E+00  0.00000000000E+00  0.49906453710E+03  0.10334256855E+04  0.90493272417E+03 0.  0.
        3    1    3    3  502    0 -0.59981629261E+02 -0.13820355722E+03 -0.23769523277E+03  0.28141970962E+03  0.10100000352E+00 0.  1.
       -3    1    3    3    0  502  0.59981629261E+02  0.13820355722E+03  0.73675976986E+03  0.75200597589E+03  0.10100000352E+00 0. -1.
</event>
<event>
 5   0  0.8291252E-03  0.9384720E+03  0.7818609E-02  0.9378727E-01
       -1   -1    0    0    0  501  0.00000000000E+00  0.00000000000E+00  0.13545194328E+04  0.13545194328E+04  0.50400001928E-02 0. -1.
        1   -1    0    0  501    0  0.00000000000E+00  0.00000000000E+00 -0.16255390478E+03  0.16255390486E+03  0.50400001928E-02 0.  1.
    10030    2    1    2    0    0  0.00000000000E+00  0.00000000000E+00  0.11919655280E+04  0.15170733376E+04  0.93847199844E+03 0.  0.
        1    1    3    3  502    0  0.63534509448E+02  0.40870230776E+03  0.95421306736E+03  0.10399984559E+04  0.50400001928E-02 0. -1.
       -1    1    3    3    0  502 -0.63534509448E+02 -0.40870230776E+03  0.23775246065E+03  0.47707488178E+03  0.50400001928E-02 0.  1.
</event>
<event>
 5   0  0.8885324E-03  0.8952535E+03  0.7818609E-02  0.9431534E-01
       -1   -1    0    0    0  501  0.00000000000E+00  0.00000000000E+00  0.39955953448E+03  0.39955953451E+03  0.50400001928E-02 0. -1.
        1   -1    0    0  501    0  0.00000000000E+00  0.00000000000E+00 -0.50147643575E+03  0.50147643578E+03  0.50400001928E-02 0.  1.
    10030    2    1    2    0    0  0.00000000000E+00  0.00000000000E+00 -0.10191690127E+03  0.90103597029E+03  0.89525346410E+03 0.  0.
        2    1    3    3  502    0  0.92479791322E+02 -0.41586668895E+03  0.87304545059E+02  0.43487894681E+03  0.25500000920E-02 0. -1.
       -2    1    3    3    0  502 -0.92479791322E+02  0.41586668895E+03 -0.18922144633E+03  0.46615702348E+03  0.25500000920E-02 0.  1.
</event>
<event>
 5   0  0.8291252E-03  0.9155647E+03  0.7818609E-02  0.9406331E-01
        1   -1    0    0  501    0  0.00000000000E+00  0.00000000000E+00  0.49750502625E+03  0.49750502628E+03  0.50400001928E-02 0.  1.
       -1   -1    0    0    0  501  0.00000000000E+00  0.00000000000E+00 -0.42123125098E+03  0.42123125101E+03  0.50400001928E-02 0. -1.
    10030    2    1    2    0    0  0.00000000000E+00  0.00000000000E+00  0.76273775268E+02  0.91873627729E+03  0.91556466643E+03 0.  0.
        1    1    3    3  502    0  0.71307115877E+02 -0.10968756411E+03 -0.40207241626E+03  0.42282182351E+03  0.50400001928E-02 0. -1.
       -1    1    3    3    0  502 -0.71307115877E+02  0.10968756411E+03  0.47834619153E+03  0.49591445378E+03  0.50400001928E-02 0.  1.
</event>
<event>
 5   0  0.1535906E-02  0.8981714E+03  0.7818609E-02  0.9427870E-01
        2   -1    0    0  501    0  0.00000000000E+00  0.00000000000E+00  0.12295336988E+04  0.12295336988E+04  0.25500000920E-02 0. -1.
       -2   -1    0    0    0  501  0.00000000000E+00  0.00000000000E+00 -0.16402800340E+03  0.16402800342E+03  0.25500000920E-02 0.  1.
    10030    2    1    2    0    0  0.00000000000E+00  0.00000000000E+00  0.10655056954E+04  0.13935617022E+04  0.89817138174E+03 0.  0.
        2    1    3    3  502    0  0.12282886940E+03  0.43131638509E+03  0.56937750174E+03  0.72478375720E+03  0.25500000920E-02 0.  1.
       -2    1    3    3    0  502 -0.12282886940E+03 -0.43131638509E+03  0.49612819368E+03  0.66877794504E+03  0.25500000920E-02 0. -1.
</event>
<event>
 5   0  0.8612969E-03  0.8984735E+03  0.7818609E-02  0.9427492E-01
        1   -1    0    0  501    0  0.00000000000E+00  0.00000000000E+00  0.20232932473E+03  0.20232932479E+03  0.50400001928E-02 0. -1.
       -1   -1    0    0    0  501  0.00000000000E+00  0.00000000000E+00 -0.99745128432E+03  0.99745128433E+03  0.50400001928E-02 0.  1.
    10030    2    1    2    0    0  0.00000000000E+00  0.00000000000E+00 -0.79512195959E+03  0.11997806091E+04  0.89847347173E+03 0.  0.
        4    1    3    3  502    0 -0.21521075788E+03 -0.18948547742E+03  0.64231595635E+02  0.29384983791E+03  0.12699999809E+01 0. -1.
       -4    1    3    3    0  502  0.21521075788E+03  0.18948547742E+03 -0.85935355522E+03  0.90593077122E+03  0.12699999809E+01 0.  1.
</event>
<event>
 5   0  0.1454652E-02  0.9051762E+03  0.7818609E-02  0.9419134E-01
       -2   -1    0    0    0  501  0.00000000000E+00  0.00000000000E+00  0.25366854062E+03  0.25366854063E+03  0.25500000920E-02 0.  1.
        2   -1    0    0  501    0  0.00000000000E+00  0.00000000000E+00 -0.80749463271E+03  0.80749463272E+03  0.25500000920E-02 0. -1.
    10030    2    1    2    0    0  0.00000000000E+00  0.00000000000E+00 -0.55382609210E+03  0.10611631733E+04  0.90517619289E+03 0.  0.
        4    1    3    3  502    0  0.31319903268E+03  0.92496089616E+01 -0.65977307601E+03  0.73039805179E+03  0.12699999809E+01 0. -1.
       -4    1    3    3    0  502 -0.31319903268E+03 -0.92496089616E+01  0.10594698391E+03  0.33076512155E+03  0.12699999809E+01 0.  1.
</event>
<event>
 5   0  0.8291252E-03  0.8811774E+03  0.7818609E-02  0.9449421E-01
       -1   -1    0    0    0  501  0.00000000000E+00  0.00000000000E+00  0.25952514298E+03  0.25952514303E+03  0.50400001928E-02 0. -1.
        1   -1    0    0  501    0  0.00000000000E+00  0.00000000000E+00 -0.74797524509E+03  0.74797524510E+03  0.50400001928E-02 0.  1.
    10030    2    1    2    0    0  0.00000000000E+00  0.00000000000E+00 -0.48845010211E+03  0.10075003881E+04  0.88117735436E+03 0.  0.
        1    1    3    3  502    0 -0.97500420851E+02 -0.60573410275E+02  0.24212916236E+03  0.26795895468E+03  0.50400001928E-02 0. -1.
       -1    1    3    3    0  502  0.97500420851E+02  0.60573410275E+02 -0.73057926447E+03  0.73954143346E+03  0.50400001928E-02 0.  1.
</event>
<event>
 5   0  0.8738044E-03  0.8889776E+03  0.7818609E-02  0.9439466E-01
        1   -1    0    0  501    0  0.00000000000E+00  0.00000000000E+00  0.60013356264E+03  0.60013356266E+03  0.50400001928E-02 0. -1.
       -1   -1    0    0    0  501  0.00000000000E+00  0.00000000000E+00 -0.32921055156E+03  0.32921055160E+03  0.50400001928E-02 0.  1.
    10030    2    1    2    0    0  0.00000000000E+00  0.00000000000E+00  0.27092301108E+03  0.92934411426E+03  0.88897761771E+03 0.  0.
        3    1    3    3  502    0  0.19425329527E+03 -0.22623433170E+03  0.48005616038E+03  0.56512851891E+03  0.10100000352E+00 0. -1.
       -3    1    3    3    0  502 -0.19425329527E+03  0.22623433170E+03 -0.20913314931E+03  0.36421559536E+03  0.10100000352E+00 0.  1.
</event>
<event>
 5   0  0.1535906E-02  0.8898064E+03  0.7818609E-02  0.9438414E-01
       -2   -1    0    0    0  501  0.00000000000E+00  0.00000000000E+00  0.20502521499E+03  0.20502521501E+03  0.25500000920E-02 0.  1.
        2   -1    0    0  501    0  0.00000000000E+00  0.00000000000E+00 -0.96543670377E+03  0.96543670377E+03  0.25500000920E-02 0. -1.
    10030    2    1    2    0    0  0.00000000000E+00  0.00000000000E+00 -0.76041148878E+03  0.11704619188E+04  0.88980642336E+03 0.  0.
        2    1    3    3  502    0  0.41378082099E+03 -0.15120227626E+03 -0.29845766945E+03  0.53212186257E+03  0.25500000920E-02 0.  1.
       -2    1    3    3    0  502 -0.41378082099E+03  0.15120227626E+03 -0.46195381932E+03  0.63834005621E+03  0.25500000920E-02 0. -1.
</event>
<event>
 5   0  0.1440615E-02  0.8844760E+03  0.7818609E-02  0.9445198E-01
       -2   -1    0    0    0  501  0.00000000000E+00  0.00000000000E+00  0.51021991328E+03  0.51021991329E+03  0.25500000920E-02 0. -1.
        2   -1    0    0  501    0  0.00000000000E+00  0.00000000000E+00 -0.38331405462E+03  0.38331405463E+03  0.25500000920E-02 0.  1.
    10030    2    1    2    0    0  0.00000000000E+00  0.00000000000E+00  0.12690585866E+03  0.89353396792E+03  0.88447603408E+03 0.  0.
        3    1    3    3  502    0  0.70889414271E+02 -0.30733175019E+03 -0.24971582176E+03  0.40228859736E+03  0.10100000352E+00 0.  1.
       -3    1    3    3    0  502 -0.70889414271E+02  0.30733175019E+03  0.37662168042E+03  0.49124537056E+03  0.10100000352E+00 0. -1.
</event>
<event>
 5   0  0.1441195E-02  0.9383169E+03  0.7818609E-02  0.9378912E-01
       -2   -1    0    0    0  501  0.00000000000E+00  0.00000000000E+00  0.79782318568E+03  0.79782318568E+03  0.25500000920E-02 0.  1.
        2   -1    0    0  501    0  0.00000000000E+00  0.00000000000E+00 -0.27588774455E+03  0.27588774456E+03  0.25500000920E-02 0. -1.
    10030    2    1    2    0    0  0.00000000000E+00  0.00000000000E+00  0.52193544112E+03  0.10737109302E+04  0.93831687453E+03 0.  0.
        5    1    3    3  502    0  0.36735888770E+03 -0.24931332159E+03  0.87510381347E+02  0.45253711620E+03  0.46999998093E+01 0. -1.
       -5    1    3    3    0  502 -0.36735888770E+03  0.24931332159E+03  0.43442505978E+03  0.62117381405E+03  0.46999998093E+01 0.  1.
</event>
<event>
 5   0  0.8612969E-03  0.9076436E+03  0.7818609E-02  0.9416077E-01
       -1   -1    0    0    0  501  0.00000000000E+00  0.00000000000E+00  0.60568144600E+03  0.60568144602E+03  0.50400001928E-02 0. -1.
        1   -1    0    0  501    0  0.00000000000E+00  0.00000000000E+00 -0.34003716968E+03  0.34003716971E+03  0.50400001928E-02 0.  1.
    10030    2    1    2    0    0  0.00000000000E+00  0.00000000000E+00  0.26564427632E+03  0.94571861573E+03  0.90764355261E+03 0.  0.
        4    1    3    3  502    0 -0.65866306864E+02  0.31703664881E+03  0.46412596425E+03  0.56591972104E+03  0.12699999809E+01 0. -1.
       -4    1    3    3    0  502  0.65866306864E+02 -0.31703664881E+03 -0.19848168792E+03  0.37979889470E+03  0.12699999809E+01 0.  1.
</event>
<event>
 5   0  0.8291252E-03  0.8981267E+03  0.7818609E-02  0.9427926E-01
       -1   -1    0    0    0  501  0.00000000000E+00  0.00000000000E+00  0.35655870690E+03  0.35655870693E+03  0.50400001928E-02 0.  1.
        1   -1    0    0  501    0  0.00000000000E+00  0.00000000000E+00 -0.56556712986E+03  0.56556712988E+03  0.50400001928E-02 0. -1.
    10030    2    1    2    0    0  0.00000000000E+00  0.00000000000E+00 -0.20900842296E+03  0.92212583682E+03  0.89812668263E+03 0.  0.
        1    1    3    3  502    0 -0.19003943507E+03  0.31509639981E+03  0.15977864250E+03  0.40116074419E+03  0.50400001928E-02 0.  1.
       -1    1    3    3    0  502  0.19003943507E+03 -0.31509639981E+03 -0.36878706546E+03  0.52096509262E+03  0.50400001928E-02 0. -1.
</event>
<event>
 5   0  0.8738044E-03  0.8946491E+03  0.7818609E-02  0.9432295E-01
       -1   -1    0    0    0  501  0.00000000000E+00  0.00000000000E+00  0.12305254680E+03  0.12305254690E+03  0.50400001928E-02 0. -1.
        1   -1    0    0  501    0  0.00000000000E+00  0.00000000000E+00 -0.16261283731E+04  0.16261283731E+04  0.50400001928E-02 0.  1.
    10030    2    1    2    0    0  0.00000000000E+00  0.00000000000E+00 -0.15030758263E+04  0.17491809200E+04  0.89464906603E+03 0.  0.
        3    1    3    3  502    0 -0.25556942475E+03 -0.13355855236E+03 -0.14201496256E+04  0.14491302864E+04  0.10100000352E+00 0.  1.
       -3    1    3    3    0  502  0.25556942475E+03  0.13355855236E+03 -0.82926200761E+02  0.30005063364E+03  0.10100000352E+00 0. -1.
</event>
<event>
 5   0  0.1440615E-02  0.9051200E+03  0.7818609E-02  0.9419204E-01
        2   -1    0    0  501    0  0.00000000000E+00  0.00000000000E+00  0.80825585834E+03  0.80825585835E+03  0.25500000920E-02 0.  1.
       -2   -1    0    0    0  501  0.00000000000E+00  0.00000000000E+00 -0.25339819291E+03  0.25339819292E+03  0.25500000920E-02 0. -1.
    10030    2    1    2    0    0  0.00000000000E+00  0.00000000000E+00  0.55485766543E+03  0.10616540513E+04  0.90512004490E+03 0.  0.
        3    1    3    3  502    0 -0.32653249822E+03 -0.19661257006E+03  0.56361387208E+03  0.68039737073E+03  0.10100000352E+00 0.  1.
       -3    1    3    3    0  502  0.32653249822E+03  0.19661257006E+03 -0.87562066502E+01  0.38125668053E+03  0.10100000352E+00 0. -1.
</event>
<event>
 5   0  0.1535906E-02  0.8980115E+03  0.7818609E-02  0.9428071E-01
        2   -1    0    0  501    0  0.00000000000E+00  0.00000000000E+00  0.34129109450E+03  0.34129109451E+03  0.25500000920E-02 0.  1.
       -2   -1    0    0    0  501  0.00000000000E+00  0.00000000000E+00 -0.59071611378E+03  0.59071611379E+03  0.25500000920E-02 0. -1.
    10030    2    1    2    0    0  0.00000000000E+00  0.00000000000E+00 -0.24942501928E+03  0.93200720830E+03  0.89801146767E+03 0.  0.
        2    1    3    3  502    0  0.24691762962E+03  0.37458632206E+03 -0.10606223606E+03  0.46101239292E+03  0.25500000920E-02 0. -1.
       -2    1    3    3    0  502 -0.24691762962E+03 -0.37458632206E+03 -0.14336278322E+03  0.47099481538E+03  0.25500000920E-02 0.  1.
</event>
<event>
 5   0  0.5770125E-03  0.8966410E+03  0.7818609E-02  0.9429790E-01
        4   -1    0    0  501    0  0.00000000000E+00  0.00000000000E+00  0.18267179924E+03  0.18267621394E+03  0.12699999809E+01 0. -1.
       -4   -1    0    0    0  501  0.00000000000E+00  0.00000000000E+00 -0.11002682942E+04  0.11002690272E+04  0.12699999809E+01 0.  1.
    10030    2    1    2    0    0  0.00000000000E+00  0.00000000000E+00 -0.91759649498E+03  0.12829452411E+04  0.89664104529E+03 0.  0.
        1    1    3    3  502    0 -0.35138277803E+03 -0.61414071040E+02 -0.70227798157E+02  0.36355671976E+03  0.50400001928E-02 0. -1.
       -1    1    3    3    0  502  0.35138277803E+03  0.61414071040E+02 -0.84736869682E+03  0.91938852135E+03  0.50400001928E-02 0.  1.
</event>
<event>
 5   0  0.8885324E-03  0.8751974E+03  0.7818609E-02  0.9457128E-01
       -1   -1    0    0    0  501  0.00000000000E+00  0.00000000000E+00  0.50508150117E+03  0.50508150119E+03  0.50400001928E-02 0.  1.
        1   -1    0    0  501    0  0.00000000000E+00  0.00000000000E+00 -0.37913216057E+03  0.37913216060E+03  0.50400001928E-02 0. -1.
    10030    2    1    2    0    0  0.00000000000E+00  0.00000000000E+00  0.12594934060E+03  0.88421366180E+03  0.87519744247E+03 0.  0.
        2    1    3    3  502    0 -0.17631420621E+03  0.10332244255E+03  0.45391114663E+03  0.49779268324E+03  0.25500000920E-02 0.  1.
       -2    1    3    3    0  502  0.17631420621E+03 -0.10332244255E+03 -0.32796180603E+03  0.38642097856E+03  0.25500000920E-02 0. -1.
</event>
<event>
 5   0  0.1483326E-02  0.9038944E+03  0.7818609E-02  0.9420726E-01
       -2   -1    0    0    0  501  0.00000000000E+00  0.00000000000E+00  0.11054017240E+04  0.11054017240E+04  0.25500000920E-02 0.  1.
        2   -1    0    0  501    0  0.00000000000E+00  0.00000000000E+00 -0.18478014727E+03  0.18478014728E+03  0.25500000920E-02 0. -1.
    10030    2    1    2    0    0  0.00000000000E+00  0.00000000000E+00  0.92062157676E+03  0.12901818713E+04  0.90389444819E+03 0.  0.
        1    1    3    3  502    0 -0.36847839326E+02 -0.27651989589E+03 -0.47225791648E+02  0.28293336938E+03  0.50400001928E-02 0. -1.
       -1    1    3    3    0  502  0.36847839326E+02  0.27651989589E+03  0.96784736841E+03  0.10072485019E+04  0.50400001928E-02 0.  1.
</event>
<event>
 5   0  0.8738044E-03  0.8935952E+03  0.7818609E-02  0.9433623E-01
       -1   -1    0    0    0  501  0.00000000000E+00  0.00000000000E+00  0.89579609985E+02  0.89579610127E+02  0.50400001928E-02 0. -1.
        1   -1    0    0  501    0  0.00000000000E+00  0.00000000000E+00 -0.22284990210E+04  0.22284990210E+04  0.50400001928E-02 0.  1.
    10030    2    1    2    0    0  0.00000000000E+00  0.00000000000E+00 -0.21389194110E+04  0.23180786311E+04  0.89359515066E+03 0.  0.
        3    1    3    3  502    0  0.23674874417E+03 -0.29077589494E+03 -0.43920737516E+03  0.57749780739E+03  0.10100000352E+00 0. -1.
       -3    1    3    3    0  502 -0.23674874417E+03  0.29077589494E+03 -0.16997120358E+04  0.17405808237E+04  0.10100000352E+00 0.  1.
</event>
<event>
 5   0  0.1483326E-02  0.8980544E+03  0.7818609E-02  0.9428017E-01
       -2   -1    0    0    0  501  0.00000000000E+00  0.00000000000E+00  0.31176660911E+03  0.31176660912E+03  0.25500000920E-02 0. -1.
        2   -1    0    0  501    0  0.00000000000E+00  0.00000000000E+00 -0.64671910786E+03  0.64671910787E+03  0.25500000920E-02 0.  1.
    10030    2    1    2    0    0  0.00000000000E+00  0.00000000000E+00 -0.33495249875E+03  0.95848571699E+03  0.89805439326E+03 0.  0.
        1    1    3    3  502    0 -0.40609899729E+03 -0.16667785696E+03 -0.26831986589E+03  0.51448367715E+03  0.50400001928E-02 0. -1.
       -1    1    3    3    0  502  0.40609899729E+03  0.16667785696E+03 -0.66632632863E+02  0.44400203984E+03  0.50400001928E-02 0.  1.
</event>
<event>
 5   0  0.5770125E-03  0.9058550E+03  0.7818609E-02  0.9418292E-01
       -4   -1    0    0    0  501  0.00000000000E+00  0.00000000000E+00  0.35892455057E+03  0.35892679742E+03  0.12699999809E+01 0. -1.
        4   -1    0    0  501    0  0.00000000000E+00  0.00000000000E+00 -0.57154520367E+03  0.57154661466E+03  0.12699999809E+01 0.  1.
    10030    2    1    2    0    0  0.00000000000E+00  0.00000000000E+00 -0.21262065309E+03  0.93047341208E+03  0.90585497099E+03 0.  0.
        3    1    3    3  502    0  0.85387941366E+02 -0.43575467636E+03 -0.14608909177E+02  0.44428219515E+03  0.10100000352E+00 0. -1.
       -3    1    3    3    0  502 -0.85387941366E+02  0.43575467636E+03 -0.19801174391E+03  0.48619121693E+03  0.10100000352E+00 0.  1.
</event>
<event>
 5   0  0.8612969E-03  0.9263763E+03  0.7818609E-02  0.9393197E-01
        1   -1    0    0  501    0  0.00000000000E+00  0.00000000000E+00  0.10342398244E+04  0.10342398244E+04  0.50400001928E-02 0.  1.
       -1   -1    0    0    0  501  0.00000000000E+00  0.00000000000E+00 -0.20744054385E+03  0.20744054391E+03  0.50400001928E-02 0. -1.
    10030    2    1    2    0    0  0.00000000000E+00  0.00000000000E+00  0.82679928054E+03  0.12416803683E+04  0.92637632026E+03 0.  0.
        4    1    3    3  502    0  0.25176737620E+03 -0.16878548680E+03 -0.56045679813E+02  0.30825003390E+03  0.12699999809E+01 0. -1.
       -4    1    3    3    0  502 -0.25176737620E+03  0.16878548680E+03  0.88284496035E+03  0.93343033440E+03  0.12699999809E+01 0.  1.
</event>
<event>
 5   0  0.1454652E-02  0.9226474E+03  0.7818609E-02  0.9397706E-01
        2   -1    0    0  501    0  0.00000000000E+00  0.00000000000E+00  0.11185680196E+04  0.11185680196E+04  0.25500000920E-02 0. -1.
       -2   -1    0    0    0  501  0.00000000000E+00  0.00000000000E+00 -0.19026071874E+03  0.19026071875E+03  0.25500000920E-02 0.  1.
    10030    2    1    2    0    0  0.00000000000E+00  0.00000000000E+00  0.92830730088E+03  0.13088287384E+04  0.92264739826E+03 0.  0.
        4    1    3    3  502    0  0.18386721175E+03 -0.32415512439E+03  0.78435668587E+02  0.38083784375E+03  0.12699999809E+01 0.  1.
       -4    1    3    3    0  502 -0.18386721175E+03  0.32415512439E+03  0.84987163229E+03  0.92799089462E+03  0.12699999809E+01 0. -1.
</event>
<event>
 5   0  0.1535906E-02  0.8965290E+03  0.7818609E-02  0.9429931E-01
       -2   -1    0    0    0  501  0.00000000000E+00  0.00000000000E+00  0.20020240600E+03  0.20020240601E+03  0.25500000920E-02 0. -1.
        2   -1    0    0  501    0  0.00000000000E+00  0.00000000000E+00 -0.10036895291E+04  0.10036895291E+04  0.25500000920E-02 0.  1.
    10030    2    1    2    0    0  0.00000000000E+00  0.00000000000E+00 -0.80348712310E+03  0.12038919351E+04  0.89652899253E+03 0.  0.
        2    1    3    3  502    0  0.36405156389E+00 -0.35259535820E+03 -0.77343878779E+03  0.85001833958E+03  0.25500000920E-02 0.  1.
       -2    1    3    3    0  502 -0.36405156389E+00  0.35259535820E+03 -0.30048335314E+02  0.35387359554E+03  0.25500000920E-02 0. -1.
</event>
<event>
 5   0  0.8524692E-03  0.8977035E+03  0.7818609E-02  0.9428457E-01
       -1   -1    0    0    0  501  0.00000000000E+00  0.00000000000E+00  0.74691570673E+03  0.74691570674E+03  0.50400001928E-02 0. -1.
        1   -1    0    0  501    0  0.00000000000E+00  0.00000000000E+00 -0.26973311363E+03  0.26973311368E+03  0.50400001928E-02 0.  1.
    10030    2    1    2    0    0  0.00000000000E+00  0.00000000000E+00  0.47718259310E+03  0.10166488204E+04  0.89770351281E+03 0.  0.
        5    1    3    3  502    0  0.40644393895E+03  0.10808725335E+03  0.61087465942E+02  0.42500976264E+03  0.46999998093E+01 0. -1.
       -5    1    3    3    0  502 -0.40644393895E+03 -0.10808725335E+03  0.41609512715E+03  0.59163905778E+03  0.46999998093E+01 0.  1.
</event>
<event>
 5   0  0.1441195E-02  0.9036868E+03  0.7818609E-02  0.9420984E-01
        2   -1    0    0  501    0  0.00000000000E+00  0.00000000000E+00  0.16610740097E+04  0.16610740097E+04  0.25500000920E-02 0.  1.
       -2   -1    0    0    0  501  0.00000000000E+00  0.00000000000E+00 -0.12290990706E+03  0.12290990709E+03  0.25500000920E-02 0. -1.
    10030    2    1    2    0    0  0.00000000000E+00  0.00000000000E+00  0.15381641027E+04  0.17839839168E+04  0.90368678685E+03 0.  0.
        5    1    3    3  502    0  0.21049567562E+03  0.22285860794E+03  0.11384757450E+03  0.32704395546E+03  0.46999998093E+01 0. -1.
       -5    1    3    3    0  502 -0.21049567562E+03 -0.22285860794E+03  0.14243165282E+04  0.14569399614E+04  0.46999998093E+01 0.  1.
</event>
<event>
 5   0  0.1535906E-02  0.9019182E+03  0.7818609E-02  0.9423187E-01
        2   -1    0    0  501    0  0.00000000000E+00  0.00000000000E+00  0.14016683635E+04  0.14016683636E+04  0.25500000920E-02 0.  1.
       -2   -1    0    0    0  501  0.00000000000E+00  0.00000000000E+00 -0.14508719277E+03  0.14508719280E+03  0.25500000920E-02 0. -1.
    10030    2    1    2    0    0  0.00000000000E+00  0.00000000000E+00  0.12565811708E+04  0.15467555563E+04  0.90191824039E+03 0.  0.
        2    1    3    3  502    0 -0.20963019140E+03 -0.37633013329E+03  0.39951862198E+03  0.58752388521E+03  0.25500000920E-02 0. -1.
       -2    1    3    3    0  502  0.20963019140E+03  0.37633013329E+03  0.85706254879E+03  0.95923167114E+03  0.25500000920E-02 0.  1.
</event>
<event>
 5   0  0.5770125E-03  0.9036481E+03  0.7818609E-02  0.9421033E-01
       -4   -1    0    0    0  501  0.00000000000E+00  0.00000000000E+00  0.11355249280E+04  0.11355256382E+04  0.12699999809E+01 0. -1.
        4   -1    0    0  501    0  0.00000000000E+00  0.00000000000E+00 -0.17977727345E+03  0.17978175922E+03  0.12699999809E+01 0.  1.
    10030    2    1    2    0    0  0.00000000000E+00  0.00000000000E+00  0.95574765451E+03  0.13153073974E+04  0.90364814529E+03 0.  0.
        2    1    3    3  502    0  0.32932374421E+03  0.10657564414E+03  0.90056714162E+03  0.96479721859E+03  0.25500000920E-02 0. -1.
       -2    1    3    3    0  502 -0.32932374421E+03 -0.10657564414E+03  0.55180512890E+02  0.35051017879E+03  0.25500000920E-02 0.  1.
</event>
<event>
 5   0  0.8738044E-03  0.8832469E+03  0.7818609E-02  0.9446769E-01
        1   -1    0    0  501    0  0.00000000000E+00  0.00000000000E+00  0.53388435526E+03  0.53388435529E+03  0.50400001928E-02 0. -1.
       -1   -1    0    0    0  501  0.00000000000E+00  0.00000000000E+00 -0.36530620099E+03  0.36530620103E+03  0.50400001928E-02 0.  1.
    10030    2    1    2    0    0  0.00000000000E+00  0.00000000000E+00  0.16857815427E+03  0.89919055631E+03  0.88324688647E+03 0.  0.
        3    1    3    3  502    0  0.21502481746E+03 -0.34299359631E+03  0.26397144093E+03  0.48328170984E+03  0.10100000352E+00 0. -1.
       -3    1    3    3    0  502 -0.21502481746E+03  0.34299359631E+03 -0.95393286654E+02  0.41590884648E+03  0.10100000352E+00 0.  1.
</event>
<event>
 5   0  0.1483326E-02  0.8904166E+03  0.7818609E-02  0.9437641E-01
        2   -1    0    0  501    0  0.00000000000E+00  0.00000000000E+00  0.12690800455E+04  0.12690800455E+04  0.25500000920E-02 0. -1.
       -2   -1    0    0    0  501  0.00000000000E+00  0.00000000000E+00 -0.15618435752E+03  0.15618435754E+03  0.25500000920E-02 0.  1.
    10030    2    1    2    0    0  0.00000000000E+00  0.00000000000E+00  0.11128956880E+04  0.14252644030E+04  0.89041664756E+03 0.  0.
        1    1    3    3  502    0  0.17623044272E+03 -0.29590286318E+03  0.10485769913E+03  0.36001501423E+03  0.50400001928E-02 0.  1.
       -1    1    3    3    0  502 -0.17623044272E+03  0.29590286318E+03  0.10080379889E+04  0.10652493888E+04  0.50400001928E-02 0. -1.
</event>
<event>
 5   0  0.8738044E-03  0.8702836E+03  0.7818609E-02  0.9463510E-01
       -1   -1    0    0    0  501  0.00000000000E+00  0.00000000000E+00  0.50555693176E+03  0.50555693178E+03  0.50400001928E-02 0. -1.
        1   -1    0    0  501    0  0.00000000000E+00  0.00000000000E+00 -0.37453427637E+03  0.37453427640E+03  0.50400001928E-02 0.  1.
    10030    2    1    2    0    0  0.00000000000E+00  0.00000000000E+00  0.13102265539E+03  0.88009120818E+03  0.87028363106E+03 0.  0.
        3    1    3    3  502    0  0.15775368578E+03  0.17531608320E+03 -0.30429599028E+03  0.38499092756E+03  0.10100000352E+00 0.  1.
       -3    1    3    3    0  502 -0.15775368578E+03 -0.17531608320E+03  0.43531864567E+03  0.49510028062E+03  0.10100000352E+00 0. -1.
</event>
<event>
 5   0  0.1535906E-02  0.9003972E+03  0.7818609E-02  0.9425085E-01
       -2   -1    0    0    0  501  0.00000000000E+00  0.00000000000E+00  0.31097119758E+03  0.31097119759E+03  0.25500000920E-02 0.  1.
        2   -1    0    0  501    0  0.00000000000E+00  0.00000000000E+00 -0.65176065503E+03  0.65176065503E+03  0.25500000920E-02 0. -1.
    10030    2    1    2    0    0  0.00000000000E+00  0.00000000000E+00 -0.34078945745E+03  0.96273185263E+03  0.90039722665E+03 0.  0.
        2    1    3    3  502    0  0.22343105505E+03  0.30308188410E+03 -0.43425578590E+03  0.57476791179E+03  0.25500000920E-02 0. -1.
       -2    1    3    3    0  502 -0.22343105505E+03 -0.30308188410E+03  0.93466328458E+02  0.38796394084E+03  0.25500000920E-02 0.  1.
</event>
<event>
 5   0  0.1440615E-02  0.9334583E+03  0.7818609E-02  0.9384697E-01
        2   -1    0    0  501    0  0.00000000000E+00  0.00000000000E+00  0.15491046885E+04  0.15491046885E+04  0.25500000920E-02 0. -1.
       -2   -1    0    0    0  501  0.00000000000E+00  0.00000000000E+00 -0.14062064013E+03  0.14062064015E+03  0.25500000920E-02 0.  1.
    10030    2    1    2    0    0  0.00000000000E+00  0.00000000000E+00  0.14084840484E+04  0.16897253287E+04  0.93345828604E+03 0.  0.
        3    1    3    3  502    0 -0.19488247131E+02  0.25437362261E+03 -0.32349464101E+01  0.25513958284E+03  0.10100000352E+00 0.  1.
       -3    1    3    3    0  502  0.19488247131E+02 -0.25437362261E+03  0.14117189948E+04  0.14345857458E+04  0.10100000352E+00 0. -1.
</event>
<event>
 5   0  0.1483326E-02  0.8972998E+03  0.7818609E-02  0.9428963E-01
        2   -1    0    0  501    0  0.00000000000E+00  0.00000000000E+00  0.23176650839E+04  0.23176650839E+04  0.25500000920E-02 0.  1.
       -2   -1    0    0    0  501  0.00000000000E+00  0.00000000000E+00 -0.86848924124E+02  0.86848924161E+02  0.25500000920E-02 0. -1.
    10030    2    1    2    0    0  0.00000000000E+00  0.00000000000E+00  0.22308161597E+04  0.24045140080E+04  0.89729976944E+03 0.  0.
        1    1    3    3  502    0 -0.16901786768E+02 -0.21614306400E+03  0.21679735262E+04  0.21787869801E+04  0.50400001928E-02 0.  1.
       -1    1    3    3    0  502  0.16901786768E+02  0.21614306400E+03  0.62842633574E+02  0.22572702792E+03  0.50400001928E-02 0. -1.
</event>
<event>
 5   0  0.1441195E-02  0.9195724E+03  0.7818609E-02  0.9401440E-01
        2   -1    0    0  501    0  0.00000000000E+00  0.00000000000E+00  0.12685189507E+04  0.12685189507E+04  0.25500000920E-02 0.  1.
       -2   -1    0    0    0  501  0.00000000000E+00  0.00000000000E+00 -0.16665366451E+03  0.16665366453E+03  0.25500000920E-02 0. -1.
    10030    2    1    2    0    0  0.00000000000E+00  0.00000000000E+00  0.11018652862E+04  0.14351726152E+04  0.91957236071E+03 0.  0.
        5    1    3    3  502    0  0.36119332548E+03  0.19016326696E+03  0.88111682140E+03  0.97108785876E+03  0.46999998093E+01 0.  1.
       -5    1    3    3    0  502 -0.36119332548E+03 -0.19016326696E+03  0.22074846477E+03  0.46408475645E+03  0.46999998093E+01 0. -1.
</event>
<event>
 5   0  0.8612969E-03  0.9037740E+03  0.7818609E-02  0.9420876E-01
       -1   -1    0    0    0  501  0.00000000000E+00  0.00000000000E+00  0.42556690034E+03  0.42556690037E+03  0.50400001928E-02 0. -1.
        1   -1    0    0  501    0  0.00000000000E+00  0.00000000000E+00 -0.47983490986E+03  0.47983490989E+03  0.50400001928E-02 0.  1.
    10030    2    1    2    0    0  0.00000000000E+00  0.00000000000E+00 -0.54268009520E+02  0.90540181026E+03  0.90377398788E+03 0.  0.
        4    1    3    3  502    0  0.17509803030E+02 -0.33125504937E+03 -0.33454781523E+03  0.47112668626E+03  0.12699999809E+01 0.  1.
       -4    1    3    3    0  502 -0.17509803030E+02  0.33125504937E+03  0.28027980571E+03  0.43427512400E+03  0.12699999809E+01 0. -1.
</event>
<event>
 5   0  0.8524692E-03  0.8969001E+03  0.7818609E-02  0.9429465E-01
       -1   -1    0    0    0  501  0.00000000000E+00  0.00000000000E+00  0.37151965388E+03  0.37151965391E+03  0.50400001928E-02 0.  1.
        1   -1    0    0  501    0  0.00000000000E+00  0.00000000000E+00 -0.54131033096E+03  0.54131033099E+03  0.50400001928E-02 0. -1.
    10030    2    1    2    0    0  0.00000000000E+00  0.00000000000E+00 -0.16979067708E+03  0.91282998490E+03  0.89690005425E+03 0.  0.
        5    1    3    3  502    0  0.30103164891E+02 -0.28448184485E+03  0.26656280757E+03  0.39104212173E+03  0.46999998093E+01 0.  1.
       -5    1    3    3    0  502 -0.30103164891E+02  0.28448184485E+03 -0.43635348465E+03  0.52178786317E+03  0.46999998093E+01 0. -1.
</event>
<event>
 5   0  0.5770125E-03  0.8808161E+03  0.7818609E-02  0.9449885E-01
        3   -1    0    0  501    0  0.00000000000E+00  0.00000000000E+00  0.32106982516E+03  0.32106984104E+03  0.10100000352E+00 0.  1.
       -3   -1    0    0    0  501  0.00000000000E+00  0.00000000000E+00 -0.60410293871E+03  0.60410294715E+03  0.10100000352E+00 0. -1.
    10030    2    1    2    0    0  0.00000000000E+00  0.00000000000E+00 -0.28303311355E+03  0.92517278820E+03  0.88081606744E+03 0.  0.
        1    1    3    3  502    0  0.11322419510E+03 -0.10602397717E+03  0.29142802639E+03  0.33013799642E+03  0.50400001928E-02 0.  1.
       -1    1    3    3    0  502 -0.11322419510E+03  0.10602397717E+03 -0.57446113994E+03  0.59503479177E+03  0.50400001928E-02 0. -1.
</event>
<event>
 5   0  0.1454652E-02  0.8786400E+03  0.7818609E-02  0.9452683E-01
        2   -1    0    0  501    0  0.00000000000E+00  0.00000000000E+00  0.79168146142E+03  0.79168146142E+03  0.25500000920E-02 0. -1.
       -2   -1    0    0    0  501  0.00000000000E+00  0.00000000000E+00 -0.24378753012E+03  0.24378753013E+03  0.25500000920E-02 0.  1.
    10030    2    1    2    0    0  0.00000000000E+00  0.00000000000E+00  0.54789393130E+03  0.10354689916E+04  0.87864001304E+03 0.  0.
        4    1    3    3  502    0 -0.25616443542E+02  0.43727687236E+03  0.23427557009E+03  0.49674331492E+03  0.12699999809E+01 0.  1.
       -4    1    3    3    0  502  0.25616443542E+02 -0.43727687236E+03  0.31361836121E+03  0.53872567663E+03  0.12699999809E+01 0. -1.
</event>
<event>
 5   0  0.8612969E-03  0.9232547E+03  0.7818609E-02  0.9396970E-01
        1   -1    0    0  501    0  0.00000000000E+00  0.00000000000E+00  0.35231073280E+03  0.35231073283E+03  0.50400001928E-02 0. -1.
       -1   -1    0    0    0  501  0.00000000000E+00  0.00000000000E+00 -0.60486329700E+03  0.60486329702E+03  0.50400001928E-02 0.  1.
    10030    2    1    2    0    0  0.00000000000E+00  0.00000000000E+00 -0.25255256420E+03  0.95717402985E+03  0.92325474585E+03 0.  0.
        4    1    3    3  502    0  0.11307685817E+03  0.36223747418E+03  0.14624181990E+03  0.40668248837E+03  0.12699999809E+01 0. -1.
       -4    1    3    3    0  502 -0.11307685817E+03 -0.36223747418E+03 -0.39879438410E+03  0.55049154149E+03  0.12699999809E+01 0.  1.
</event>
<event>
 5   0  0.5770125E-03  0.8987048E+03  0.7818609E-02  0.9427202E-01
       -3   -1    0    0    0  501  0.00000000000E+00  0.00000000000E+00  0.40078703520E+03  0.40078704793E+03  0.10100000352E+00 0.  1.
        3   -1    0    0  501    0  0.00000000000E+00  0.00000000000E+00 -0.50380260908E+03  0.50380261920E+03  0.10100000352E+00 0. -1.
    10030    2    1    2    0    0  0.00000000000E+00  0.00000000000E+00 -0.10301557388E+03  0.90458966713E+03  0.89870476655E+03 0.  0.
        1    1    3    3  502    0  0.35764621093E+03 -0.23150075388E+02 -0.32433773426E+03  0.48336498019E+03  0.50400001928E-02 0. -1.
       -1    1    3    3    0  502 -0.35764621093E+03  0.23150075388E+02  0.22132216038E+03  0.42122468694E+03  0.50400001928E-02 0.  1.
</event>
<event>
 5   0  0.8291252E-03  0.8845790E+03  0.7818609E-02  0.9445066E-01
        1   -1    0    0  501    0  0.00000000000E+00  0.00000000000E+00  0.33552358594E+03  0.33552358598E+03  0.50400001928E-02 0. -1.
       -1   -1    0    0    0  501  0.00000000000E+00  0.00000000000E+00 -0.58302905542E+03  0.58302905544E+03  0.50400001928E-02 0.  1.
    10030    2    1    2    0    0  0.00000000000E+00  0.00000000000E+00 -0.24750546948E+03  0.91855264142E+03  0.88457899458E+03 0.  0.
        1    1    3    3  502    0 -0.14719674839E+03  0.41706675740E+03 -0.12073661126E+03  0.45846362145E+03  0.50400001928E-02 0.  1.
       -1    1    3    3    0  502  0.14719674839E+03 -0.41706675740E+03 -0.12676885821E+03  0.46008901998E+03  0.50400001928E-02 0. -1.
</event>
<event>
 5   0  0.1483326E-02  0.8741685E+03  0.7818609E-02  0.9458461E-01
       -2   -1    0    0    0  501  0.00000000000E+00  0.00000000000E+00  0.11591812689E+03  0.11591812692E+03  0.25500000920E-02 0. -1.
        2   -1    0    0  501    0  0.00000000000E+00  0.00000000000E+00 -0.16480825117E+04  0.16480825117E+04  0.25500000920E-02 0.  1.
    10030    2    1    2    0    0  0.00000000000E+00  0.00000000000E+00 -0.15321643848E+04  0.17640006386E+04  0.87416849119E+03 0.  0.
        1    1    3    3  502    0 -0.74512169995E+02 -0.39127404774E+03 -0.40288383082E+03  0.56653581094E+03  0.50400001928E-02 0. -1.
       -1    1    3    3    0  502  0.74512169995E+02  0.39127404774E+03 -0.11292805540E+04  0.11974648277E+04  0.50400001928E-02 0.  1.
</event>
<event>
 5   0  0.8524692E-03  0.8961682E+03  0.7818609E-02  0.9430384E-01
       -1   -1    0    0    0  501  0.00000000000E+00  0.00000000000E+00  0.20065545533E+03  0.20065545539E+03  0.50400001928E-02 0. -1.
        1   -1    0    0  501    0  0.00000000000E+00  0.00000000000E+00 -0.10006174636E+04  0.10006174636E+04  0.50400001928E-02 0.  1.
    10030    2    1    2    0    0  0.00000000000E+00  0.00000000000E+00 -0.79996200826E+03  0.12012729190E+04  0.89616818246E+03 0.  0.
        5    1    3    3  502    0  0.29425315498E+03 -0.33628512159E+03 -0.35583421757E+03  0.57123785117E+03  0.46999998093E+01 0. -1.
       -5    1    3    3    0  502 -0.29425315498E+03  0.33628512159E+03 -0.44412779069E+03  0.63003506782E+03  0.46999998093E+01 0.  1.
</event>
<event>
 5   0  0.1454652E-02  0.9308820E+03  0.7818609E-02  0.9387780E-01
       -2   -1    0    0    0  501  0.00000000000E+00  0.00000000000E+00  0.20115328734E+03  0.20115328735E+03  0.25500000920E-02 0. -1.
        2   -1    0    0  501    0  0.00000000000E+00  0.00000000000E+00 -0.10769663859E+04  0.10769663859E+04  0.25500000920E-02 0.  1.
    10030    2    1    2    0    0  0.00000000000E+00  0.00000000000E+00 -0.87581309853E+03  0.12781196732E+04  0.93088200946E+03 0.  0.
        4    1    3    3  502    0 -0.56095480578E+02 -0.11365143068E+03  0.17700162367E+03  0.21770286705E+03  0.12699999809E+01 0. -1.
       -4    1    3    3    0  502  0.56095480578E+02  0.11365143068E+03 -0.10528147222E+04  0.10604168062E+04  0.12699999809E+01 0.  1.
</event>
<event>
 5   0  0.1483326E-02  0.9043202E+03  0.7818609E-02  0.9420197E-01
        2   -1    0    0  501    0  0.00000000000E+00  0.00000000000E+00  0.13083767441E+04  0.13083767441E+04  0.25500000920E-02 0.  1.
       -2   -1    0    0    0  501  0.00000000000E+00  0.00000000000E+00 -0.15626137583E+03  0.15626137585E+03  0.25500000920E-02 0. -1.
    10030    2    1    2    0    0  0.00000000000E+00  0.00000000000E+00  0.11521153683E+04  0.14646381200E+04  0.90432018701E+03 0.  0.
        1    1    3    3  502    0  0.27841727261E+03  0.40066015838E+02  0.11494223512E+04  0.11833398518E+04  0.50400001928E-02 0.  1.
       -1    1    3    3    0  502 -0.27841727261E+03 -0.40066015838E+02  0.26930170563E+01  0.28129826818E+03  0.50400001928E-02 0. -1.
</event>
<event>
 5   0  0.1440615E-02  0.8871323E+03  0.7818609E-02  0.9441811E-01
        2   -1    0    0  501    0  0.00000000000E+00  0.00000000000E+00  0.16094744687E+04  0.16094744687E+04  0.25500000920E-02 0.  1.
       -2   -1    0    0    0  501  0.00000000000E+00  0.00000000000E+00 -0.12224545526E+03  0.12224545528E+03  0.25500000920E-02 0. -1.
    10030    2    1    2    0    0  0.00000000000E+00  0.00000000000E+00  0.14872290134E+04  0.17317199239E+04  0.88713232197E+03 0.  0.
        3    1    3    3  502    0 -0.13062379124E+03  0.24521656753E+03  0.14185730502E+04  0.14455252501E+04  0.10100000352E+00 0.  1.
       -3    1    3    3    0  502  0.13062379124E+03 -0.24521656753E+03  0.68655963197E+02  0.28619467380E+03  0.10100000352E+00 0. -1.
</event>
<event>
 5   0  0.1535906E-02  0.9019518E+03  0.7818609E-02  0.9423145E-01
        2   -1    0    0  501    0  0.00000000000E+00  0.00000000000E+00  0.23968590413E+03  0.23968590414E+03  0.25500000920E-02 0. -1.
       -2   -1    0    0    0  501  0.00000000000E+00  0.00000000000E+00 -0.84852400268E+03  0.84852400268E+03  0.25500000920E-02 0.  1.
    10030    2    1    2    0    0  0.00000000000E+00  0.00000000000E+00 -0.60883809855E+03  0.10882099068E+04  0.90195175651E+03 0.  0.
        2    1    3    3  502    0 -0.15951234695E+03 -0.32861043404E+01  0.20449793526E+03  0.25937307656E+03  0.25500000920E-02 0. -1.
       -2    1    3    3    0  502  0.15951234695E+03  0.32861043404E+01 -0.81333603380E+03  0.82883683026E+03  0.25500000920E-02 0.  1.
</event>
<event>
 5   0  0.1483326E-02  0.8966114E+03  0.7818609E-02  0.9429827E-01
       -2   -1    0    0    0  501  0.00000000000E+00  0.00000000000E+00  0.16929996557E+03  0.16929996558E+03  0.25500000920E-02 0.  1.
        2   -1    0    0  501    0  0.00000000000E+00  0.00000000000E+00 -0.11871118017E+04  0.11871118017E+04  0.25500000920E-02 0. -1.
    10030    2    1    2    0    0  0.00000000000E+00  0.00000000000E+00 -0.10178118361E+04  0.13564117673E+04  0.89661136991E+03 0.  0.
        1    1    3    3  502    0  0.20681447686E+03 -0.70274296459E+01 -0.11105375435E+04  0.11296527113E+04  0.50400001928E-02 0. -1.
       -1    1    3    3    0  502 -0.20681447686E+03  0.70274296459E+01  0.92725707419E+02  0.22675905593E+03  0.50400001928E-02 0.  1.
</event>
<event>
 5   0  0.1441195E-02  0.8878082E+03  0.7818609E-02  0.9440951E-01
       -2   -1    0    0    0  501  0.00000000000E+00  0.00000000000E+00  0.30991738215E+03  0.30991738216E+03  0.25500000920E-02 0.  1.
        2   -1    0    0  501    0  0.00000000000E+00  0.00000000000E+00 -0.63581735264E+03  0.63581735264E+03  0.25500000920E-02 0. -1.
    10030    2    1    2    0    0  0.00000000000E+00  0.00000000000E+00 -0.32589997049E+03  0.94573473480E+03  0.88780819879E+03 0.  0.
        5    1    3    3  502    0  0.99813533705E+02 -0.29926876723E+03  0.16968038667E+03  0.35824301831E+03  0.46999998093E+01 0.  1.
       -5    1    3    3    0  502 -0.99813533705E+02  0.29926876723E+03 -0.49558035715E+03  0.58749171649E+03  0.46999998093E+01 0. -1.
</event>
<event>
 5   0  0.1535906E-02  0.8987499E+03  0.7818609E-02  0.9427146E-01
        2   -1    0    0  501    0  0.00000000000E+00  0.00000000000E+00  0.75221411187E+03  0.75221411188E+03  0.25500000920E-02 0.  1.
       -2   -1    0    0    0  501  0.00000000000E+00  0.00000000000E+00 -0.26845790724E+03  0.26845790725E+03  0.25500000920E-02 0. -1.
    10030    2    1    2    0    0  0.00000000000E+00  0.00000000000E+00  0.48375620464E+03  0.10206720191E+04  0.89874985680E+03 0.  0.
        2    1    3    3  502    0 -0.42507253680E+02  0.52111223803E+02 -0.26271100027E+03  0.27118170280E+03  0.25500000920E-02 0. -1.
       -2    1    3    3    0  502  0.42507253680E+02 -0.52111223803E+02  0.74646720491E+03  0.74949031633E+03  0.25500000920E-02 0.  1.
</event>
<event>
 5   0  0.8738044E-03  0.8962954E+03  0.7818609E-02  0.9430224E-01
       -1   -1    0    0    0  501  0.00000000000E+00  0.00000000000E+00  0.20363309667E+03  0.20363309674E+03  0.50400001928E-02 0.  1.
        1   -1    0    0  501    0  0.00000000000E+00  0.00000000000E+00 -0.98626572203E+03  0.98626572204E+03  0.50400001928E-02 0. -1.
    10030    2    1    2    0    0  0.00000000000E+00  0.00000000000E+00 -0.78263262535E+03  0.11898988188E+04  0.89629536017E+03 0.  0.
        3    1    3    3  502    0 -0.16656264581E+03  0.11734638348E+03  0.13858888967E+03  0.24641464899E+03  0.10100000352E+00 0.  1.
       -3    1    3    3    0  502  0.16656264581E+03 -0.11734638348E+03 -0.92122151502E+03  0.94348416979E+03  0.10100000352E+00 0. -1.
</event>
<event>
 5   0  0.8291252E-03  0.8976568E+03  0.7818609E-02  0.9428515E-01
        1   -1    0    0  501    0  0.00000000000E+00  0.00000000000E+00  0.47736147942E+03  0.47736147945E+03  0.50400001928E-02 0. -1.
       -1   -1    0    0    0  501  0.00000000000E+00  0.00000000000E+00 -0.42200079790E+03  0.42200079793E+03  0.50400001928E-02 0.  1.
    10030    2    1    2    0    0  0.00000000000E+00  0.00000000000E+00  0.55360681523E+02  0.89936227738E+03  0.89765678348E+03 0.  0.
        1    1    3    3  502    0  0.15019669552E+02  0.39336835994E+03 -0.18832767870E+03  0.43638466021E+03  0.50400001928E-02 0.  1.
       -1    1    3    3    0  502 -0.15019669552E+02 -0.39336835994E+03  0.24368836022E+03  0.46297761718E+03  0.50400001928E-02 0. -1.
</event>
<event>
 5   0  0.1454652E-02  0.9038274E+03  0.7818609E-02  0.9420810E-01
       -2   -1    0    0    0  501  0.00000000000E+00  0.00000000000E+00  0.81073941453E+03  0.81073941454E+03  0.25500000920E-02 0.  1.
        2   -1    0    0  501    0  0.00000000000E+00  0.00000000000E+00 -0.25190090586E+03  0.25190090587E+03  0.25500000920E-02 0. -1.
    10030    2    1    2    0    0  0.00000000000E+00  0.00000000000E+00  0.55883850868E+03  0.10626403204E+04  0.90382740154E+03 0.  0.
        4    1    3    3  502    0  0.65035957997E+02 -0.32817399983E+02 -0.24495036985E+03  0.25555616636E+03  0.12699999809E+01 0. -1.
       -4    1    3    3    0  502 -0.65035957997E+02  0.32817399983E+02  0.80378887853E+03  0.80708415405E+03  0.12699999809E+01 0.  1.
</event>
<event>
 5   0  0.1441195E-02  0.9001440E+03  0.7818609E-02  0.9425401E-01
       -2   -1    0    0    0  501  0.00000000000E+00  0.00000000000E+00  0.15783090303E+03  0.15783090305E+03  0.25500000920E-02 0.  1.
        2   -1    0    0  501    0  0.00000000000E+00  0.00000000000E+00 -0.12834293528E+04  0.12834293528E+04  0.25500000920E-02 0. -1.
    10030    2    1    2    0    0  0.00000000000E+00  0.00000000000E+00 -0.11255984497E+04  0.14412602558E+04  0.90014401901E+03 0.  0.
        5    1    3    3  502    0 -0.12132239168E+02  0.44984571728E+03 -0.57218514676E+03  0.72796036482E+03  0.46999998093E+01 0. -1.
       -5    1    3    3    0  502  0.12132239168E+02 -0.44984571728E+03 -0.55341330298E+03  0.71329989099E+03  0.46999998093E+01 0.  1.
</event>
<event>
 5   0  0.1441195E-02  0.7473812E+03  0.7818609E-02  0.9639468E-01
        2   -1    0    0  501    0  0.00000000000E+00  0.00000000000E+00  0.56428823305E+03  0.56428823305E+03  0.25500000920E-02 0.  1.
       -2   -1    0    0    0  501  0.00000000000E+00  0.00000000000E+00 -0.24747042476E+03  0.24747042477E+03  0.25500000920E-02 0. -1.
    10030    2    1    2    0    0  0.00000000000E+00  0.00000000000E+00  0.31681780829E+03  0.81175865782E+03  0.74738115771E+03 0.  0.
        5    1    3    3  502    0  0.17049373277E+03 -0.82297226755E+02 -0.19149194089E+03  0.26931802738E+03  0.46999998093E+01 0. -1.
       -5    1    3    3    0  502 -0.17049373277E+03  0.82297226755E+02  0.50830974918E+03  0.54244063044E+03  0.46999998093E+01 0.  1.
</event>
<event>
 5   0  0.8612969E-03  0.9113991E+03  0.7818609E-02  0.9411443E-01
        1   -1    0    0  501    0  0.00000000000E+00  0.00000000000E+00  0.92325359335E+03  0.92325359336E+03  0.50400001928E-02 0.  1.
       -1   -1    0    0    0  501  0.00000000000E+00  0.00000000000E+00 -0.22492421665E+03  0.22492421671E+03  0.50400001928E-02 0. -1.
    10030    2    1    2    0    0  0.00000000000E+00  0.00000000000E+00  0.69832937670E+03  0.11481778101E+04  0.91139912507E+03 0.  0.
        4    1    3    3  502    0  0.37418572030E+03  0.21164599629E+03  0.15872481958E+03  0.45826211088E+03  0.12699999809E+01 0. -1.
       -4    1    3    3    0  502 -0.37418572030E+03 -0.21164599629E+03  0.53960455712E+03  0.68991569918E+03  0.12699999809E+01 0.  1.
</event>
<event>
 5   0  0.8524692E-03  0.8992978E+03  0.7818609E-02  0.9426460E-01
        1   -1    0    0  501    0  0.00000000000E+00  0.00000000000E+00  0.46430925759E+03  0.46430925761E+03  0.50400001928E-02 0.  1.
       -1   -1    0    0    0  501  0.00000000000E+00  0.00000000000E+00 -0.43545148022E+03  0.43545148025E+03  0.50400001928E-02 0. -1.
    10030    2    1    2    0    0  0.00000000000E+00  0.00000000000E+00  0.28857777369E+02  0.89976073786E+03  0.89929784503E+03 0.  0.
        5    1    3    3  502    0  0.60146624068E+02  0.17819593741E+03 -0.39418144220E+03  0.43677512277E+03  0.46999998093E+01 0. -1.
       -5    1    3    3    0  502 -0.60146624068E+02 -0.17819593741E+03  0.42303921957E+03  0.46298561510E+03  0.46999998093E+01 0.  1.
</event>
<event>
 5   0  0.1483326E-02  0.8896526E+03  0.7818609E-02  0.9438609E-01
        2   -1    0    0  501    0  0.00000000000E+00  0.00000000000E+00  0.89969784808E+03  0.89969784808E+03  0.25500000920E-02 0.  1.
       -2   -1    0    0    0  501  0.00000000000E+00  0.00000000000E+00 -0.21992989244E+03  0.21992989245E+03  0.25500000920E-02 0. -1.
    10030    2    1    2    0    0  0.00000000000E+00  0.00000000000E+00  0.67976795564E+03  0.11196277405E+04  0.88965263101E+03 0.  0.
        1    1    3    3  502    0 -0.31445829201E+03  0.29793026998E+03  0.21263235100E+03  0.48255463929E+03  0.50400001928E-02 0. -1.
       -1    1    3    3    0  502  0.31445829201E+03 -0.29793026998E+03  0.46713560464E+03  0.63707310125E+03  0.50400001928E-02 0.  1.
</event>
<event>
 5   0  0.1454652E-02  0.9062259E+03  0.7818609E-02  0.9417832E-01
       -2   -1    0    0    0  501  0.00000000000E+00  0.00000000000E+00  0.12297793866E+03  0.12297793869E+03  0.25500000920E-02 0.  1.
        2   -1    0    0  501    0  0.00000000000E+00  0.00000000000E+00 -0.16694973619E+04  0.16694973619E+04  0.25500000920E-02 0. -1.
    10030    2    1    2    0    0  0.00000000000E+00  0.00000000000E+00 -0.15465194233E+04  0.17924753006E+04  0.90622589721E+03 0.  0.
        4    1    3    3  502    0 -0.22009290501E+03 -0.17321751968E+03 -0.68750253839E+02  0.28839799975E+03  0.12699999809E+01 0.  1.
       -4    1    3    3    0  502  0.22009290501E+03  0.17321751968E+03 -0.14777691694E+04  0.15040773009E+04  0.12699999809E+01 0. -1.
</event>
<event>
 5   0  0.1535906E-02  0.9057194E+03  0.7818609E-02  0.9418460E-01
       -2   -1    0    0    0  501  0.00000000000E+00  0.00000000000E+00  0.10785385723E+03  0.10785385726E+03  0.25500000920E-02 0. -1.
        2   -1    0    0  501    0  0.00000000000E+00  0.00000000000E+00 -0.19014794809E+04  0.19014794809E+04  0.25500000920E-02 0.  1.
    10030    2    1    2    0    0  0.00000000000E+00  0.00000000000E+00 -0.17936256237E+04  0.20093333382E+04  0.90571937485E+03 0.  0.
        2    1    3    3  502    0  0.18745799308E+03 -0.32478267229E+03 -0.14600553430E+04  0.15074434941E+04  0.25500000920E-02 0.  1.
       -2    1    3    3    0  502 -0.18745799308E+03  0.32478267229E+03 -0.33357028070E+03  0.50188984405E+03  0.25500000920E-02 0. -1.
</event>
<event>
 5   0  0.1535906E-02  0.8872968E+03  0.7818609E-02  0.9441602E-01
        2   -1    0    0  501    0  0.00000000000E+00  0.00000000000E+00  0.17524469605E+03  0.17524469607E+03  0.25500000920E-02 0.  1.
       -2   -1    0    0    0  501  0.00000000000E+00  0.00000000000E+00 -0.11231376333E+04  0.11231376333E+04  0.25500000920E-02 0. -1.
    10030    2    1    2    0    0  0.00000000000E+00  0.00000000000E+00 -0.94789293727E+03  0.12983823294E+04  0.88729682335E+03 0.  0.
        2    1    3    3  502    0 -0.19460685258E+03 -0.39169445365E+03 -0.36515379267E+03  0.56976632438E+03  0.25500000920E-02 0.  1.
       -2    1    3    3    0  502  0.19460685258E+03  0.39169445365E+03 -0.58273914460E+03  0.72861600500E+03  0.25500000920E-02 0. -1.
</event>
<event>
 5   0  0.5770125E-03  0.8930251E+03  0.7818609E-02  0.9434343E-01
       -4   -1    0    0    0  501  0.00000000000E+00  0.00000000000E+00  0.10369834128E+04  0.10369841904E+04  0.12699999809E+01 0.  1.
        4   -1    0    0  501    0  0.00000000000E+00  0.00000000000E+00 -0.19225997915E+03  0.19226417369E+03  0.12699999809E+01 0. -1.
    10030    2    1    2    0    0  0.00000000000E+00  0.00000000000E+00  0.84472343361E+03  0.12292483641E+04  0.89302511804E+03 0.  0.
        1    1    3    3  502    0  0.21672394961E+03  0.15374743117E+03 -0.71580829486E+02  0.27519331042E+03  0.50400001928E-02 0. -1.
       -1    1    3    3    0  502 -0.21672394961E+03 -0.15374743117E+03  0.91630426309E+03  0.95405505371E+03  0.50400001928E-02 0.  1.
</event>
<event>
 5   0  0.8291252E-03  0.8988732E+03  0.7818609E-02  0.9426991E-01
       -1   -1    0    0    0  501  0.00000000000E+00  0.00000000000E+00  0.11692967617E+03  0.11692967628E+03  0.50400001928E-02 0.  1.
        1   -1    0    0  501    0  0.00000000000E+00  0.00000000000E+00 -0.17274762397E+04  0.17274762397E+04  0.50400001928E-02 0. -1.
    10030    2    1    2    0    0  0.00000000000E+00  0.00000000000E+00 -0.16105465635E+04  0.18444059159E+04  0.89887315545E+03 0.  0.
        1    1    3    3  502    0  0.16862453068E+03 -0.76209801065E+02  0.35135819758E+02  0.18835257360E+03  0.50400001928E-02 0.  1.
       -1    1    3    3    0  502 -0.16862453068E+03  0.76209801065E+02 -0.16456823833E+04  0.16560533424E+04  0.50400001928E-02 0. -1.
</event>
<event>
 5   0  0.1441195E-02  0.9212560E+03  0.7818609E-02  0.9399394E-01
       -2   -1    0    0    0  501  0.00000000000E+00  0.00000000000E+00  0.13789343452E+03  0.13789343454E+03  0.25500000920E-02 0. -1.
        2   -1    0    0  501    0  0.00000000000E+00  0.00000000000E+00 -0.15387109206E+04  0.15387109206E+04  0.25500000920E-02 0.  1.
    10030    2    1    2    0    0  0.00000000000E+00  0.00000000000E+00 -0.14008174860E+04  0.16766043551E+04  0.92125595486E+03 0.  0.
        5    1    3    3  502    0  0.44385649984E+03 -0.87621330829E+02 -0.85770168361E+03  0.96972179420E+03  0.46999998093E+01 0. -1.
       -5    1    3    3    0  502 -0.44385649984E+03  0.87621330829E+02 -0.54311580243E+03  0.70688256091E+03  0.46999998093E+01 0.  1.
</event>
<event>
 5   0  0.1483326E-02  0.9090432E+03  0.7818609E-02  0.9414347E-01
       -2   -1    0    0    0  501  0.00000000000E+00  0.00000000000E+00  0.25579388916E+03  0.25579388917E+03  0.25500000920E-02 0.  1.
        2   -1    0    0  501    0  0.00000000000E+00  0.00000000000E+00 -0.80764190694E+03  0.80764190694E+03  0.25500000920E-02 0. -1.
    10030    2    1    2    0    0  0.00000000000E+00  0.00000000000E+00 -0.55184801778E+03  0.10634357961E+04  0.90904315504E+03 0.  0.
        1    1    3    3  502    0  0.29873461469E+03  0.29521196395E+03 -0.47921188718E+03  0.63720993912E+03  0.50400001928E-02 0. -1.
       -1    1    3    3    0  502 -0.29873461469E+03 -0.29521196395E+03 -0.72636130594E+02  0.42622585699E+03  0.50400001928E-02 0.  1.
</event>
<event>
 5   0  0.8612969E-03  0.8921116E+03  0.7818609E-02  0.9435496E-01
        1   -1    0    0  501    0  0.00000000000E+00  0.00000000000E+00  0.79621499608E+03  0.79621499609E+03  0.50400001928E-02 0.  1.
       -1   -1    0    0    0  501  0.00000000000E+00  0.00000000000E+00 -0.24988953554E+03  0.24988953559E+03  0.50400001928E-02 0. -1.
    10030    2    1    2    0    0  0.00000000000E+00  0.00000000000E+00  0.54632546054E+03  0.10461045317E+04  0.89211164234E+03 0.  0.
        4    1    3    3  502    0 -0.51839745066E+02 -0.58721380873E+02 -0.24175948181E+03  0.25413543571E+03  0.12699999809E+01 0. -1.
       -4    1    3    3    0  502  0.51839745066E+02  0.58721380873E+02  0.78808494234E+03  0.79196909598E+03  0.12699999809E+01 0.  1.
</event>
<event>
 5   0  0.8738044E-03  0.8902360E+03  0.7818609E-02  0.9437870E-01
       -1   -1    0    0    0  501  0.00000000000E+00  0.00000000000E+00  0.74384483028E+03  0.74384483030E+03  0.50400001928E-02 0.  1.
        1   -1    0    0  501    0  0.00000000000E+00  0.00000000000E+00 -0.26635936870E+03  0.26635936874E+03  0.50400001928E-02 0. -1.
    10030    2    1    2    0    0  0.00000000000E+00  0.00000000000E+00  0.47748546158E+03  0.10102041990E+04  0.89023601238E+03 0.  0.
        3    1    3    3  502    0  0.89823337349E+02 -0.10238500763E+03  0.71961741614E+03  0.73239344449E+03  0.10100000352E+00 0.  1.
       -3    1    3    3    0  502 -0.89823337349E+02  0.10238500763E+03 -0.24213195456E+03  0.27781075455E+03  0.10100000352E+00 0. -1.
</event>
<event>
 5   0  0.1441195E-02  0.8876323E+03  0.7818609E-02  0.9441175E-01
        2   -1    0    0  501    0  0.00000000000E+00  0.00000000000E+00  0.21768666317E+04  0.21768666317E+04  0.25500000920E-02 0.  1.
       -2   -1    0    0    0  501  0.00000000000E+00  0.00000000000E+00 -0.90484543178E+02  0.90484543214E+02  0.25500000920E-02 0. -1.
    10030    2    1    2    0    0  0.00000000000E+00  0.00000000000E+00  0.20863820885E+04  0.22673511749E+04  0.88763231750E+03 0.  0.
        5    1    3    3  502    0  0.25200480255E+03 -0.33766789994E+03  0.68718086534E+03  0.80608043200E+03  0.46999998093E+01 0.  1.
       -5    1    3    3    0  502 -0.25200480255E+03  0.33766789994E+03  0.13992012231E+04  0.14612707429E+04  0.46999998093E+01 0. -1.
</event>
<event>
 5   0  0.1441195E-02  0.8757800E+03  0.7818609E-02  0.9456374E-01
       -2   -1    0    0    0  501  0.00000000000E+00  0.00000000000E+00  0.33899330162E+03  0.33899330163E+03  0.25500000920E-02 0.  1.
        2   -1    0    0  501    0  0.00000000000E+00  0.00000000000E+00 -0.56563851745E+03  0.56563851745E+03  0.25500000920E-02 0. -1.
    10030    2    1    2    0    0  0.00000000000E+00  0.00000000000E+00 -0.22664521583E+03  0.90463181908E+03  0.87578003759E+03 0.  0.
        5    1    3    3  502    0 -0.22178370501E+03  0.34380453850E+03 -0.27446190693E+03  0.49268752862E+03  0.46999998093E+01 0.  1.
       -5    1    3    3    0  502  0.22178370501E+03 -0.34380453850E+03  0.47816691107E+02  0.41194429046E+03  0.46999998093E+01 0. -1.
</event>
<event>
 5   0  0.1535906E-02  0.8908604E+03  0.7818609E-02  0.9437079E-01
        2   -1    0    0  501    0  0.00000000000E+00  0.00000000000E+00  0.49918075639E+03  0.49918075640E+03  0.25500000920E-02 0.  1.
       -2   -1    0    0    0  501  0.00000000000E+00  0.00000000000E+00 -0.39746736731E+03  0.39746736732E+03  0.25500000920E-02 0. -1.
    10030    2    1    2    0    0  0.00000000000E+00  0.00000000000E+00  0.10171338908E+03  0.89664812372E+03  0.89086039549E+03 0.  0.
        2    1    3    3  502    0 -0.30170036540E+03 -0.15049120110E+03 -0.24213130215E+03  0.41508827926E+03  0.25500000920E-02 0. -1.
       -2    1    3    3    0  502  0.30170036540E+03  0.15049120110E+03  0.34384469123E+03  0.48155984445E+03  0.25500000920E-02 0.  1.
</event>
<event>
 5   0  0.1454652E-02  0.9063663E+03  0.7818609E-02  0.9417658E-01
       -2   -1    0    0    0  501  0.00000000000E+00  0.00000000000E+00  0.11138581845E+03  0.11138581848E+03  0.25500000920E-02 0. -1.
        2   -1    0    0  501    0  0.00000000000E+00  0.00000000000E+00 -0.18438160851E+04  0.18438160851E+04  0.25500000920E-02 0.  1.
    10030    2    1    2    0    0  0.00000000000E+00  0.00000000000E+00 -0.17324302667E+04  0.19552019036E+04  0.90636629185E+03 0.  0.
        4    1    3    3  502    0 -0.47881601418E+02  0.24259108528E+03 -0.46965846984E+02  0.25169522462E+03  0.12699999809E+01 0. -1.
       -4    1    3    3    0  502  0.47881601418E+02 -0.24259108528E+03 -0.16854644197E+04  0.17035066790E+04  0.12699999809E+01 0.  1.
</event>
<event>
 5   0  0.8291252E-03  0.8983332E+03  0.7818609E-02  0.9427667E-01
       -1   -1    0    0    0  501  0.00000000000E+00  0.00000000000E+00  0.12461067421E+04  0.12461067421E+04  0.50400001928E-02 0. -1.
        1   -1    0    0  501    0  0.00000000000E+00  0.00000000000E+00 -0.16190476688E+03  0.16190476696E+03  0.50400001928E-02 0.  1.
    10030    2    1    2    0    0  0.00000000000E+00  0.00000000000E+00  0.10842019752E+04  0.14080115090E+04  0.89833317125E+03 0.  0.
        1    1    3    3  502    0 -0.36515121912E+03 -0.12652964424E+03  0.90090478303E+03  0.98029311525E+03  0.50400001928E-02 0. -1.
       -1    1    3    3    0  502  0.36515121912E+03  0.12652964424E+03  0.18329719215E+03  0.42771839377E+03  0.50400001928E-02 0.  1.
</event>
<event>
 5   0  0.8291252E-03  0.9329337E+03  0.7818609E-02  0.9385324E-01
        1   -1    0    0  501    0  0.00000000000E+00  0.00000000000E+00  0.11254163032E+04  0.11254163032E+04  0.50400001928E-02 0.  1.
       -1   -1    0    0    0  501  0.00000000000E+00  0.00000000000E+00 -0.19334295858E+03  0.19334295865E+03  0.50400001928E-02 0. -1.
    10030    2    1    2    0    0  0.00000000000E+00  0.00000000000E+00  0.93207334460E+03  0.13187592618E+04  0.93293369055E+03 0.  0.
        1    1    3    3  502    0  0.46401604126E+03 -0.22721786177E+02  0.40666453293E+03  0.61741655993E+03  0.50400001928E-02 0. -1.
       -1    1    3    3    0  502 -0.46401604126E+03  0.22721786177E+02  0.52540881167E+03  0.70134270191E+03  0.50400001928E-02 0.  1.
</event>
<event>
 5   0  0.8738044E-03  0.8923222E+03  0.7818609E-02  0.9435230E-01
        1   -1    0    0  501    0  0.00000000000E+00  0.00000000000E+00  0.57384432950E+03  0.57384432953E+03  0.50400001928E-02 0.  1.
       -1   -1    0    0    0  501  0.00000000000E+00  0.00000000000E+00 -0.34688799979E+03  0.34688799982E+03  0.50400001928E-02 0. -1.
    10030    2    1    2    0    0  0.00000000000E+00  0.00000000000E+00  0.22695632972E+03  0.92073232935E+03  0.89232216531E+03 0.  0.
        3    1    3    3  502    0 -0.43231960552E+03 -0.60360242938E+02  0.20869902920E+03  0.48383767447E+03  0.10100000352E+00 0.  1.
       -3    1    3    3    0  502  0.43231960552E+03  0.60360242938E+02  0.18257300518E+02  0.43689465488E+03  0.10100000352E+00 0. -1.
</event>
<event>
 5   0  0.1483326E-02  0.8379037E+03  0.7818609E-02  0.9506718E-01
       -2   -1    0    0    0  501  0.00000000000E+00  0.00000000000E+00  0.11343727556E+03  0.11343727559E+03  0.25500000920E-02 0.  1.
        2   -1    0    0  501    0  0.00000000000E+00  0.00000000000E+00 -0.15472925143E+04  0.15472925143E+04  0.25500000920E-02 0. -1.
    10030    2    1    2    0    0  0.00000000000E+00  0.00000000000E+00 -0.14338552388E+04  0.16607297899E+04  0.83790368741E+03 0.  0.
        1    1    3    3  502    0  0.17854387823E+03  0.13806479972E+03 -0.17358701775E+02  0.22636503689E+03  0.50400001928E-02 0.  1.
       -1    1    3    3    0  502 -0.17854387823E+03 -0.13806479972E+03 -0.14164965370E+04  0.14343647530E+04  0.50400001928E-02 0. -1.
</event>
<event>
 5   0  0.5770125E-03  0.9019942E+03  0.7818609E-02  0.9423092E-01
       -3   -1    0    0    0  501  0.00000000000E+00  0.00000000000E+00  0.77714767531E+03  0.77714768187E+03  0.10100000352E+00 0.  1.
        3   -1    0    0  501    0  0.00000000000E+00  0.00000000000E+00 -0.26172422985E+03  0.26172424934E+03  0.10100000352E+00 0. -1.
    10030    2    1    2    0    0  0.00000000000E+00  0.00000000000E+00  0.51542344546E+03  0.10388719312E+04  0.90199421358E+03 0.  0.
        2    1    3    3  502    0  0.93232513255E+02 -0.31914610069E+03  0.60866843558E+03  0.69355879318E+03  0.25500000920E-02 0.  1.
       -2    1    3    3    0  502 -0.93232513255E+02  0.31914610069E+03 -0.93244990122E+02  0.34531313804E+03  0.25500000920E-02 0. -1.
</event>
<event>
 5   0  0.1454652E-02  0.8713681E+03  0.7818609E-02  0.9462098E-01
       -2   -1    0    0    0  501  0.00000000000E+00  0.00000000000E+00  0.12120969449E+03  0.12120969451E+03  0.25500000920E-02 0. -1.
        2   -1    0    0  501    0  0.00000000000E+00  0.00000000000E+00 -0.15660513844E+04  0.15660513844E+04  0.25500000920E-02 0.  1.
    10030    2    1    2    0    0  0.00000000000E+00  0.00000000000E+00 -0.14448416899E+04  0.16872610789E+04  0.87136814237E+03 0.  0.
        4    1    3    3  502    0 -0.14108086337E+03  0.32099295011E+03 -0.22166668714E+03  0.41482287439E+03  0.12699999809E+01 0. -1.
       -4    1    3    3    0  502  0.14108086337E+03 -0.32099295011E+03 -0.12231750028E+04  0.12724382046E+04  0.12699999809E+01 0.  1.
</event>
<event>
 5   0  0.8612969E-03  0.9133071E+03  0.7818609E-02  0.9409098E-01
        1   -1    0    0  501    0  0.00000000000E+00  0.00000000000E+00  0.63359365101E+03  0.63359365103E+03  0.50400001928E-02 0.  1.
       -1   -1    0    0    0  501  0.00000000000E+00  0.00000000000E+00 -0.32912648895E+03  0.32912648898E+03  0.50400001928E-02 0. -1.
    10030    2    1    2    0    0  0.00000000000E+00  0.00000000000E+00  0.30446716207E+03  0.96272014002E+03  0.91330707608E+03 0.  0.
        4    1    3    3  502    0 -0.11564298655E+03  0.37450870045E+03 -0.94752493578E+02  0.40324894915E+03  0.12699999809E+01 0.  1.
       -4    1    3    3    0  502  0.11564298655E+03 -0.37450870045E+03  0.39921965564E+03  0.55947119086E+03  0.12699999809E+01 0. -1.
</event>
<event>
 5   0  0.8524692E-03  0.9018187E+03  0.7818609E-02  0.9423311E-01
        1   -1    0    0  501    0  0.00000000000E+00  0.00000000000E+00  0.99121833178E+03  0.99121833179E+03  0.50400001928E-02 0. -1.
       -1   -1    0    0    0  501  0.00000000000E+00  0.00000000000E+00 -0.20512055614E+03  0.20512055620E+03  0.50400001928E-02 0.  1.
    10030    2    1    2    0    0  0.00000000000E+00  0.00000000000E+00  0.78609777564E+03  0.11963388880E+04  0.90181873016E+03 0.  0.
        5    1    3    3  502    0 -0.31019782682E+03 -0.17509188853E+03  0.75976570430E+03  0.83913400397E+03  0.46999998093E+01 0.  1.
       -5    1    3    3    0  502  0.31019782682E+03  0.17509188853E+03  0.26332071342E+02  0.35720488403E+03  0.46999998093E+01 0. -1.
</event>
<event>
 5   0  0.1483326E-02  0.9027997E+03  0.7818609E-02  0.9422088E-01
       -2   -1    0    0    0  501  0.00000000000E+00  0.00000000000E+00  0.15070358017E+03  0.15070358019E+03  0.25500000920E-02 0.  1.
        2   -1    0    0  501    0  0.00000000000E+00  0.00000000000E+00 -0.13520700839E+04  0.13520700839E+04  0.25500000920E-02 0. -1.
    10030    2    1    2    0    0  0.00000000000E+00  0.00000000000E+00 -0.12013665038E+04  0.15027736641E+04  0.90279965065E+03 0.  0.
        1    1    3    3  502    0  0.21465162057E+03  0.33179578872E+03 -0.23752432689E+03  0.46106568893E+03  0.50400001928E-02 0.  1.
       -1    1    3    3    0  502 -0.21465162057E+03 -0.33179578872E+03 -0.96384217688E+03  0.10417079752E+04  0.50400001928E-02 0. -1.
</event>
<event>
 5   0  0.8738044E-03  0.8949567E+03  0.7818609E-02  0.9431908E-01
       -1   -1    0    0    0  501  0.00000000000E+00  0.00000000000E+00  0.13358899605E+03  0.13358899614E+03  0.50400001928E-02 0. -1.
        1   -1    0    0  501    0  0.00000000000E+00  0.00000000000E+00 -0.14989024704E+04  0.14989024704E+04  0.50400001928E-02 0.  1.
    10030    2    1    2    0    0  0.00000000000E+00  0.00000000000E+00 -0.13653134743E+04  0.16324914665E+04  0.89495670570E+03 0.  0.
        3    1    3    3  502    0  0.28619166815E+03 -0.15105410312E+03 -0.11891255127E+03  0.34476545366E+03  0.10100000352E+00 0. -1.
       -3    1    3    3    0  502 -0.28619166815E+03  0.15105410312E+03 -0.12464009230E+04  0.12877260128E+04  0.10100000352E+00 0.  1.
</event>
<event>
 5   0  0.1535906E-02  0.8984313E+03  0.7818609E-02  0.9427545E-01
       -2   -1    0    0    0  501  0.00000000000E+00  0.00000000000E+00  0.33386903525E+03  0.33386903526E+03  0.25500000920E-02 0. -1.
        2   -1    0    0  501    0  0.00000000000E+00  0.00000000000E+00 -0.60441273357E+03  0.60441273358E+03  0.25500000920E-02 0.  1.
    10030    2    1    2    0    0  0.00000000000E+00  0.00000000000E+00 -0.27054369832E+03  0.93828176884E+03  0.89843129121E+03 0.  0.
        2    1    3    3  502    0 -0.43831655412E+02 -0.46043071168E+02  0.32914772660E+03  0.33523037504E+03  0.25500000920E-02 0. -1.
       -2    1    3    3    0  502  0.43831655412E+02  0.46043071168E+02 -0.59969142492E+03  0.60305139379E+03  0.25500000920E-02 0.  1.
</event>
<event>
 5   0  0.1535906E-02  0.9647594E+03  0.7818609E-02  0.9348064E-01
        2   -1    0    0  501    0  0.00000000000E+00  0.00000000000E+00  0.43059642263E+03  0.43059642264E+03  0.25500000920E-02 0.  1.
       -2   -1    0    0    0  501  0.00000000000E+00  0.00000000000E+00 -0.54039040705E+03  0.54039040706E+03  0.25500000920E-02 0. -1.
    10030    2    1    2    0    0  0.00000000000E+00  0.00000000000E+00 -0.10979398442E+03  0.97098682969E+03  0.96475940235E+03 0.  0.
        2    1    3    3  502    0  0.35956795106E+03 -0.63765157975E+02  0.26231209409E+03  0.44962511219E+03  0.25500000920E-02 0.  1.
       -2    1    3    3    0  502 -0.35956795106E+03  0.63765157975E+02 -0.37210607851E+03  0.52136171750E+03  0.25500000920E-02 0. -1.
</event>
<event>
 5   0  0.1454652E-02  0.9067661E+03  0.7818609E-02  0.9417163E-01
       -2   -1    0    0    0  501  0.00000000000E+00  0.00000000000E+00  0.22801269161E+03  0.22801269163E+03  0.25500000920E-02 0.  1.
        2   -1    0    0  501    0  0.00000000000E+00  0.00000000000E+00 -0.90151210299E+03  0.90151210299E+03  0.25500000920E-02 0. -1.
    10030    2    1    2    0    0  0.00000000000E+00  0.00000000000E+00 -0.67349941137E+03  0.11295247946E+04  0.90676612450E+03 0.  0.
        4    1    3    3  502    0  0.10411055901E+03 -0.26009454961E+03  0.10728391338E+03  0.29999939034E+03  0.12699999809E+01 0.  1.
       -4    1    3    3    0  502 -0.10411055901E+03  0.26009454961E+03 -0.78078332475E+03  0.82952540428E+03  0.12699999809E+01 0. -1.
</event>
<event>
 5   0  0.1440615E-02  0.8935098E+03  0.7818609E-02  0.9433731E-01
       -2   -1    0    0    0  501  0.00000000000E+00  0.00000000000E+00  0.19447277782E+03  0.19447277784E+03  0.25500000920E-02 0. -1.
        2   -1    0    0  501    0  0.00000000000E+00  0.00000000000E+00 -0.10263129611E+04  0.10263129611E+04  0.25500000920E-02 0.  1.
    10030    2    1    2    0    0  0.00000000000E+00  0.00000000000E+00 -0.83184018323E+03  0.12207857389E+04  0.89350978162E+03 0.  0.
        3    1    3    3  502    0  0.19668373879E+03 -0.34164117592E+03 -0.12871899265E+03  0.41469479797E+03  0.10100000352E+00 0. -1.
       -3    1    3    3    0  502 -0.19668373879E+03  0.34164117592E+03 -0.70312119058E+03  0.80609094092E+03  0.10100000352E+00 0.  1.
</event>
<event>
 5   0  0.1483326E-02  0.8997935E+03  0.7818609E-02  0.9425840E-01
        2   -1    0    0  501    0  0.00000000000E+00  0.00000000000E+00  0.16975310322E+04  0.16975310322E+04  0.25500000920E-02 0. -1.
       -2   -1    0    0    0  501  0.00000000000E+00  0.00000000000E+00 -0.11923615065E+03  0.11923615068E+03  0.25500000920E-02 0.  1.
    10030    2    1    2    0    0  0.00000000000E+00  0.00000000000E+00  0.15782948816E+04  0.18167671829E+04  0.89979345611E+03 0.  0.
        1    1    3    3  502    0 -0.33844844554E+03  0.17481069228E+03  0.12724702707E+04  0.13282645513E+04  0.50400001928E-02 0. -1.
       -1    1    3    3    0  502  0.33844844554E+03 -0.17481069228E+03  0.30582461086E+03  0.48850263157E+03  0.50400001928E-02 0.  1.
</event>
<event>
 5   0  0.1441195E-02  0.8834906E+03  0.7818609E-02  0.9446458E-01
        2   -1    0    0  501    0  0.00000000000E+00  0.00000000000E+00  0.16592676800E+04  0.16592676800E+04  0.25500000920E-02 0. -1.
       -2   -1    0    0    0  501  0.00000000000E+00  0.00000000000E+00 -0.11760544109E+03  0.11760544112E+03  0.25500000920E-02 0.  1.
    10030    2    1    2    0    0  0.00000000000E+00  0.00000000000E+00  0.15416622389E+04  0.17768731211E+04  0.88349059399E+03 0.  0.
        5    1    3    3  502    0  0.24132573310E+03  0.30186435671E+03  0.12010420561E+04  0.12616989775E+04  0.46999998093E+01 0. -1.
       -5    1    3    3    0  502 -0.24132573310E+03 -0.30186435671E+03  0.34062018277E+03  0.51517414358E+03  0.46999998093E+01 0.  1.
</event>
<event>
 5   0  0.8612969E-03  0.9021029E+03  0.7818609E-02  0.9422956E-01
       -1   -1    0    0    0  501  0.00000000000E+00  0.00000000000E+00  0.12834542610E+03  0.12834542619E+03  0.50400001928E-02 0.  1.
        1   -1    0    0  501    0  0.00000000000E+00  0.00000000000E+00 -0.15851551849E+04  0.15851551849E+04  0.50400001928E-02 0. -1.
    10030    2    1    2    0    0  0.00000000000E+00  0.00000000000E+00 -0.14568097588E+04  0.17135006111E+04  0.90210291590E+03 0.  0.
        4    1    3    3  502    0  0.36202240908E+03 -0.26586992793E+03 -0.80669273374E+03  0.92331025275E+03  0.12699999809E+01 0.  1.
       -4    1    3    3    0  502 -0.36202240908E+03  0.26586992793E+03 -0.65011702503E+03  0.79019035832E+03  0.12699999809E+01 0. -1.
</event>
<event>
 5   0  0.8524692E-03  0.8962496E+03  0.7818609E-02  0.9430282E-01
       -1   -1    0    0    0  501  0.00000000000E+00  0.00000000000E+00  0.16490636132E+03  0.16490636139E+03  0.50400001928E-02 0.  1.
        1   -1    0    0  501    0  0.00000000000E+00  0.00000000000E+00 -0.12177567494E+04  0.12177567494E+04  0.50400001928E-02 0. -1.
    10030    2    1    2    0    0  0.00000000000E+00  0.00000000000E+00 -0.10528503880E+04  0.13826631108E+04  0.89624959596E+03 0.  0.
        5    1    3    3  502    0  0.86156917158E+02  0.23254146421E+03  0.49353347266E+02  0.25289600597E+03  0.46999998093E+01 0. -1.
       -5    1    3    3    0  502 -0.86156917158E+02 -0.23254146421E+03 -0.11022037353E+04  0.11297671048E+04  0.46999998093E+01 0.  1.
</event>
<event>
 5   0  0.1454652E-02  0.8952592E+03  0.7818609E-02  0.9431527E-01
        2   -1    0    0  501    0  0.00000000000E+00  0.00000000000E+00  0.62500421746E+03  0.62500421747E+03  0.25500000920E-02 0.  1.
       -2   -1    0    0    0  501  0.00000000000E+00  0.00000000000E+00 -0.32059341936E+03  0.32059341937E+03  0.25500000920E-02 0. -1.
    10030    2    1    2    0    0  0.00000000000E+00  0.00000000000E+00  0.30441079810E+03  0.94559763684E+03  0.89525915622E+03 0.  0.
        4    1    3    3  502    0  0.10363417632E+03 -0.24121163137E+03  0.53514812644E+03  0.59607736389E+03  0.12699999809E+01 0.  1.
       -4    1    3    3    0  502 -0.10363417632E+03  0.24121163137E+03 -0.23073732835E+03  0.34952027295E+03  0.12699999809E+01 0. -1.
</event>
<event>
 5   0  0.1535906E-02  0.8859906E+03  0.7818609E-02  0.9443265E-01
        2   -1    0    0  501    0  0.00000000000E+00  0.00000000000E+00  0.41247114064E+03  0.41247114065E+03  0.25500000920E-02 0. -1.
       -2   -1    0    0    0  501  0.00000000000E+00  0.00000000000E+00 -0.47577830133E+03  0.47577830133E+03  0.25500000920E-02 0.  1.
    10030    2    1    2    0    0  0.00000000000E+00  0.00000000000E+00 -0.63307160686E+02  0.88824944198E+03  0.88599056123E+03 0.  0.
        2    1    3    3  502    0 -0.27539677768E+03  0.29674382219E+03 -0.21195797854E+03  0.45697534489E+03  0.25500000920E-02 0.  1.
       -2    1    3    3    0  502  0.27539677768E+03 -0.29674382219E+03  0.14865081785E+03  0.43127409709E+03  0.25500000920E-02 0. -1.
</event>
<event>
 5   0  0.8524692E-03  0.8928084E+03  0.7818609E-02  0.9434616E-01
       -1   -1    0    0    0  501  0.00000000000E+00  0.00000000000E+00  0.12678934476E+03  0.12678934486E+03  0.50400001928E-02 0.  1.
        1   -1    0    0  501    0  0.00000000000E+00  0.00000000000E+00 -0.15717147901E+04  0.15717147901E+04  0.50400001928E-02 0. -1.
    10030    2    1    2    0    0  0.00000000000E+00  0.00000000000E+00 -0.14449254453E+04  0.16985041349E+04  0.89280835229E+03 0.  0.
        5    1    3    3  502    0 -0.35078724158E+03  0.27536366360E+03 -0.75943853499E+03  0.88070756470E+03  0.46999998093E+01 0. -1.
       -5    1    3    3    0  502  0.35078724158E+03 -0.27536366360E+03 -0.68548691032E+03  0.81779657025E+03  0.46999998093E+01 0.  1.
</event>
<event>
 5   0  0.8885324E-03  0.9107954E+03  0.7818609E-02  0.9412186E-01
        1   -1    0    0  501    0  0.00000000000E+00  0.00000000000E+00  0.68454629464E+03  0.68454629466E+03  0.50400001928E-02 0. -1.
       -1   -1    0    0    0  501  0.00000000000E+00  0.00000000000E+00 -0.30295551957E+03  0.30295551961E+03  0.50400001928E-02 0.  1.
    10030    2    1    2    0    0  0.00000000000E+00  0.00000000000E+00  0.38159077507E+03  0.98750181427E+03  0.91079542905E+03 0.  0.
        2    1    3    3  502    0 -0.43215105430E+03  0.93408674326E+02  0.72484454686E+02  0.44803315765E+03  0.25500000920E-02 0.  1.
       -2    1    3    3    0  502  0.43215105430E+03 -0.93408674326E+02  0.30910632039E+03  0.53946865663E+03  0.25500000920E-02 0. -1.
</event>
<event>
 5   0  0.1441195E-02  0.8945064E+03  0.7818609E-02  0.9432475E-01
        2   -1    0    0  501    0  0.00000000000E+00  0.00000000000E+00  0.17753414281E+04  0.17753414281E+04  0.25500000920E-02 0.  1.
       -2   -1    0    0    0  501  0.00000000000E+00  0.00000000000E+00 -0.11267433172E+03  0.11267433175E+03  0.25500000920E-02 0. -1.
    10030    2    1    2    0    0  0.00000000000E+00  0.00000000000E+00  0.16626670963E+04  0.18880157598E+04  0.89450636444E+03 0.  0.
        5    1    3    3  502    0 -0.11121844043E+03  0.39785331519E+03  0.46969522673E+03  0.62553377040E+03  0.46999998093E+01 0. -1.
       -5    1    3    3    0  502  0.11121844043E+03 -0.39785331519E+03  0.11929718696E+04  0.12624819894E+04  0.46999998093E+01 0.  1.
</event>
<event>
 5   0  0.8885324E-03  0.8751544E+03  0.7818609E-02  0.9457184E-01
       -1   -1    0    0    0  501  0.00000000000E+00  0.00000000000E+00  0.14040984946E+03  0.14040984955E+03  0.50400001928E-02 0. -1.
        1   -1    0    0  501    0  0.00000000000E+00  0.00000000000E+00 -0.13636778257E+04  0.13636778257E+04  0.50400001928E-02 0.  1.
    10030    2    1    2    0    0  0.00000000000E+00  0.00000000000E+00 -0.12232679762E+04  0.15040876752E+04  0.87515438248E+03 0.  0.
        2    1    3    3  502    0 -0.69016897247E+02  0.61043438862E+02 -0.13468166133E+04  0.13499646748E+04  0.25500000920E-02 0.  1.
       -2    1    3    3    0  502  0.69016897247E+02 -0.61043438862E+02  0.12354863704E+03  0.15412300041E+03  0.25500000920E-02 0. -1.
</event>
<event>
 5   0  0.8738044E-03  0.9801061E+03  0.7818609E-02  0.9330637E-01
       -1   -1    0    0    0  501  0.00000000000E+00  0.00000000000E+00  0.29239567312E+03  0.29239567316E+03  0.50400001928E-02 0.  1.
        1   -1    0    0  501    0  0.00000000000E+00  0.00000000000E+00 -0.82132541828E+03  0.82132541830E+03  0.50400001928E-02 0. -1.
    10030    2    1    2    0    0  0.00000000000E+00  0.00000000000E+00 -0.52892974516E+03  0.11137210915E+04  0.98010611377E+03 0.  0.
        3    1    3    3  502    0 -0.21005251624E+03  0.15040403805E+03  0.20872844686E+03  0.33213101175E+03  0.10100000352E+00 0.  1.
       -3    1    3    3    0  502  0.21005251624E+03 -0.15040403805E+03 -0.73765819202E+03  0.78159007970E+03  0.10100000352E+00 0. -1.
</event>
<event>
 5   0  0.8291252E-03  0.9035602E+03  0.7818609E-02  0.9421142E-01
        1   -1    0    0  501    0  0.00000000000E+00  0.00000000000E+00  0.93526452899E+03  0.93526452901E+03  0.50400001928E-02 0.  1.
       -1   -1    0    0    0  501  0.00000000000E+00  0.00000000000E+00 -0.21823263290E+03  0.21823263296E+03  0.50400001928E-02 0. -1.
    10030    2    1    2    0    0  0.00000000000E+00  0.00000000000E+00  0.71703189609E+03  0.11534971620E+04  0.90356015995E+03 0.  0.
        1    1    3    3  502    0 -0.28920653222E+03  0.27321711658E+03  0.85257328979E+02  0.40688674498E+03  0.50400001928E-02 0. -1.
       -1    1    3    3    0  502  0.28920653222E+03 -0.27321711658E+03  0.63177456712E+03  0.74661041698E+03  0.50400001928E-02 0.  1.
</event>
<event>
 5   0  0.1483326E-02  0.8868478E+03  0.7818609E-02  0.9442173E-01
       -2   -1    0    0    0  501  0.00000000000E+00  0.00000000000E+00  0.15838772735E+03  0.15838772737E+03  0.25500000920E-02 0.  1.
        2   -1    0    0  501    0  0.00000000000E+00  0.00000000000E+00 -0.12414140996E+04  0.12414140996E+04  0.25500000920E-02 0. -1.
    10030    2    1    2    0    0  0.00000000000E+00  0.00000000000E+00 -0.10830263722E+04  0.13998018270E+04  0.88684780644E+03 0.  0.
        1    1    3    3  502    0  0.25175735340E+03 -0.35842800588E+03 -0.43247366238E+03  0.61553705743E+03  0.50400001928E-02 0.  1.
       -1    1    3    3    0  502 -0.25175735340E+03  0.35842800588E+03 -0.65055270986E+03  0.78426476953E+03  0.50400001928E-02 0. -1.
</event>
<event>
 5   0  0.5770125E-03  0.8986979E+03  0.7818609E-02  0.9427211E-01
       -3   -1    0    0    0  501  0.00000000000E+00  0.00000000000E+00  0.36305957735E+03  0.36305959140E+03  0.10100000352E+00 0. -1.
        3   -1    0    0  501    0  0.00000000000E+00  0.00000000000E+00 -0.55614692676E+03  0.55614693593E+03  0.10100000352E+00 0.  1.
    10030    2    1    2    0    0  0.00000000000E+00  0.00000000000E+00 -0.19308734940E+03  0.91920652733E+03  0.89869789995E+03 0.  0.
        4    1    3    3  502    0  0.78980857847E+02 -0.43831490985E+03 -0.15752753191E+03  0.47241345484E+03  0.12699999809E+01 0. -1.
       -4    1    3    3    0  502 -0.78980857847E+02  0.43831490985E+03 -0.35559817488E+02  0.44679307249E+03  0.12699999809E+01 0.  1.
</event>
<event>
 5   0  0.1440615E-02  0.9274554E+03  0.7818609E-02  0.9391897E-01
        2   -1    0    0  501    0  0.00000000000E+00  0.00000000000E+00  0.14056085517E+04  0.14056085517E+04  0.25500000920E-02 0. -1.
       -2   -1    0    0    0  501  0.00000000000E+00  0.00000000000E+00 -0.15298952884E+03  0.15298952886E+03  0.25500000920E-02 0.  1.
    10030    2    1    2    0    0  0.00000000000E+00  0.00000000000E+00  0.12526190229E+04  0.15585980806E+04  0.92745542228E+03 0.  0.
        3    1    3    3  502    0  0.78719184325E+02 -0.38988429262E+03  0.10269513640E+04  0.11012881484E+04  0.10100000352E+00 0. -1.
       -3    1    3    3    0  502 -0.78719184325E+02  0.38988429262E+03  0.22566765894E+03  0.45730993222E+03  0.10100000352E+00 0.  1.
</event>
<event>
 5   0  0.1441195E-02  0.9045604E+03  0.7818609E-02  0.9419899E-01
       -2   -1    0    0    0  501  0.00000000000E+00  0.00000000000E+00  0.28947857180E+03  0.28947857181E+03  0.25500000920E-02 0.  1.
        2   -1    0    0  501    0  0.00000000000E+00  0.00000000000E+00 -0.70664078790E+03  0.70664078791E+03  0.25500000920E-02 0. -1.
    10030    2    1    2    0    0  0.00000000000E+00  0.00000000000E+00 -0.41716221611E+03  0.99611935971E+03  0.90456037070E+03 0.  0.
        5    1    3    3  502    0  0.15131244083E+01 -0.22115934061E+03  0.22583774796E+03  0.31613054564E+03  0.46999998093E+01 0.  1.
       -5    1    3    3    0  502 -0.15131244083E+01  0.22115934061E+03 -0.64299996406E+03  0.67998881407E+03  0.46999998093E+01 0. -1.
</event>
<event>
 5   0  0.1454652E-02  0.8993645E+03  0.7818609E-02  0.9426376E-01
        2   -1    0    0  501    0  0.00000000000E+00  0.00000000000E+00  0.73824357478E+03  0.73824357478E+03  0.25500000920E-02 0.  1.
       -2   -1    0    0    0  501  0.00000000000E+00  0.00000000000E+00 -0.27391247430E+03  0.27391247431E+03  0.25500000920E-02 0. -1.
    10030    2    1    2    0    0  0.00000000000E+00  0.00000000000E+00  0.46433110048E+03  0.10121560491E+04  0.89936449609E+03 0.  0.
        4    1    3    3  502    0  0.12733417909E+03  0.33442312635E+03  0.53864099985E+03  0.64667500356E+03  0.12699999809E+01 0.  1.
       -4    1    3    3    0  502 -0.12733417909E+03 -0.33442312635E+03 -0.74309899370E+02  0.36548104554E+03  0.12699999809E+01 0. -1.
</event>
<event>
 5   0  0.1483326E-02  0.9041922E+03  0.7818609E-02  0.9420356E-01
       -2   -1    0    0    0  501  0.00000000000E+00  0.00000000000E+00  0.43663852706E+03  0.43663852707E+03  0.25500000920E-02 0.  1.
        2   -1    0    0  501    0  0.00000000000E+00  0.00000000000E+00 -0.46810088346E+03  0.46810088347E+03  0.25500000920E-02 0. -1.
    10030    2    1    2    0    0  0.00000000000E+00  0.00000000000E+00 -0.31462356399E+02  0.90473941054E+03  0.90419219257E+03 0.  0.
        1    1    3    3  502    0 -0.25505026490E+03  0.27097430211E+03 -0.27262215856E+03  0.46130310143E+03  0.50400001928E-02 0. -1.
       -1    1    3    3    0  502  0.25505026490E+03 -0.27097430211E+03  0.24115980216E+03  0.44343630910E+03  0.50400001928E-02 0.  1.
</event>
<event>
 5   0  0.8885324E-03  0.9119136E+03  0.7818609E-02  0.9410810E-01
       -1   -1    0    0    0  501  0.00000000000E+00  0.00000000000E+00  0.59061646464E+03  0.59061646466E+03  0.50400001928E-02 0. -1.
        1   -1    0    0  501    0  0.00000000000E+00  0.00000000000E+00 -0.35199930149E+03  0.35199930152E+03  0.50400001928E-02 0.  1.
    10030    2    1    2    0    0  0.00000000000E+00  0.00000000000E+00  0.23861716316E+03  0.94261576619E+03  0.91191355517E+03 0.  0.
        2    1    3    3  502    0 -0.19639228483E+03 -0.38353136776E+03 -0.34809684431E+02  0.43229382801E+03  0.25500000920E-02 0.  1.
       -2    1    3    3    0  502  0.19639228483E+03  0.38353136776E+03  0.27342684759E+03  0.51032193818E+03  0.25500000920E-02 0. -1.
</event>
<event>
 5   0  0.8738044E-03  0.8920822E+03  0.7818609E-02  0.9435534E-01
       -1   -1    0    0    0  501  0.00000000000E+00  0.00000000000E+00  0.58047749009E+03  0.58047749012E+03  0.50400001928E-02 0. -1.
        1   -1    0    0  501    0  0.00000000000E+00  0.00000000000E+00 -0.34273966885E+03  0.34273966889E+03  0.50400001928E-02 0.  1.
    10030    2    1    2    0    0  0.00000000000E+00  0.00000000000E+00  0.23773782124E+03  0.92321715901E+03  0.89208219971E+03 0.  0.
        3    1    3    3  502    0  0.27717936709E+03 -0.10774768428E+03  0.46290895429E+03  0.55020239473E+03  0.10100000352E+00 0. -1.
       -3    1    3    3    0  502 -0.27717936709E+03  0.10774768428E+03 -0.22517113305E+03  0.37301476427E+03  0.10100000352E+00 0.  1.
</event>
<event>
 5   0  0.5770125E-03  0.8767545E+03  0.7818609E-02  0.9455115E-01
       -3   -1    0    0    0  501  0.00000000000E+00  0.00000000000E+00  0.11251479666E+04  0.11251479711E+04  0.10100000352E+00 0.  1.
        3   -1    0    0  501    0  0.00000000000E+00  0.00000000000E+00 -0.17079939720E+03  0.17079942707E+03  0.10100000352E+00 0. -1.
    10030    2    1    2    0    0  0.00000000000E+00  0.00000000000E+00  0.95434856941E+03  0.12959473982E+04  0.87675450783E+03 0.  0.
        3    1    3    3  502    0  0.14585878846E+03 -0.38376400990E+03  0.24998108816E+03  0.48066636672E+03  0.10100000352E+00 0. -1.
       -3    1    3    3    0  502 -0.14585878846E+03  0.38376400990E+03  0.70436748125E+03  0.81528103149E+03  0.10100000352E+00 0.  1.
</event>
<event>
 5   0  0.1440615E-02  0.8881235E+03  0.7818609E-02  0.9440551E-01
        2   -1    0    0  501    0  0.00000000000E+00  0.00000000000E+00  0.10537891209E+04  0.10537891209E+04  0.25500000920E-02 0.  1.
       -2   -1    0    0    0  501  0.00000000000E+00  0.00000000000E+00 -0.18712553831E+03  0.18712553833E+03  0.25500000920E-02 0. -1.
    10030    2    1    2    0    0  0.00000000000E+00  0.00000000000E+00  0.86666358256E+03  0.12409146592E+04  0.88812354214E+03 0.  0.
        3    1    3    3  502    0  0.75843487686E+01  0.23215456632E+03 -0.95474997714E+02  0.25113492469E+03  0.10100000352E+00 0. -1.
       -3    1    3    3    0  502 -0.75843487686E+01 -0.23215456632E+03  0.96213858027E+03  0.98977973452E+03  0.10100000352E+00 0.  1.
</event>
<event>
 5   0  0.1440615E-02  0.9042118E+03  0.7818609E-02  0.9420332E-01
        2   -1    0    0  501    0  0.00000000000E+00  0.00000000000E+00  0.14751174595E+04  0.14751174595E+04  0.25500000920E-02 0. -1.
       -2   -1    0    0    0  501  0.00000000000E+00  0.00000000000E+00 -0.13856507175E+03  0.13856507177E+03  0.25500000920E-02 0.  1.
    10030    2    1    2    0    0  0.00000000000E+00  0.00000000000E+00  0.13365523877E+04  0.16136825312E+04  0.90421182614E+03 0.  0.
        3    1    3    3  502    0  0.22282343434E+03  0.22641354243E+03  0.94173619514E+02  0.33133375304E+03  0.10100000352E+00 0.  1.
       -3    1    3    3    0  502 -0.22282343434E+03 -0.22641354243E+03  0.12423787682E+04  0.12823487782E+04  0.10100000352E+00 0. -1.
</event>
<event>
 5   0  0.8885324E-03  0.9087345E+03  0.7818609E-02  0.9414728E-01
       -1   -1    0    0    0  501  0.00000000000E+00  0.00000000000E+00  0.29669752755E+03  0.29669752760E+03  0.50400001928E-02 0.  1.
        1   -1    0    0  501    0  0.00000000000E+00  0.00000000000E+00 -0.69582514369E+03  0.69582514371E+03  0.50400001928E-02 0. -1.
    10030    2    1    2    0    0  0.00000000000E+00  0.00000000000E+00 -0.39912761614E+03  0.99252267130E+03  0.90873450418E+03 0.  0.
        2    1    3    3  502    0 -0.25545741520E+01  0.72341738850E+02 -0.68948691666E+03  0.69327632390E+03  0.25500000920E-02 0. -1.
       -2    1    3    3    0  502  0.25545741520E+01 -0.72341738850E+02  0.29035930052E+03  0.29924634740E+03  0.25500000920E-02 0.  1.
</event>
<event>
 5   0  0.8291252E-03  0.9174895E+03  0.7818609E-02  0.9403979E-01
        1   -1    0    0  501    0  0.00000000000E+00  0.00000000000E+00  0.27227220765E+03  0.27227220769E+03  0.50400001928E-02 0.  1.
       -1   -1    0    0    0  501  0.00000000000E+00  0.00000000000E+00 -0.77292776317E+03  0.77292776319E+03  0.50400001928E-02 0. -1.
    10030    2    1    2    0    0  0.00000000000E+00  0.00000000000E+00 -0.50065555552E+03  0.10451999709E+04  0.91748950613E+03 0.  0.
        1    1    3    3  502    0 -0.26960663491E+03  0.16678811122E+03  0.12739885304E+03  0.34166720564E+03  0.50400001928E-02 0.  1.
       -1    1    3    3    0  502  0.26960663491E+03 -0.16678811122E+03 -0.62805440856E+03  0.70353276524E+03  0.50400001928E-02 0. -1.
</event>
<event>
 5   0  0.1441195E-02  0.8804002E+03  0.7818609E-02  0.9450419E-01
       -2   -1    0    0    0  501  0.00000000000E+00  0.00000000000E+00  0.52654952779E+03  0.52654952780E+03  0.25500000920E-02 0.  1.
        2   -1    0    0  501    0  0.00000000000E+00  0.00000000000E+00 -0.36801122079E+03  0.36801122080E+03  0.25500000920E-02 0. -1.
    10030    2    1    2    0    0  0.00000000000E+00  0.00000000000E+00  0.15853830701E+03  0.89456074860E+03  0.88040021476E+03 0.  0.
        5    1    3    3  502    0 -0.61613189676E+01 -0.27000883657E+03 -0.27390059562E+03  0.38468995302E+03  0.46999998093E+01 0. -1.
       -5    1    3    3    0  502  0.61613189676E+01  0.27000883657E+03  0.43243890263E+03  0.50987079558E+03  0.46999998093E+01 0.  1.
</event>
<event>
 5   0  0.8612969E-03  0.8995307E+03  0.7818609E-02  0.9426168E-01
       -1   -1    0    0    0  501  0.00000000000E+00  0.00000000000E+00  0.13230760056E+03  0.13230760066E+03  0.50400001928E-02 0.  1.
        1   -1    0    0  501    0  0.00000000000E+00  0.00000000000E+00 -0.15289285093E+04  0.15289285093E+04  0.50400001928E-02 0. -1.
    10030    2    1    2    0    0  0.00000000000E+00  0.00000000000E+00 -0.13966209087E+04  0.16612361100E+04  0.89953068338E+03 0.  0.
        4    1    3    3  502    0 -0.36594376041E+02  0.40503610140E+03 -0.34358494898E+03  0.53239611367E+03  0.12699999809E+01 0.  1.
       -4    1    3    3    0  502  0.36594376041E+02 -0.40503610140E+03 -0.10530359597E+04  0.11288399963E+04  0.12699999809E+01 0. -1.
</event>
<event>
 5   0  0.8291252E-03  0.8986211E+03  0.7818609E-02  0.9427307E-01
        1   -1    0    0  501    0  0.00000000000E+00  0.00000000000E+00  0.16753136783E+04  0.16753136783E+04  0.50400001928E-02 0. -1.
       -1   -1    0    0    0  501  0.00000000000E+00  0.00000000000E+00 -0.12050278920E+03  0.12050278931E+03  0.50400001928E-02 0.  1.
    10030    2    1    2    0    0  0.00000000000E+00  0.00000000000E+00  0.15548108891E+04  0.17958164676E+04  0.89862110173E+03 0.  0.
        1    1    3    3  502    0  0.12863649908E+03  0.40122815589E+03  0.10892385628E+04  0.11678921306E+04  0.50400001928E-02 0. -1.
       -1    1    3    3    0  502 -0.12863649908E+03 -0.40122815589E+03  0.46557232623E+03  0.62792433696E+03  0.50400001928E-02 0.  1.
</event>
<event>
 5   0  0.1454652E-02  0.8984852E+03  0.7818609E-02  0.9427477E-01
       -2   -1    0    0    0  501  0.00000000000E+00  0.00000000000E+00  0.13342866829E+03  0.13342866831E+03  0.25500000920E-02 0. -1.
        2   -1    0    0  501    0  0.00000000000E+00  0.00000000000E+00 -0.15125603226E+04  0.15125603226E+04  0.25500000920E-02 0.  1.
    10030    2    1    2    0    0  0.00000000000E+00  0.00000000000E+00 -0.13791316543E+04  0.16459889909E+04  0.89848519092E+03 0.  0.
        4    1    3    3  502    0  0.16795540327E+03 -0.43060453926E+01  0.73703878680E+02  0.18347052665E+03  0.12699999809E+01 0. -1.
       -4    1    3    3    0  502 -0.16795540327E+03  0.43060453926E+01 -0.14528355330E+04  0.14625184643E+04  0.12699999809E+01 0.  1.
</event>
<event>
 5   0  0.8291252E-03  0.7582259E+03  0.7818609E-02  0.9622533E-01
       -1   -1    0    0    0  501  0.00000000000E+00  0.00000000000E+00  0.11330034702E+03  0.11330034713E+03  0.50400001928E-02 0.  1.
        1   -1    0    0  501    0  0.00000000000E+00  0.00000000000E+00 -0.12685452565E+04  0.12685452565E+04  0.50400001928E-02 0. -1.
    10030    2    1    2    0    0  0.00000000000E+00  0.00000000000E+00 -0.11552449094E+04  0.13818456036E+04  0.75822587096E+03 0.  0.
        1    1    3    3  502    0  0.40954174837E+02 -0.30053402230E+03 -0.16312048473E+03  0.34439256026E+03  0.50400001928E-02 0.  1.
       -1    1    3    3    0  502 -0.40954174837E+02  0.30053402230E+03 -0.99212442471E+03  0.10374530433E+04  0.50400001928E-02 0. -1.
</event>
<event>
 5   0  0.8291252E-03  0.9141301E+03  0.7818609E-02  0.9408089E-01
        1   -1    0    0  501    0  0.00000000000E+00  0.00000000000E+00  0.33338251719E+03  0.33338251723E+03  0.50400001928E-02 0.  1.
       -1   -1    0    0    0  501  0.00000000000E+00  0.00000000000E+00 -0.62663286618E+03  0.62663286620E+03  0.50400001928E-02 0. -1.
    10030    2    1    2    0    0  0.00000000000E+00  0.00000000000E+00 -0.29325034899E+03  0.96001538343E+03  0.91413006144E+03 0.  0.
        1    1    3    3  502    0  0.15424472569E+03  0.42501743909E+03 -0.21689560937E+03  0.50147279520E+03  0.50400001928E-02 0. -1.
       -1    1    3    3    0  502 -0.15424472569E+03 -0.42501743909E+03 -0.76354739620E+02  0.45854258823E+03  0.50400001928E-02 0.  1.
</event>
<event>
 5   0  0.8291252E-03  0.8879547E+03  0.7818609E-02  0.9440765E-01
       -1   -1    0    0    0  501  0.00000000000E+00  0.00000000000E+00  0.14830618385E+03  0.14830618394E+03  0.50400001928E-02 0. -1.
        1   -1    0    0  501    0  0.00000000000E+00  0.00000000000E+00 -0.13291145208E+04  0.13291145208E+04  0.50400001928E-02 0.  1.
    10030    2    1    2    0    0  0.00000000000E+00  0.00000000000E+00 -0.11808083370E+04  0.14774207048E+04  0.88795473434E+03 0.  0.
        1    1    3    3  502    0 -0.22658679764E+03  0.12764456338E+03 -0.11891144232E+04  0.12172213533E+04  0.50400001928E-02 0.  1.
       -1    1    3    3    0  502  0.22658679764E+03 -0.12764456338E+03  0.83060862149E+01  0.26019935149E+03  0.50400001928E-02 0. -1.
</event>
<event>
 5   0  0.8524692E-03  0.8322157E+03  0.7818609E-02  0.9514522E-01
        1   -1    0    0  501    0  0.00000000000E+00  0.00000000000E+00  0.34940418875E+03  0.34940418879E+03  0.50400001928E-02 0. -1.
       -1   -1    0    0    0  501  0.00000000000E+00  0.00000000000E+00 -0.49554568032E+03  0.49554568034E+03  0.50400001928E-02 0.  1.
    10030    2    1    2    0    0  0.00000000000E+00  0.00000000000E+00 -0.14614149156E+03  0.84494986913E+03  0.83221568466E+03 0.  0.
        5    1    3    3  502    0 -0.26709927747E+02 -0.39579568692E+03  0.54372856433E+02  0.40043244566E+03  0.46999998093E+01 0. -1.
       -5    1    3    3    0  502  0.26709927747E+02  0.39579568692E+03 -0.20051434800E+03  0.44451742348E+03  0.46999998093E+01 0.  1.
</event>
<event>
 5   0  0.8524692E-03  0.8557157E+03  0.7818609E-02  0.9482698E-01
       -1   -1    0    0    0  501  0.00000000000E+00  0.00000000000E+00  0.17606137435E+04  0.17606137435E+04  0.50400001928E-02 0. -1.
        1   -1    0    0  501    0  0.00000000000E+00  0.00000000000E+00 -0.10397642581E+03  0.10397642593E+03  0.50400001928E-02 0.  1.
    10030    2    1    2    0    0  0.00000000000E+00  0.00000000000E+00  0.16566373177E+04  0.18645901694E+04  0.85571566398E+03 0.  0.
        5    1    3    3  502    0 -0.21458815786E+03  0.36502800398E+03  0.69494221483E+03  0.81379376573E+03  0.46999998093E+01 0.  1.
       -5    1    3    3    0  502  0.21458815786E+03 -0.36502800398E+03  0.96169510283E+03  0.10507964037E+04  0.46999998093E+01 0. -1.
</event>
<event>
 5   0  0.8885324E-03  0.8987304E+03  0.7818609E-02  0.9427170E-01
       -1   -1    0    0    0  501  0.00000000000E+00  0.00000000000E+00  0.76713833298E+03  0.76713833300E+03  0.50400001928E-02 0. -1.
        1   -1    0    0  501    0  0.00000000000E+00  0.00000000000E+00 -0.26322383869E+03  0.26322383874E+03  0.50400001928E-02 0.  1.
    10030    2    1    2    0    0  0.00000000000E+00  0.00000000000E+00  0.50391449429E+03  0.10303621717E+04  0.89873043088E+03 0.  0.
        2    1    3    3  502    0 -0.19963023787E+03  0.22755932339E+03  0.63270351320E+03  0.70139091322E+03  0.25500000920E-02 0. -1.
       -2    1    3    3    0  502  0.19963023787E+03 -0.22755932339E+03 -0.12878901891E+03  0.32897125852E+03  0.25500000920E-02 0.  1.
</event>
<event>
 5   0  0.8885324E-03  0.9001427E+03  0.7818609E-02  0.9425403E-01
       -1   -1    0    0    0  501  0.00000000000E+00  0.00000000000E+00  0.12054241897E+03  0.12054241907E+03  0.50400001928E-02 0.  1.
        1   -1    0    0  501    0  0.00000000000E+00  0.00000000000E+00 -0.16804392659E+04  0.16804392659E+04  0.50400001928E-02 0. -1.
    10030    2    1    2    0    0  0.00000000000E+00  0.00000000000E+00 -0.15598968470E+04  0.18009816850E+04  0.90014268679E+03 0.  0.
        2    1    3    3  502    0  0.71172205841E+02  0.87637340603E+02  0.91751734840E+02  0.14547909542E+03  0.25500000920E-02 0.  1.
       -2    1    3    3    0  502 -0.71172205841E+02 -0.87637340603E+02 -0.16516485818E+04  0.16555025896E+04  0.25500000920E-02 0. -1.
</event>
<event>
 5   0  0.8885324E-03  0.9078885E+03  0.7818609E-02  0.9415774E-01
        1   -1    0    0  501    0  0.00000000000E+00  0.00000000000E+00  0.73118005449E+03  0.73118005451E+03  0.50400001928E-02 0.  1.
       -1   -1    0    0    0  501  0.00000000000E+00  0.00000000000E+00 -0.28182574292E+03  0.28182574297E+03  0.50400001928E-02 0. -1.
    10030    2    1    2    0    0  0.00000000000E+00  0.00000000000E+00  0.44935431157E+03  0.10130057975E+04  0.90788845592E+03 0.  0.
        2    1    3    3  502    0  0.18616166928E+03  0.29421875434E+03  0.54968312262E+03  0.65067071381E+03  0.25500000920E-02 0.  1.
       -2    1    3    3    0  502 -0.18616166928E+03 -0.29421875434E+03 -0.10032881105E+03  0.36233508366E+03  0.25500000920E-02 0. -1.
</event>
<event>
 5   0  0.1441195E-02  0.8981353E+03  0.7818609E-02  0.9427915E-01
        2   -1    0    0  501    0  0.00000000000E+00  0.00000000000E+00  0.92996051124E+03  0.92996051124E+03  0.25500000920E-02 0.  1.
       -2   -1    0    0    0  501  0.00000000000E+00  0.00000000000E+00 -0.21684977999E+03  0.21684978001E+03  0.25500000920E-02 0. -1.
    10030    2    1    2    0    0  0.00000000000E+00  0.00000000000E+00  0.71311073125E+03  0.11468102913E+04  0.89813525101E+03 0.  0.
        5    1    3    3  502    0  0.11523760943E+03 -0.36051118080E+03  0.48005673894E+02  0.38154246531E+03  0.46999998093E+01 0. -1.
       -5    1    3    3    0  502 -0.11523760943E+03  0.36051118080E+03  0.66510505735E+03  0.76526782594E+03  0.46999998093E+01 0.  1.
</event>
<event>
 5   0  0.8291252E-03  0.9026536E+03  0.7818609E-02  0.9422270E-01
       -1   -1    0    0    0  501  0.00000000000E+00  0.00000000000E+00  0.12199210663E+03  0.12199210673E+03  0.50400001928E-02 0.  1.
        1   -1    0    0  501    0  0.00000000000E+00  0.00000000000E+00 -0.16697465593E+04  0.16697465593E+04  0.50400001928E-02 0. -1.
    10030    2    1    2    0    0  0.00000000000E+00  0.00000000000E+00 -0.15477544526E+04  0.17917386660E+04  0.90265364432E+03 0.  0.
        1    1    3    3  502    0  0.42983475289E+02  0.35770724067E+03 -0.23429494880E+03  0.42976292561E+03  0.50400001928E-02 0. -1.
       -1    1    3    3    0  502 -0.42983475289E+02 -0.35770724067E+03 -0.13134595038E+04  0.13619757404E+04  0.50400001928E-02 0.  1.
</event>
<event>
 5   0  0.8524692E-03  0.9037822E+03  0.7818609E-02  0.9420866E-01
        1   -1    0    0  501    0  0.00000000000E+00  0.00000000000E+00  0.52480192916E+03  0.52480192918E+03  0.50400001928E-02 0.  1.
       -1   -1    0    0    0  501  0.00000000000E+00  0.00000000000E+00 -0.38910980615E+03  0.38910980619E+03  0.50400001928E-02 0. -1.
    10030    2    1    2    0    0  0.00000000000E+00  0.00000000000E+00  0.13569212301E+03  0.91391173537E+03  0.90378222366E+03 0.  0.
        5    1    3    3  502    0  0.81954249774E+02 -0.90834948309E+02 -0.37201891943E+03  0.39164735835E+03  0.46999998093E+01 0. -1.
       -5    1    3    3    0  502 -0.81954249774E+02  0.90834948309E+02  0.50771104244E+03  0.52226437702E+03  0.46999998093E+01 0.  1.
</event>
<event>
 5   0  0.1440615E-02  0.9169481E+03  0.7818609E-02  0.9404640E-01
        2   -1    0    0  501    0  0.00000000000E+00  0.00000000000E+00  0.15033769364E+04  0.15033769364E+04  0.25500000920E-02 0. -1.
       -2   -1    0    0    0  501  0.00000000000E+00  0.00000000000E+00 -0.13981754045E+03  0.13981754047E+03  0.25500000920E-02 0.  1.
    10030    2    1    2    0    0  0.00000000000E+00  0.00000000000E+00  0.13635593960E+04  0.16431944769E+04  0.91694812423E+03 0.  0.
        3    1    3    3  502    0  0.12203192385E+03 -0.24773385561E+03  0.13376086658E+04  0.13658187313E+04  0.10100000352E+00 0. -1.
       -3    1    3    3    0  502 -0.12203192385E+03  0.24773385561E+03  0.25950730153E+02  0.27737574560E+03  0.10100000352E+00 0.  1.
</event>
<event>
 5   0  0.8612969E-03  0.9085359E+03  0.7818609E-02  0.9414974E-01
        1   -1    0    0  501    0  0.00000000000E+00  0.00000000000E+00  0.76373797477E+03  0.76373797479E+03  0.50400001928E-02 0.  1.
       -1   -1    0    0    0  501  0.00000000000E+00  0.00000000000E+00 -0.27019657583E+03  0.27019657587E+03  0.50400001928E-02 0. -1.
    10030    2    1    2    0    0  0.00000000000E+00  0.00000000000E+00  0.49354139895E+03  0.10339345507E+04  0.90853593357E+03 0.  0.
        4    1    3    3  502    0  0.18149094152E+03  0.38034365110E+03  0.53784328584E+02  0.42484658606E+03  0.12699999809E+01 0. -1.
       -4    1    3    3    0  502 -0.18149094152E+03 -0.38034365110E+03  0.43975707036E+03  0.60908796460E+03  0.12699999809E+01 0.  1.
</event>
<event>
 5   0  0.1454652E-02  0.9266344E+03  0.7818609E-02  0.9392886E-01
        2   -1    0    0  501    0  0.00000000000E+00  0.00000000000E+00  0.21193020828E+04  0.21193020828E+04  0.25500000920E-02 0. -1.
       -2   -1    0    0    0  501  0.00000000000E+00  0.00000000000E+00 -0.10128938739E+03  0.10128938742E+03  0.25500000920E-02 0.  1.
    10030    2    1    2    0    0  0.00000000000E+00  0.00000000000E+00  0.20180126955E+04  0.22205914703E+04  0.92663436089E+03 0.  0.
        4    1    3    3  502    0 -0.44078463749E+01  0.29417805604E+03  0.15130401150E+03  0.33083934857E+03  0.12699999809E+01 0.  1.
       -4    1    3    3    0  502  0.44078463749E+01 -0.29417805604E+03  0.18667086840E+04  0.18897521217E+04  0.12699999809E+01 0. -1.
</event>
<event>
 5   0  0.1483326E-02  0.8878367E+03  0.7818609E-02  0.9440915E-01
        2   -1    0    0  501    0  0.00000000000E+00  0.00000000000E+00  0.15329968460E+04  0.15329968460E+04  0.25500000920E-02 0. -1.
       -2   -1    0    0    0  501  0.00000000000E+00  0.00000000000E+00 -0.12854789746E+03  0.12854789749E+03  0.25500000920E-02 0.  1.
    10030    2    1    2    0    0  0.00000000000E+00  0.00000000000E+00  0.14044489485E+04  0.16615447435E+04  0.88783674488E+03 0.  0.
        1    1    3    3  502    0 -0.77579574315E+02  0.34537553881E+03  0.12035527066E+04  0.12545285851E+04  0.50400001928E-02 0. -1.
       -1    1    3    3    0  502  0.77579574315E+02 -0.34537553881E+03  0.20089624190E+03  0.40701615839E+03  0.50400001928E-02 0.  1.
</event>
<event>
 5   0  0.8738044E-03  0.8933928E+03  0.7818609E-02  0.9433879E-01
        1   -1    0    0  501    0  0.00000000000E+00  0.00000000000E+00  0.82534015414E+03  0.82534015416E+03  0.50400001928E-02 0.  1.
       -1   -1    0    0    0  501  0.00000000000E+00  0.00000000000E+00 -0.24176418785E+03  0.24176418790E+03  0.50400001928E-02 0. -1.
    10030    2    1    2    0    0  0.00000000000E+00  0.00000000000E+00  0.58357596629E+03  0.10671043421E+04  0.89339284103E+03 0.  0.
        3    1    3    3  502    0 -0.38053649275E+03  0.23001310165E+03  0.24078059342E+03  0.50565734803E+03  0.10100000352E+00 0. -1.
       -3    1    3    3    0  502  0.38053649275E+03 -0.23001310165E+03  0.34279537287E+03  0.56144699403E+03  0.10100000352E+00 0.  1.
</event>
<event>
 5   0  0.1440615E-02  0.8970335E+03  0.7818609E-02  0.9429297E-01
        2   -1    0    0  501    0  0.00000000000E+00  0.00000000000E+00  0.72023319151E+03  0.72023319151E+03  0.25500000920E-02 0.  1.
       -2   -1    0    0    0  501  0.00000000000E+00  0.00000000000E+00 -0.27930853738E+03  0.27930853739E+03  0.25500000920E-02 0. -1.
    10030    2    1    2    0    0  0.00000000000E+00  0.00000000000E+00  0.44092465412E+03  0.99954172890E+03  0.89703350952E+03 0.  0.
        3    1    3    3  502    0 -0.24522728850E+03  0.26294533972E+03  0.51922635100E+03  0.63156368521E+03  0.10100000352E+00 0.  1.
       -3    1    3    3    0  502  0.24522728850E+03 -0.26294533972E+03 -0.78301696873E+02  0.36797804369E+03  0.10100000352E+00 0. -1.
</event>
<event>
 5   0  0.8612969E-03  0.9161859E+03  0.7818609E-02  0.9405571E-01
        1   -1    0    0  501    0  0.00000000000E+00  0.00000000000E+00  0.50740973482E+03  0.50740973484E+03  0.50400001928E-02 0.  1.
       -1   -1    0    0    0  501  0.00000000000E+00  0.00000000000E+00 -0.41356938564E+03  0.41356938567E+03  0.50400001928E-02 0. -1.
    10030    2    1    2    0    0  0.00000000000E+00  0.00000000000E+00  0.93840349177E+02  0.92097912051E+03  0.91618585958E+03 0.  0.
        4    1    3    3  502    0 -0.17476625588E+03  0.10600482448E+03  0.45902504761E+03  0.50247972520E+03  0.12699999809E+01 0.  1.
       -4    1    3    3    0  502  0.17476625588E+03 -0.10600482448E+03 -0.36518469843E+03  0.41849939531E+03  0.12699999809E+01 0. -1.
</event>
<event>
 5   0  0.1535906E-02  0.8711605E+03  0.7818609E-02  0.9462368E-01
        2   -1    0    0  501    0  0.00000000000E+00  0.00000000000E+00  0.92688345063E+03  0.92688345063E+03  0.25500000920E-02 0. -1.
       -2   -1    0    0    0  501  0.00000000000E+00  0.00000000000E+00 -0.20469686243E+03  0.20469686245E+03  0.25500000920E-02 0.  1.
    10030    2    1    2    0    0  0.00000000000E+00  0.00000000000E+00  0.72218658820E+03  0.11315803131E+04  0.87116045410E+03 0.  0.
        2    1    3    3  502    0  0.10390528652E+03 -0.34421961098E+03  0.68044811376E+03  0.76960579823E+03  0.25500000920E-02 0. -1.
       -2    1    3    3    0  502 -0.10390528652E+03  0.34421961098E+03  0.41738474440E+02  0.36197451485E+03  0.25500000920E-02 0.  1.
</event>
<event>
 5   0  0.8612969E-03  0.9092885E+03  0.7818609E-02  0.9414044E-01
        1   -1    0    0  501    0  0.00000000000E+00  0.00000000000E+00  0.81471078831E+03  0.81471078832E+03  0.50400001928E-02 0. -1.
       -1   -1    0    0    0  501  0.00000000000E+00  0.00000000000E+00 -0.25371139263E+03  0.25371139268E+03  0.50400001928E-02 0.  1.
    10030    2    1    2    0    0  0.00000000000E+00  0.00000000000E+00  0.56099939568E+03  0.10684221810E+04  0.90928853227E+03 0.  0.
        4    1    3    3  502    0  0.90472245138E+02 -0.11245966547E+03  0.78707356826E+03  0.80019923660E+03  0.12699999809E+01 0. -1.
       -4    1    3    3    0  502 -0.90472245138E+02  0.11245966547E+03 -0.22607417258E+03  0.26822294441E+03  0.12699999809E+01 0.  1.
</event>
<event>
 5   0  0.8612969E-03  0.8828468E+03  0.7818609E-02  0.9447281E-01
       -1   -1    0    0    0  501  0.00000000000E+00  0.00000000000E+00  0.11371502967E+03  0.11371502978E+03  0.50400001928E-02 0.  1.
        1   -1    0    0  501    0  0.00000000000E+00  0.00000000000E+00 -0.17135344224E+04  0.17135344225E+04  0.50400001928E-02 0. -1.
    10030    2    1    2    0    0  0.00000000000E+00  0.00000000000E+00 -0.15998193928E+04  0.18272494522E+04  0.88284679938E+03 0.  0.
        4    1    3    3  502    0 -0.28111266585E+02  0.32409795314E+02 -0.17092052377E+04  0.17097440731E+04  0.12699999809E+01 0. -1.
       -4    1    3    3    0  502  0.28111266585E+02 -0.32409795314E+02  0.10938584494E+03  0.11750537908E+03  0.12699999809E+01 0.  1.
</event>
<event>
 5   0  0.8885324E-03  0.9389928E+03  0.7818609E-02  0.9378110E-01
       -1   -1    0    0    0  501  0.00000000000E+00  0.00000000000E+00  0.31999917392E+03  0.31999917396E+03  0.50400001928E-02 0. -1.
        1   -1    0    0  501    0  0.00000000000E+00  0.00000000000E+00 -0.68883574725E+03  0.68883574727E+03  0.50400001928E-02 0.  1.
    10030    2    1    2    0    0  0.00000000000E+00  0.00000000000E+00 -0.36883657333E+03  0.10088349212E+04  0.93899280107E+03 0.  0.
        2    1    3    3  502    0 -0.36029283837E+03  0.23521830945E+03 -0.38624243883E+03  0.57820567624E+03  0.25500000920E-02 0.  1.
       -2    1    3    3    0  502  0.36029283837E+03 -0.23521830945E+03  0.17405865502E+02  0.43062924499E+03  0.25500000920E-02 0. -1.
</event>
<event>
 5   0  0.1535906E-02  0.8952468E+03  0.7818609E-02  0.9431543E-01
        2   -1    0    0  501    0  0.00000000000E+00  0.00000000000E+00  0.70771460272E+03  0.70771460272E+03  0.25500000920E-02 0. -1.
       -2   -1    0    0    0  501  0.00000000000E+00  0.00000000000E+00 -0.28311795270E+03  0.28311795271E+03  0.25500000920E-02 0.  1.
    10030    2    1    2    0    0  0.00000000000E+00  0.00000000000E+00  0.42459665002E+03  0.99083255544E+03  0.89524680268E+03 0.  0.
        2    1    3    3  502    0 -0.19404724873E+02  0.39397530274E+03  0.44648847620E+03  0.59577264280E+03  0.25500000920E-02 0. -1.
       -2    1    3    3    0  502  0.19404724873E+02 -0.39397530274E+03 -0.21891826188E+02  0.39505991264E+03  0.25500000920E-02 0.  1.
</event>
<event>
 5   0  0.1483326E-02  0.8985599E+03  0.7818609E-02  0.9427383E-01
       -2   -1    0    0    0  501  0.00000000000E+00  0.00000000000E+00  0.18289331009E+03  0.18289331011E+03  0.25500000920E-02 0. -1.
        2   -1    0    0  501    0  0.00000000000E+00  0.00000000000E+00 -0.11036625436E+04  0.11036625436E+04  0.25500000920E-02 0.  1.
    10030    2    1    2    0    0  0.00000000000E+00  0.00000000000E+00 -0.92076923348E+03  0.12865558537E+04  0.89855994976E+03 0.  0.
        1    1    3    3  502    0  0.25128531932E+03  0.93701274573E+01 -0.99346799060E+03  0.10247979115E+04  0.50400001928E-02 0.  1.
       -1    1    3    3    0  502 -0.25128531932E+03 -0.93701274573E+01  0.72698757125E+02  0.26175794220E+03  0.50400001928E-02 0. -1.
</event>
<event>
 5   0  0.1441195E-02  0.8917716E+03  0.7818609E-02  0.9435926E-01
       -2   -1    0    0    0  501  0.00000000000E+00  0.00000000000E+00  0.15905851661E+03  0.15905851663E+03  0.25500000920E-02 0. -1.
        2   -1    0    0  501    0  0.00000000000E+00  0.00000000000E+00 -0.12499433854E+04  0.12499433854E+04  0.25500000920E-02 0.  1.
    10030    2    1    2    0    0  0.00000000000E+00  0.00000000000E+00 -0.10908848687E+04  0.14090019020E+04  0.89177158677E+03 0.  0.
        5    1    3    3  502    0 -0.22789837546E+03 -0.70259408655E+02 -0.11406612954E+04  0.11653344305E+04  0.46999998093E+01 0.  1.
       -5    1    3    3    0  502  0.22789837546E+03  0.70259408655E+02  0.49776426625E+02  0.24366747154E+03  0.46999998093E+01 0. -1.
</event>
<event>
 5   0  0.1483326E-02  0.9035715E+03  0.7818609E-02  0.9421128E-01
        2   -1    0    0  501    0  0.00000000000E+00  0.00000000000E+00  0.84832313389E+03  0.84832313389E+03  0.25500000920E-02 0.  1.
       -2   -1    0    0    0  501  0.00000000000E+00  0.00000000000E+00 -0.24060450636E+03  0.24060450637E+03  0.25500000920E-02 0. -1.
    10030    2    1    2    0    0  0.00000000000E+00  0.00000000000E+00  0.60771862753E+03  0.10889276403E+04  0.90357151100E+03 0.  0.
        1    1    3    3  502    0  0.43069333997E+02 -0.26112729223E+03 -0.13740515418E+03  0.29819893813E+03  0.50400001928E-02 0. -1.
       -1    1    3    3    0  502 -0.43069333997E+02  0.26112729223E+03  0.74512378171E+03  0.79072870213E+03  0.50400001928E-02 0.  1.
</event>
<event>
 5   0  0.8291252E-03  0.8971212E+03  0.7818609E-02  0.9429187E-01
        1   -1    0    0  501    0  0.00000000000E+00  0.00000000000E+00  0.45350435344E+03  0.45350435347E+03  0.50400001928E-02 0.  1.
       -1   -1    0    0    0  501  0.00000000000E+00  0.00000000000E+00 -0.44367076672E+03  0.44367076675E+03  0.50400001928E-02 0. -1.
    10030    2    1    2    0    0  0.00000000000E+00  0.00000000000E+00  0.98335867193E+01  0.89717512022E+03  0.89712122755E+03 0.  0.
        1    1    3    3  502    0 -0.42012265347E+03  0.80057601083E+02  0.14018156635E+03  0.45007014455E+03  0.50400001928E-02 0.  1.
       -1    1    3    3    0  502  0.42012265347E+03 -0.80057601083E+02 -0.13034797963E+03  0.44710497567E+03  0.50400001928E-02 0. -1.
</event>
<event>
 5   0  0.1441195E-02  0.8778033E+03  0.7818609E-02  0.9453762E-01
       -2   -1    0    0    0  501  0.00000000000E+00  0.00000000000E+00  0.24186734085E+03  0.24186734086E+03  0.25500000920E-02 0.  1.
        2   -1    0    0  501    0  0.00000000000E+00  0.00000000000E+00 -0.79644764514E+03  0.79644764515E+03  0.25500000920E-02 0. -1.
    10030    2    1    2    0    0  0.00000000000E+00  0.00000000000E+00 -0.55458030429E+03  0.10383149860E+04  0.87780333576E+03 0.  0.
        5    1    3    3  502    0 -0.66098027851E+02  0.41397910768E+03 -0.12367848312E+03  0.43711109350E+03  0.46999998093E+01 0.  1.
       -5    1    3    3    0  502  0.66098027851E+02 -0.41397910768E+03 -0.43090182118E+03  0.60120389251E+03  0.46999998093E+01 0. -1.
</event>
<event>
 5   0  0.5770125E-03  0.8869551E+03  0.7818609E-02  0.9442037E-01
        3   -1    0    0  501    0  0.00000000000E+00  0.00000000000E+00  0.19704286433E+03  0.19704289021E+03  0.10100000352E+00 0. -1.
       -3   -1    0    0    0  501  0.00000000000E+00  0.00000000000E+00 -0.99811954744E+03  0.99811955255E+03  0.10100000352E+00 0.  1.
    10030    2    1    2    0    0  0.00000000000E+00  0.00000000000E+00 -0.80107668311E+03  0.11951624428E+04  0.88695513549E+03 0.  0.
        2    1    3    3  502    0  0.13049337634E+03  0.27298704251E+03  0.36351451820E+02  0.30474887154E+03  0.25500000920E-02 0. -1.
       -2    1    3    3    0  502 -0.13049337634E+03 -0.27298704251E+03 -0.83742813493E+03  0.89041357123E+03  0.25500000920E-02 0.  1.
</event>
<event>
 5   0  0.1454652E-02  0.8146480E+03  0.7818609E-02  0.9539053E-01
       -2   -1    0    0    0  501  0.00000000000E+00  0.00000000000E+00  0.14037976024E+03  0.14037976026E+03  0.25500000920E-02 0.  1.
        2   -1    0    0  501    0  0.00000000000E+00  0.00000000000E+00 -0.11818857905E+04  0.11818857905E+04  0.25500000920E-02 0. -1.
    10030    2    1    2    0    0  0.00000000000E+00  0.00000000000E+00 -0.10415060303E+04  0.13222655508E+04  0.81464800723E+03 0.  0.
        4    1    3    3  502    0 -0.24100417359E+03  0.30829573869E+03 -0.33724824535E+03  0.51659197252E+03  0.12699999809E+01 0.  1.
       -4    1    3    3    0  502  0.24100417359E+03 -0.30829573869E+03 -0.70425778493E+03  0.80567357826E+03  0.12699999809E+01 0. -1.
</event>
<event>
 5   0  0.1454652E-02  0.8805610E+03  0.7818609E-02  0.9450213E-01
        2   -1    0    0  501    0  0.00000000000E+00  0.00000000000E+00  0.27180933852E+03  0.27180933853E+03  0.25500000920E-02 0. -1.
       -2   -1    0    0    0  501  0.00000000000E+00  0.00000000000E+00 -0.71317242715E+03  0.71317242715E+03  0.25500000920E-02 0.  1.
    10030    2    1    2    0    0  0.00000000000E+00  0.00000000000E+00 -0.44136308862E+03  0.98498176568E+03  0.88056101590E+03 0.  0.
        4    1    3    3  502    0 -0.32989097127E+03  0.26361855191E+03 -0.36004529806E+03  0.55493875644E+03  0.12699999809E+01 0.  1.
       -4    1    3    3    0  502  0.32989097127E+03 -0.26361855191E+03 -0.81317790560E+02  0.43004300925E+03  0.12699999809E+01 0. -1.
</event>
<event>
 5   0  0.8885324E-03  0.9105832E+03  0.7818609E-02  0.9412448E-01
        1   -1    0    0  501    0  0.00000000000E+00  0.00000000000E+00  0.25501060930E+03  0.25501060935E+03  0.50400001928E-02 0. -1.
       -1   -1    0    0    0  501  0.00000000000E+00  0.00000000000E+00 -0.81286983857E+03  0.81286983859E+03  0.50400001928E-02 0.  1.
    10030    2    1    2    0    0  0.00000000000E+00  0.00000000000E+00 -0.55785922927E+03  0.10678804479E+04  0.91058318203E+03 0.  0.
        2    1    3    3  502    0  0.14590004595E+03  0.29206907407E+03  0.93218789805E+02  0.33953042606E+03  0.25500000920E-02 0. -1.
       -2    1    3    3    0  502 -0.14590004595E+03 -0.29206907407E+03 -0.65107801908E+03  0.72835002188E+03  0.25500000920E-02 0.  1.
</event>
<event>
 5   0  0.8291252E-03  0.8651109E+03  0.7818609E-02  0.9470277E-01
        1   -1    0    0  501    0  0.00000000000E+00  0.00000000000E+00  0.13311640034E+03  0.13311640044E+03  0.50400001928E-02 0. -1.
       -1   -1    0    0    0  501  0.00000000000E+00  0.00000000000E+00 -0.14055684390E+04  0.14055684390E+04  0.50400001928E-02 0.  1.
    10030    2    1    2    0    0  0.00000000000E+00  0.00000000000E+00 -0.12724520387E+04  0.15386848395E+04  0.86511088564E+03 0.  0.
        1    1    3    3  502    0  0.36128713813E+03  0.87455602160E+02 -0.24280852534E+03  0.44399646229E+03  0.50400001928E-02 0. -1.
       -1    1    3    3    0  502 -0.36128713813E+03 -0.87455602160E+02 -0.10296435133E+04  0.10946883772E+04  0.50400001928E-02 0.  1.
</event>
<event>
 5   0  0.8524692E-03  0.9035929E+03  0.7818609E-02  0.9421101E-01
       -1   -1    0    0    0  501  0.00000000000E+00  0.00000000000E+00  0.10972500153E+04  0.10972500153E+04  0.50400001928E-02 0.  1.
        1   -1    0    0  501    0  0.00000000000E+00  0.00000000000E+00 -0.18602872707E+03  0.18602872714E+03  0.50400001928E-02 0. -1.
    10030    2    1    2    0    0  0.00000000000E+00  0.00000000000E+00  0.91122128826E+03  0.12832787425E+04  0.90359288107E+03 0.  0.
        5    1    3    3  502    0 -0.26784552899E+03 -0.61586809544E+01 -0.60994752320E+02  0.27481194763E+03  0.46999998093E+01 0. -1.
       -5    1    3    3    0  502  0.26784552899E+03  0.61586809544E+01  0.97221604058E+03  0.10084667948E+04  0.46999998093E+01 0.  1.
</event>
<event>
 5   0  0.1454652E-02  0.9061870E+03  0.7818609E-02  0.9417880E-01
       -2   -1    0    0    0  501  0.00000000000E+00  0.00000000000E+00  0.43303458098E+03  0.43303458098E+03  0.25500000920E-02 0.  1.
        2   -1    0    0  501    0  0.00000000000E+00  0.00000000000E+00 -0.47408162397E+03  0.47408162398E+03  0.25500000920E-02 0. -1.
    10030    2    1    2    0    0  0.00000000000E+00  0.00000000000E+00 -0.41047042996E+02  0.90711620496E+03  0.90618703895E+03 0.  0.
        4    1    3    3  502    0  0.21184385129E+03  0.29921283403E+03  0.24599369868E+03  0.44149818807E+03  0.12699999809E+01 0.  1.
       -4    1    3    3    0  502 -0.21184385129E+03 -0.29921283403E+03 -0.28704074167E+03  0.46561801690E+03  0.12699999809E+01 0. -1.
</event>
<event>
 5   0  0.1441195E-02  0.9105440E+03  0.7818609E-02  0.9412496E-01
       -2   -1    0    0    0  501  0.00000000000E+00  0.00000000000E+00  0.21889249729E+03  0.21889249730E+03  0.25500000920E-02 0.  1.
        2   -1    0    0  501    0  0.00000000000E+00  0.00000000000E+00 -0.94691508721E+03  0.94691508722E+03  0.25500000920E-02 0. -1.
    10030    2    1    2    0    0  0.00000000000E+00  0.00000000000E+00 -0.72802258993E+03  0.11658075845E+04  0.91054403116E+03 0.  0.
        5    1    3    3  502    0  0.15589799251E+03  0.42769824662E+03 -0.35820809216E+03  0.57927981280E+03  0.46999998093E+01 0. -1.
       -5    1    3    3    0  502 -0.15589799251E+03 -0.42769824662E+03 -0.36981449777E+03  0.58652777172E+03  0.46999998093E+01 0.  1.
</event>
<event>
 5   0  0.1483326E-02  0.8870702E+03  0.7818609E-02  0.9441890E-01
       -2   -1    0    0    0  501  0.00000000000E+00  0.00000000000E+00  0.12359119613E+03  0.12359119615E+03  0.25500000920E-02 0.  1.
        2   -1    0    0  501    0  0.00000000000E+00  0.00000000000E+00 -0.15917265367E+04  0.15917265367E+04  0.25500000920E-02 0. -1.
    10030    2    1    2    0    0  0.00000000000E+00  0.00000000000E+00 -0.14681353405E+04  0.17153177328E+04  0.88707020376E+03 0.  0.
        1    1    3    3  502    0  0.41270813923E+03 -0.15887629324E+03 -0.79974770551E+03  0.91387421303E+03  0.50400001928E-02 0. -1.
       -1    1    3    3    0  502 -0.41270813923E+03  0.15887629324E+03 -0.66838763501E+03  0.80144351978E+03  0.50400001928E-02 0.  1.
</event>
<event>
 5   0  0.1483326E-02  0.8658685E+03  0.7818609E-02  0.9469283E-01
       -2   -1    0    0    0  501  0.00000000000E+00  0.00000000000E+00  0.28056510882E+03  0.28056510884E+03  0.25500000920E-02 0. -1.
        2   -1    0    0  501    0  0.00000000000E+00  0.00000000000E+00 -0.66805190371E+03  0.66805190371E+03  0.25500000920E-02 0.  1.
    10030    2    1    2    0    0  0.00000000000E+00  0.00000000000E+00 -0.38748679488E+03  0.94861701255E+03  0.86586847748E+03 0.  0.
        1    1    3    3  502    0 -0.24757501796E+02  0.25500295445E+03  0.18859635658E+03  0.31813208957E+03  0.50400001928E-02 0. -1.
       -1    1    3    3    0  502  0.24757501796E+02 -0.25500295445E+03 -0.57608315147E+03  0.63048492298E+03  0.50400001928E-02 0.  1.
</event>
<event>
 5   0  0.8524692E-03  0.9772857E+03  0.7818609E-02  0.9333814E-01
       -1   -1    0    0    0  501  0.00000000000E+00  0.00000000000E+00  0.11330092792E+03  0.11330092803E+03  0.50400001928E-02 0.  1.
        1   -1    0    0  501    0  0.00000000000E+00  0.00000000000E+00 -0.21074130350E+04  0.21074130350E+04  0.50400001928E-02 0. -1.
    10030    2    1    2    0    0  0.00000000000E+00  0.00000000000E+00 -0.19941121071E+04  0.22207139631E+04  0.97728573612E+03 0.  0.
        5    1    3    3  502    0 -0.29027779325E+03 -0.69105110767E+02 -0.11782930799E+03  0.32084661353E+03  0.46999998093E+01 0.  1.
       -5    1    3    3    0  502  0.29027779325E+03  0.69105110767E+02 -0.18762827991E+04  0.18998673495E+04  0.46999998093E+01 0. -1.
</event>
<event>
 5   0  0.8524692E-03  0.8881447E+03  0.7818609E-02  0.9440524E-01
        1   -1    0    0  501    0  0.00000000000E+00  0.00000000000E+00  0.15654584640E+03  0.15654584648E+03  0.50400001928E-02 0. -1.
       -1   -1    0    0    0  501  0.00000000000E+00  0.00000000000E+00 -0.12596965628E+04  0.12596965628E+04  0.50400001928E-02 0.  1.
    10030    2    1    2    0    0  0.00000000000E+00  0.00000000000E+00 -0.11031507164E+04  0.14162424093E+04  0.88814472851E+03 0.  0.
        5    1    3    3  502    0 -0.14193201208E+03 -0.40083369549E+03 -0.34757880317E+03  0.54922259778E+03  0.46999998093E+01 0. -1.
       -5    1    3    3    0  502  0.14193201208E+03  0.40083369549E+03 -0.75557191326E+03  0.86701981153E+03  0.46999998093E+01 0.  1.
</event>
<event>
 5   0  0.1454652E-02  0.8866550E+03  0.7818609E-02  0.9442419E-01
       -2   -1    0    0    0  501  0.00000000000E+00  0.00000000000E+00  0.17148750402E+03  0.17148750404E+03  0.25500000920E-02 0.  1.
        2   -1    0    0  501    0  0.00000000000E+00  0.00000000000E+00 -0.11460851048E+04  0.11460851048E+04  0.25500000920E-02 0. -1.
    10030    2    1    2    0    0  0.00000000000E+00  0.00000000000E+00 -0.97459760078E+03  0.13175726088E+04  0.88665500400E+03 0.  0.
        4    1    3    3  502    0 -0.43231826793E+03  0.86746884653E+02 -0.41898214468E+03  0.60825303718E+03  0.12699999809E+01 0.  1.
       -4    1    3    3    0  502  0.43231826793E+03 -0.86746884653E+02 -0.55561545609E+03  0.70931957165E+03  0.12699999809E+01 0. -1.
</event>
<event>
 5   0  0.8612969E-03  0.8584921E+03  0.7818609E-02  0.9479009E-01
       -1   -1    0    0    0  501  0.00000000000E+00  0.00000000000E+00  0.21737369257E+03  0.21737369263E+03  0.50400001928E-02 0.  1.
        1   -1    0    0  501    0  0.00000000000E+00  0.00000000000E+00 -0.84762870305E+03  0.84762870306E+03  0.50400001928E-02 0. -1.
    10030    2    1    2    0    0  0.00000000000E+00  0.00000000000E+00 -0.63025501047E+03  0.10650023957E+04  0.85849212263E+03 0.  0.
        4    1    3    3  502    0  0.61215520402E+01  0.18299563893E+03  0.16649626373E+03  0.24748231453E+03  0.12699999809E+01 0.  1.
       -4    1    3    3    0  502 -0.61215520402E+01 -0.18299563893E+03 -0.79675127420E+03  0.81752008117E+03  0.12699999809E+01 0. -1.
</event>
<event>
 5   0  0.1454652E-02  0.9036707E+03  0.7818609E-02  0.9421005E-01
       -2   -1    0    0    0  501  0.00000000000E+00  0.00000000000E+00  0.18925649156E+03  0.18925649157E+03  0.25500000920E-02 0. -1.
        2   -1    0    0  501    0  0.00000000000E+00  0.00000000000E+00 -0.10787221276E+04  0.10787221276E+04  0.25500000920E-02 0.  1.
    10030    2    1    2    0    0  0.00000000000E+00  0.00000000000E+00 -0.88946563604E+03  0.12679786192E+04  0.90367065958E+03 0.  0.
        4    1    3    3  502    0 -0.19558365622E+03 -0.29875430829E+03 -0.83319412612E+03  0.90648837168E+03  0.12699999809E+01 0.  1.
       -4    1    3    3    0  502  0.19558365622E+03  0.29875430829E+03 -0.56271509916E+02  0.36149024749E+03  0.12699999809E+01 0. -1.
</event>
<event>
 5   0  0.8738044E-03  0.8876626E+03  0.7818609E-02  0.9441137E-01
       -1   -1    0    0    0  501  0.00000000000E+00  0.00000000000E+00  0.45126479919E+03  0.45126479922E+03  0.50400001928E-02 0. -1.
        1   -1    0    0  501    0  0.00000000000E+00  0.00000000000E+00 -0.43652027276E+03  0.43652027279E+03  0.50400001928E-02 0.  1.
    10030    2    1    2    0    0  0.00000000000E+00  0.00000000000E+00  0.14744526431E+02  0.88778507200E+03  0.88766262342E+03 0.  0.
        3    1    3    3  502    0  0.19303394268E+03  0.39473633280E+03  0.69889666119E+02  0.44493083855E+03  0.10100000352E+00 0.  1.
       -3    1    3    3    0  502 -0.19303394268E+03 -0.39473633280E+03 -0.55145139688E+02  0.44285423346E+03  0.10100000352E+00 0. -1.
</event>
<event>
 5   0  0.8612969E-03  0.1068204E+04  0.7818609E-02  0.9236748E-01
        1   -1    0    0  501    0  0.00000000000E+00  0.00000000000E+00  0.19884286352E+04  0.19884286352E+04  0.50400001928E-02 0.  1.
       -1   -1    0    0    0  501  0.00000000000E+00  0.00000000000E+00 -0.14346263083E+03  0.14346263092E+03  0.50400001928E-02 0. -1.
    10030    2    1    2    0    0  0.00000000000E+00  0.00000000000E+00  0.18449660044E+04  0.21318912661E+04  0.10682044810E+04 0.  0.
        4    1    3    3  502    0 -0.53003356658E+03  0.19506612427E+02  0.79709044251E+03  0.95742930604E+03  0.12699999809E+01 0. -1.
       -4    1    3    3    0  502  0.53003356658E+03 -0.19506612427E+02  0.10478755619E+04  0.11744619601E+04  0.12699999809E+01 0.  1.
</event>
<event>
 5   0  0.8885324E-03  0.9693364E+03  0.7818609E-02  0.9342831E-01
        1   -1    0    0  501    0  0.00000000000E+00  0.00000000000E+00  0.15981473072E+03  0.15981473080E+03  0.50400001928E-02 0. -1.
       -1   -1    0    0    0  501  0.00000000000E+00  0.00000000000E+00 -0.14698473734E+04  0.14698473734E+04  0.50400001928E-02 0.  1.
    10030    2    1    2    0    0  0.00000000000E+00  0.00000000000E+00 -0.13100326427E+04  0.16296621042E+04  0.96933639621E+03 0.  0.
        2    1    3    3  502    0 -0.23983902985E+03 -0.41467314887E+03 -0.53116797330E+03  0.71527337186E+03  0.25500000920E-02 0. -1.
       -2    1    3    3    0  502  0.23983902985E+03  0.41467314887E+03 -0.77886466937E+03  0.91438873234E+03  0.25500000920E-02 0.  1.
</event>
<event>
 5   0  0.1483326E-02  0.8833807E+03  0.7818609E-02  0.9446598E-01
       -2   -1    0    0    0  501  0.00000000000E+00  0.00000000000E+00  0.11145795074E+04  0.11145795074E+04  0.25500000920E-02 0. -1.
        2   -1    0    0  501    0  0.00000000000E+00  0.00000000000E+00 -0.17503496231E+03  0.17503496233E+03  0.25500000920E-02 0.  1.
    10030    2    1    2    0    0  0.00000000000E+00  0.00000000000E+00  0.93954454508E+03  0.12896144697E+04  0.88338073803E+03 0.  0.
        1    1    3    3  502    0  0.23347795888E+03  0.33448688636E+03  0.71707552300E+03  0.82497923619E+03  0.50400001928E-02 0. -1.
       -1    1    3    3    0  502 -0.23347795888E+03 -0.33448688636E+03  0.22246902208E+03  0.46463523353E+03  0.50400001928E-02 0.  1.
</event>
<event>
 5   0  0.8291252E-03  0.8879599E+03  0.7818609E-02  0.9440759E-01
        1   -1    0    0  501    0  0.00000000000E+00  0.00000000000E+00  0.43041312843E+03  0.43041312846E+03  0.50400001928E-02 0. -1.
       -1   -1    0    0    0  501  0.00000000000E+00  0.00000000000E+00 -0.45797435535E+03  0.45797435537E+03  0.50400001928E-02 0.  1.
    10030    2    1    2    0    0  0.00000000000E+00  0.00000000000E+00 -0.27561226919E+02  0.88838748383E+03  0.88795985281E+03 0.  0.
        1    1    3    3  502    0 -0.15613085887E+03 -0.37222234386E+03  0.17121883893E+03  0.43845434106E+03  0.50400001928E-02 0. -1.
       -1    1    3    3    0  502  0.15613085887E+03  0.37222234386E+03 -0.19878006585E+03  0.44993314277E+03  0.50400001928E-02 0.  1.
</event>
<event>
 5   0  0.1483326E-02  0.8893506E+03  0.7818609E-02  0.9438993E-01
       -2   -1    0    0    0  501  0.00000000000E+00  0.00000000000E+00  0.23074540325E+03  0.23074540327E+03  0.25500000920E-02 0.  1.
        2   -1    0    0  501    0  0.00000000000E+00  0.00000000000E+00 -0.85694493635E+03  0.85694493635E+03  0.25500000920E-02 0. -1.
    10030    2    1    2    0    0  0.00000000000E+00  0.00000000000E+00 -0.62619953309E+03  0.10876903396E+04  0.88935056061E+03 0.  0.
        1    1    3    3  502    0  0.39239700727E+03 -0.13268976612E+03 -0.51088886019E+03  0.65771529771E+03  0.50400001928E-02 0. -1.
       -1    1    3    3    0  502 -0.39239700727E+03  0.13268976612E+03 -0.11531067290E+03  0.42997504191E+03  0.50400001928E-02 0.  1.
</event>
<event>
 5   0  0.1535906E-02  0.8980212E+03  0.7818609E-02  0.9428058E-01
        2   -1    0    0  501    0  0.00000000000E+00  0.00000000000E+00  0.17694458723E+04  0.17694458723E+04  0.25500000920E-02 0.  1.
       -2   -1    0    0    0  501  0.00000000000E+00  0.00000000000E+00 -0.11393992080E+03  0.11393992083E+03  0.25500000920E-02 0. -1.
    10030    2    1    2    0    0  0.00000000000E+00  0.00000000000E+00  0.16555059515E+04  0.18833857931E+04  0.89802120817E+03 0.  0.
        2    1    3    3  502    0  0.23425804408E+03  0.22962774605E+03  0.14707777234E+04  0.15069150091E+04  0.25500000920E-02 0.  1.
       -2    1    3    3    0  502 -0.23425804408E+03 -0.22962774605E+03  0.18472822809E+03  0.37647078404E+03  0.25500000920E-02 0. -1.
</event>
<event>
 5   0  0.1454652E-02  0.9003292E+03  0.7818609E-02  0.9425170E-01
        2   -1    0    0  501    0  0.00000000000E+00  0.00000000000E+00  0.76130262808E+03  0.76130262809E+03  0.25500000920E-02 0.  1.
       -2   -1    0    0    0  501  0.00000000000E+00  0.00000000000E+00 -0.26618607665E+03  0.26618607666E+03  0.25500000920E-02 0. -1.
    10030    2    1    2    0    0  0.00000000000E+00  0.00000000000E+00  0.49511655143E+03  0.10274887047E+04  0.90032918362E+03 0.  0.
        4    1    3    3  502    0  0.79436718115E+02 -0.44301633261E+03  0.25730123424E+03  0.51843919720E+03  0.12699999809E+01 0.  1.
       -4    1    3    3    0  502 -0.79436718115E+02  0.44301633261E+03  0.23781531719E+03  0.50904950755E+03  0.12699999809E+01 0. -1.
</event>
<event>
 5   0  0.8885324E-03  0.8083072E+03  0.7818609E-02  0.9548070E-01
        1   -1    0    0  501    0  0.00000000000E+00  0.00000000000E+00  0.58441191202E+03  0.58441191204E+03  0.50400001928E-02 0. -1.
       -1   -1    0    0    0  501  0.00000000000E+00  0.00000000000E+00 -0.27949483751E+03  0.27949483755E+03  0.50400001928E-02 0.  1.
    10030    2    1    2    0    0  0.00000000000E+00  0.00000000000E+00  0.30491707451E+03  0.86390674959E+03  0.80830715057E+03 0.  0.
        2    1    3    3  502    0  0.14423124905E+03  0.25587018871E+03 -0.14424807516E+03  0.32723036819E+03  0.25500000920E-02 0.  1.
       -2    1    3    3    0  502 -0.14423124905E+03 -0.25587018871E+03  0.44916514967E+03  0.53667638140E+03  0.25500000920E-02 0. -1.
</event>
<event>
 5   0  0.8291252E-03  0.9035226E+03  0.7818609E-02  0.9421189E-01
       -1   -1    0    0    0  501  0.00000000000E+00  0.00000000000E+00  0.17635028289E+03  0.17635028296E+03  0.50400001928E-02 0.  1.
        1   -1    0    0  501    0  0.00000000000E+00  0.00000000000E+00 -0.11572890526E+04  0.11572890526E+04  0.50400001928E-02 0. -1.
    10030    2    1    2    0    0  0.00000000000E+00  0.00000000000E+00 -0.98093876970E+03  0.13336393356E+04  0.90352255504E+03 0.  0.
        1    1    3    3  502    0  0.18345117815E+03  0.32007313106E+03 -0.87533816324E+03  0.94990422888E+03  0.50400001928E-02 0. -1.
       -1    1    3    3    0  502 -0.18345117815E+03 -0.32007313106E+03 -0.10560060645E+03  0.38373510668E+03  0.50400001928E-02 0.  1.
</event>
<event>
 5   0  0.1454652E-02  0.8546076E+03  0.7818609E-02  0.9484174E-01
        2   -1    0    0  501    0  0.00000000000E+00  0.00000000000E+00  0.53475024333E+03  0.53475024334E+03  0.25500000920E-02 0. -1.
       -2   -1    0    0    0  501  0.00000000000E+00  0.00000000000E+00 -0.34144635261E+03  0.34144635262E+03  0.25500000920E-02 0.  1.
    10030    2    1    2    0    0  0.00000000000E+00  0.00000000000E+00  0.19330389072E+03  0.87619659596E+03  0.85460755941E+03 0.  0.
        4    1    3    3  502    0 -0.31377836847E+03  0.23792065680E+03 -0.73442079665E+02  0.40057265935E+03  0.12699999809E+01 0.  1.
       -4    1    3    3    0  502  0.31377836847E+03 -0.23792065680E+03  0.26674597039E+03  0.47562393661E+03  0.12699999809E+01 0. -1.
</event>
<event>
 5   0  0.1441195E-02  0.8967832E+03  0.7818609E-02  0.9429612E-01
       -2   -1    0    0    0  501  0.00000000000E+00  0.00000000000E+00  0.15565295134E+03  0.15565295136E+03  0.25500000920E-02 0. -1.
        2   -1    0    0  501    0  0.00000000000E+00  0.00000000000E+00 -0.12916877862E+04  0.12916877862E+04  0.25500000920E-02 0.  1.
    10030    2    1    2    0    0  0.00000000000E+00  0.00000000000E+00 -0.11360348348E+04  0.14473407376E+04  0.89678317591E+03 0.  0.
        5    1    3    3  502    0 -0.20661639713E+03 -0.39262526486E+03 -0.46357275395E+03  0.64169051916E+03  0.46999998093E+01 0.  1.
       -5    1    3    3    0  502  0.20661639713E+03  0.39262526486E+03 -0.67246208089E+03  0.80565021840E+03  0.46999998093E+01 0. -1.
</event>
<event>
 5   0  0.5770125E-03  0.9021240E+03  0.7818609E-02  0.9422930E-01
       -4   -1    0    0    0  501  0.00000000000E+00  0.00000000000E+00  0.45390955968E+03  0.45391133635E+03  0.12699999809E+01 0.  1.
        4   -1    0    0  501    0  0.00000000000E+00  0.00000000000E+00 -0.44822872890E+03  0.44823052809E+03  0.12699999809E+01 0. -1.
    10030    2    1    2    0    0  0.00000000000E+00  0.00000000000E+00  0.56808307768E+01  0.90214186445E+03  0.90212397804E+03 0.  0.
        5    1    3    3  502    0 -0.12723976694E+03  0.25069213482E+03 -0.34986804230E+03  0.44884991007E+03  0.46999998093E+01 0. -1.
       -5    1    3    3    0  502  0.12723976694E+03 -0.25069213482E+03  0.35554887308E+03  0.45329195437E+03  0.46999998093E+01 0.  1.
</event>
<event>
 5   0  0.5770125E-03  0.8922712E+03  0.7818609E-02  0.9435295E-01
        3   -1    0    0  501    0  0.00000000000E+00  0.00000000000E+00  0.47114729823E+03  0.47114730906E+03  0.10100000352E+00 0.  1.
       -3   -1    0    0    0  501  0.00000000000E+00  0.00000000000E+00 -0.42245171688E+03  0.42245172895E+03  0.10100000352E+00 0. -1.
    10030    2    1    2    0    0  0.00000000000E+00  0.00000000000E+00  0.48695581351E+02  0.89359903801E+03  0.89227124861E+03 0.  0.
        4    1    3    3  502    0 -0.21461695782E+03 -0.25693810181E+03  0.31967261518E+03  0.46289288237E+03  0.12699999809E+01 0.  1.
       -4    1    3    3    0  502  0.21461695782E+03  0.25693810181E+03 -0.27097703383E+03  0.43070615565E+03  0.12699999809E+01 0. -1.
</event>
<event>
 5   0  0.8738044E-03  0.8721516E+03  0.7818609E-02  0.9461079E-01
       -1   -1    0    0    0  501  0.00000000000E+00  0.00000000000E+00  0.18010118121E+03  0.18010118128E+03  0.50400001928E-02 0. -1.
        1   -1    0    0  501    0  0.00000000000E+00  0.00000000000E+00 -0.10558626495E+04  0.10558626496E+04  0.50400001928E-02 0.  1.
    10030    2    1    2    0    0  0.00000000000E+00  0.00000000000E+00 -0.87576146834E+03  0.12359638308E+04  0.87215161623E+03 0.  0.
        3    1    3    3  502    0 -0.12112743058E+03  0.40917829055E+03 -0.31062653310E+03  0.52781396455E+03  0.10100000352E+00 0.  1.
       -3    1    3    3    0  502  0.12112743058E+03 -0.40917829055E+03 -0.56513493523E+03  0.70814986629E+03  0.10100000352E+00 0. -1.
</event>
<event>
 5   0  0.1535906E-02  0.9127920E+03  0.7818609E-02  0.9409731E-01
       -2   -1    0    0    0  501  0.00000000000E+00  0.00000000000E+00  0.19154866638E+03  0.19154866639E+03  0.25500000920E-02 0. -1.
        2   -1    0    0  501    0  0.00000000000E+00  0.00000000000E+00 -0.10874380048E+04  0.10874380048E+04  0.25500000920E-02 0.  1.
    10030    2    1    2    0    0  0.00000000000E+00  0.00000000000E+00 -0.89588933839E+03  0.12789866712E+04  0.91279197979E+03 0.  0.
        2    1    3    3  502    0  0.43764225140E+03 -0.98682194670E+02 -0.56541330859E+03  0.72177636793E+03  0.25500000920E-02 0.  1.
       -2    1    3    3    0  502 -0.43764225140E+03  0.98682194670E+02 -0.33047602979E+03  0.55721030324E+03  0.25500000920E-02 0. -1.
</event>
<event>
 5   0  0.1454652E-02  0.9075437E+03  0.7818609E-02  0.9416200E-01
       -2   -1    0    0    0  501  0.00000000000E+00  0.00000000000E+00  0.22261081022E+03  0.22261081023E+03  0.25500000920E-02 0.  1.
        2   -1    0    0  501    0  0.00000000000E+00  0.00000000000E+00 -0.92497251239E+03  0.92497251239E+03  0.25500000920E-02 0. -1.
    10030    2    1    2    0    0  0.00000000000E+00  0.00000000000E+00 -0.70236170217E+03  0.11475833226E+04  0.90754367481E+03 0.  0.
        4    1    3    3  502    0  0.14576983122E+03  0.12509009653E+03 -0.87102605352E+03  0.89195536590E+03  0.12699999809E+01 0. -1.
       -4    1    3    3    0  502 -0.14576983122E+03 -0.12509009653E+03  0.16866435135E+03  0.25562795673E+03  0.12699999809E+01 0.  1.
</event>
<event>
 5   0  0.8291252E-03  0.9070519E+03  0.7818609E-02  0.9416809E-01
       -1   -1    0    0    0  501  0.00000000000E+00  0.00000000000E+00  0.39049443194E+03  0.39049443197E+03  0.50400001928E-02 0.  1.
        1   -1    0    0  501    0  0.00000000000E+00  0.00000000000E+00 -0.52673165638E+03  0.52673165641E+03  0.50400001928E-02 0. -1.
    10030    2    1    2    0    0  0.00000000000E+00  0.00000000000E+00 -0.13623722445E+03  0.91722608838E+03  0.90705188158E+03 0.  0.
        1    1    3    3  502    0  0.23531061238E+03 -0.25910994043E+03  0.22352011914E+03  0.41529542402E+03  0.50400001928E-02 0.  1.
       -1    1    3    3    0  502 -0.23531061238E+03  0.25910994043E+03 -0.35975734358E+03  0.50193066435E+03  0.50400001928E-02 0. -1.
</event>
<event>
 5   0  0.8291252E-03  0.9055119E+03  0.7818609E-02  0.9418717E-01
        1   -1    0    0  501    0  0.00000000000E+00  0.00000000000E+00  0.21091781689E+03  0.21091781695E+03  0.50400001928E-02 0. -1.
       -1   -1    0    0    0  501  0.00000000000E+00  0.00000000000E+00 -0.97188541021E+03  0.97188541023E+03  0.50400001928E-02 0.  1.
    10030    2    1    2    0    0  0.00000000000E+00  0.00000000000E+00 -0.76096759332E+03  0.11828032272E+04  0.90551189730E+03 0.  0.
        1    1    3    3  502    0  0.20712406991E+03 -0.26690135645E+03 -0.77420042448E+03  0.84470291328E+03  0.50400001928E-02 0.  1.
       -1    1    3    3    0  502 -0.20712406991E+03  0.26690135645E+03  0.13232831166E+02  0.33810031390E+03  0.50400001928E-02 0. -1.
</event>
<event>
 5   0  0.1440615E-02  0.9015693E+03  0.7818609E-02  0.9423622E-01
       -2   -1    0    0    0  501  0.00000000000E+00  0.00000000000E+00  0.33447010156E+03  0.33447010157E+03  0.25500000920E-02 0.  1.
        2   -1    0    0  501    0  0.00000000000E+00  0.00000000000E+00 -0.60754846577E+03  0.60754846578E+03  0.25500000920E-02 0. -1.
    10030    2    1    2    0    0  0.00000000000E+00  0.00000000000E+00 -0.27307836421E+03  0.94201856735E+03  0.90156929197E+03 0.  0.
        3    1    3    3  502    0  0.78365275263E+02  0.72884220264E+02  0.32100398159E+03  0.33837374651E+03  0.10100000352E+00 0.  1.
       -3    1    3    3    0  502 -0.78365275263E+02 -0.72884220264E+02 -0.59408234580E+03  0.60364482084E+03  0.10100000352E+00 0. -1.
</event>
<event>
 5   0  0.8612969E-03  0.9345600E+03  0.7818609E-02  0.9383382E-01
        1   -1    0    0  501    0  0.00000000000E+00  0.00000000000E+00  0.42115861390E+03  0.42115861393E+03  0.50400001928E-02 0.  1.
       -1   -1    0    0    0  501  0.00000000000E+00  0.00000000000E+00 -0.51845218919E+03  0.51845218922E+03  0.50400001928E-02 0. -1.
    10030    2    1    2    0    0  0.00000000000E+00  0.00000000000E+00 -0.97293575293E+02  0.93961080314E+03  0.93456001498E+03 0.  0.
        4    1    3    3  502    0 -0.46565506710E+03 -0.16821637462E+02 -0.83927510124E+02  0.47345860311E+03  0.12699999809E+01 0. -1.
       -4    1    3    3    0  502  0.46565506710E+03  0.16821637462E+02 -0.13366065169E+02  0.46615220004E+03  0.12699999809E+01 0.  1.
</event>
<event>
 5   0  0.8291252E-03  0.8962284E+03  0.7818609E-02  0.9430308E-01
        1   -1    0    0  501    0  0.00000000000E+00  0.00000000000E+00  0.54337462190E+03  0.54337462192E+03  0.50400001928E-02 0. -1.
       -1   -1    0    0    0  501  0.00000000000E+00  0.00000000000E+00 -0.36955414514E+03  0.36955414517E+03  0.50400001928E-02 0.  1.
    10030    2    1    2    0    0  0.00000000000E+00  0.00000000000E+00  0.17382047676E+03  0.91292876709E+03  0.89622841712E+03 0.  0.
        1    1    3    3  502    0 -0.27938983151E+03 -0.17593254490E+03 -0.22171302174E+03  0.39770290713E+03  0.50400001928E-02 0.  1.
       -1    1    3    3    0  502  0.27938983151E+03  0.17593254490E+03  0.39553349850E+03  0.51522585996E+03  0.50400001928E-02 0. -1.
</event>
<event>
 5   0  0.5770125E-03  0.8934762E+03  0.7818609E-02  0.9433773E-01
        3   -1    0    0  501    0  0.00000000000E+00  0.00000000000E+00  0.29786600489E+03  0.29786602202E+03  0.10100000352E+00 0.  1.
       -3   -1    0    0    0  501  0.00000000000E+00  0.00000000000E+00 -0.67001583268E+03  0.67001584029E+03  0.10100000352E+00 0. -1.
    10030    2    1    2    0    0  0.00000000000E+00  0.00000000000E+00 -0.37214982779E+03  0.96788186231E+03  0.89347624762E+03 0.  0.
        1    1    3    3  502    0  0.34849534708E+03 -0.27363073259E+03 -0.24785175897E+03  0.50769408033E+03  0.50400001928E-02 0. -1.
       -1    1    3    3    0  502 -0.34849534708E+03  0.27363073259E+03 -0.12429806882E+03  0.46018778198E+03  0.50400001928E-02 0.  1.
</event>
<event>
 5   0  0.8291252E-03  0.9000682E+03  0.7818609E-02  0.9425496E-01
       -1   -1    0    0    0  501  0.00000000000E+00  0.00000000000E+00  0.39806958912E+03  0.39806958915E+03  0.50400001928E-02 0. -1.
        1   -1    0    0  501    0  0.00000000000E+00  0.00000000000E+00 -0.50878215628E+03  0.50878215630E+03  0.50400001928E-02 0.  1.
    10030    2    1    2    0    0  0.00000000000E+00  0.00000000000E+00 -0.11071256716E+03  0.90685174545E+03  0.90006822836E+03 0.  0.
        1    1    3    3  502    0  0.18035583265E+03  0.40902540045E+03 -0.29963630437E+01  0.44703353655E+03  0.50400001928E-02 0. -1.
       -1    1    3    3    0  502 -0.18035583265E+03 -0.40902540045E+03 -0.10771620412E+03  0.45981820890E+03  0.50400001928E-02 0.  1.
</event>
<event>
 5   0  0.8738044E-03  0.8860076E+03  0.7818609E-02  0.9443244E-01
       -1   -1    0    0    0  501  0.00000000000E+00  0.00000000000E+00  0.56595341072E+03  0.56595341074E+03  0.50400001928E-02 0. -1.
        1   -1    0    0  501    0  0.00000000000E+00  0.00000000000E+00 -0.34676413629E+03  0.34676413633E+03  0.50400001928E-02 0.  1.
    10030    2    1    2    0    0  0.00000000000E+00  0.00000000000E+00  0.21918927443E+03  0.91271754707E+03  0.88600755229E+03 0.  0.
        3    1    3    3  502    0  0.26085531828E+03 -0.19168692660E+03  0.42114022402E+03  0.53117649929E+03  0.10100000352E+00 0. -1.
       -3    1    3    3    0  502 -0.26085531828E+03  0.19168692660E+03 -0.20195094959E+03  0.38154104779E+03  0.10100000352E+00 0.  1.
</event>
<event>
 5   0  0.1441195E-02  0.8955237E+03  0.7818609E-02  0.9431194E-01
       -2   -1    0    0    0  501  0.00000000000E+00  0.00000000000E+00  0.64641042414E+03  0.64641042414E+03  0.25500000920E-02 0.  1.
        2   -1    0    0  501    0  0.00000000000E+00  0.00000000000E+00 -0.31016003414E+03  0.31016003416E+03  0.25500000920E-02 0. -1.
    10030    2    1    2    0    0  0.00000000000E+00  0.00000000000E+00  0.33625038999E+03  0.95657045830E+03  0.89552371097E+03 0.  0.
        5    1    3    3  502    0  0.22122533912E+03  0.32857176780E+03  0.39108487817E+03  0.55665925771E+03  0.46999998093E+01 0. -1.
       -5    1    3    3    0  502 -0.22122533912E+03 -0.32857176780E+03 -0.54834488175E+02  0.39991120059E+03  0.46999998093E+01 0.  1.
</event>
<event>
 5   0  0.8612969E-03  0.9052483E+03  0.7818609E-02  0.9419045E-01
        1   -1    0    0  501    0  0.00000000000E+00  0.00000000000E+00  0.11498353386E+04  0.11498353386E+04  0.50400001928E-02 0. -1.
       -1   -1    0    0    0  501  0.00000000000E+00  0.00000000000E+00 -0.17817212005E+03  0.17817212012E+03  0.50400001928E-02 0.  1.
    10030    2    1    2    0    0  0.00000000000E+00  0.00000000000E+00  0.97166321854E+03  0.13280074587E+04  0.90524825333E+03 0.  0.
        4    1    3    3  502    0 -0.33562795590E+03 -0.39766328291E+02  0.92749517348E+03  0.98715570979E+03  0.12699999809E+01 0. -1.
       -4    1    3    3    0  502  0.33562795590E+03  0.39766328291E+02  0.44168045065E+02  0.34085174894E+03  0.12699999809E+01 0.  1.
</event>
<event>
 5   0  0.8291252E-03  0.8943853E+03  0.7818609E-02  0.9432627E-01
        1   -1    0    0  501    0  0.00000000000E+00  0.00000000000E+00  0.92446484320E+03  0.92446484322E+03  0.50400001928E-02 0. -1.
       -1   -1    0    0    0  501  0.00000000000E+00  0.00000000000E+00 -0.21632111619E+03  0.21632111625E+03  0.50400001928E-02 0.  1.
    10030    2    1    2    0    0  0.00000000000E+00  0.00000000000E+00  0.70814372701E+03  0.11407859595E+04  0.89438530131E+03 0.  0.
        1    1    3    3  502    0  0.50490711187E+02  0.41556953601E+01  0.92079277991E+03  0.92218540721E+03  0.50400001928E-02 0. -1.
       -1    1    3    3    0  502 -0.50490711187E+02 -0.41556953601E+01 -0.21264905290E+03  0.21860055225E+03  0.50400001928E-02 0.  1.
</event>
<event>
 5   0  0.8291252E-03  0.9089915E+03  0.7818609E-02  0.9414411E-01
        1   -1    0    0  501    0  0.00000000000E+00  0.00000000000E+00  0.10765708579E+04  0.10765708579E+04  0.50400001928E-02 0. -1.
       -1   -1    0    0    0  501  0.00000000000E+00  0.00000000000E+00 -0.19187440435E+03  0.19187440441E+03  0.50400001928E-02 0.  1.
    10030    2    1    2    0    0  0.00000000000E+00  0.00000000000E+00  0.88469645358E+03  0.12684452624E+04  0.90899151185E+03 0.  0.
        1    1    3    3  502    0  0.21603963198E+03  0.11159800667E+03 -0.93471031281E+02  0.26050733463E+03  0.50400001928E-02 0.  1.
       -1    1    3    3    0  502 -0.21603963198E+03 -0.11159800667E+03  0.97816748487E+03  0.10079379277E+04  0.50400001928E-02 0. -1.
</event>
<event>
 5   0  0.1441195E-02  0.9019963E+03  0.7818609E-02  0.9423089E-01
        2   -1    0    0  501    0  0.00000000000E+00  0.00000000000E+00  0.31533247959E+03  0.31533247960E+03  0.25500000920E-02 0. -1.
       -2   -1    0    0    0  501  0.00000000000E+00  0.00000000000E+00 -0.64503133074E+03  0.64503133075E+03  0.25500000920E-02 0.  1.
    10030    2    1    2    0    0  0.00000000000E+00  0.00000000000E+00 -0.32969885115E+03  0.96036381035E+03  0.90199629477E+03 0.  0.
        5    1    3    3  502    0  0.45970841366E+02 -0.10867309875E+03  0.29857936597E+03  0.32108392739E+03  0.46999998093E+01 0. -1.
       -5    1    3    3    0  502 -0.45970841366E+02  0.10867309875E+03 -0.62827821712E+03  0.63927988296E+03  0.46999998093E+01 0.  1.
</event>
<event>
 5   0  0.1454652E-02  0.8524841E+03  0.7818609E-02  0.9487009E-01
       -2   -1    0    0    0  501  0.00000000000E+00  0.00000000000E+00  0.16888664399E+03  0.16888664401E+03  0.25500000920E-02 0.  1.
        2   -1    0    0  501    0  0.00000000000E+00  0.00000000000E+00 -0.10757646587E+04  0.10757646587E+04  0.25500000920E-02 0. -1.
    10030    2    1    2    0    0  0.00000000000E+00  0.00000000000E+00 -0.90687801475E+03  0.12446513028E+04  0.85248409476E+03 0.  0.
        4    1    3    3  502    0 -0.25515880298E+03 -0.12439538197E+03 -0.91767407694E+03  0.96057667585E+03  0.12699999809E+01 0. -1.
       -4    1    3    3    0  502  0.25515880298E+03  0.12439538197E+03  0.10796062193E+02  0.28407462691E+03  0.12699999809E+01 0.  1.
</event>
<event>
 5   0  0.8524692E-03  0.8999028E+03  0.7818609E-02  0.9425703E-01
       -1   -1    0    0    0  501  0.00000000000E+00  0.00000000000E+00  0.18979367762E+03  0.18979367769E+03  0.50400001928E-02 0. -1.
        1   -1    0    0  501    0  0.00000000000E+00  0.00000000000E+00 -0.10667175132E+04  0.10667175132E+04  0.50400001928E-02 0.  1.
    10030    2    1    2    0    0  0.00000000000E+00  0.00000000000E+00 -0.87692383560E+03  0.12565111909E+04  0.89990275001E+03 0.  0.
        5    1    3    3  502    0  0.19149196397E+03  0.12918569051E+03 -0.97756857965E+03  0.10045001408E+04  0.46999998093E+01 0.  1.
       -5    1    3    3    0  502 -0.19149196397E+03 -0.12918569051E+03  0.10064474405E+03  0.25201105016E+03  0.46999998093E+01 0. -1.
</event>
<event>
 5   0  0.1454652E-02  0.8999758E+03  0.7818609E-02  0.9425612E-01
        2   -1    0    0  501    0  0.00000000000E+00  0.00000000000E+00  0.12072329546E+04  0.12072329546E+04  0.25500000920E-02 0. -1.
       -2   -1    0    0    0  501  0.00000000000E+00  0.00000000000E+00 -0.16772992995E+03  0.16772992997E+03  0.25500000920E-02 0.  1.
    10030    2    1    2    0    0  0.00000000000E+00  0.00000000000E+00  0.10395030247E+04  0.13749628846E+04  0.89997577506E+03 0.  0.
        4    1    3    3  502    0 -0.79160072452E+02  0.29279783202E+03  0.11916290826E+02  0.30354653415E+03  0.12699999809E+01 0.  1.
       -4    1    3    3    0  502  0.79160072452E+02 -0.29279783202E+03  0.10275867338E+04  0.10714163504E+04  0.12699999809E+01 0. -1.
</event>
<event>
 5   0  0.8738044E-03  0.9093466E+03  0.7818609E-02  0.9413973E-01
        1   -1    0    0  501    0  0.00000000000E+00  0.00000000000E+00  0.12032695973E+04  0.12032695973E+04  0.50400001928E-02 0. -1.
       -1   -1    0    0    0  501  0.00000000000E+00  0.00000000000E+00 -0.17180507296E+03  0.17180507303E+03  0.50400001928E-02 0.  1.
    10030    2    1    2    0    0  0.00000000000E+00  0.00000000000E+00  0.10314645243E+04  0.13750746703E+04  0.90934662479E+03 0.  0.
        3    1    3    3  502    0  0.33222840896E+02  0.44514632299E+03  0.64641624948E+03  0.78556539118E+03  0.10100000352E+00 0. -1.
       -3    1    3    3    0  502 -0.33222840896E+02 -0.44514632299E+03  0.38504827485E+03  0.58950927914E+03  0.10100000352E+00 0.  1.
</event>
<event>
 5   0  0.1535906E-02  0.8527131E+03  0.7818609E-02  0.9486703E-01
        2   -1    0    0  501    0  0.00000000000E+00  0.00000000000E+00  0.12764543146E+04  0.12764543146E+04  0.25500000920E-02 0.  1.
       -2   -1    0    0    0  501  0.00000000000E+00  0.00000000000E+00 -0.14241005288E+03  0.14241005290E+03  0.25500000920E-02 0. -1.
    10030    2    1    2    0    0  0.00000000000E+00  0.00000000000E+00  0.11340442618E+04  0.14188643675E+04  0.85271314394E+03 0.  0.
        2    1    3    3  502    0 -0.17444441458E+02  0.11144173378E+03 -0.11713156764E+03  0.16261418360E+03  0.25500000920E-02 0. -1.
       -2    1    3    3    0  502  0.17444441458E+02 -0.11144173378E+03  0.12511758294E+04  0.12562501839E+04  0.25500000920E-02 0.  1.
</event>
<event>
 5   0  0.1483326E-02  0.9603464E+03  0.7818609E-02  0.9353138E-01
        2   -1    0    0  501    0  0.00000000000E+00  0.00000000000E+00  0.12825180233E+04  0.12825180233E+04  0.25500000920E-02 0. -1.
       -2   -1    0    0    0  501  0.00000000000E+00  0.00000000000E+00 -0.17977627143E+03  0.17977627145E+03  0.25500000920E-02 0.  1.
    10030    2    1    2    0    0  0.00000000000E+00  0.00000000000E+00  0.11027417519E+04  0.14622942948E+04  0.96034641311E+03 0.  0.
        1    1    3    3  502    0 -0.42920607355E+03  0.69778285978E+02  0.24125547263E+03  0.49728368751E+03  0.50400001928E-02 0.  1.
       -1    1    3    3    0  502  0.42920607355E+03 -0.69778285978E+02  0.86148627924E+03  0.96501060725E+03  0.50400001928E-02 0. -1.
</event>
<event>
 5   0  0.8612969E-03  0.8956477E+03  0.7818609E-02  0.9431038E-01
        1   -1    0    0  501    0  0.00000000000E+00  0.00000000000E+00  0.33739192778E+03  0.33739192781E+03  0.50400001928E-02 0. -1.
       -1   -1    0    0    0  501  0.00000000000E+00  0.00000000000E+00 -0.59440131017E+03  0.59440131019E+03  0.50400001928E-02 0.  1.
    10030    2    1    2    0    0  0.00000000000E+00  0.00000000000E+00 -0.25700938239E+03  0.93179323801E+03  0.89564770739E+03 0.  0.
        4    1    3    3  502    0 -0.81039826798E+02  0.78064596085E+02  0.32244297545E+03  0.34151518268E+03  0.12699999809E+01 0. -1.
       -4    1    3    3    0  502  0.81039826798E+02 -0.78064596085E+02 -0.57945235784E+03  0.59027805532E+03  0.12699999809E+01 0.  1.
</event>
<event>
 5   0  0.1483326E-02  0.9390552E+03  0.7818609E-02  0.9378036E-01
        2   -1    0    0  501    0  0.00000000000E+00  0.00000000000E+00  0.60935679100E+03  0.60935679101E+03  0.25500000920E-02 0.  1.
       -2   -1    0    0    0  501  0.00000000000E+00  0.00000000000E+00 -0.36178500154E+03  0.36178500155E+03  0.25500000920E-02 0. -1.
    10030    2    1    2    0    0  0.00000000000E+00  0.00000000000E+00  0.24757178946E+03  0.97114179256E+03  0.93905515829E+03 0.  0.
        1    1    3    3  502    0 -0.36851379275E+03 -0.15256034740E+02  0.42426671100E+03  0.56217204140E+03  0.50400001928E-02 0.  1.
       -1    1    3    3    0  502  0.36851379275E+03  0.15256034740E+02 -0.17669492153E+03  0.40896975116E+03  0.50400001928E-02 0. -1.
</event>
<event>
 5   0  0.5770125E-03  0.9079948E+03  0.7818609E-02  0.9415642E-01
       -4   -1    0    0    0  501  0.00000000000E+00  0.00000000000E+00  0.83302504581E+03  0.83302601391E+03  0.12699999809E+01 0.  1.
        4   -1    0    0  501    0  0.00000000000E+00  0.00000000000E+00 -0.24742515621E+03  0.24742841556E+03  0.12699999809E+01 0. -1.
    10030    2    1    2    0    0  0.00000000000E+00  0.00000000000E+00  0.58559988961E+03  0.10804544295E+04  0.90799479263E+03 0.  0.
        1    1    3    3  502    0 -0.89542612073E+02 -0.12369527265E+03  0.80155124590E+03  0.81596740112E+03  0.50400001928E-02 0.  1.
       -1    1    3    3    0  502  0.89542612073E+02  0.12369527265E+03 -0.21595135630E+03  0.26448702835E+03  0.50400001928E-02 0. -1.
</event>
<event>
 5   0  0.1454652E-02  0.8752861E+03  0.7818609E-02  0.9457013E-01
       -2   -1    0    0    0  501  0.00000000000E+00  0.00000000000E+00  0.13206790799E+03  0.13206790802E+03  0.25500000920E-02 0.  1.
        2   -1    0    0  501    0  0.00000000000E+00  0.00000000000E+00 -0.14502497346E+04  0.14502497346E+04  0.25500000920E-02 0. -1.
    10030    2    1    2    0    0  0.00000000000E+00  0.00000000000E+00 -0.13181818266E+04  0.15823176427E+04  0.87528612132E+03 0.  0.
        4    1    3    3  502    0  0.97806885793E+02 -0.13702073874E+03  0.71188441739E+02  0.18278478298E+03  0.12699999809E+01 0.  1.
       -4    1    3    3    0  502 -0.97806885793E+02  0.13702073874E+03 -0.13893702684E+04  0.13995328597E+04  0.12699999809E+01 0. -1.
</event>
<event>
 5   0  0.1440615E-02  0.9016047E+03  0.7818609E-02  0.9423578E-01
        2   -1    0    0  501    0  0.00000000000E+00  0.00000000000E+00  0.70814053980E+03  0.70814053981E+03  0.25500000920E-02 0.  1.
       -2   -1    0    0    0  501  0.00000000000E+00  0.00000000000E+00 -0.28698084690E+03  0.28698084691E+03  0.25500000920E-02 0. -1.
    10030    2    1    2    0    0  0.00000000000E+00  0.00000000000E+00  0.42115969290E+03  0.99512138672E+03  0.90160472902E+03 0.  0.
        3    1    3    3  502    0 -0.30832081124E+03 -0.51504676868E+02 -0.14793174900E+03  0.34582982368E+03  0.10100000352E+00 0. -1.
       -3    1    3    3    0  502  0.30832081124E+03  0.51504676868E+02  0.56909144191E+03  0.64929156304E+03  0.10100000352E+00 0.  1.
</event>
<event>
 5   0  0.8885324E-03  0.9406076E+03  0.7818609E-02  0.9376197E-01
        1   -1    0    0  501    0  0.00000000000E+00  0.00000000000E+00  0.19220847919E+04  0.19220847919E+04  0.50400001928E-02 0.  1.
       -1   -1    0    0    0  501  0.00000000000E+00  0.00000000000E+00 -0.11507591420E+03  0.11507591431E+03  0.50400001928E-02 0. -1.
    10030    2    1    2    0    0  0.00000000000E+00  0.00000000000E+00  0.18070088777E+04  0.20371607062E+04  0.94060760088E+03 0.  0.
        2    1    3    3  502    0 -0.11519381737E+03  0.42700596465E+03  0.12499090581E+04  0.13258492987E+04  0.25500000920E-02 0.  1.
       -2    1    3    3    0  502  0.11519381737E+03 -0.42700596465E+03  0.55709981959E+03  0.71131140747E+03  0.25500000920E-02 0. -1.
</event>
<event>
 5   0  0.8612969E-03  0.8880313E+03  0.7818609E-02  0.9440668E-01
       -1   -1    0    0    0  501  0.00000000000E+00  0.00000000000E+00  0.53660476397E+03  0.53660476400E+03  0.50400001928E-02 0.  1.
        1   -1    0    0  501    0  0.00000000000E+00  0.00000000000E+00 -0.36740239892E+03  0.36740239895E+03  0.50400001928E-02 0. -1.
    10030    2    1    2    0    0  0.00000000000E+00  0.00000000000E+00  0.16920236505E+03  0.90400716295E+03  0.88803125526E+03 0.  0.
        4    1    3    3  502    0  0.30843879028E+03  0.20075685383E+03 -0.16828378995E+03  0.40467128458E+03  0.12699999809E+01 0. -1.
       -4    1    3    3    0  502 -0.30843879028E+03 -0.20075685383E+03  0.33748615501E+03  0.49933587837E+03  0.12699999809E+01 0.  1.
</event>
<event>
 5   0  0.8738044E-03  0.8780075E+03  0.7818609E-02  0.9453498E-01
       -1   -1    0    0    0  501  0.00000000000E+00  0.00000000000E+00  0.54708654934E+03  0.54708654937E+03  0.50400001928E-02 0.  1.
        1   -1    0    0  501    0  0.00000000000E+00  0.00000000000E+00 -0.35227388304E+03  0.35227388308E+03  0.50400001928E-02 0. -1.
    10030    2    1    2    0    0  0.00000000000E+00  0.00000000000E+00  0.19481266630E+03  0.89936043245E+03  0.87800752417E+03 0.  0.
        3    1    3    3  502    0  0.84594817386E+02 -0.27988532380E+03  0.43283345693E+03  0.52233790715E+03  0.10100000352E+00 0.  1.
       -3    1    3    3    0  502 -0.84594817386E+02  0.27988532380E+03 -0.23802079063E+03  0.37702252530E+03  0.10100000352E+00 0. -1.
</event>
<event>
 5   0  0.8738044E-03  0.8981702E+03  0.7818609E-02  0.9427872E-01
       -1   -1    0    0    0  501  0.00000000000E+00  0.00000000000E+00  0.70308997382E+03  0.70308997384E+03  0.50400001928E-02 0. -1.
        1   -1    0    0  501    0  0.00000000000E+00  0.00000000000E+00 -0.28684440073E+03  0.28684440077E+03  0.50400001928E-02 0.  1.
    10030    2    1    2    0    0  0.00000000000E+00  0.00000000000E+00  0.41624557309E+03  0.98993437461E+03  0.89817018928E+03 0.  0.
        3    1    3    3  502    0  0.10440393588E+03 -0.39258792838E+03 -0.28839416167E+01  0.40624351153E+03  0.10100000352E+00 0.  1.
       -3    1    3    3    0  502 -0.10440393588E+03  0.39258792838E+03  0.41912951471E+03  0.58369086308E+03  0.10100000352E+00 0. -1.
</event>
<event>
 5   0  0.1440615E-02  0.9219129E+03  0.7818609E-02  0.9398596E-01
        2   -1    0    0  501    0  0.00000000000E+00  0.00000000000E+00  0.64841125697E+03  0.64841125697E+03  0.25500000920E-02 0.  1.
       -2   -1    0    0    0  501  0.00000000000E+00  0.00000000000E+00 -0.32769453856E+03  0.32769453857E+03  0.25500000920E-02 0. -1.
    10030    2    1    2    0    0  0.00000000000E+00  0.00000000000E+00  0.32071671841E+03  0.97610579554E+03  0.92191285413E+03 0.  0.
        3    1    3    3  502    0 -0.33071862128E+03 -0.20825855437E+03  0.41913151448E+03  0.57307736699E+03  0.10100000352E+00 0.  1.
       -3    1    3    3    0  502  0.33071862128E+03  0.20825855437E+03 -0.98414796071E+02  0.40302842855E+03  0.10100000352E+00 0. -1.
</event>
<event>
 5   0  0.1441195E-02  0.8989380E+03  0.7818609E-02  0.9426910E-01
        2   -1    0    0  501    0  0.00000000000E+00  0.00000000000E+00  0.99694255283E+03  0.99694255283E+03  0.25500000920E-02 0. -1.
       -2   -1    0    0    0  501  0.00000000000E+00  0.00000000000E+00 -0.20264196610E+03  0.20264196611E+03  0.25500000920E-02 0.  1.
    10030    2    1    2    0    0  0.00000000000E+00  0.00000000000E+00  0.79430058673E+03  0.11995845189E+04  0.89893803792E+03 0.  0.
        5    1    3    3  502    0  0.40294625377E+03 -0.19039917196E+03  0.31953665741E+03  0.54840066880E+03  0.46999998093E+01 0.  1.
       -5    1    3    3    0  502 -0.40294625377E+03  0.19039917196E+03  0.47476392933E+03  0.65118385015E+03  0.46999998093E+01 0. -1.
</event>
<event>
 5   0  0.1535906E-02  0.8989818E+03  0.7818609E-02  0.9426855E-01
        2   -1    0    0  501    0  0.00000000000E+00  0.00000000000E+00  0.12046675024E+04  0.12046675024E+04  0.25500000920E-02 0. -1.
       -2   -1    0    0    0  501  0.00000000000E+00  0.00000000000E+00 -0.16771603897E+03  0.16771603899E+03  0.25500000920E-02 0.  1.
    10030    2    1    2    0    0  0.00000000000E+00  0.00000000000E+00  0.10369514634E+04  0.13723835414E+04  0.89898178356E+03 0.  0.
        2    1    3    3  502    0 -0.43087127063E+03 -0.12356227445E+03  0.56966513384E+03  0.72486967949E+03  0.25500000920E-02 0.  1.
       -2    1    3    3    0  502  0.43087127063E+03  0.12356227445E+03  0.46728632956E+03  0.64751386188E+03  0.25500000920E-02 0. -1.
</event>
<event>
 5   0  0.8291252E-03  0.9211335E+03  0.7818609E-02  0.9399542E-01
        1   -1    0    0  501    0  0.00000000000E+00  0.00000000000E+00  0.13243383092E+04  0.13243383092E+04  0.50400001928E-02 0.  1.
       -1   -1    0    0    0  501  0.00000000000E+00  0.00000000000E+00 -0.16017187677E+03  0.16017187685E+03  0.50400001928E-02 0. -1.
    10030    2    1    2    0    0  0.00000000000E+00  0.00000000000E+00  0.11641664324E+04  0.14845101861E+04  0.92113354630E+03 0.  0.
        1    1    3    3  502    0  0.39247406875E+03 -0.23922588486E+03  0.62925788905E+03  0.77924990189E+03  0.50400001928E-02 0.  1.
       -1    1    3    3    0  502 -0.39247406875E+03  0.23922588486E+03  0.53490854337E+03  0.70526028416E+03  0.50400001928E-02 0. -1.
</event>
<event>
 5   0  0.1535906E-02  0.9091283E+03  0.7818609E-02  0.9414242E-01
        2   -1    0    0  501    0  0.00000000000E+00  0.00000000000E+00  0.11394919190E+04  0.11394919190E+04  0.25500000920E-02 0.  1.
       -2   -1    0    0    0  501  0.00000000000E+00  0.00000000000E+00 -0.18133395633E+03  0.18133395635E+03  0.25500000920E-02 0. -1.
    10030    2    1    2    0    0  0.00000000000E+00  0.00000000000E+00  0.95815796269E+03  0.13208258754E+04  0.90912832514E+03 0.  0.
        2    1    3    3  502    0  0.14636376645E+02  0.30429088257E+03  0.96923277231E+03  0.10159819544E+04  0.25500000920E-02 0.  1.
       -2    1    3    3    0  502 -0.14636376645E+02 -0.30429088257E+03 -0.11074809618E+02  0.30484392097E+03  0.25500000920E-02 0. -1.
</event>
<event>
 5   0  0.8291252E-03  0.8927595E+03  0.7818609E-02  0.9434678E-01
       -1   -1    0    0    0  501  0.00000000000E+00  0.00000000000E+00  0.63677507906E+03  0.63677507908E+03  0.50400001928E-02 0. -1.
        1   -1    0    0  501    0  0.00000000000E+00  0.00000000000E+00 -0.31291252068E+03  0.31291252072E+03  0.50400001928E-02 0.  1.
    10030    2    1    2    0    0  0.00000000000E+00  0.00000000000E+00  0.32386255838E+03  0.94968759980E+03  0.89275953116E+03 0.  0.
        1    1    3    3  502    0 -0.30448805108E+02  0.41014919694E+03 -0.22641853986E+02  0.41190065193E+03  0.50400001928E-02 0.  1.
       -1    1    3    3    0  502  0.30448805108E+02 -0.41014919694E+03  0.34650441237E+03  0.53778694787E+03  0.50400001928E-02 0. -1.
</event>
<event>
 5   0  0.8524692E-03  0.8286208E+03  0.7818609E-02  0.9519489E-01
       -1   -1    0    0    0  501  0.00000000000E+00  0.00000000000E+00  0.42973784573E+03  0.42973784576E+03  0.50400001928E-02 0.  1.
        1   -1    0    0  501    0  0.00000000000E+00  0.00000000000E+00 -0.39943678070E+03  0.39943678073E+03  0.50400001928E-02 0. -1.
    10030    2    1    2    0    0  0.00000000000E+00  0.00000000000E+00  0.30301065029E+02  0.82917462649E+03  0.82862078581E+03 0.  0.
        5    1    3    3  502    0 -0.28768883786E+03  0.29732562746E+03  0.36696656417E+02  0.41537468720E+03  0.46999998093E+01 0. -1.
       -5    1    3    3    0  502  0.28768883786E+03 -0.29732562746E+03 -0.63955913873E+01  0.41379993929E+03  0.46999998093E+01 0.  1.
</event>
<event>
 5   0  0.1454652E-02  0.9070023E+03  0.7818609E-02  0.9416870E-01
       -2   -1    0    0    0  501  0.00000000000E+00  0.00000000000E+00  0.11315929787E+03  0.11315929790E+03  0.25500000920E-02 0. -1.
        2   -1    0    0  501    0  0.00000000000E+00  0.00000000000E+00 -0.18174672301E+04  0.18174672301E+04  0.25500000920E-02 0.  1.
    10030    2    1    2    0    0  0.00000000000E+00  0.00000000000E+00 -0.17043079322E+04  0.19306265280E+04  0.90700234990E+03 0.  0.
        4    1    3    3  502    0  0.34368676269E+03  0.28353482450E+03 -0.67217738159E+03  0.80643451859E+03  0.12699999809E+01 0. -1.
       -4    1    3    3    0  502 -0.34368676269E+03 -0.28353482450E+03 -0.10321305506E+04  0.11241920094E+04  0.12699999809E+01 0.  1.
</event>
<event>
 5   0  0.8291252E-03  0.8989614E+03  0.7818609E-02  0.9426881E-01
       -1   -1    0    0    0  501  0.00000000000E+00  0.00000000000E+00  0.87848642303E+03  0.87848642304E+03  0.50400001928E-02 0.  1.
        1   -1    0    0  501    0  0.00000000000E+00  0.00000000000E+00 -0.22997840518E+03  0.22997840524E+03  0.50400001928E-02 0. -1.
    10030    2    1    2    0    0  0.00000000000E+00  0.00000000000E+00  0.64850801785E+03  0.11084648283E+04  0.89896141536E+03 0.  0.
        1    1    3    3  502    0 -0.29496447615E+03  0.13272086423E+03  0.70910413719E+03  0.77938921432E+03  0.50400001928E-02 0.  1.
       -1    1    3    3    0  502  0.29496447615E+03 -0.13272086423E+03 -0.60596119346E+02  0.32907561395E+03  0.50400001928E-02 0. -1.
</event>
<event>
 5   0  0.8524692E-03  0.9037502E+03  0.7818609E-02  0.9420906E-01
        1   -1    0    0  501    0  0.00000000000E+00  0.00000000000E+00  0.37407151591E+03  0.37407151595E+03  0.50400001928E-02 0. -1.
       -1   -1    0    0    0  501  0.00000000000E+00  0.00000000000E+00 -0.54586111991E+03  0.54586111993E+03  0.50400001928E-02 0.  1.
    10030    2    1    2    0    0  0.00000000000E+00  0.00000000000E+00 -0.17178960399E+03  0.91993263588E+03  0.90375017926E+03 0.  0.
        5    1    3    3  502    0  0.40602427220E+03  0.19519209983E+03 -0.50438037879E+02  0.45334506848E+03  0.46999998093E+01 0. -1.
       -5    1    3    3    0  502 -0.40602427220E+03 -0.19519209983E+03 -0.12135156611E+03  0.46658756740E+03  0.46999998093E+01 0.  1.
</event>
<event>
 5   0  0.8291252E-03  0.9230656E+03  0.7818609E-02  0.9397199E-01
        1   -1    0    0  501    0  0.00000000000E+00  0.00000000000E+00  0.17448626068E+04  0.17448626068E+04  0.50400001928E-02 0. -1.
       -1   -1    0    0    0  501  0.00000000000E+00  0.00000000000E+00 -0.12207981943E+03  0.12207981953E+03  0.50400001928E-02 0.  1.
    10030    2    1    2    0    0  0.00000000000E+00  0.00000000000E+00  0.16227827874E+04  0.18669424263E+04  0.92306557096E+03 0.  0.
        1    1    3    3  502    0  0.25305733565E+03 -0.25889101252E+03  0.13903835681E+04  0.14367425093E+04  0.50400001928E-02 0. -1.
       -1    1    3    3    0  502 -0.25305733565E+03  0.25889101252E+03  0.23239921925E+03  0.43019991704E+03  0.50400001928E-02 0.  1.
</event>
<event>
 5   0  0.8885324E-03  0.9049252E+03  0.7818609E-02  0.9419446E-01
       -1   -1    0    0    0  501  0.00000000000E+00  0.00000000000E+00  0.16444374161E+03  0.16444374169E+03  0.50400001928E-02 0.  1.
        1   -1    0    0  501    0  0.00000000000E+00  0.00000000000E+00 -0.12449388835E+04  0.12449388835E+04  0.50400001928E-02 0. -1.
    10030    2    1    2    0    0  0.00000000000E+00  0.00000000000E+00 -0.10804951418E+04  0.14093826252E+04  0.90492520826E+03 0.  0.
        2    1    3    3  502    0 -0.63214593625E+02  0.25025260248E+03  0.38531742692E+02  0.26097345669E+03  0.25500000920E-02 0.  1.
       -2    1    3    3    0  502  0.63214593625E+02 -0.25025260248E+03 -0.11190268845E+04  0.11484091685E+04  0.25500000920E-02 0. -1.
</event>
<event>
 5   0  0.8885324E-03  0.9123357E+03  0.7818609E-02  0.9410291E-01
       -1   -1    0    0    0  501  0.00000000000E+00  0.00000000000E+00  0.16899252721E+03  0.16899252728E+03  0.50400001928E-02 0. -1.
        1   -1    0    0  501    0  0.00000000000E+00  0.00000000000E+00 -0.12313508289E+04  0.12313508289E+04  0.50400001928E-02 0.  1.
    10030    2    1    2    0    0  0.00000000000E+00  0.00000000000E+00 -0.10623583017E+04  0.14003433562E+04  0.91233565866E+03 0.  0.
        2    1    3    3  502    0 -0.24990145713E+03  0.36884350535E+03 -0.68151169463E+03  0.81422015428E+03  0.25500000920E-02 0.  1.
       -2    1    3    3    0  502  0.24990145713E+03 -0.36884350535E+03 -0.38084660709E+03  0.58612320194E+03  0.25500000920E-02 0. -1.
</event>
<event>
 5   0  0.8524692E-03  0.8816933E+03  0.7818609E-02  0.9448759E-01
       -1   -1    0    0    0  501  0.00000000000E+00  0.00000000000E+00  0.60614631596E+03  0.60614631598E+03  0.50400001928E-02 0.  1.
        1   -1    0    0  501    0  0.00000000000E+00  0.00000000000E+00 -0.32062520900E+03  0.32062520904E+03  0.50400001928E-02 0. -1.
    10030    2    1    2    0    0  0.00000000000E+00  0.00000000000E+00  0.28552110696E+03  0.92677152502E+03  0.88169334640E+03 0.  0.
        5    1    3    3  502    0 -0.22292482787E+02 -0.83869831600E+02  0.59705240485E+03  0.60334465074E+03  0.46999998093E+01 0.  1.
       -5    1    3    3    0  502  0.22292482787E+02  0.83869831600E+02 -0.31153129790E+03  0.32342687428E+03  0.46999998093E+01 0. -1.
</event>
<event>
 5   0  0.1483326E-02  0.8736893E+03  0.7818609E-02  0.9459082E-01
        2   -1    0    0  501    0  0.00000000000E+00  0.00000000000E+00  0.18300675450E+03  0.18300675452E+03  0.25500000920E-02 0. -1.
       -2   -1    0    0    0  501  0.00000000000E+00  0.00000000000E+00 -0.10427661046E+04  0.10427661046E+04  0.25500000920E-02 0.  1.
    10030    2    1    2    0    0  0.00000000000E+00  0.00000000000E+00 -0.85975935014E+03  0.12257728592E+04  0.87368928236E+03 0.  0.
        1    1    3    3  502    0  0.37576746007E+03  0.99178434263E+02 -0.15000020837E+03  0.41657845408E+03  0.50400001928E-02 0. -1.
       -1    1    3    3    0  502 -0.37576746007E+03 -0.99178434263E+02 -0.70975914177E+03  0.80919440508E+03  0.50400001928E-02 0.  1.
</event>
<event>
 5   0  0.8885324E-03  0.9067488E+03  0.7818609E-02  0.9417184E-01
        1   -1    0    0  501    0  0.00000000000E+00  0.00000000000E+00  0.39500800822E+03  0.39500800825E+03  0.50400001928E-02 0.  1.
       -1   -1    0    0    0  501  0.00000000000E+00  0.00000000000E+00 -0.52036503173E+03  0.52036503175E+03  0.50400001928E-02 0. -1.
    10030    2    1    2    0    0  0.00000000000E+00  0.00000000000E+00 -0.12535702351E+03  0.91537304000E+03  0.90674881804E+03 0.  0.
        2    1    3    3  502    0  0.27951755315E+03  0.57510899778E+02  0.29296581623E+03  0.40898231697E+03  0.25500000920E-02 0.  1.
       -2    1    3    3    0  502 -0.27951755315E+03 -0.57510899778E+02 -0.41832283974E+03  0.50639072303E+03  0.25500000920E-02 0. -1.
</event>
<event>
 5   0  0.1440615E-02  0.8994697E+03  0.7818609E-02  0.9426245E-01
        2   -1    0    0  501    0  0.00000000000E+00  0.00000000000E+00  0.11507697540E+04  0.11507697540E+04  0.25500000920E-02 0.  1.
       -2   -1    0    0    0  501  0.00000000000E+00  0.00000000000E+00 -0.17576184671E+03  0.17576184673E+03  0.25500000920E-02 0. -1.
    10030    2    1    2    0    0  0.00000000000E+00  0.00000000000E+00  0.97500790726E+03  0.13265316007E+04  0.89946965954E+03 0.  0.
        3    1    3    3  502    0 -0.78143618102E+02  0.15842463990E+03 -0.12245557331E+03  0.21494224623E+03  0.10100000352E+00 0. -1.
       -3    1    3    3    0  502  0.78143618102E+02 -0.15842463990E+03  0.10974634806E+04  0.11115893545E+04  0.10100000352E+00 0.  1.
</event>
<event>
 5   0  0.8612969E-03  0.8965361E+03  0.7818609E-02  0.9429922E-01
       -1   -1    0    0    0  501  0.00000000000E+00  0.00000000000E+00  0.18554480338E+03  0.18554480345E+03  0.50400001928E-02 0. -1.
        1   -1    0    0  501    0  0.00000000000E+00  0.00000000000E+00 -0.10829959130E+04  0.10829959130E+04  0.50400001928E-02 0.  1.
    10030    2    1    2    0    0  0.00000000000E+00  0.00000000000E+00 -0.89745110966E+03  0.12685407165E+04  0.89653614270E+03 0.  0.
        4    1    3    3  502    0 -0.24302435562E+03 -0.22556063917E+03 -0.87556775981E+03  0.93624727198E+03  0.12699999809E+01 0.  1.
       -4    1    3    3    0  502  0.24302435562E+03  0.22556063917E+03 -0.21883349852E+02  0.33229344452E+03  0.12699999809E+01 0. -1.
</event>
<event>
 5   0  0.1483326E-02  0.8745972E+03  0.7818609E-02  0.9457905E-01
        2   -1    0    0  501    0  0.00000000000E+00  0.00000000000E+00  0.62272348013E+03  0.62272348014E+03  0.25500000920E-02 0. -1.
       -2   -1    0    0    0  501  0.00000000000E+00  0.00000000000E+00 -0.30708662024E+03  0.30708662025E+03  0.25500000920E-02 0.  1.
    10030    2    1    2    0    0  0.00000000000E+00  0.00000000000E+00  0.31563685990E+03  0.92981010039E+03  0.87459716182E+03 0.  0.
        1    1    3    3  502    0  0.24801866702E+03  0.24389886147E+03 -0.12392120501E+03  0.36926464615E+03  0.50400001928E-02 0.  1.
       -1    1    3    3    0  502 -0.24801866702E+03 -0.24389886147E+03  0.43955806491E+03  0.56054545424E+03  0.50400001928E-02 0. -1.
</event>
<event>
 5   0  0.8291252E-03  0.8956872E+03  0.7818609E-02  0.9430989E-01
       -1   -1    0    0    0  501  0.00000000000E+00  0.00000000000E+00  0.36581897522E+03  0.36581897525E+03  0.50400001928E-02 0.  1.
        1   -1    0    0  501    0  0.00000000000E+00  0.00000000000E+00 -0.54825995342E+03  0.54825995344E+03  0.50400001928E-02 0. -1.
    10030    2    1    2    0    0  0.00000000000E+00  0.00000000000E+00 -0.18244097820E+03  0.91407892870E+03  0.89568720955E+03 0.  0.
        1    1    3    3  502    0  0.37141558294E+03 -0.22805269619E+03  0.13881232002E+02  0.43606221588E+03  0.50400001928E-02 0.  1.
       -1    1    3    3    0  502 -0.37141558294E+03  0.22805269619E+03 -0.19632221020E+03  0.47801671282E+03  0.50400001928E-02 0. -1.
</event>
<event>
 5   0  0.1454652E-02  0.9169676E+03  0.7818609E-02  0.9404616E-01
       -2   -1    0    0    0  501  0.00000000000E+00  0.00000000000E+00  0.41201579051E+03  0.41201579052E+03  0.25500000920E-02 0. -1.
        2   -1    0    0  501    0  0.00000000000E+00  0.00000000000E+00 -0.51019257113E+03  0.51019257113E+03  0.25500000920E-02 0.  1.
    10030    2    1    2    0    0  0.00000000000E+00  0.00000000000E+00 -0.98176780613E+02  0.92220836165E+03  0.91696760142E+03 0.  0.
        4    1    3    3  502    0  0.44452449008E+03  0.31870272255E+02  0.59174638062E+02  0.44957867745E+03  0.12699999809E+01 0.  1.
       -4    1    3    3    0  502 -0.44452449008E+03 -0.31870272255E+02 -0.15735141867E+03  0.47262968420E+03  0.12699999809E+01 0. -1.
</event>
<event>
 5   0  0.5770125E-03  0.8945199E+03  0.7818609E-02  0.9432458E-01
        3   -1    0    0  501    0  0.00000000000E+00  0.00000000000E+00  0.14426619768E+03  0.14426623303E+03  0.10100000352E+00 0.  1.
       -3   -1    0    0    0  501  0.00000000000E+00  0.00000000000E+00 -0.13866133425E+04  0.13866133461E+04  0.10100000352E+00 0. -1.
    10030    2    1    2    0    0  0.00000000000E+00  0.00000000000E+00 -0.12423471448E+04  0.15308795792E+04  0.89451990351E+03 0.  0.
        4    1    3    3  502    0 -0.84858377709E+02 -0.37939129425E+03 -0.99962536938E+03  0.10725629075E+04  0.12699999809E+01 0. -1.
       -4    1    3    3    0  502  0.84858377709E+02  0.37939129425E+03 -0.24272177539E+03  0.45831667171E+03  0.12699999809E+01 0.  1.
</event>
<event>
 5   0  0.1454652E-02  0.8964281E+03  0.7818609E-02  0.9430058E-01
        2   -1    0    0  501    0  0.00000000000E+00  0.00000000000E+00  0.55838155579E+03  0.55838155579E+03  0.25500000920E-02 0.  1.
       -2   -1    0    0    0  501  0.00000000000E+00  0.00000000000E+00 -0.35978233530E+03  0.35978233531E+03  0.25500000920E-02 0. -1.
    10030    2    1    2    0    0  0.00000000000E+00  0.00000000000E+00  0.19859922049E+03  0.91816389110E+03  0.89642806769E+03 0.  0.
        4    1    3    3  502    0  0.33582513199E+02 -0.20835376309E+03  0.50430502776E+03  0.54668478094E+03  0.12699999809E+01 0.  1.
       -4    1    3    3    0  502 -0.33582513199E+02  0.20835376309E+03 -0.30570580727E+03  0.37147911016E+03  0.12699999809E+01 0. -1.
</event>
<event>
 5   0  0.1441195E-02  0.8797048E+03  0.7818609E-02  0.9451313E-01
       -2   -1    0    0    0  501  0.00000000000E+00  0.00000000000E+00  0.14181450531E+03  0.14181450533E+03  0.25500000920E-02 0.  1.
        2   -1    0    0  501    0  0.00000000000E+00  0.00000000000E+00 -0.13642478466E+04  0.13642478466E+04  0.25500000920E-02 0. -1.
    10030    2    1    2    0    0  0.00000000000E+00  0.00000000000E+00 -0.12224333413E+04  0.15060623519E+04  0.87970479936E+03 0.  0.
        5    1    3    3  502    0 -0.24445081871E+03  0.21189378945E+03 -0.10107004306E+03  0.33895785044E+03  0.46999998093E+01 0.  1.
       -5    1    3    3    0  502  0.24445081871E+03 -0.21189378945E+03 -0.11213632982E+04  0.11671045015E+04  0.46999998093E+01 0. -1.
</event>
<event>
 5   0  0.1535906E-02  0.8915440E+03  0.7818609E-02  0.9436214E-01
       -2   -1    0    0    0  501  0.00000000000E+00  0.00000000000E+00  0.55970873308E+03  0.55970873309E+03  0.25500000920E-02 0.  1.
        2   -1    0    0  501    0  0.00000000000E+00  0.00000000000E+00 -0.35502868310E+03  0.35502868311E+03  0.25500000920E-02 0. -1.
    10030    2    1    2    0    0  0.00000000000E+00  0.00000000000E+00  0.20468004998E+03  0.91473741620E+03  0.89154395166E+03 0.  0.
        2    1    3    3  502    0  0.35700782854E+03  0.54623608257E+02 -0.16575107529E+03  0.39738111075E+03  0.25500000920E-02 0.  1.
       -2    1    3    3    0  502 -0.35700782854E+03 -0.54623608257E+02  0.37043112527E+03  0.51735630545E+03  0.25500000920E-02 0. -1.
</event>
<event>
 5   0  0.1440615E-02  0.9243684E+03  0.7818609E-02  0.9395622E-01
        2   -1    0    0  501    0  0.00000000000E+00  0.00000000000E+00  0.11009120726E+04  0.11009120726E+04  0.25500000920E-02 0. -1.
       -2   -1    0    0    0  501  0.00000000000E+00  0.00000000000E+00 -0.19403386169E+03  0.19403386171E+03  0.25500000920E-02 0.  1.
    10030    2    1    2    0    0  0.00000000000E+00  0.00000000000E+00  0.90687821093E+03  0.12949459343E+04  0.92436836995E+03 0.  0.
        3    1    3    3  502    0 -0.33443297791E+02  0.13902564600E+03 -0.16226738474E+03  0.21628060191E+03  0.10100000352E+00 0.  1.
       -3    1    3    3    0  502  0.33443297791E+02 -0.13902564600E+03  0.10691455957E+04  0.10786653324E+04  0.10100000352E+00 0. -1.
</event>
<event>
 5   0  0.1440615E-02  0.8849332E+03  0.7818609E-02  0.9444614E-01
        2   -1    0    0  501    0  0.00000000000E+00  0.00000000000E+00  0.63864498241E+03  0.63864498241E+03  0.25500000920E-02 0. -1.
       -2   -1    0    0    0  501  0.00000000000E+00  0.00000000000E+00 -0.30655014371E+03  0.30655014372E+03  0.25500000920E-02 0.  1.
    10030    2    1    2    0    0  0.00000000000E+00  0.00000000000E+00  0.33209483870E+03  0.94519512613E+03  0.88493324300E+03 0.  0.
        3    1    3    3  502    0 -0.35651985013E+03  0.98276819054E+02  0.42551374331E+03  0.56376120179E+03  0.10100000352E+00 0. -1.
       -3    1    3    3    0  502  0.35651985013E+03 -0.98276819054E+02 -0.93418904610E+02  0.38143392434E+03  0.10100000352E+00 0.  1.
</event>
<event>
 5   0  0.1535906E-02  0.9173549E+03  0.7818609E-02  0.9404143E-01
       -2   -1    0    0    0  501  0.00000000000E+00  0.00000000000E+00  0.80480239830E+03  0.80480239831E+03  0.25500000920E-02 0. -1.
        2   -1    0    0  501    0  0.00000000000E+00  0.00000000000E+00 -0.26141201313E+03  0.26141201314E+03  0.25500000920E-02 0.  1.
    10030    2    1    2    0    0  0.00000000000E+00  0.00000000000E+00  0.54339038518E+03  0.10662144114E+04  0.91735492612E+03 0.  0.
        2    1    3    3  502    0 -0.15828504480E+02 -0.17200922224E+03 -0.22216344187E+03  0.28141483436E+03  0.25500000920E-02 0.  1.
       -2    1    3    3    0  502  0.15828504480E+02  0.17200922224E+03  0.76555382704E+03  0.78479957709E+03  0.25500000920E-02 0. -1.
</event>
<event>
 5   0  0.5770125E-03  0.8992195E+03  0.7818609E-02  0.9426558E-01
        3   -1    0    0  501    0  0.00000000000E+00  0.00000000000E+00  0.38356421220E+03  0.38356422550E+03  0.10100000352E+00 0. -1.
       -3   -1    0    0    0  501  0.00000000000E+00  0.00000000000E+00 -0.52702751948E+03  0.52702752916E+03  0.10100000352E+00 0.  1.
    10030    2    1    2    0    0  0.00000000000E+00  0.00000000000E+00 -0.14346330728E+03  0.91059175466E+03  0.89921945215E+03 0.  0.
        2    1    3    3  502    0  0.37114333453E+03 -0.14672004501E+03 -0.28141255186E+03  0.48833100529E+03  0.25500000920E-02 0. -1.
       -2    1    3    3    0  502 -0.37114333453E+03  0.14672004501E+03  0.13794924458E+03  0.42226074938E+03  0.25500000920E-02 0.  1.
</event>
<event>
 5   0  0.1441195E-02  0.8812008E+03  0.7818609E-02  0.9449391E-01
        2   -1    0    0  501    0  0.00000000000E+00  0.00000000000E+00  0.57830640103E+03  0.57830640103E+03  0.25500000920E-02 0. -1.
       -2   -1    0    0    0  501  0.00000000000E+00  0.00000000000E+00 -0.33568488463E+03  0.33568488463E+03  0.25500000920E-02 0.  1.
    10030    2    1    2    0    0  0.00000000000E+00  0.00000000000E+00  0.24262151640E+03  0.91399128567E+03  0.88120081142E+03 0.  0.
        5    1    3    3  502    0  0.24687184029E+03  0.17808323516E+03  0.45167069732E+03  0.54469060300E+03  0.46999998093E+01 0.  1.
       -5    1    3    3    0  502 -0.24687184029E+03 -0.17808323516E+03 -0.20904918092E+03  0.36930068267E+03  0.46999998093E+01 0. -1.
</event>
<event>
 5   0  0.1440615E-02  0.9247487E+03  0.7818609E-02  0.9395162E-01
        2   -1    0    0  501    0  0.00000000000E+00  0.00000000000E+00  0.14927308553E+04  0.14927308553E+04  0.25500000920E-02 0. -1.
       -2   -1    0    0    0  501  0.00000000000E+00  0.00000000000E+00 -0.14322075430E+03  0.14322075432E+03  0.25500000920E-02 0.  1.
    10030    2    1    2    0    0  0.00000000000E+00  0.00000000000E+00  0.13495101010E+04  0.16359516096E+04  0.92474869900E+03 0.  0.
        3    1    3    3  502    0 -0.44077081339E+03  0.43940783054E+02  0.44019168027E+03  0.62448252812E+03  0.10100000352E+00 0. -1.
       -3    1    3    3    0  502  0.44077081339E+03 -0.43940783054E+02  0.90931842068E+03  0.10114690815E+04  0.10100000352E+00 0.  1.
</event>
<event>
 5   0  0.8612969E-03  0.9504786E+03  0.7818609E-02  0.9364591E-01
        1   -1    0    0  501    0  0.00000000000E+00  0.00000000000E+00  0.95755586241E+03  0.95755586242E+03  0.50400001928E-02 0.  1.
       -1   -1    0    0    0  501  0.00000000000E+00  0.00000000000E+00 -0.23586339977E+03  0.23586339983E+03  0.50400001928E-02 0. -1.
    10030    2    1    2    0    0  0.00000000000E+00  0.00000000000E+00  0.72169246264E+03  0.11934192622E+04  0.95047857676E+03 0.  0.
        4    1    3    3  502    0  0.80070133796E+02  0.18166558720E+03 -0.18130062754E+03  0.26885896367E+03  0.12699999809E+01 0. -1.
       -4    1    3    3    0  502 -0.80070133796E+02 -0.18166558720E+03  0.90299309018E+03  0.92456029858E+03  0.12699999809E+01 0.  1.
</event>
<event>
 5   0  0.1483326E-02  0.8964062E+03  0.7818609E-02  0.9430085E-01
        2   -1    0    0  501    0  0.00000000000E+00  0.00000000000E+00  0.10074459078E+04  0.10074459078E+04  0.25500000920E-02 0.  1.
       -2   -1    0    0    0  501  0.00000000000E+00  0.00000000000E+00 -0.19940130211E+03  0.19940130213E+03  0.25500000920E-02 0. -1.
    10030    2    1    2    0    0  0.00000000000E+00  0.00000000000E+00  0.80804460568E+03  0.12068472099E+04  0.89640621559E+03 0.  0.
        1    1    3    3  502    0 -0.13410244737E+03 -0.14757713306E+03  0.94443673851E+03  0.96525811557E+03  0.50400001928E-02 0.  1.
       -1    1    3    3    0  502  0.13410244737E+03  0.14757713306E+03 -0.13639213283E+03  0.24158909437E+03  0.50400001928E-02 0. -1.
</event>
<event>
 5   0  0.1535906E-02  0.9195764E+03  0.7818609E-02  0.9401435E-01
       -2   -1    0    0    0  501  0.00000000000E+00  0.00000000000E+00  0.24126182404E+03  0.24126182405E+03  0.25500000920E-02 0.  1.
        2   -1    0    0  501    0  0.00000000000E+00  0.00000000000E+00 -0.87624802535E+03  0.87624802535E+03  0.25500000920E-02 0. -1.
    10030    2    1    2    0    0  0.00000000000E+00  0.00000000000E+00 -0.63498620131E+03  0.11175098494E+04  0.91957641752E+03 0.  0.
        2    1    3    3  502    0  0.29935346899E+03 -0.31947891497E+03 -0.48817291918E+03  0.65573781005E+03  0.25500000920E-02 0.  1.
       -2    1    3    3    0  502 -0.29935346899E+03  0.31947891497E+03 -0.14681328214E+03  0.46177203935E+03  0.25500000920E-02 0. -1.
</event>
<event>
 5   0  0.8885324E-03  0.9073319E+03  0.7818609E-02  0.9416462E-01
        1   -1    0    0  501    0  0.00000000000E+00  0.00000000000E+00  0.29006391175E+03  0.29006391179E+03  0.50400001928E-02 0. -1.
       -1   -1    0    0    0  501  0.00000000000E+00  0.00000000000E+00 -0.70954290058E+03  0.70954290060E+03  0.50400001928E-02 0.  1.
    10030    2    1    2    0    0  0.00000000000E+00  0.00000000000E+00 -0.41947898883E+03  0.99960681239E+03  0.90733188928E+03 0.  0.
        2    1    3    3  502    0 -0.31913105165E+03  0.31015910669E+03 -0.30684844947E+03  0.54055459533E+03  0.25500000920E-02 0.  1.
       -2    1    3    3    0  502  0.31913105165E+03 -0.31015910669E+03 -0.11263053937E+03  0.45905221706E+03  0.25500000920E-02 0. -1.
</event>
<event>
 5   0  0.1441195E-02  0.9108119E+03  0.7818609E-02  0.9412166E-01
       -2   -1    0    0    0  501  0.00000000000E+00  0.00000000000E+00  0.18336216409E+03  0.18336216411E+03  0.25500000920E-02 0.  1.
        2   -1    0    0  501    0  0.00000000000E+00  0.00000000000E+00 -0.11310651956E+04  0.11310651956E+04  0.25500000920E-02 0. -1.
    10030    2    1    2    0    0  0.00000000000E+00  0.00000000000E+00 -0.94770303152E+03  0.13144273597E+04  0.91081186205E+03 0.  0.
        5    1    3    3  502    0 -0.12188551570E+02  0.44790705161E+03 -0.59112089418E+03  0.74176498246E+03  0.46999998093E+01 0. -1.
       -5    1    3    3    0  502  0.12188551570E+02 -0.44790705161E+03 -0.35658213734E+03  0.57266237727E+03  0.46999998093E+01 0.  1.
</event>
<event>
 5   0  0.8738044E-03  0.9161232E+03  0.7818609E-02  0.9405648E-01
        1   -1    0    0  501    0  0.00000000000E+00  0.00000000000E+00  0.15385039153E+04  0.15385039153E+04  0.50400001928E-02 0.  1.
       -1   -1    0    0    0  501  0.00000000000E+00  0.00000000000E+00 -0.13637953519E+03  0.13637953528E+03  0.50400001928E-02 0. -1.
    10030    2    1    2    0    0  0.00000000000E+00  0.00000000000E+00  0.14021243801E+04  0.16748834506E+04  0.91612324267E+03 0.  0.
        3    1    3    3  502    0 -0.38235675873E+03 -0.18761904994E+03  0.10092847507E+04  0.10954694505E+04  0.10100000352E+00 0.  1.
       -3    1    3    3    0  502  0.38235675873E+03  0.18761904994E+03  0.39283962947E+03  0.57941400011E+03  0.10100000352E+00 0. -1.
</event>
<event>
 5   0  0.8738044E-03  0.9339815E+03  0.7818609E-02  0.9384072E-01
       -1   -1    0    0    0  501  0.00000000000E+00  0.00000000000E+00  0.83479826109E+03  0.83479826110E+03  0.50400001928E-02 0.  1.
        1   -1    0    0  501    0  0.00000000000E+00  0.00000000000E+00 -0.26123718440E+03  0.26123718444E+03  0.50400001928E-02 0. -1.
    10030    2    1    2    0    0  0.00000000000E+00  0.00000000000E+00  0.57356107669E+03  0.10960354455E+04  0.93398147155E+03 0.  0.
        3    1    3    3  502    0 -0.40231084816E+01 -0.44079256898E+03  0.10586954466E+03  0.45334605431E+03  0.10100000352E+00 0.  1.
       -3    1    3    3    0  502  0.40231084816E+01  0.44079256898E+03  0.46769153204E+03  0.64268939124E+03  0.10100000352E+00 0. -1.
</event>
<event>
 5   0  0.8612969E-03  0.8733594E+03  0.7818609E-02  0.9459510E-01
        1   -1    0    0  501    0  0.00000000000E+00  0.00000000000E+00  0.74096341467E+03  0.74096341469E+03  0.50400001928E-02 0.  1.
       -1   -1    0    0    0  501  0.00000000000E+00  0.00000000000E+00 -0.25735300484E+03  0.25735300489E+03  0.50400001928E-02 0. -1.
    10030    2    1    2    0    0  0.00000000000E+00  0.00000000000E+00  0.48361040983E+03  0.99831641958E+03  0.87335940202E+03 0.  0.
        4    1    3    3  502    0  0.13420999813E+03  0.36738226003E+03  0.19843748854E+02  0.39163431393E+03  0.12699999809E+01 0. -1.
       -4    1    3    3    0  502 -0.13420999813E+03 -0.36738226003E+03  0.46376666098E+03  0.60668210565E+03  0.12699999809E+01 0.  1.
</event>
<event>
 5   0  0.1454652E-02  0.9181870E+03  0.7818609E-02  0.9403128E-01
        2   -1    0    0  501    0  0.00000000000E+00  0.00000000000E+00  0.18269138874E+04  0.18269138874E+04  0.25500000920E-02 0. -1.
       -2   -1    0    0    0  501  0.00000000000E+00  0.00000000000E+00 -0.11536769274E+03  0.11536769277E+03  0.25500000920E-02 0.  1.
    10030    2    1    2    0    0  0.00000000000E+00  0.00000000000E+00  0.17115461946E+04  0.19422815802E+04  0.91818699633E+03 0.  0.
        4    1    3    3  502    0 -0.43146524404E+03 -0.13676264225E+03  0.69330488117E+03  0.82797315674E+03  0.12699999809E+01 0.  1.
       -4    1    3    3    0  502  0.43146524404E+03  0.13676264225E+03  0.10182413135E+04  0.11143084234E+04  0.12699999809E+01 0. -1.
</event>
<event>
 5   0  0.1535906E-02  0.9004195E+03  0.7818609E-02  0.9425057E-01
       -2   -1    0    0    0  501  0.00000000000E+00  0.00000000000E+00  0.28223773082E+03  0.28223773083E+03  0.25500000920E-02 0.  1.
        2   -1    0    0  501    0  0.00000000000E+00  0.00000000000E+00 -0.71814932462E+03  0.71814932462E+03  0.25500000920E-02 0. -1.
    10030    2    1    2    0    0  0.00000000000E+00  0.00000000000E+00 -0.43591159380E+03  0.10003870555E+04  0.90041953727E+03 0.  0.
        2    1    3    3  502    0  0.62399768007E+02 -0.17321810019E+03 -0.67441006800E+03  0.69909025248E+03  0.25500000920E-02 0. -1.
       -2    1    3    3    0  502 -0.62399768007E+02  0.17321810019E+03  0.23849847420E+03  0.30129680298E+03  0.25500000920E-02 0.  1.
</event>
<event>
 5   0  0.1454652E-02  0.8985189E+03  0.7818609E-02  0.9427435E-01
       -2   -1    0    0    0  501  0.00000000000E+00  0.00000000000E+00  0.22626754126E+03  0.22626754128E+03  0.25500000920E-02 0. -1.
        2   -1    0    0  501    0  0.00000000000E+00  0.00000000000E+00 -0.89201514957E+03  0.89201514957E+03  0.25500000920E-02 0.  1.
    10030    2    1    2    0    0  0.00000000000E+00  0.00000000000E+00 -0.66574760830E+03  0.11182826909E+04  0.89851894732E+03 0.  0.
        4    1    3    3  502    0 -0.27828419284E+03 -0.24205719721E+02 -0.77079150089E+03  0.81984703427E+03  0.12699999809E+01 0.  1.
       -4    1    3    3    0  502  0.27828419284E+03  0.24205719721E+02  0.10504389259E+03  0.29843565659E+03  0.12699999809E+01 0. -1.
</event>
<event>
 5   0  0.1483326E-02  0.8990326E+03  0.7818609E-02  0.9426792E-01
        2   -1    0    0  501    0  0.00000000000E+00  0.00000000000E+00  0.20460988308E+04  0.20460988308E+04  0.25500000920E-02 0. -1.
       -2   -1    0    0    0  501  0.00000000000E+00  0.00000000000E+00 -0.98756179879E+02  0.98756179912E+02  0.25500000920E-02 0.  1.
    10030    2    1    2    0    0  0.00000000000E+00  0.00000000000E+00  0.19473426509E+04  0.21448550107E+04  0.89903260057E+03 0.  0.
        1    1    3    3  502    0  0.37301808843E+03  0.10109778253E+03  0.42598159392E+03  0.57517264740E+03  0.50400001928E-02 0.  1.
       -1    1    3    3    0  502 -0.37301808843E+03 -0.10109778253E+03  0.15213610570E+04  0.15696823633E+04  0.50400001928E-02 0. -1.
</event>
<event>
 5   0  0.1440615E-02  0.8962150E+03  0.7818609E-02  0.9430325E-01
       -2   -1    0    0    0  501  0.00000000000E+00  0.00000000000E+00  0.20325880111E+03  0.20325880112E+03  0.25500000920E-02 0.  1.
        2   -1    0    0  501    0  0.00000000000E+00  0.00000000000E+00 -0.98790464240E+03  0.98790464240E+03  0.25500000920E-02 0. -1.
    10030    2    1    2    0    0  0.00000000000E+00  0.00000000000E+00 -0.78464584129E+03  0.11911634435E+04  0.89621495911E+03 0.  0.
        3    1    3    3  502    0 -0.42931768228E+03  0.10349499688E+03 -0.49332976805E+03  0.66211717766E+03  0.10100000352E+00 0. -1.
       -3    1    3    3    0  502  0.42931768228E+03 -0.10349499688E+03 -0.29131607324E+03  0.52904626587E+03  0.10100000352E+00 0.  1.
</event>
<event>
 5   0  0.8291252E-03  0.9105893E+03  0.7818609E-02  0.9412440E-01
        1   -1    0    0  501    0  0.00000000000E+00  0.00000000000E+00  0.95546037011E+03  0.95546037013E+03  0.50400001928E-02 0.  1.
       -1   -1    0    0    0  501  0.00000000000E+00  0.00000000000E+00 -0.21695635849E+03  0.21695635854E+03  0.50400001928E-02 0. -1.
    10030    2    1    2    0    0  0.00000000000E+00  0.00000000000E+00  0.73850401163E+03  0.11724167287E+04  0.91058926552E+03 0.  0.
        1    1    3    3  502    0  0.11067876083E+02  0.33013633992E+03 -0.34182040648E+02  0.33208570091E+03  0.50400001928E-02 0. -1.
       -1    1    3    3    0  502 -0.11067876083E+02 -0.33013633992E+03  0.77268605227E+03  0.84033102776E+03  0.50400001928E-02 0.  1.
</event>
<event>
 5   0  0.1535906E-02  0.9067279E+03  0.7818609E-02  0.9417210E-01
       -2   -1    0    0    0  501  0.00000000000E+00  0.00000000000E+00  0.26401448776E+03  0.26401448778E+03  0.25500000920E-02 0.  1.
        2   -1    0    0  501    0  0.00000000000E+00  0.00000000000E+00 -0.77851359054E+03  0.77851359054E+03  0.25500000920E-02 0. -1.
    10030    2    1    2    0    0  0.00000000000E+00  0.00000000000E+00 -0.51449910277E+03  0.10425280783E+04  0.90672789045E+03 0.  0.
        2    1    3    3  502    0  0.17098245743E+03 -0.40394080462E+03 -0.12547326280E+03  0.45623098763E+03  0.25500000920E-02 0.  1.
       -2    1    3    3    0  502 -0.17098245743E+03  0.40394080462E+03 -0.38902583997E+03  0.58629709069E+03  0.25500000920E-02 0. -1.
</event>
<event>
 5   0  0.8885324E-03  0.9032596E+03  0.7818609E-02  0.9421516E-01
        1   -1    0    0  501    0  0.00000000000E+00  0.00000000000E+00  0.11902233252E+03  0.11902233262E+03  0.50400001928E-02 0.  1.
       -1   -1    0    0    0  501  0.00000000000E+00  0.00000000000E+00 -0.17137077472E+04  0.17137077473E+04  0.50400001928E-02 0. -1.
    10030    2    1    2    0    0  0.00000000000E+00  0.00000000000E+00 -0.15946854147E+04  0.18327300799E+04  0.90325963805E+03 0.  0.
        2    1    3    3  502    0 -0.54912588931E+02  0.43144860878E+03 -0.10442350920E+04  0.11311897373E+04  0.25500000920E-02 0. -1.
       -2    1    3    3    0  502  0.54912588931E+02 -0.43144860878E+03 -0.55045032271E+03  0.70154034255E+03  0.25500000920E-02 0.  1.
</event>
<event>
 5   0  0.1454652E-02  0.9016235E+03  0.7818609E-02  0.9423554E-01
        2   -1    0    0  501    0  0.00000000000E+00  0.00000000000E+00  0.80576787404E+03  0.80576787404E+03  0.25500000920E-02 0. -1.
       -2   -1    0    0    0  501  0.00000000000E+00  0.00000000000E+00 -0.25222056001E+03  0.25222056002E+03  0.25500000920E-02 0.  1.
    10030    2    1    2    0    0  0.00000000000E+00  0.00000000000E+00  0.55354731402E+03  0.10579884341E+04  0.90162347893E+03 0.  0.
        4    1    3    3  502    0 -0.91315622485E+02 -0.16385751892E+03  0.75779500035E+03  0.78066811442E+03  0.12699999809E+01 0. -1.
       -4    1    3    3    0  502  0.91315622485E+02  0.16385751892E+03 -0.20424768633E+03  0.27732031964E+03  0.12699999809E+01 0.  1.
</event>
<event>
 5   0  0.1454652E-02  0.9009625E+03  0.7818609E-02  0.9424379E-01
        2   -1    0    0  501    0  0.00000000000E+00  0.00000000000E+00  0.18593252982E+04  0.18593252982E+04  0.25500000920E-02 0.  1.
       -2   -1    0    0    0  501  0.00000000000E+00  0.00000000000E+00 -0.10914353902E+03  0.10914353905E+03  0.25500000920E-02 0. -1.
    10030    2    1    2    0    0  0.00000000000E+00  0.00000000000E+00  0.17501817591E+04  0.19684688372E+04  0.90096247040E+03 0.  0.
        4    1    3    3  502    0  0.13470430234E+03 -0.62745496592E+02  0.18042294309E+04  0.18103391115E+04  0.12699999809E+01 0.  1.
       -4    1    3    3    0  502 -0.13470430234E+03  0.62745496592E+02 -0.54047671808E+02  0.15812972567E+03  0.12699999809E+01 0. -1.
</event>
<event>
 5   0  0.8291252E-03  0.8880299E+03  0.7818609E-02  0.9440670E-01
        1   -1    0    0  501    0  0.00000000000E+00  0.00000000000E+00  0.15096582169E+04  0.15096582169E+04  0.50400001928E-02 0.  1.
       -1   -1    0    0    0  501  0.00000000000E+00  0.00000000000E+00 -0.13059199403E+03  0.13059199413E+03  0.50400001928E-02 0. -1.
    10030    2    1    2    0    0  0.00000000000E+00  0.00000000000E+00  0.13790662228E+04  0.16402502110E+04  0.88802990251E+03 0.  0.
        1    1    3    3  502    0 -0.15385847776E+03  0.38310747318E+03  0.38768883290E+03  0.56634476988E+03  0.50400001928E-02 0. -1.
       -1    1    3    3    0  502  0.15385847776E+03 -0.38310747318E+03  0.99137738994E+03  0.10739054411E+04  0.50400001928E-02 0.  1.
</event>
<event>
 5   0  0.8738044E-03  0.9058274E+03  0.7818609E-02  0.9418326E-01
       -1   -1    0    0    0  501  0.00000000000E+00  0.00000000000E+00  0.60479556195E+03  0.60479556198E+03  0.50400001928E-02 0.  1.
        1   -1    0    0  501    0  0.00000000000E+00  0.00000000000E+00 -0.33917379568E+03  0.33917379571E+03  0.50400001928E-02 0. -1.
    10030    2    1    2    0    0  0.00000000000E+00  0.00000000000E+00  0.26562176628E+03  0.94396935769E+03  0.90582737072E+03 0.  0.
        3    1    3    3  502    0 -0.39532664982E+03 -0.20348619842E+03  0.22270436506E+03  0.49727963705E+03  0.10100000352E+00 0.  1.
       -3    1    3    3    0  502  0.39532664982E+03  0.20348619842E+03  0.42917401216E+02  0.44668972065E+03  0.10100000352E+00 0. -1.
</event>
<event>
 5   0  0.1440615E-02  0.9095759E+03  0.7818609E-02  0.9413690E-01
        2   -1    0    0  501    0  0.00000000000E+00  0.00000000000E+00  0.98724507786E+03  0.98724507787E+03  0.25500000920E-02 0. -1.
       -2   -1    0    0    0  501  0.00000000000E+00  0.00000000000E+00 -0.20950427995E+03  0.20950427997E+03  0.25500000920E-02 0.  1.
    10030    2    1    2    0    0  0.00000000000E+00  0.00000000000E+00  0.77774079791E+03  0.11967493578E+04  0.90957587740E+03 0.  0.
        3    1    3    3  502    0 -0.36425687033E+03  0.24220381806E+03  0.55260411936E+03  0.70478158319E+03  0.10100000352E+00 0. -1.
       -3    1    3    3    0  502  0.36425687033E+03 -0.24220381806E+03  0.22513667855E+03  0.49196777465E+03  0.10100000352E+00 0.  1.
</event>
<event>
 5   0  0.8524692E-03  0.9006733E+03  0.7818609E-02  0.9424740E-01
       -1   -1    0    0    0  501  0.00000000000E+00  0.00000000000E+00  0.44802877691E+03  0.44802877694E+03  0.50400001928E-02 0. -1.
        1   -1    0    0  501    0  0.00000000000E+00  0.00000000000E+00 -0.45265639490E+03  0.45265639492E+03  0.50400001928E-02 0.  1.
    10030    2    1    2    0    0  0.00000000000E+00  0.00000000000E+00 -0.46276179826E+01  0.90068517186E+03  0.90067328370E+03 0.  0.
        5    1    3    3  502    0  0.11316668807E+03  0.43295975429E+03  0.47887977782E+02  0.45008465486E+03  0.46999998093E+01 0. -1.
       -5    1    3    3    0  502 -0.11316668807E+03 -0.43295975429E+03 -0.52515595765E+02  0.45060051700E+03  0.46999998093E+01 0.  1.
</event>
<event>
 5   0  0.8612969E-03  0.9270007E+03  0.7818609E-02  0.9392445E-01
       -1   -1    0    0    0  501  0.00000000000E+00  0.00000000000E+00  0.18998406858E+03  0.18998406865E+03  0.50400001928E-02 0.  1.
        1   -1    0    0  501    0  0.00000000000E+00  0.00000000000E+00 -0.11307926142E+04  0.11307926142E+04  0.50400001928E-02 0. -1.
    10030    2    1    2    0    0  0.00000000000E+00  0.00000000000E+00 -0.94080854565E+03  0.13207766829E+04  0.92700071548E+03 0.  0.
        4    1    3    3  502    0  0.15640727451E+03 -0.38609527269E+02  0.14880707278E+03  0.21931504491E+03  0.12699999809E+01 0.  1.
       -4    1    3    3    0  502 -0.15640727451E+03  0.38609527269E+02 -0.10896156184E+04  0.11014616380E+04  0.12699999809E+01 0. -1.
</event>
<event>
 5   0  0.1454652E-02  0.9008920E+03  0.7818609E-02  0.9424467E-01
        2   -1    0    0  501    0  0.00000000000E+00  0.00000000000E+00  0.48041817612E+03  0.48041817613E+03  0.25500000920E-02 0. -1.
       -2   -1    0    0    0  501  0.00000000000E+00  0.00000000000E+00 -0.42234372325E+03  0.42234372325E+03  0.25500000920E-02 0.  1.
    10030    2    1    2    0    0  0.00000000000E+00  0.00000000000E+00  0.58074452875E+02  0.90276189938E+03  0.90089200512E+03 0.  0.
        4    1    3    3  502    0 -0.18378008265E+03  0.29272619894E+03  0.31849009394E+03  0.47000138208E+03  0.12699999809E+01 0. -1.
       -4    1    3    3    0  502  0.18378008265E+03 -0.29272619894E+03 -0.26041564106E+03  0.43276051730E+03  0.12699999809E+01 0.  1.
</event>
<event>
 5   0  0.1483326E-02  0.9057792E+03  0.7818609E-02  0.9418386E-01
       -2   -1    0    0    0  501  0.00000000000E+00  0.00000000000E+00  0.31752910494E+03  0.31752910495E+03  0.25500000920E-02 0. -1.
        2   -1    0    0  501    0  0.00000000000E+00  0.00000000000E+00 -0.64595336454E+03  0.64595336454E+03  0.25500000920E-02 0.  1.
    10030    2    1    2    0    0  0.00000000000E+00  0.00000000000E+00 -0.32842425960E+03  0.96348246949E+03  0.90577920859E+03 0.  0.
        1    1    3    3  502    0 -0.83273912577E+02 -0.10313931096E+03 -0.62485530488E+03  0.63876162536E+03  0.50400001928E-02 0.  1.
       -1    1    3    3    0  502  0.83273912577E+02  0.10313931096E+03  0.29643104528E+03  0.32472084412E+03  0.50400001928E-02 0. -1.
</event>
<event>
 5   0  0.8885324E-03  0.8949707E+03  0.7818609E-02  0.9431890E-01
        1   -1    0    0  501    0  0.00000000000E+00  0.00000000000E+00  0.33240151723E+03  0.33240151727E+03  0.50400001928E-02 0. -1.
       -1   -1    0    0    0  501  0.00000000000E+00  0.00000000000E+00 -0.60241344348E+03  0.60241344350E+03  0.50400001928E-02 0.  1.
    10030    2    1    2    0    0  0.00000000000E+00  0.00000000000E+00 -0.27001192625E+03  0.93481496077E+03  0.89497070933E+03 0.  0.
        2    1    3    3  502    0 -0.17062113550E+03  0.18894029771E+03  0.24939042435E+03  0.35637843894E+03  0.25500000920E-02 0. -1.
       -2    1    3    3    0  502  0.17062113550E+03 -0.18894029771E+03 -0.51940235059E+03  0.57843652183E+03  0.25500000920E-02 0.  1.
</event>
<event>
 5   0  0.1535906E-02  0.9332338E+03  0.7818609E-02  0.9384965E-01
       -2   -1    0    0    0  501  0.00000000000E+00  0.00000000000E+00  0.20050656152E+03  0.20050656153E+03  0.25500000920E-02 0.  1.
        2   -1    0    0  501    0  0.00000000000E+00  0.00000000000E+00 -0.10859061820E+04  0.10859061820E+04  0.25500000920E-02 0. -1.
    10030    2    1    2    0    0  0.00000000000E+00  0.00000000000E+00 -0.88539962049E+03  0.12864127435E+04  0.93323376427E+03 0.  0.
        2    1    3    3  502    0 -0.24486383680E+03 -0.55314697069E+02  0.99492952066E+02  0.27003122375E+03  0.25500000920E-02 0.  1.
       -2    1    3    3    0  502  0.24486383680E+03  0.55314697069E+02 -0.98489257255E+03  0.10163815198E+04  0.25500000920E-02 0. -1.
</event>
<event>
 5   0  0.5770125E-03  0.8892572E+03  0.7818609E-02  0.9439111E-01
        3   -1    0    0  501    0  0.00000000000E+00  0.00000000000E+00  0.98796517835E+03  0.98796518351E+03  0.10100000352E+00 0. -1.
       -3   -1    0    0    0  501  0.00000000000E+00  0.00000000000E+00 -0.20010278645E+03  0.20010281194E+03  0.10100000352E+00 0.  1.
    10030    2    1    2    0    0  0.00000000000E+00  0.00000000000E+00  0.78786239189E+03  0.11880679955E+04  0.88925722559E+03 0.  0.
        3    1    3    3  502    0  0.29066675430E+03  0.20782845034E+03  0.74744690399E+03  0.82846648171E+03  0.10100000352E+00 0. -1.
       -3    1    3    3    0  502 -0.29066675430E+03 -0.20782845034E+03  0.40415487900E+02  0.35960151374E+03  0.10100000352E+00 0.  1.
</event>
<event>
 5   0  0.1483326E-02  0.8940318E+03  0.7818609E-02  0.9433073E-01
       -2   -1    0    0    0  501  0.00000000000E+00  0.00000000000E+00  0.12374651045E+03  0.12374651048E+03  0.25500000920E-02 0. -1.
        2   -1    0    0  501    0  0.00000000000E+00  0.00000000000E+00 -0.16147785987E+04  0.16147785987E+04  0.25500000920E-02 0.  1.
    10030    2    1    2    0    0  0.00000000000E+00  0.00000000000E+00 -0.14910320882E+04  0.17385251092E+04  0.89403180427E+03 0.  0.
        1    1    3    3  502    0  0.37979579218E+03 -0.16161736889E+03 -0.10792735913E+04  0.11555070326E+04  0.50400001928E-02 0.  1.
       -1    1    3    3    0  502 -0.37979579218E+03  0.16161736889E+03 -0.41175849697E+03  0.58301807651E+03  0.50400001928E-02 0. -1.
</event>
<event>
 5   0  0.1440615E-02  0.9264829E+03  0.7818609E-02  0.9393069E-01
       -2   -1    0    0    0  501  0.00000000000E+00  0.00000000000E+00  0.18245879126E+03  0.18245879128E+03  0.25500000920E-02 0. -1.
        2   -1    0    0  501    0  0.00000000000E+00  0.00000000000E+00 -0.11761156201E+04  0.11761156201E+04  0.25500000920E-02 0.  1.
    10030    2    1    2    0    0  0.00000000000E+00  0.00000000000E+00 -0.99365682880E+03  0.13585744113E+04  0.92648288583E+03 0.  0.
        3    1    3    3  502    0 -0.40402792663E+03  0.22661320074E+03 -0.49577507799E+03  0.67851679891E+03  0.10100000352E+00 0. -1.
       -3    1    3    3    0  502  0.40402792663E+03 -0.22661320074E+03 -0.49788175081E+03  0.68005761244E+03  0.10100000352E+00 0.  1.
</event>
<event>
 5   0  0.1535906E-02  0.9038959E+03  0.7818609E-02  0.9420724E-01
        2   -1    0    0  501    0  0.00000000000E+00  0.00000000000E+00  0.13869146015E+04  0.13869146015E+04  0.25500000920E-02 0. -1.
       -2   -1    0    0    0  501  0.00000000000E+00  0.00000000000E+00 -0.14727435338E+03  0.14727435340E+03  0.25500000920E-02 0.  1.
    10030    2    1    2    0    0  0.00000000000E+00  0.00000000000E+00  0.12396402481E+04  0.15341889549E+04  0.90389590361E+03 0.  0.
        2    1    3    3  502    0  0.17287182303E+03 -0.24484518249E+02  0.13273606555E+04  0.13387944086E+04  0.25500000920E-02 0. -1.
       -2    1    3    3    0  502 -0.17287182303E+03  0.24484518249E+02 -0.87720407379E+02  0.19539454626E+03  0.25500000920E-02 0.  1.
</event>
<event>
 5   0  0.8524692E-03  0.9069717E+03  0.7818609E-02  0.9416908E-01
       -1   -1    0    0    0  501  0.00000000000E+00  0.00000000000E+00  0.29659383149E+03  0.29659383153E+03  0.50400001928E-02 0.  1.
        1   -1    0    0  501    0  0.00000000000E+00  0.00000000000E+00 -0.69337056211E+03  0.69337056213E+03  0.50400001928E-02 0. -1.
    10030    2    1    2    0    0  0.00000000000E+00  0.00000000000E+00 -0.39677673062E+03  0.98996439366E+03  0.90697173426E+03 0.  0.
        5    1    3    3  502    0 -0.68370727198E+02 -0.43118374583E+03 -0.64558238501E+02  0.44134321697E+03  0.46999998093E+01 0.  1.
       -5    1    3    3    0  502  0.68370727198E+02  0.43118374583E+03 -0.33221849212E+03  0.54862117669E+03  0.46999998093E+01 0. -1.
</event>
<event>
 5   0  0.1454652E-02  0.9177971E+03  0.7818609E-02  0.9403604E-01
       -2   -1    0    0    0  501  0.00000000000E+00  0.00000000000E+00  0.15659438199E+03  0.15659438201E+03  0.25500000920E-02 0. -1.
        2   -1    0    0  501    0  0.00000000000E+00  0.00000000000E+00 -0.13447983960E+04  0.13447983960E+04  0.25500000920E-02 0.  1.
    10030    2    1    2    0    0  0.00000000000E+00  0.00000000000E+00 -0.11882040140E+04  0.15013927780E+04  0.91779708811E+03 0.  0.
        4    1    3    3  502    0 -0.56654685434E+02 -0.43129793045E+03 -0.35502706167E+03  0.56149219550E+03  0.12699999809E+01 0. -1.
       -4    1    3    3    0  502  0.56654685434E+02  0.43129793045E+03 -0.83317695235E+03  0.93990058251E+03  0.12699999809E+01 0.  1.
</event>
<event>
 5   0  0.8738044E-03  0.8911091E+03  0.7818609E-02  0.9436764E-01
        1   -1    0    0  501    0  0.00000000000E+00  0.00000000000E+00  0.17002176387E+04  0.17002176387E+04  0.50400001928E-02 0.  1.
       -1   -1    0    0    0  501  0.00000000000E+00  0.00000000000E+00 -0.11676084478E+03  0.11676084489E+03  0.50400001928E-02 0. -1.
    10030    2    1    2    0    0  0.00000000000E+00  0.00000000000E+00  0.15834567939E+04  0.18169784836E+04  0.89110907955E+03 0.  0.
        3    1    3    3  502    0 -0.11795214192E+03  0.12832849424E+03  0.16278159551E+04  0.16371211635E+04  0.10100000352E+00 0.  1.
       -3    1    3    3    0  502  0.11795214192E+03 -0.12832849424E+03 -0.44359161141E+02  0.17985732011E+03  0.10100000352E+00 0. -1.
</event>
<event>
 5   0  0.8291252E-03  0.9009202E+03  0.7818609E-02  0.9424432E-01
        1   -1    0    0  501    0  0.00000000000E+00  0.00000000000E+00  0.10289042352E+04  0.10289042352E+04  0.50400001928E-02 0.  1.
       -1   -1    0    0    0  501  0.00000000000E+00  0.00000000000E+00 -0.19721397207E+03  0.19721397213E+03  0.50400001928E-02 0. -1.
    10030    2    1    2    0    0  0.00000000000E+00  0.00000000000E+00  0.83169026313E+03  0.12261182073E+04  0.90092017659E+03 0.  0.
        1    1    3    3  502    0 -0.41512742883E+03  0.17367207341E+03  0.44378697485E+03  0.63201238147E+03  0.50400001928E-02 0.  1.
       -1    1    3    3    0  502  0.41512742883E+03 -0.17367207341E+03  0.38790328827E+03  0.59410582587E+03  0.50400001928E-02 0. -1.
</event>
<event>
 5   0  0.1440615E-02  0.9034291E+03  0.7818609E-02  0.9421305E-01
        2   -1    0    0  501    0  0.00000000000E+00  0.00000000000E+00  0.25957425276E+03  0.25957425277E+03  0.25500000920E-02 0. -1.
       -2   -1    0    0    0  501  0.00000000000E+00  0.00000000000E+00 -0.78607961057E+03  0.78607961057E+03  0.25500000920E-02 0.  1.
    10030    2    1    2    0    0  0.00000000000E+00  0.00000000000E+00 -0.52650535781E+03  0.10456538633E+04  0.90342908416E+03 0.  0.
        3    1    3    3  502    0 -0.28504420694E+02  0.10807755338E+02 -0.78488765428E+03  0.78547943934E+03  0.10100000352E+00 0.  1.
       -3    1    3    3    0  502  0.28504420694E+02 -0.10807755338E+02  0.25838229647E+03  0.26017442400E+03  0.10100000352E+00 0. -1.
</event>
<event>
 5   0  0.8524692E-03  0.8704101E+03  0.7818609E-02  0.9463345E-01
       -1   -1    0    0    0  501  0.00000000000E+00  0.00000000000E+00  0.95374689228E+03  0.95374689229E+03  0.50400001928E-02 0. -1.
        1   -1    0    0  501    0  0.00000000000E+00  0.00000000000E+00 -0.19858878889E+03  0.19858878895E+03  0.50400001928E-02 0.  1.
    10030    2    1    2    0    0  0.00000000000E+00  0.00000000000E+00  0.75515810339E+03  0.11523356812E+04  0.87041011090E+03 0.  0.
        5    1    3    3  502    0 -0.31836492281E+03  0.29331575344E+03  0.43665220678E+03  0.61488014684E+03  0.46999998093E+01 0.  1.
       -5    1    3    3    0  502  0.31836492281E+03 -0.29331575344E+03  0.31850589662E+03  0.53745553441E+03  0.46999998093E+01 0. -1.
</event>
<event>
 5   0  0.8738044E-03  0.9088929E+03  0.7818609E-02  0.9414533E-01
       -1   -1    0    0    0  501  0.00000000000E+00  0.00000000000E+00  0.15729219875E+03  0.15729219883E+03  0.50400001928E-02 0.  1.
        1   -1    0    0  501    0  0.00000000000E+00  0.00000000000E+00 -0.13129804105E+04  0.13129804105E+04  0.50400001928E-02 0. -1.
    10030    2    1    2    0    0  0.00000000000E+00  0.00000000000E+00 -0.11556882117E+04  0.14702726093E+04  0.90889289962E+03 0.  0.
        3    1    3    3  502    0  0.25159337938E+03  0.36940606064E+03 -0.44482725512E+03  0.63058017991E+03  0.10100000352E+00 0.  1.
       -3    1    3    3    0  502 -0.25159337938E+03 -0.36940606064E+03 -0.71086095659E+03  0.83969242940E+03  0.10100000352E+00 0. -1.
</event>
<event>
 5   0  0.8612969E-03  0.8877244E+03  0.7818609E-02  0.9441058E-01
        1   -1    0    0  501    0  0.00000000000E+00  0.00000000000E+00  0.25662061147E+03  0.25662061152E+03  0.50400001928E-02 0.  1.
       -1   -1    0    0    0  501  0.00000000000E+00  0.00000000000E+00 -0.76772333070E+03  0.76772333072E+03  0.50400001928E-02 0. -1.
    10030    2    1    2    0    0  0.00000000000E+00  0.00000000000E+00 -0.51110271923E+03  0.10243439422E+04  0.88772435045E+03 0.  0.
        4    1    3    3  502    0 -0.28552163484E+03  0.75183314065E+02 -0.63797239287E+03  0.70298330111E+03  0.12699999809E+01 0. -1.
       -4    1    3    3    0  502  0.28552163484E+03 -0.75183314065E+02  0.12686967364E+03  0.32136064113E+03  0.12699999809E+01 0.  1.
</event>
<event>
 5   0  0.8524692E-03  0.9000690E+03  0.7818609E-02  0.9425495E-01
        1   -1    0    0  501    0  0.00000000000E+00  0.00000000000E+00  0.10369727011E+04  0.10369727011E+04  0.50400001928E-02 0. -1.
       -1   -1    0    0    0  501  0.00000000000E+00  0.00000000000E+00 -0.19530990759E+03  0.19530990765E+03  0.50400001928E-02 0.  1.
    10030    2    1    2    0    0  0.00000000000E+00  0.00000000000E+00  0.84166279347E+03  0.12322826087E+04  0.90006898060E+03 0.  0.
        5    1    3    3  502    0  0.45993222446E+02 -0.12803165999E+03  0.10081113424E+04  0.10172600706E+04  0.46999998093E+01 0. -1.
       -5    1    3    3    0  502 -0.45993222446E+02  0.12803165999E+03 -0.16644854895E+03  0.21502253815E+03  0.46999998093E+01 0.  1.
</event>
<event>
 5   0  0.8612969E-03  0.9873730E+03  0.7818609E-02  0.9322503E-01
       -1   -1    0    0    0  501  0.00000000000E+00  0.00000000000E+00  0.14774060227E+04  0.14774060227E+04  0.50400001928E-02 0.  1.
        1   -1    0    0  501    0  0.00000000000E+00  0.00000000000E+00 -0.16496912091E+03  0.16496912099E+03  0.50400001928E-02 0. -1.
    10030    2    1    2    0    0  0.00000000000E+00  0.00000000000E+00  0.13124369018E+04  0.16423751437E+04  0.98737302546E+03 0.  0.
        4    1    3    3  502    0  0.43874093235E+03  0.18974745104E+03  0.45096091001E+03  0.65716440572E+03  0.12699999809E+01 0. -1.
       -4    1    3    3    0  502 -0.43874093235E+03 -0.18974745104E+03  0.86147599174E+03  0.98521073793E+03  0.12699999809E+01 0.  1.
</event>
<event>
 5   0  0.1440615E-02  0.8865433E+03  0.7818609E-02  0.9442561E-01
       -2   -1    0    0    0  501  0.00000000000E+00  0.00000000000E+00  0.30806299147E+03  0.30806299148E+03  0.25500000920E-02 0. -1.
        2   -1    0    0  501    0  0.00000000000E+00  0.00000000000E+00 -0.63782323513E+03  0.63782323513E+03  0.25500000920E-02 0.  1.
    10030    2    1    2    0    0  0.00000000000E+00  0.00000000000E+00 -0.32976024366E+03  0.94588622661E+03  0.88654325072E+03 0.  0.
        3    1    3    3  502    0  0.21093038383E+03  0.80264604489E+02 -0.57193556596E+03  0.61485310064E+03  0.10100000352E+00 0.  1.
       -3    1    3    3    0  502 -0.21093038383E+03 -0.80264604489E+02  0.24217532230E+03  0.33103312597E+03  0.10100000352E+00 0. -1.
</event>
<event>
 5   0  0.8612969E-03  0.9072453E+03  0.7818609E-02  0.9416569E-01
       -1   -1    0    0    0  501  0.00000000000E+00  0.00000000000E+00  0.15615794270E+03  0.15615794278E+03  0.50400001928E-02 0. -1.
        1   -1    0    0  501    0  0.00000000000E+00  0.00000000000E+00 -0.13177269206E+04  0.13177269206E+04  0.50400001928E-02 0.  1.
    10030    2    1    2    0    0  0.00000000000E+00  0.00000000000E+00 -0.11615689779E+04  0.14738848634E+04  0.90724533622E+03 0.  0.
        4    1    3    3  502    0  0.13544248384E+03  0.97668189254E+02 -0.12659765915E+04  0.12769424751E+04  0.12699999809E+01 0.  1.
       -4    1    3    3    0  502 -0.13544248384E+03 -0.97668189254E+02  0.10440761360E+03  0.19694238827E+03  0.12699999809E+01 0. -1.
</event>
<event>
 5   0  0.1440615E-02  0.8086006E+03  0.7818609E-02  0.9547651E-01
        2   -1    0    0  501    0  0.00000000000E+00  0.00000000000E+00  0.23007787269E+03  0.23007787270E+03  0.25500000920E-02 0.  1.
       -2   -1    0    0    0  501  0.00000000000E+00  0.00000000000E+00 -0.71044958325E+03  0.71044958325E+03  0.25500000920E-02 0. -1.
    10030    2    1    2    0    0  0.00000000000E+00  0.00000000000E+00 -0.48037171056E+03  0.94052745596E+03  0.80860059059E+03 0.  0.
        3    1    3    3  502    0  0.22222877964E+03  0.24856809809E+03 -0.50615682649E+03  0.60610764151E+03  0.10100000352E+00 0. -1.
       -3    1    3    3    0  502 -0.22222877964E+03 -0.24856809809E+03  0.25785115927E+02  0.33441981445E+03  0.10100000352E+00 0.  1.
</event>
<event>
 5   0  0.1454652E-02  0.8872745E+03  0.7818609E-02  0.9441630E-01
        2   -1    0    0  501    0  0.00000000000E+00  0.00000000000E+00  0.12975146273E+04  0.12975146273E+04  0.25500000920E-02 0. -1.
       -2   -1    0    0    0  501  0.00000000000E+00  0.00000000000E+00 -0.15168538178E+03  0.15168538180E+03  0.25500000920E-02 0.  1.
    10030    2    1    2    0    0  0.00000000000E+00  0.00000000000E+00  0.11458292455E+04  0.14492000091E+04  0.88727448204E+03 0.  0.
        4    1    3    3  502    0  0.88508546195E+02  0.15435666297E+03 -0.90848477398E+02  0.19978688870E+03  0.12699999809E+01 0.  1.
       -4    1    3    3    0  502 -0.88508546195E+02 -0.15435666297E+03  0.12366777229E+04  0.12494131204E+04  0.12699999809E+01 0. -1.
</event>
<event>
 5   0  0.8612969E-03  0.9067979E+03  0.7818609E-02  0.9417123E-01
       -1   -1    0    0    0  501  0.00000000000E+00  0.00000000000E+00  0.94378187130E+03  0.94378187131E+03  0.50400001928E-02 0. -1.
        1   -1    0    0  501    0  0.00000000000E+00  0.00000000000E+00 -0.21781578615E+03  0.21781578621E+03  0.50400001928E-02 0.  1.
    10030    2    1    2    0    0  0.00000000000E+00  0.00000000000E+00  0.72596608515E+03  0.11615976575E+04  0.90679786125E+03 0.  0.
        4    1    3    3  502    0 -0.24005576000E+03  0.82216414543E+02 -0.11833920595E+03  0.27998586982E+03  0.12699999809E+01 0.  1.
       -4    1    3    3    0  502  0.24005576000E+03 -0.82216414543E+02  0.84430529110E+03  0.88161178770E+03  0.12699999809E+01 0. -1.
</event>
<event>
 5   0  0.8291252E-03  0.9009213E+03  0.7818609E-02  0.9424431E-01
       -1   -1    0    0    0  501  0.00000000000E+00  0.00000000000E+00  0.81780739844E+03  0.81780739846E+03  0.50400001928E-02 0. -1.
        1   -1    0    0  501    0  0.00000000000E+00  0.00000000000E+00 -0.24812049518E+03  0.24812049523E+03  0.50400001928E-02 0.  1.
    10030    2    1    2    0    0  0.00000000000E+00  0.00000000000E+00  0.56968690326E+03  0.10659278937E+04  0.90092125450E+03 0.  0.
        1    1    3    3  502    0  0.38779161306E+03 -0.38758930839E+01  0.13704020030E+02  0.38805303490E+03  0.50400001928E-02 0.  1.
       -1    1    3    3    0  502 -0.38779161306E+03  0.38758930839E+01  0.55598288323E+03  0.67787485879E+03  0.50400001928E-02 0. -1.
</event>
<event>
 5   0  0.1535906E-02  0.8972296E+03  0.7818609E-02  0.9429051E-01
       -2   -1    0    0    0  501  0.00000000000E+00  0.00000000000E+00  0.16738643242E+03  0.16738643244E+03  0.25500000920E-02 0. -1.
        2   -1    0    0  501    0  0.00000000000E+00  0.00000000000E+00 -0.12023390515E+04  0.12023390515E+04  0.25500000920E-02 0.  1.
    10030    2    1    2    0    0  0.00000000000E+00  0.00000000000E+00 -0.10349526191E+04  0.13697254839E+04  0.89722961253E+03 0.  0.
        2    1    3    3  502    0 -0.33668006587E+02 -0.44042761733E+03 -0.39780259180E+03  0.59443832550E+03  0.25500000920E-02 0. -1.
       -2    1    3    3    0  502  0.33668006587E+02  0.44042761733E+03 -0.63715002725E+03  0.77528715842E+03  0.25500000920E-02 0.  1.
</event>
<event>
 5   0  0.1440615E-02  0.8971391E+03  0.7818609E-02  0.9429165E-01
        2   -1    0    0  501    0  0.00000000000E+00  0.00000000000E+00  0.12484713627E+04  0.12484713627E+04  0.25500000920E-02 0. -1.
       -2   -1    0    0    0  501  0.00000000000E+00  0.00000000000E+00 -0.16116882270E+03  0.16116882272E+03  0.25500000920E-02 0.  1.
    10030    2    1    2    0    0  0.00000000000E+00  0.00000000000E+00  0.10873025400E+04  0.14096401854E+04  0.89713914130E+03 0.  0.
        3    1    3    3  502    0 -0.19645191054E+03 -0.18306663106E+03  0.11082304829E+04  0.11402988897E+04  0.10100000352E+00 0. -1.
       -3    1    3    3    0  502  0.19645191054E+03  0.18306663106E+03 -0.20927942889E+02  0.26934129568E+03  0.10100000352E+00 0.  1.
</event>
<event>
 5   0  0.8612969E-03  0.9122004E+03  0.7818609E-02  0.9410457E-01
        1   -1    0    0  501    0  0.00000000000E+00  0.00000000000E+00  0.21562165812E+04  0.21562165812E+04  0.50400001928E-02 0. -1.
       -1   -1    0    0    0  501  0.00000000000E+00  0.00000000000E+00 -0.96477976687E+02  0.96477976818E+02  0.50400001928E-02 0.  1.
    10030    2    1    2    0    0  0.00000000000E+00  0.00000000000E+00  0.20597386045E+04  0.22526945580E+04  0.91220044554E+03 0.  0.
        4    1    3    3  502    0  0.20605040639E+03  0.23697212707E+03  0.21301054018E+03  0.37945706228E+03  0.12699999809E+01 0.  1.
       -4    1    3    3    0  502 -0.20605040639E+03 -0.23697212707E+03  0.18467280644E+04  0.18732374958E+04  0.12699999809E+01 0. -1.
</event>
<event>
 5   0  0.8885324E-03  0.8921989E+03  0.7818609E-02  0.9435386E-01
        1   -1    0    0  501    0  0.00000000000E+00  0.00000000000E+00  0.51637951624E+03  0.51637951627E+03  0.50400001928E-02 0. -1.
       -1   -1    0    0    0  501  0.00000000000E+00  0.00000000000E+00 -0.38538464623E+03  0.38538464626E+03  0.50400001928E-02 0.  1.
    10030    2    1    2    0    0  0.00000000000E+00  0.00000000000E+00  0.13099487001E+03  0.90176416253E+03  0.89219894017E+03 0.  0.
        2    1    3    3  502    0 -0.34038723449E+03  0.66250960002E+01  0.35685407736E+03  0.49320603588E+03  0.25500000920E-02 0. -1.
       -2    1    3    3    0  502  0.34038723449E+03 -0.66250960002E+01 -0.22585920735E+03  0.40855812664E+03  0.25500000920E-02 0.  1.
</event>
<event>
 5   0  0.8291252E-03  0.9029585E+03  0.7818609E-02  0.9421891E-01
       -1   -1    0    0    0  501  0.00000000000E+00  0.00000000000E+00  0.14459825825E+03  0.14459825833E+03  0.50400001928E-02 0. -1.
        1   -1    0    0  501    0  0.00000000000E+00  0.00000000000E+00 -0.14096539752E+04  0.14096539753E+04  0.50400001928E-02 0.  1.
    10030    2    1    2    0    0  0.00000000000E+00  0.00000000000E+00 -0.12650557170E+04  0.15542522336E+04  0.90295849213E+03 0.  0.
        1    1    3    3  502    0  0.10925970892E+03  0.26710863933E+03 -0.34894047152E+02  0.29069279962E+03  0.50400001928E-02 0. -1.
       -1    1    3    3    0  502 -0.10925970892E+03 -0.26710863933E+03 -0.12301616698E+04  0.12635594340E+04  0.50400001928E-02 0.  1.
</event>
<event>
 5   0  0.1535906E-02  0.8773968E+03  0.7818609E-02  0.9454286E-01
        2   -1    0    0  501    0  0.00000000000E+00  0.00000000000E+00  0.14253696071E+04  0.14253696071E+04  0.25500000920E-02 0. -1.
       -2   -1    0    0    0  501  0.00000000000E+00  0.00000000000E+00 -0.13502201318E+03  0.13502201321E+03  0.25500000920E-02 0.  1.
    10030    2    1    2    0    0  0.00000000000E+00  0.00000000000E+00  0.12903475939E+04  0.15603916203E+04  0.87739677206E+03 0.  0.
        2    1    3    3  502    0 -0.18883963676E+02  0.30898443643E+03  0.11980013997E+04  0.12373501282E+04  0.25500000920E-02 0. -1.
       -2    1    3    3    0  502  0.18883963676E+02 -0.30898443643E+03  0.92346194215E+02  0.32304149212E+03  0.25500000920E-02 0.  1.
</event>
<event>
 5   0  0.5770125E-03  0.8910315E+03  0.7818609E-02  0.9436862E-01
       -3   -1    0    0    0  501  0.00000000000E+00  0.00000000000E+00  0.84334693481E+03  0.84334694086E+03  0.10100000352E+00 0.  1.
        3   -1    0    0  501    0  0.00000000000E+00  0.00000000000E+00 -0.23535303852E+03  0.23535306019E+03  0.10100000352E+00 0. -1.
    10030    2    1    2    0    0  0.00000000000E+00  0.00000000000E+00  0.60799389629E+03  0.10787000010E+04  0.89103148896E+03 0.  0.
        5    1    3    3  502    0 -0.32154391678E+03  0.14031414827E+03 -0.28391692275E+02  0.35200387613E+03  0.46999998093E+01 0. -1.
       -5    1    3    3    0  502  0.32154391678E+03 -0.14031414827E+03  0.63638558857E+03  0.72669612491E+03  0.46999998093E+01 0.  1.
</event>
<event>
 5   0  0.8738044E-03  0.9103390E+03  0.7818609E-02  0.9412749E-01
       -1   -1    0    0    0  501  0.00000000000E+00  0.00000000000E+00  0.27464207663E+03  0.27464207667E+03  0.50400001928E-02 0. -1.
        1   -1    0    0  501    0  0.00000000000E+00  0.00000000000E+00 -0.75436108829E+03  0.75436108831E+03  0.50400001928E-02 0.  1.
    10030    2    1    2    0    0  0.00000000000E+00  0.00000000000E+00 -0.47971901166E+03  0.10290031650E+04  0.91033904859E+03 0.  0.
        3    1    3    3  502    0 -0.16729394169E+03  0.28071028701E+03  0.11829209206E+03  0.34753209550E+03  0.10100000352E+00 0. -1.
       -3    1    3    3    0  502  0.16729394169E+03 -0.28071028701E+03 -0.59801110372E+03  0.68147106948E+03  0.10100000352E+00 0.  1.
</event>
<event>
 5   0  0.8738044E-03  0.9019606E+03  0.7818609E-02  0.9423134E-01
        1   -1    0    0  501    0  0.00000000000E+00  0.00000000000E+00  0.60078228309E+03  0.60078228311E+03  0.50400001928E-02 0.  1.
       -1   -1    0    0    0  501  0.00000000000E+00  0.00000000000E+00 -0.33853063749E+03  0.33853063753E+03  0.50400001928E-02 0. -1.
    10030    2    1    2    0    0  0.00000000000E+00  0.00000000000E+00  0.26225164559E+03  0.93931292064E+03  0.90196055194E+03 0.  0.
        3    1    3    3  502    0 -0.13916198655E+03  0.42884017513E+03  0.14220817393E+03  0.47275059941E+03  0.10100000352E+00 0. -1.
       -3    1    3    3    0  502  0.13916198655E+03 -0.42884017513E+03  0.12004347166E+03  0.46656232123E+03  0.10100000352E+00 0.  1.
</event>
<event>
 5   0  0.1440615E-02  0.7734435E+03  0.7818609E-02  0.9599272E-01
        2   -1    0    0  501    0  0.00000000000E+00  0.00000000000E+00  0.47699600067E+03  0.47699600068E+03  0.25500000920E-02 0. -1.
       -2   -1    0    0    0  501  0.00000000000E+00  0.00000000000E+00 -0.31353243245E+03  0.31353243246E+03  0.25500000920E-02 0.  1.
    10030    2    1    2    0    0  0.00000000000E+00  0.00000000000E+00  0.16346356822E+03  0.79052843314E+03  0.77344351149E+03 0.  0.
        3    1    3    3  502    0  0.18547176910E+03 -0.24035544206E+03  0.32657114668E+03  0.44589151113E+03  0.10100000352E+00 0. -1.
       -3    1    3    3    0  502 -0.18547176910E+03  0.24035544206E+03 -0.16310757846E+03  0.34463692201E+03  0.10100000352E+00 0.  1.
</event>
<event>
 5   0  0.1440615E-02  0.9087608E+03  0.7818609E-02  0.9414696E-01
        2   -1    0    0  501    0  0.00000000000E+00  0.00000000000E+00  0.11053708230E+04  0.11053708230E+04  0.25500000920E-02 0.  1.
       -2   -1    0    0    0  501  0.00000000000E+00  0.00000000000E+00 -0.18678034635E+03  0.18678034636E+03  0.25500000920E-02 0. -1.
    10030    2    1    2    0    0  0.00000000000E+00  0.00000000000E+00  0.91859047661E+03  0.12921511693E+04  0.90876079398E+03 0.  0.
        3    1    3    3  502    0 -0.80116851557E+02 -0.32750210556E+03  0.26180375595E+02  0.33817415826E+03  0.10100000352E+00 0. -1.
       -3    1    3    3    0  502  0.80116851557E+02  0.32750210556E+03  0.89241010102E+03  0.95397701107E+03  0.10100000352E+00 0.  1.
</event>
<event>
 5   0  0.8291252E-03  0.8914338E+03  0.7818609E-02  0.9436353E-01
        1   -1    0    0  501    0  0.00000000000E+00  0.00000000000E+00  0.96541631743E+03  0.96541631744E+03  0.50400001928E-02 0.  1.
       -1   -1    0    0    0  501  0.00000000000E+00  0.00000000000E+00 -0.20578017581E+03  0.20578017587E+03  0.50400001928E-02 0. -1.
    10030    2    1    2    0    0  0.00000000000E+00  0.00000000000E+00  0.75963614162E+03  0.11711964933E+04  0.89143376551E+03 0.  0.
        1    1    3    3  502    0 -0.85311623914E+02 -0.24781164353E+03 -0.93845904123E+02  0.27838056252E+03  0.50400001928E-02 0. -1.
       -1    1    3    3    0  502  0.85311623914E+02  0.24781164353E+03  0.85348204574E+03  0.89281593079E+03  0.50400001928E-02 0.  1.
</event>
<event>
 5   0  0.1483326E-02  0.8940832E+03  0.7818609E-02  0.9433008E-01
       -2   -1    0    0    0  501  0.00000000000E+00  0.00000000000E+00  0.61907242506E+03  0.61907242507E+03  0.25500000920E-02 0. -1.
        2   -1    0    0  501    0  0.00000000000E+00  0.00000000000E+00 -0.32281555930E+03  0.32281555931E+03  0.25500000920E-02 0.  1.
    10030    2    1    2    0    0  0.00000000000E+00  0.00000000000E+00  0.29625686576E+03  0.94188798438E+03  0.89408324255E+03 0.  0.
        1    1    3    3  502    0 -0.18317461751E+03  0.79586938415E+02 -0.27320497830E+03  0.33841983018E+03  0.50400001928E-02 0.  1.
       -1    1    3    3    0  502  0.18317461751E+03 -0.79586938415E+02  0.56946184406E+03  0.60346815420E+03  0.50400001928E-02 0. -1.
</event>
<event>
 5   0  0.8885324E-03  0.8865763E+03  0.7818609E-02  0.9442519E-01
        1   -1    0    0  501    0  0.00000000000E+00  0.00000000000E+00  0.96477432901E+03  0.96477432902E+03  0.50400001928E-02 0. -1.
       -1   -1    0    0    0  501  0.00000000000E+00  0.00000000000E+00 -0.20367909462E+03  0.20367909468E+03  0.50400001928E-02 0.  1.
    10030    2    1    2    0    0  0.00000000000E+00  0.00000000000E+00  0.76109523440E+03  0.11684534237E+04  0.88657625027E+03 0.  0.
        2    1    3    3  502    0  0.20886955579E+03 -0.31326129898E+03  0.68891501153E+03  0.78508790966E+03  0.25500000920E-02 0. -1.
       -2    1    3    3    0  502 -0.20886955579E+03  0.31326129898E+03  0.72180222863E+02  0.38336551404E+03  0.25500000920E-02 0.  1.
</event>
<event>
 5   0  0.8291252E-03  0.8944575E+03  0.7818609E-02  0.9432536E-01
        1   -1    0    0  501    0  0.00000000000E+00  0.00000000000E+00  0.14687670442E+04  0.14687670442E+04  0.50400001928E-02 0. -1.
       -1   -1    0    0    0  501  0.00000000000E+00  0.00000000000E+00 -0.13617786773E+03  0.13617786782E+03  0.50400001928E-02 0.  1.
    10030    2    1    2    0    0  0.00000000000E+00  0.00000000000E+00  0.13325891765E+04  0.16049449120E+04  0.89445752128E+03 0.  0.
        1    1    3    3  502    0  0.28264853705E+03  0.17748312984E+03  0.13213147187E+03  0.35895568356E+03  0.50400001928E-02 0.  1.
       -1    1    3    3    0  502 -0.28264853705E+03 -0.17748312984E+03  0.12004577046E+04  0.12459892285E+04  0.50400001928E-02 0. -1.
</event>
<event>
 5   0  0.5770125E-03  0.8448937E+03  0.7818609E-02  0.9497216E-01
       -4   -1    0    0    0  501  0.00000000000E+00  0.00000000000E+00  0.69187654783E+03  0.69187771343E+03  0.12699999809E+01 0. -1.
        4   -1    0    0  501    0  0.00000000000E+00  0.00000000000E+00 -0.25793516147E+03  0.25793828801E+03  0.12699999809E+01 0.  1.
    10030    2    1    2    0    0  0.00000000000E+00  0.00000000000E+00  0.43394138636E+03  0.94981600144E+03  0.84489366774E+03 0.  0.
        2    1    3    3  502    0 -0.90422218420E+02 -0.37201650435E+03  0.41772135883E+03  0.56662473536E+03  0.25500000920E-02 0. -1.
       -2    1    3    3    0  502  0.90422218420E+02  0.37201650435E+03  0.16220027528E+02  0.38319126607E+03  0.25500000920E-02 0.  1.
</event>
<event>
 5   0  0.1483326E-02  0.9040168E+03  0.7818609E-02  0.9420574E-01
        2   -1    0    0  501    0  0.00000000000E+00  0.00000000000E+00  0.14133652929E+04  0.14133652929E+04  0.25500000920E-02 0.  1.
       -2   -1    0    0    0  501  0.00000000000E+00  0.00000000000E+00 -0.14455682487E+03  0.14455682489E+03  0.25500000920E-02 0. -1.
    10030    2    1    2    0    0  0.00000000000E+00  0.00000000000E+00  0.12688084681E+04  0.15579221178E+04  0.90401681210E+03 0.  0.
        1    1    3    3  502    0  0.27688415663E+03  0.19210880136E+03  0.11528042488E+03  0.35617440129E+03  0.50400001928E-02 0. -1.
       -1    1    3    3    0  502 -0.27688415663E+03 -0.19210880136E+03  0.11535280432E+04  0.12017477165E+04  0.50400001928E-02 0.  1.
</event>
<event>
 5   0  0.8885324E-03  0.9153935E+03  0.7818609E-02  0.9406541E-01
       -1   -1    0    0    0  501  0.00000000000E+00  0.00000000000E+00  0.50658796260E+03  0.50658796262E+03  0.50400001928E-02 0.  1.
        1   -1    0    0  501    0  0.00000000000E+00  0.00000000000E+00 -0.41352407345E+03  0.41352407348E+03  0.50400001928E-02 0. -1.
    10030    2    1    2    0    0  0.00000000000E+00  0.00000000000E+00  0.93063889146E+02  0.92011203610E+03  0.91539350638E+03 0.  0.
        2    1    3    3  502    0 -0.70357823921E+02  0.34873856933E+03  0.33597024320E+03  0.48933098966E+03  0.25500000920E-02 0.  1.
       -2    1    3    3    0  502  0.70357823921E+02 -0.34873856933E+03 -0.24290635405E+03  0.43078104644E+03  0.25500000920E-02 0. -1.
</event>
<event>
 5   0  0.8885324E-03  0.8961359E+03  0.7818609E-02  0.9430425E-01
        1   -1    0    0  501    0  0.00000000000E+00  0.00000000000E+00  0.43968798055E+03  0.43968798058E+03  0.50400001928E-02 0. -1.
       -1   -1    0    0    0  501  0.00000000000E+00  0.00000000000E+00 -0.45660762903E+03  0.45660762905E+03  0.50400001928E-02 0.  1.
    10030    2    1    2    0    0  0.00000000000E+00  0.00000000000E+00 -0.16919648475E+02  0.89629560964E+03  0.89613589670E+03 0.  0.
        2    1    3    3  502    0 -0.29019986866E+03 -0.20347882117E+03  0.26571544758E+03  0.44297211371E+03  0.25500000920E-02 0. -1.
       -2    1    3    3    0  502  0.29019986866E+03  0.20347882117E+03 -0.28263509605E+03  0.45332349593E+03  0.25500000920E-02 0.  1.
</event>
<event>
 5   0  0.1535906E-02  0.9086525E+03  0.7818609E-02  0.9414830E-01
       -2   -1    0    0    0  501  0.00000000000E+00  0.00000000000E+00  0.30672688859E+03  0.30672688860E+03  0.25500000920E-02 0.  1.
        2   -1    0    0  501    0  0.00000000000E+00  0.00000000000E+00 -0.67295154380E+03  0.67295154380E+03  0.25500000920E-02 0. -1.
    10030    2    1    2    0    0  0.00000000000E+00  0.00000000000E+00 -0.36622465521E+03  0.97967843241E+03  0.90865248189E+03 0.  0.
        2    1    3    3  502    0 -0.19440770636E+03  0.45723376915E+02 -0.62308784955E+03  0.65431143331E+03  0.25500000920E-02 0. -1.
       -2    1    3    3    0  502  0.19440770636E+03 -0.45723376915E+02  0.25686319435E+03  0.32536699910E+03  0.25500000920E-02 0.  1.
</event>
<event>
 5   0  0.5770125E-03  0.9051636E+03  0.7818609E-02  0.9419150E-01
        3   -1    0    0  501    0  0.00000000000E+00  0.00000000000E+00  0.50879367109E+03  0.50879368111E+03  0.10100000352E+00 0. -1.
       -3   -1    0    0    0  501  0.00000000000E+00  0.00000000000E+00 -0.40258019501E+03  0.40258020767E+03  0.10100000352E+00 0.  1.
    10030    2    1    2    0    0  0.00000000000E+00  0.00000000000E+00  0.10621347608E+03  0.91137388879E+03  0.90516355575E+03 0.  0.
        4    1    3    3  502    0  0.13701551952E+03 -0.27380408360E+03 -0.28247676376E+03  0.41657732025E+03  0.12699999809E+01 0.  1.
       -4    1    3    3    0  502 -0.13701551952E+03  0.27380408360E+03  0.38869023984E+03  0.49479656853E+03  0.12699999809E+01 0. -1.
</event>
<event>
 5   0  0.8738044E-03  0.8898153E+03  0.7818609E-02  0.9438403E-01
       -1   -1    0    0    0  501  0.00000000000E+00  0.00000000000E+00  0.12669773923E+03  0.12669773933E+03  0.50400001928E-02 0. -1.
        1   -1    0    0  501    0  0.00000000000E+00  0.00000000000E+00 -0.15623231672E+04  0.15623231673E+04  0.50400001928E-02 0.  1.
    10030    2    1    2    0    0  0.00000000000E+00  0.00000000000E+00 -0.14356254280E+04  0.16890209066E+04  0.88981529167E+03 0.  0.
        3    1    3    3  502    0  0.40989367770E+03  0.91272065652E+02 -0.43884376610E+03  0.60739384112E+03  0.10100000352E+00 0. -1.
       -3    1    3    3    0  502 -0.40989367770E+03 -0.91272065652E+02 -0.99678166192E+03  0.10816270655E+04  0.10100000352E+00 0.  1.
</event>
<event>
 5   0  0.1441195E-02  0.9053364E+03  0.7818609E-02  0.9418935E-01
       -2   -1    0    0    0  501  0.00000000000E+00  0.00000000000E+00  0.98680566862E+03  0.98680566863E+03  0.25500000920E-02 0. -1.
        2   -1    0    0  501    0  0.00000000000E+00  0.00000000000E+00 -0.20764828345E+03  0.20764828346E+03  0.25500000920E-02 0.  1.
    10030    2    1    2    0    0  0.00000000000E+00  0.00000000000E+00  0.77915738518E+03  0.11944539521E+04  0.90533640862E+03 0.  0.
        5    1    3    3  502    0 -0.86179619774E+02 -0.41434357391E+03  0.60141067212E+03  0.73540764930E+03  0.46999998093E+01 0. -1.
       -5    1    3    3    0  502  0.86179619774E+02  0.41434357391E+03  0.17774671306E+03  0.45904630279E+03  0.46999998093E+01 0.  1.
</event>
<event>
 5   0  0.8738044E-03  0.8968394E+03  0.7818609E-02  0.9429541E-01
       -1   -1    0    0    0  501  0.00000000000E+00  0.00000000000E+00  0.18019798626E+03  0.18019798633E+03  0.50400001928E-02 0. -1.
        1   -1    0    0  501    0  0.00000000000E+00  0.00000000000E+00 -0.11158850112E+04  0.11158850113E+04  0.50400001928E-02 0.  1.
    10030    2    1    2    0    0  0.00000000000E+00  0.00000000000E+00 -0.93568702499E+03  0.12960829976E+04  0.89683941032E+03 0.  0.
        3    1    3    3  502    0  0.25468502755E+03  0.21942802829E+03 -0.38974197608E+02  0.33842594631E+03  0.10100000352E+00 0. -1.
       -3    1    3    3    0  502 -0.25468502755E+03 -0.21942802829E+03 -0.89671282738E+03  0.95765705127E+03  0.10100000352E+00 0.  1.
</event>
<event>
 5   0  0.1535906E-02  0.9094169E+03  0.7818609E-02  0.9413886E-01
        2   -1    0    0  501    0  0.00000000000E+00  0.00000000000E+00  0.11995514208E+04  0.11995514208E+04  0.25500000920E-02 0.  1.
       -2   -1    0    0    0  501  0.00000000000E+00  0.00000000000E+00 -0.17236424523E+03  0.17236424525E+03  0.25500000920E-02 0. -1.
    10030    2    1    2    0    0  0.00000000000E+00  0.00000000000E+00  0.10271871756E+04  0.13719156661E+04  0.90941690171E+03 0.  0.
        2    1    3    3  502    0  0.42080654634E+03 -0.50903002587E+02  0.76189145309E+03  0.87186458318E+03  0.25500000920E-02 0. -1.
       -2    1    3    3    0  502 -0.42080654634E+03  0.50903002587E+02  0.26529572251E+03  0.50005108290E+03  0.25500000920E-02 0.  1.
</event>
<event>
 5   0  0.1454652E-02  0.7727875E+03  0.7818609E-02  0.9600263E-01
       -2   -1    0    0    0  501  0.00000000000E+00  0.00000000000E+00  0.19995594926E+03  0.19995594928E+03  0.25500000920E-02 0.  1.
        2   -1    0    0  501    0  0.00000000000E+00  0.00000000000E+00 -0.74666504082E+03  0.74666504082E+03  0.25500000920E-02 0. -1.
    10030    2    1    2    0    0  0.00000000000E+00  0.00000000000E+00 -0.54670909156E+03  0.94662099010E+03  0.77278746632E+03 0.  0.
        4    1    3    3  502    0 -0.14689442929E+03  0.21351855228E+02  0.16363386405E+03  0.22093331447E+03  0.12699999809E+01 0.  1.
       -4    1    3    3    0  502  0.14689442929E+03 -0.21351855228E+02 -0.71034295561E+03  0.72568767563E+03  0.12699999809E+01 0. -1.
</event>
<event>
 5   0  0.8291252E-03  0.8267676E+03  0.7818609E-02  0.9522060E-01
       -1   -1    0    0    0  501  0.00000000000E+00  0.00000000000E+00  0.10141209407E+03  0.10141209420E+03  0.50400001928E-02 0.  1.
        1   -1    0    0  501    0  0.00000000000E+00  0.00000000000E+00 -0.16850669314E+04  0.16850669314E+04  0.50400001928E-02 0. -1.
    10030    2    1    2    0    0  0.00000000000E+00  0.00000000000E+00 -0.15836548373E+04  0.17864790256E+04  0.82676760043E+03 0.  0.
        1    1    3    3  502    0 -0.22780327658E+00  0.35259403460E+02 -0.16818116303E+04  0.16821812142E+04  0.50400001928E-02 0. -1.
       -1    1    3    3    0  502  0.22780327658E+00 -0.35259403460E+02  0.98156793006E+02  0.10429781141E+03  0.50400001928E-02 0.  1.
</event>
<event>
 5   0  0.1440615E-02  0.8632617E+03  0.7818609E-02  0.9472708E-01
       -2   -1    0    0    0  501  0.00000000000E+00  0.00000000000E+00  0.24278149813E+03  0.24278149814E+03  0.25500000920E-02 0. -1.
        2   -1    0    0  501    0  0.00000000000E+00  0.00000000000E+00 -0.76737809533E+03  0.76737809534E+03  0.25500000920E-02 0.  1.
    10030    2    1    2    0    0  0.00000000000E+00  0.00000000000E+00 -0.52459659720E+03  0.10101595935E+04  0.86326173001E+03 0.  0.
        3    1    3    3  502    0  0.20510141060E+03 -0.22732738651E+03 -0.61830748507E+03  0.68996266970E+03  0.10100000352E+00 0.  1.
       -3    1    3    3    0  502 -0.20510141060E+03  0.22732738651E+03  0.93710887867E+02  0.32019692378E+03  0.10100000352E+00 0. -1.
</event>
<event>
 5   0  0.1535906E-02  0.9252786E+03  0.7818609E-02  0.9394522E-01
        2   -1    0    0  501    0  0.00000000000E+00  0.00000000000E+00  0.35499855691E+03  0.35499855692E+03  0.25500000920E-02 0.  1.
       -2   -1    0    0    0  501  0.00000000000E+00  0.00000000000E+00 -0.60291825688E+03  0.60291825688E+03  0.25500000920E-02 0. -1.
    10030    2    1    2    0    0  0.00000000000E+00  0.00000000000E+00 -0.24791969997E+03  0.95791681380E+03  0.92527857672E+03 0.  0.
        2    1    3    3  502    0  0.30158395401E+02  0.86376855866E+02  0.34553959610E+03  0.35744664290E+03  0.25500000920E-02 0.  1.
       -2    1    3    3    0  502 -0.30158395401E+02 -0.86376855866E+02 -0.59345929607E+03  0.60047017090E+03  0.25500000920E-02 0. -1.
</event>
<event>
 5   0  0.8738044E-03  0.8968543E+03  0.7818609E-02  0.9429522E-01
       -1   -1    0    0    0  501  0.00000000000E+00  0.00000000000E+00  0.67746554357E+03  0.67746554358E+03  0.50400001928E-02 0.  1.
        1   -1    0    0  501    0  0.00000000000E+00  0.00000000000E+00 -0.29682235192E+03  0.29682235196E+03  0.50400001928E-02 0. -1.
    10030    2    1    2    0    0  0.00000000000E+00  0.00000000000E+00  0.38064319164E+03  0.97428789555E+03  0.89685431597E+03 0.  0.
        3    1    3    3  502    0  0.21850784495E+03  0.10052924283E+03 -0.22081878191E+03  0.32651608171E+03  0.10100000352E+00 0. -1.
       -3    1    3    3    0  502 -0.21850784495E+03 -0.10052924283E+03  0.60146197356E+03  0.64777181384E+03  0.10100000352E+00 0.  1.
</event>
<event>
 5   0  0.8738044E-03  0.1053085E+04  0.7818609E-02  0.9252165E-01
       -1   -1    0    0    0  501  0.00000000000E+00  0.00000000000E+00  0.17666392969E+04  0.17666392969E+04  0.50400001928E-02 0. -1.
        1   -1    0    0  501    0  0.00000000000E+00  0.00000000000E+00 -0.15693459829E+03  0.15693459837E+03  0.50400001928E-02 0.  1.
    10030    2    1    2    0    0  0.00000000000E+00  0.00000000000E+00  0.16097046986E+04  0.19235738952E+04  0.10530846660E+04 0.  0.
        3    1    3    3  502    0 -0.33739896746E+03  0.39475172632E+03  0.64582372345E+03  0.82870699324E+03  0.10100000352E+00 0.  1.
       -3    1    3    3    0  502  0.33739896746E+03 -0.39475172632E+03  0.96388097514E+03  0.10948669020E+04  0.10100000352E+00 0. -1.
</event>
<event>
 5   0  0.8612969E-03  0.9100075E+03  0.7818609E-02  0.9413157E-01
        1   -1    0    0  501    0  0.00000000000E+00  0.00000000000E+00  0.31663069910E+03  0.31663069914E+03  0.50400001928E-02 0.  1.
       -1   -1    0    0    0  501  0.00000000000E+00  0.00000000000E+00 -0.65384819521E+03  0.65384819523E+03  0.50400001928E-02 0. -1.
    10030    2    1    2    0    0  0.00000000000E+00  0.00000000000E+00 -0.33721749611E+03  0.97047889438E+03  0.91000749708E+03 0.  0.
        4    1    3    3  502    0 -0.93309203463E+02 -0.45506547752E+02  0.30382969825E+03  0.32107873143E+03  0.12699999809E+01 0.  1.
       -4    1    3    3    0  502  0.93309203463E+02  0.45506547752E+02 -0.64104719436E+03  0.64940016295E+03  0.12699999809E+01 0. -1.
</event>
<event>
 5   0  0.1440615E-02  0.8909721E+03  0.7818609E-02  0.9436938E-01
       -2   -1    0    0    0  501  0.00000000000E+00  0.00000000000E+00  0.19405062281E+03  0.19405062283E+03  0.25500000920E-02 0. -1.
        2   -1    0    0  501    0  0.00000000000E+00  0.00000000000E+00 -0.10227116881E+04  0.10227116881E+04  0.25500000920E-02 0.  1.
    10030    2    1    2    0    0  0.00000000000E+00  0.00000000000E+00 -0.82866106524E+03  0.12167623109E+04  0.89097214330E+03 0.  0.
        3    1    3    3  502    0 -0.39070332704E+02 -0.13337189490E+03  0.16368815537E+03  0.21472860931E+03  0.10100000352E+00 0. -1.
       -3    1    3    3    0  502  0.39070332704E+02  0.13337189490E+03 -0.99234922061E+03  0.10020337016E+04  0.10100000352E+00 0.  1.
</event>
<event>
 5   0  0.1535906E-02  0.8818043E+03  0.7818609E-02  0.9448617E-01
        2   -1    0    0  501    0  0.00000000000E+00  0.00000000000E+00  0.17838445452E+03  0.17838445454E+03  0.25500000920E-02 0.  1.
       -2   -1    0    0    0  501  0.00000000000E+00  0.00000000000E+00 -0.10897514337E+04  0.10897514337E+04  0.25500000920E-02 0. -1.
    10030    2    1    2    0    0  0.00000000000E+00  0.00000000000E+00 -0.91136697922E+03  0.12681358883E+04  0.88180432090E+03 0.  0.
        2    1    3    3  502    0  0.64655279927E+01 -0.63469415384E+02 -0.10830783710E+04  0.10849557261E+04  0.25500000920E-02 0. -1.
       -2    1    3    3    0  502 -0.64655279927E+01  0.63469415384E+02  0.17171139182E+03  0.18318016221E+03  0.25500000920E-02 0.  1.
</event>
<event>
 5   0  0.1454652E-02  0.7885770E+03  0.7818609E-02  0.9576700E-01
        2   -1    0    0  501    0  0.00000000000E+00  0.00000000000E+00  0.17267788635E+04  0.17267788635E+04  0.25500000920E-02 0.  1.
       -2   -1    0    0    0  501  0.00000000000E+00  0.00000000000E+00 -0.90030878504E+02  0.90030878541E+02  0.25500000920E-02 0. -1.
    10030    2    1    2    0    0  0.00000000000E+00  0.00000000000E+00  0.16367479850E+04  0.18168097420E+04  0.78857699205E+03 0.  0.
        4    1    3    3  502    0 -0.33204727104E+03  0.59259894892E+02  0.12888155401E+04  0.13322215412E+04  0.12699999809E+01 0.  1.
       -4    1    3    3    0  502  0.33204727104E+03 -0.59259894892E+02  0.34793244486E+03  0.48458820088E+03  0.12699999809E+01 0. -1.
</event>
<event>
 5   0  0.8885324E-03  0.8879615E+03  0.7818609E-02  0.9440757E-01
       -1   -1    0    0    0  501  0.00000000000E+00  0.00000000000E+00  0.13701669986E+03  0.13701669996E+03  0.50400001928E-02 0.  1.
        1   -1    0    0  501    0  0.00000000000E+00  0.00000000000E+00 -0.14386486907E+04  0.14386486908E+04  0.50400001928E-02 0. -1.
    10030    2    1    2    0    0  0.00000000000E+00  0.00000000000E+00 -0.13016319909E+04  0.15756653907E+04  0.88796147653E+03 0.  0.
        2    1    3    3  502    0 -0.35647359830E+03  0.53110320451E+02 -0.11108972224E+04  0.11678984422E+04  0.25500000920E-02 0. -1.
       -2    1    3    3    0  502  0.35647359830E+03 -0.53110320451E+02 -0.19073476847E+03  0.40776694855E+03  0.25500000920E-02 0.  1.
</event>
<event>
 5   0  0.8524692E-03  0.8252378E+03  0.7818609E-02  0.9524188E-01
        1   -1    0    0  501    0  0.00000000000E+00  0.00000000000E+00  0.83055090552E+03  0.83055090553E+03  0.50400001928E-02 0. -1.
       -1   -1    0    0    0  501  0.00000000000E+00  0.00000000000E+00 -0.20498966706E+03  0.20498966713E+03  0.50400001928E-02 0.  1.
    10030    2    1    2    0    0  0.00000000000E+00  0.00000000000E+00  0.62556123845E+03  0.10355405727E+04  0.82523779274E+03 0.  0.
        5    1    3    3  502    0  0.15604609118E+03 -0.12071553116E+03 -0.14193127918E+03  0.24308270207E+03  0.46999998093E+01 0.  1.
       -5    1    3    3    0  502 -0.15604609118E+03  0.12071553116E+03  0.76749251763E+03  0.79245787059E+03  0.46999998093E+01 0. -1.
</event>
<event>
 5   0  0.1440615E-02  0.9011095E+03  0.7818609E-02  0.9424196E-01
       -2   -1    0    0    0  501  0.00000000000E+00  0.00000000000E+00  0.35369746479E+03  0.35369746480E+03  0.25500000920E-02 0. -1.
        2   -1    0    0  501    0  0.00000000000E+00  0.00000000000E+00 -0.57393558632E+03  0.57393558633E+03  0.25500000920E-02 0.  1.
    10030    2    1    2    0    0  0.00000000000E+00  0.00000000000E+00 -0.22023812153E+03  0.92763305113E+03  0.90110945360E+03 0.  0.
        3    1    3    3  502    0 -0.39301695386E+03  0.13574691260E+03 -0.28874891979E+03  0.50622672705E+03  0.10100000352E+00 0. -1.
       -3    1    3    3    0  502  0.39301695386E+03 -0.13574691260E+03  0.68510798256E+02  0.42140632408E+03  0.10100000352E+00 0.  1.
</event>
<event>
 5   0  0.1535906E-02  0.8716839E+03  0.7818609E-02  0.9461687E-01
       -2   -1    0    0    0  501  0.00000000000E+00  0.00000000000E+00  0.17413434268E+03  0.17413434270E+03  0.25500000920E-02 0. -1.
        2   -1    0    0  501    0  0.00000000000E+00  0.00000000000E+00 -0.10908716172E+04  0.10908716172E+04  0.25500000920E-02 0.  1.
    10030    2    1    2    0    0  0.00000000000E+00  0.00000000000E+00 -0.91673727450E+03  0.12650059599E+04  0.87168391524E+03 0.  0.
        2    1    3    3  502    0 -0.69352496220E+02 -0.34322370556E+03 -0.83497635931E+03  0.90542686143E+03  0.25500000920E-02 0.  1.
       -2    1    3    3    0  502  0.69352496220E+02  0.34322370556E+03 -0.81760915198E+02  0.35957909846E+03  0.25500000920E-02 0. -1.
</event>
<event>
 5   0  0.8291252E-03  0.8938891E+03  0.7818609E-02  0.9433253E-01
       -1   -1    0    0    0  501  0.00000000000E+00  0.00000000000E+00  0.93877454037E+03  0.93877454039E+03  0.50400001928E-02 0. -1.
        1   -1    0    0  501    0  0.00000000000E+00  0.00000000000E+00 -0.21278743556E+03  0.21278743562E+03  0.50400001928E-02 0.  1.
    10030    2    1    2    0    0  0.00000000000E+00  0.00000000000E+00  0.72598710481E+03  0.11515619760E+04  0.89388909168E+03 0.  0.
        1    1    3    3  502    0  0.15370852937E+03  0.10890453577E+03  0.88513318999E+03  0.90495705642E+03  0.50400001928E-02 0. -1.
       -1    1    3    3    0  502 -0.15370852937E+03 -0.10890453577E+03 -0.15914608518E+03  0.24660491959E+03  0.50400001928E-02 0.  1.
</event>
<event>
 5   0  0.8738044E-03  0.8976337E+03  0.7818609E-02  0.9428544E-01
       -1   -1    0    0    0  501  0.00000000000E+00  0.00000000000E+00  0.16239087989E+03  0.16239087997E+03  0.50400001928E-02 0. -1.
        1   -1    0    0  501    0  0.00000000000E+00  0.00000000000E+00 -0.12404426032E+04  0.12404426032E+04  0.50400001928E-02 0.  1.
    10030    2    1    2    0    0  0.00000000000E+00  0.00000000000E+00 -0.10780517233E+04  0.14028334832E+04  0.89763370226E+03 0.  0.
        3    1    3    3  502    0  0.19391034355E+03  0.37719952875E+03 -0.30957507669E+03  0.52508803465E+03  0.10100000352E+00 0. -1.
       -3    1    3    3    0  502 -0.19391034355E+03 -0.37719952875E+03 -0.76847664665E+03  0.87774544857E+03  0.10100000352E+00 0.  1.
</event>
<event>
 5   0  0.8612969E-03  0.9121536E+03  0.7818609E-02  0.9410515E-01
       -1   -1    0    0    0  501  0.00000000000E+00  0.00000000000E+00  0.89134077003E+03  0.89134077004E+03  0.50400001928E-02 0. -1.
        1   -1    0    0  501    0  0.00000000000E+00  0.00000000000E+00 -0.23336311472E+03  0.23336311477E+03  0.50400001928E-02 0.  1.
    10030    2    1    2    0    0  0.00000000000E+00  0.00000000000E+00  0.65797765531E+03  0.11247038848E+04  0.91215362392E+03 0.  0.
        4    1    3    3  502    0  0.35513928538E+03 -0.24690248626E+03  0.15064918605E+03  0.45801914795E+03  0.12699999809E+01 0.  1.
       -4    1    3    3    0  502 -0.35513928538E+03  0.24690248626E+03  0.50732846926E+03  0.66668473686E+03  0.12699999809E+01 0. -1.
</event>
<event>
 5   0  0.5770125E-03  0.9020582E+03  0.7818609E-02  0.9423012E-01
       -3   -1    0    0    0  501  0.00000000000E+00  0.00000000000E+00  0.15275012117E+04  0.15275012151E+04  0.10100000352E+00 0. -1.
        3   -1    0    0  501    0  0.00000000000E+00  0.00000000000E+00 -0.13317646750E+03  0.13317650580E+03  0.10100000352E+00 0.  1.
    10030    2    1    2    0    0  0.00000000000E+00  0.00000000000E+00  0.13943247442E+04  0.16606777209E+04  0.90205820225E+03 0.  0.
        4    1    3    3  502    0 -0.86125264593E+02 -0.59083288323E+02  0.15049284557E+04  0.15085488609E+04  0.12699999809E+01 0. -1.
       -4    1    3    3    0  502  0.86125264593E+02  0.59083288323E+02 -0.11060371142E+03  0.15212885999E+03  0.12699999809E+01 0.  1.
</event>
<event>
 5   0  0.8291252E-03  0.8753287E+03  0.7818609E-02  0.9456958E-01
        1   -1    0    0  501    0  0.00000000000E+00  0.00000000000E+00  0.20434730167E+04  0.20434730167E+04  0.50400001928E-02 0. -1.
       -1   -1    0    0    0  501  0.00000000000E+00  0.00000000000E+00 -0.93737505703E+02  0.93737505839E+02  0.50400001928E-02 0.  1.
    10030    2    1    2    0    0  0.00000000000E+00  0.00000000000E+00  0.19497355110E+04  0.21372105225E+04  0.87532865532E+03 0.  0.
        1    1    3    3  502    0  0.15631953498E+03 -0.28584200195E+03  0.16884220124E+04  0.17195669045E+04  0.50400001928E-02 0. -1.
       -1    1    3    3    0  502 -0.15631953498E+03  0.28584200195E+03  0.26131349854E+03  0.41764361798E+03  0.50400001928E-02 0.  1.
</event>
<event>
 5   0  0.1440615E-02  0.9135635E+03  0.7818609E-02  0.9408783E-01
        2   -1    0    0  501    0  0.00000000000E+00  0.00000000000E+00  0.81869846583E+03  0.81869846583E+03  0.25500000920E-02 0. -1.
       -2   -1    0    0    0  501  0.00000000000E+00  0.00000000000E+00 -0.25485521672E+03  0.25485521673E+03  0.25500000920E-02 0.  1.
    10030    2    1    2    0    0  0.00000000000E+00  0.00000000000E+00  0.56384324911E+03  0.10735536826E+04  0.91356351711E+03 0.  0.
        3    1    3    3  502    0 -0.26756373168E+03 -0.31831193822E+03  0.50406961479E+03  0.65345162581E+03  0.10100000352E+00 0. -1.
       -3    1    3    3    0  502  0.26756373168E+03  0.31831193822E+03  0.59773634323E+02  0.42010205675E+03  0.10100000352E+00 0.  1.
</event>
<event>
 5   0  0.8885324E-03  0.8986819E+03  0.7818609E-02  0.9427231E-01
        1   -1    0    0  501    0  0.00000000000E+00  0.00000000000E+00  0.94009294709E+03  0.94009294710E+03  0.50400001928E-02 0. -1.
       -1   -1    0    0    0  501  0.00000000000E+00  0.00000000000E+00 -0.21477376956E+03  0.21477376962E+03  0.50400001928E-02 0.  1.
    10030    2    1    2    0    0  0.00000000000E+00  0.00000000000E+00  0.72531917753E+03  0.11548667167E+04  0.89868193712E+03 0.  0.
        2    1    3    3  502    0 -0.34962787962E+03  0.77258875576E+02  0.71152331799E+03  0.79653877502E+03  0.25500000920E-02 0. -1.
       -2    1    3    3    0  502  0.34962787962E+03 -0.77258875576E+02  0.13795859538E+02  0.35832794171E+03  0.25500000920E-02 0.  1.
</event>
<event>
 5   0  0.1483326E-02  0.8971482E+03  0.7818609E-02  0.9429153E-01
       -2   -1    0    0    0  501  0.00000000000E+00  0.00000000000E+00  0.21701182097E+03  0.21701182099E+03  0.25500000920E-02 0. -1.
        2   -1    0    0  501    0  0.00000000000E+00  0.00000000000E+00 -0.92722469064E+03  0.92722469064E+03  0.25500000920E-02 0.  1.
    10030    2    1    2    0    0  0.00000000000E+00  0.00000000000E+00 -0.71021286967E+03  0.11442365116E+04  0.89714818972E+03 0.  0.
        1    1    3    3  502    0 -0.29330084401E+03 -0.31521943347E+03 -0.19463687809E+03  0.47251686814E+03  0.50400001928E-02 0. -1.
       -1    1    3    3    0  502  0.29330084401E+03  0.31521943347E+03 -0.51557599158E+03  0.67171964349E+03  0.50400001928E-02 0.  1.
</event>
<event>
 5   0  0.8885324E-03  0.9399226E+03  0.7818609E-02  0.9377008E-01
       -1   -1    0    0    0  501  0.00000000000E+00  0.00000000000E+00  0.29823307798E+03  0.29823307802E+03  0.50400001928E-02 0. -1.
        1   -1    0    0  501    0  0.00000000000E+00  0.00000000000E+00 -0.74057381274E+03  0.74057381276E+03  0.50400001928E-02 0.  1.
    10030    2    1    2    0    0  0.00000000000E+00  0.00000000000E+00 -0.44234073476E+03  0.10388068908E+04  0.93992256633E+03 0.  0.
        2    1    3    3  502    0 -0.37968401175E+03 -0.13937027063E+03 -0.48568072489E+03  0.63203622337E+03  0.25500000920E-02 0.  1.
       -2    1    3    3    0  502  0.37968401175E+03  0.13937027063E+03  0.43339990128E+02  0.40677066741E+03  0.25500000920E-02 0. -1.
</event>
<event>
 5   0  0.8738044E-03  0.8914813E+03  0.7818609E-02  0.9436293E-01
        1   -1    0    0  501    0  0.00000000000E+00  0.00000000000E+00  0.17112608955E+04  0.17112608955E+04  0.50400001928E-02 0.  1.
       -1   -1    0    0    0  501  0.00000000000E+00  0.00000000000E+00 -0.11610429974E+03  0.11610429985E+03  0.50400001928E-02 0. -1.
    10030    2    1    2    0    0  0.00000000000E+00  0.00000000000E+00  0.15951565957E+04  0.18273651953E+04  0.89148134709E+03 0.  0.
        3    1    3    3  502    0  0.29722254194E+03  0.32444577506E+03  0.65150254189E+03  0.78616911201E+03  0.10100000352E+00 0. -1.
       -3    1    3    3    0  502 -0.29722254194E+03 -0.32444577506E+03  0.94365405385E+03  0.10411960833E+04  0.10100000352E+00 0.  1.
</event>
<event>
 5   0  0.1483326E-02  0.9037772E+03  0.7818609E-02  0.9420872E-01
       -2   -1    0    0    0  501  0.00000000000E+00  0.00000000000E+00  0.89217137671E+02  0.89217137707E+02  0.25500000920E-02 0. -1.
        2   -1    0    0  501    0  0.00000000000E+00  0.00000000000E+00 -0.22888347731E+04  0.22888347731E+04  0.25500000920E-02 0.  1.
    10030    2    1    2    0    0  0.00000000000E+00  0.00000000000E+00 -0.21996176354E+04  0.23780519108E+04  0.90377715639E+03 0.  0.
        1    1    3    3  502    0 -0.13831627315E+03  0.25149885669E+02  0.30212915524E+02  0.14379404875E+03  0.50400001928E-02 0. -1.
       -1    1    3    3    0  502  0.13831627315E+03 -0.25149885669E+02 -0.22298305509E+04  0.22342578620E+04  0.50400001928E-02 0.  1.
</event>
<event>
 5   0  0.8612969E-03  0.8887754E+03  0.7818609E-02  0.9439723E-01
       -1   -1    0    0    0  501  0.00000000000E+00  0.00000000000E+00  0.38286544461E+03  0.38286544464E+03  0.50400001928E-02 0. -1.
        1   -1    0    0  501    0  0.00000000000E+00  0.00000000000E+00 -0.51579587150E+03  0.51579587153E+03  0.50400001928E-02 0.  1.
    10030    2    1    2    0    0  0.00000000000E+00  0.00000000000E+00 -0.13293042690E+03  0.89866131617E+03  0.88877537251E+03 0.  0.
        4    1    3    3  502    0 -0.24853655113E+03  0.27767558394E+03  0.17831149730E+03  0.41312316582E+03  0.12699999809E+01 0. -1.
       -4    1    3    3    0  502  0.24853655113E+03 -0.27767558394E+03 -0.31124192419E+03  0.48553815035E+03  0.12699999809E+01 0.  1.
</event>
<event>
 5   0  0.1535906E-02  0.8959866E+03  0.7818609E-02  0.9430612E-01
       -2   -1    0    0    0  501  0.00000000000E+00  0.00000000000E+00  0.19823467007E+03  0.19823467009E+03  0.25500000920E-02 0.  1.
        2   -1    0    0  501    0  0.00000000000E+00  0.00000000000E+00 -0.10124263868E+04  0.10124263868E+04  0.25500000920E-02 0. -1.
    10030    2    1    2    0    0  0.00000000000E+00  0.00000000000E+00 -0.81419171676E+03  0.12106610569E+04  0.89598663110E+03 0.  0.
        2    1    3    3  502    0  0.29587792692E+03  0.32791933768E+03 -0.50841971055E+03  0.67347267334E+03  0.25500000920E-02 0. -1.
       -2    1    3    3    0  502 -0.29587792692E+03 -0.32791933768E+03 -0.30577200621E+03  0.53718838358E+03  0.25500000920E-02 0.  1.
</event>
<event>
 5   0  0.8738044E-03  0.9040378E+03  0.7818609E-02  0.9420548E-01
        1   -1    0    0  501    0  0.00000000000E+00  0.00000000000E+00  0.13538339602E+04  0.13538339602E+04  0.50400001928E-02 0. -1.
       -1   -1    0    0    0  501  0.00000000000E+00  0.00000000000E+00 -0.15092032862E+03  0.15092032870E+03  0.50400001928E-02 0.  1.
    10030    2    1    2    0    0  0.00000000000E+00  0.00000000000E+00  0.12029136315E+04  0.15047542889E+04  0.90403775637E+03 0.  0.
        3    1    3    3  502    0 -0.10889546689E+03 -0.26188248406E+03  0.11872985636E+04  0.12207041195E+04  0.10100000352E+00 0. -1.
       -3    1    3    3    0  502  0.10889546689E+03  0.26188248406E+03  0.15615067990E+02  0.28405016937E+03  0.10100000352E+00 0.  1.
</event>
<event>
 5   0  0.1440615E-02  0.9032052E+03  0.7818609E-02  0.9421584E-01
        2   -1    0    0  501    0  0.00000000000E+00  0.00000000000E+00  0.69409523318E+03  0.69409523318E+03  0.25500000920E-02 0.  1.
       -2   -1    0    0    0  501  0.00000000000E+00  0.00000000000E+00 -0.29382843904E+03  0.29382843905E+03  0.25500000920E-02 0. -1.
    10030    2    1    2    0    0  0.00000000000E+00  0.00000000000E+00  0.40026679414E+03  0.98792367223E+03  0.90320522345E+03 0.  0.
        3    1    3    3  502    0 -0.72230611707E+02 -0.25809408570E+03  0.59770299308E+03  0.65504098840E+03  0.10100000352E+00 0.  1.
       -3    1    3    3    0  502  0.72230611707E+02  0.25809408570E+03 -0.19743619894E+03  0.33288268383E+03  0.10100000352E+00 0. -1.
</event>
<event>
 5   0  0.8885324E-03  0.9006243E+03  0.7818609E-02  0.9424801E-01
       -1   -1    0    0    0  501  0.00000000000E+00  0.00000000000E+00  0.67500969668E+03  0.67500969670E+03  0.50400001928E-02 0. -1.
        1   -1    0    0  501    0  0.00000000000E+00  0.00000000000E+00 -0.30041203547E+03  0.30041203551E+03  0.50400001928E-02 0.  1.
    10030    2    1    2    0    0  0.00000000000E+00  0.00000000000E+00  0.37459766121E+03  0.97542173221E+03  0.90062431007E+03 0.  0.
        2    1    3    3  502    0 -0.13935883640E+03  0.10816495094E+03 -0.26142996757E+03  0.31538257695E+03  0.25500000920E-02 0.  1.
       -2    1    3    3    0  502  0.13935883640E+03 -0.10816495094E+03  0.63602762878E+03  0.66003915526E+03  0.25500000920E-02 0. -1.
</event>
<event>
 5   0  0.1535906E-02  0.9924182E+03  0.7818609E-02  0.9316900E-01
        2   -1    0    0  501    0  0.00000000000E+00  0.00000000000E+00  0.84205311734E+03  0.84205311734E+03  0.25500000920E-02 0. -1.
       -2   -1    0    0    0  501  0.00000000000E+00  0.00000000000E+00 -0.29240849246E+03  0.29240849248E+03  0.25500000920E-02 0.  1.
    10030    2    1    2    0    0  0.00000000000E+00  0.00000000000E+00  0.54964462487E+03  0.11344616098E+04  0.99241822358E+03 0.  0.
        2    1    3    3  502    0 -0.99383919243E+02  0.47106051675E+03  0.13741698208E+03  0.50065816763E+03  0.25500000920E-02 0.  1.
       -2    1    3    3    0  502  0.99383919243E+02 -0.47106051675E+03  0.41222764279E+03  0.63380344219E+03  0.25500000920E-02 0. -1.
</event>
<event>
 5   0  0.1483326E-02  0.9614051E+03  0.7818609E-02  0.9351918E-01
        2   -1    0    0  501    0  0.00000000000E+00  0.00000000000E+00  0.11751288006E+04  0.11751288007E+04  0.25500000920E-02 0. -1.
       -2   -1    0    0    0  501  0.00000000000E+00  0.00000000000E+00 -0.19663797064E+03  0.19663797066E+03  0.25500000920E-02 0.  1.
    10030    2    1    2    0    0  0.00000000000E+00  0.00000000000E+00  0.97849083001E+03  0.13717667713E+04  0.96140510216E+03 0.  0.
        1    1    3    3  502    0  0.44101040992E+03  0.18760400703E+03  0.54243207720E+03  0.72382180370E+03  0.50400001928E-02 0.  1.
       -1    1    3    3    0  502 -0.44101040992E+03 -0.18760400703E+03  0.43605875281E+03  0.64794496761E+03  0.50400001928E-02 0. -1.
</event>
<event>
 5   0  0.8291252E-03  0.8728023E+03  0.7818609E-02  0.9460233E-01
       -1   -1    0    0    0  501  0.00000000000E+00  0.00000000000E+00  0.18148231269E+03  0.18148231276E+03  0.50400001928E-02 0.  1.
        1   -1    0    0  501    0  0.00000000000E+00  0.00000000000E+00 -0.10493914089E+04  0.10493914089E+04  0.50400001928E-02 0. -1.
    10030    2    1    2    0    0  0.00000000000E+00  0.00000000000E+00 -0.86790909625E+03  0.12308737217E+04  0.87280233698E+03 0.  0.
        1    1    3    3  502    0 -0.15241551800E+03 -0.20201504645E+02  0.14202258471E+03  0.20930600925E+03  0.50400001928E-02 0.  1.
       -1    1    3    3    0  502  0.15241551800E+03  0.20201504645E+02 -0.10099316810E+04  0.10215677125E+04  0.50400001928E-02 0. -1.
</event>
<event>
 5   0  0.8885324E-03  0.8926790E+03  0.7818609E-02  0.9434780E-01
       -1   -1    0    0    0  501  0.00000000000E+00  0.00000000000E+00  0.59605304387E+03  0.59605304390E+03  0.50400001928E-02 0. -1.
        1   -1    0    0  501    0  0.00000000000E+00  0.00000000000E+00 -0.33423026471E+03  0.33423026475E+03  0.50400001928E-02 0.  1.
    10030    2    1    2    0    0  0.00000000000E+00  0.00000000000E+00  0.26182277916E+03  0.93028330865E+03  0.89267903900E+03 0.  0.
        2    1    3    3  502    0  0.43705975626E+03  0.48333118719E+02  0.21069793761E+03  0.48759711015E+03  0.25500000920E-02 0.  1.
       -2    1    3    3    0  502 -0.43705975626E+03 -0.48333118719E+02  0.51124841548E+02  0.44268619850E+03  0.25500000920E-02 0. -1.
</event>
<event>
 5   0  0.1535906E-02  0.8974630E+03  0.7818609E-02  0.9428758E-01
       -2   -1    0    0    0  501  0.00000000000E+00  0.00000000000E+00  0.32500961241E+03  0.32500961242E+03  0.25500000920E-02 0. -1.
        2   -1    0    0  501    0  0.00000000000E+00  0.00000000000E+00 -0.61955076497E+03  0.61955076498E+03  0.25500000920E-02 0.  1.
    10030    2    1    2    0    0  0.00000000000E+00  0.00000000000E+00 -0.29454115256E+03  0.94456037739E+03  0.89746298865E+03 0.  0.
        2    1    3    3  502    0  0.24363450228E+02 -0.28090824246E+03  0.22012870524E+03  0.35771450246E+03  0.25500000920E-02 0. -1.
       -2    1    3    3    0  502 -0.24363450228E+02  0.28090824246E+03 -0.51466985781E+03  0.58684587494E+03  0.25500000920E-02 0.  1.
</event>
<event>
 5   0  0.1454652E-02  0.8898721E+03  0.7818609E-02  0.9438331E-01
        2   -1    0    0  501    0  0.00000000000E+00  0.00000000000E+00  0.88453871353E+03  0.88453871354E+03  0.25500000920E-02 0. -1.
       -2   -1    0    0    0  501  0.00000000000E+00  0.00000000000E+00 -0.22380942806E+03  0.22380942808E+03  0.25500000920E-02 0.  1.
    10030    2    1    2    0    0  0.00000000000E+00  0.00000000000E+00  0.66072928547E+03  0.11083481416E+04  0.88987213370E+03 0.  0.
        4    1    3    3  502    0 -0.23741047219E+03 -0.58682263728E+02 -0.13258997163E+03  0.27818888162E+03  0.12699999809E+01 0.  1.
       -4    1    3    3    0  502  0.23741047219E+03  0.58682263728E+02  0.79331925710E+03  0.83015926000E+03  0.12699999809E+01 0. -1.
</event>
<event>
 5   0  0.1440615E-02  0.9043673E+03  0.7818609E-02  0.9420139E-01
       -2   -1    0    0    0  501  0.00000000000E+00  0.00000000000E+00  0.43635380322E+03  0.43635380323E+03  0.25500000920E-02 0. -1.
        2   -1    0    0  501    0  0.00000000000E+00  0.00000000000E+00 -0.46858774119E+03  0.46858774120E+03  0.25500000920E-02 0.  1.
    10030    2    1    2    0    0  0.00000000000E+00  0.00000000000E+00 -0.32233937972E+02  0.90494154443E+03  0.90436727720E+03 0.  0.
        3    1    3    3  502    0 -0.21166459370E+03 -0.10092452212E+03 -0.40299198024E+03  0.46625122598E+03  0.10100000352E+00 0.  1.
       -3    1    3    3    0  502  0.21166459370E+03  0.10092452212E+03  0.37075804226E+03  0.43869031845E+03  0.10100000352E+00 0. -1.
</event>
<event>
 5   0  0.1441195E-02  0.8950612E+03  0.7818609E-02  0.9431776E-01
        2   -1    0    0  501    0  0.00000000000E+00  0.00000000000E+00  0.11029765305E+04  0.11029765305E+04  0.25500000920E-02 0.  1.
       -2   -1    0    0    0  501  0.00000000000E+00  0.00000000000E+00 -0.18158469638E+03  0.18158469640E+03  0.25500000920E-02 0. -1.
    10030    2    1    2    0    0  0.00000000000E+00  0.00000000000E+00  0.92139183409E+03  0.12845612269E+04  0.89506124575E+03 0.  0.
        5    1    3    3  502    0  0.33418664219E+03 -0.90702687504E+02  0.53872934698E+02  0.35047406812E+03  0.46999998093E+01 0. -1.
       -5    1    3    3    0  502 -0.33418664219E+03  0.90702687504E+02  0.86751889939E+03  0.93408715875E+03  0.46999998093E+01 0.  1.
</event>
<event>
 5   0  0.8612969E-03  0.8913476E+03  0.7818609E-02  0.9436462E-01
       -1   -1    0    0    0  501  0.00000000000E+00  0.00000000000E+00  0.39278047432E+03  0.39278047435E+03  0.50400001928E-02 0. -1.
        1   -1    0    0  501    0  0.00000000000E+00  0.00000000000E+00 -0.50568988916E+03  0.50568988918E+03  0.50400001928E-02 0.  1.
    10030    2    1    2    0    0  0.00000000000E+00  0.00000000000E+00 -0.11290941484E+03  0.89847036353E+03  0.89134755185E+03 0.  0.
        4    1    3    3  502    0  0.74912900885E+02  0.43266164745E+03  0.20413832676E+02  0.43957522832E+03  0.12699999809E+01 0. -1.
       -4    1    3    3    0  502 -0.74912900885E+02 -0.43266164745E+03 -0.13332324752E+03  0.45889513521E+03  0.12699999809E+01 0.  1.
</event>
<event>
 5   0  0.8738044E-03  0.8983528E+03  0.7818609E-02  0.9427643E-01
       -1   -1    0    0    0  501  0.00000000000E+00  0.00000000000E+00  0.17598988308E+03  0.17598988315E+03  0.50400001928E-02 0.  1.
        1   -1    0    0  501    0  0.00000000000E+00  0.00000000000E+00 -0.11464262460E+04  0.11464262460E+04  0.50400001928E-02 0. -1.
    10030    2    1    2    0    0  0.00000000000E+00  0.00000000000E+00 -0.97043636295E+03  0.13224161292E+04  0.89835276156E+03 0.  0.
        3    1    3    3  502    0 -0.75837594124E+02 -0.42392477886E+03 -0.29730390910E+03  0.52330983497E+03  0.10100000352E+00 0.  1.
       -3    1    3    3    0  502  0.75837594124E+02  0.42392477886E+03 -0.67313245385E+03  0.79910629421E+03  0.10100000352E+00 0. -1.
</event>
<event>
 5   0  0.8291252E-03  0.8810655E+03  0.7818609E-02  0.9449565E-01
        1   -1    0    0  501    0  0.00000000000E+00  0.00000000000E+00  0.10164627504E+03  0.10164627516E+03  0.50400001928E-02 0. -1.
       -1   -1    0    0    0  501  0.00000000000E+00  0.00000000000E+00 -0.19092595156E+04  0.19092595156E+04  0.50400001928E-02 0.  1.
    10030    2    1    2    0    0  0.00000000000E+00  0.00000000000E+00 -0.18076132406E+04  0.20109057908E+04  0.88106553212E+03 0.  0.
        1    1    3    3  502    0 -0.38666790463E+03  0.11012275391E+03 -0.49279208704E+03  0.63598988237E+03  0.50400001928E-02 0. -1.
       -1    1    3    3    0  502  0.38666790463E+03 -0.11012275391E+03 -0.13148211535E+04  0.13749159084E+04  0.50400001928E-02 0.  1.
</event>
<event>
 5   0  0.1454652E-02  0.8590019E+03  0.7818609E-02  0.9478334E-01
        2   -1    0    0  501    0  0.00000000000E+00  0.00000000000E+00  0.36633335427E+03  0.36633335428E+03  0.25500000920E-02 0. -1.
       -2   -1    0    0    0  501  0.00000000000E+00  0.00000000000E+00 -0.50356067375E+03  0.50356067375E+03  0.25500000920E-02 0.  1.
    10030    2    1    2    0    0  0.00000000000E+00  0.00000000000E+00 -0.13722731947E+03  0.86989402804E+03  0.85900191083E+03 0.  0.
        4    1    3    3  502    0  0.20421047265E+03  0.95180097625E+02 -0.43891167665E+03  0.49336218027E+03  0.12699999809E+01 0.  1.
       -4    1    3    3    0  502 -0.20421047265E+03 -0.95180097625E+02  0.30168435717E+03  0.37653184777E+03  0.12699999809E+01 0. -1.
</event>
<event>
 5   0  0.1454652E-02  0.8946439E+03  0.7818609E-02  0.9432302E-01
        2   -1    0    0  501    0  0.00000000000E+00  0.00000000000E+00  0.62952341186E+03  0.62952341186E+03  0.25500000920E-02 0.  1.
       -2   -1    0    0    0  501  0.00000000000E+00  0.00000000000E+00 -0.31785462807E+03  0.31785462808E+03  0.25500000920E-02 0. -1.
    10030    2    1    2    0    0  0.00000000000E+00  0.00000000000E+00  0.31166878378E+03  0.94737803994E+03  0.89464390669E+03 0.  0.
        4    1    3    3  502    0 -0.52868609532E+02  0.35258629359E+03 -0.13024353891E+03  0.37957499474E+03  0.12699999809E+01 0. -1.
       -4    1    3    3    0  502  0.52868609532E+02 -0.35258629359E+03  0.44191232269E+03  0.56780304521E+03  0.12699999809E+01 0.  1.
</event>
<event>
 5   0  0.8524692E-03  0.9002297E+03  0.7818609E-02  0.9425294E-01
       -1   -1    0    0    0  501  0.00000000000E+00  0.00000000000E+00  0.23574250965E+03  0.23574250970E+03  0.50400001928E-02 0.  1.
        1   -1    0    0  501    0  0.00000000000E+00  0.00000000000E+00 -0.85942656040E+03  0.85942656041E+03  0.50400001928E-02 0. -1.
    10030    2    1    2    0    0  0.00000000000E+00  0.00000000000E+00 -0.62368405075E+03  0.10951690701E+04  0.90022969123E+03 0.  0.
        5    1    3    3  502    0  0.16720743869E+03 -0.10456199305E+03 -0.80403858648E+03  0.82788385447E+03  0.46999998093E+01 0. -1.
       -5    1    3    3    0  502 -0.16720743869E+03  0.10456199305E+03  0.18035453573E+03  0.26728521564E+03  0.46999998093E+01 0.  1.
</event>
<event>
 5   0  0.1535906E-02  0.8895555E+03  0.7818609E-02  0.9438733E-01
        2   -1    0    0  501    0  0.00000000000E+00  0.00000000000E+00  0.21643624404E+04  0.21643624404E+04  0.25500000920E-02 0. -1.
       -2   -1    0    0    0  501  0.00000000000E+00  0.00000000000E+00 -0.91402080416E+02  0.91402080452E+02  0.25500000920E-02 0.  1.
    10030    2    1    2    0    0  0.00000000000E+00  0.00000000000E+00  0.20729603600E+04  0.22557645209E+04  0.88955546173E+03 0.  0.
        2    1    3    3  502    0 -0.26694188138E+03  0.29683736747E+03  0.15337676583E+04  0.15848702219E+04  0.25500000920E-02 0. -1.
       -2    1    3    3    0  502  0.26694188138E+03 -0.29683736747E+03  0.53919270173E+03  0.67089429895E+03  0.25500000920E-02 0.  1.
</event>
<event>
 5   0  0.8885324E-03  0.8394471E+03  0.7818609E-02  0.9504611E-01
        1   -1    0    0  501    0  0.00000000000E+00  0.00000000000E+00  0.20016777853E+03  0.20016777860E+03  0.50400001928E-02 0. -1.
       -1   -1    0    0    0  501  0.00000000000E+00  0.00000000000E+00 -0.88010092694E+03  0.88010092696E+03  0.50400001928E-02 0.  1.
    10030    2    1    2    0    0  0.00000000000E+00  0.00000000000E+00 -0.67993314841E+03  0.10802687056E+04  0.83944707391E+03 0.  0.
        2    1    3    3  502    0 -0.73699978475E+01 -0.34685541995E+02  0.19823671345E+03  0.20138321246E+03  0.25500000920E-02 0. -1.
       -2    1    3    3    0  502  0.73699978475E+01  0.34685541995E+02 -0.87816986186E+03  0.87888549310E+03  0.25500000920E-02 0.  1.
</event>
<event>
 5   0  0.8738044E-03  0.9034925E+03  0.7818609E-02  0.9421226E-01
        1   -1    0    0  501    0  0.00000000000E+00  0.00000000000E+00  0.41752035089E+03  0.41752035092E+03  0.50400001928E-02 0.  1.
       -1   -1    0    0    0  501  0.00000000000E+00  0.00000000000E+00 -0.48877775058E+03  0.48877775061E+03  0.50400001928E-02 0. -1.
    10030    2    1    2    0    0  0.00000000000E+00  0.00000000000E+00 -0.71257399694E+02  0.90629810152E+03  0.90349246362E+03 0.  0.
        3    1    3    3  502    0  0.23938347773E+03  0.38309387416E+03 -0.32572613865E+02  0.45290876697E+03  0.10100000352E+00 0.  1.
       -3    1    3    3    0  502 -0.23938347773E+03 -0.38309387416E+03 -0.38684785829E+02  0.45338933455E+03  0.10100000352E+00 0. -1.
</event>
<event>
 5   0  0.1441195E-02  0.8974447E+03  0.7818609E-02  0.9428781E-01
       -2   -1    0    0    0  501  0.00000000000E+00  0.00000000000E+00  0.21778093614E+03  0.21778093616E+03  0.25500000920E-02 0. -1.
        2   -1    0    0  501    0  0.00000000000E+00  0.00000000000E+00 -0.92456094729E+03  0.92456094729E+03  0.25500000920E-02 0.  1.
    10030    2    1    2    0    0  0.00000000000E+00  0.00000000000E+00 -0.70678001115E+03  0.11423418835E+04  0.89744470277E+03 0.  0.
        5    1    3    3  502    0  0.25405048764E+03  0.31733800297E+03 -0.59518613857E+03  0.72077297948E+03  0.46999998093E+01 0. -1.
       -5    1    3    3    0  502 -0.25405048764E+03 -0.31733800297E+03 -0.11159387258E+03  0.42156890397E+03  0.46999998093E+01 0.  1.
</event>
<event>
 5   0  0.1483326E-02  0.8731081E+03  0.7818609E-02  0.9459836E-01
       -2   -1    0    0    0  501  0.00000000000E+00  0.00000000000E+00  0.19408628300E+03  0.19408628302E+03  0.25500000920E-02 0.  1.
        2   -1    0    0  501    0  0.00000000000E+00  0.00000000000E+00 -0.98193140683E+03  0.98193140683E+03  0.25500000920E-02 0. -1.
    10030    2    1    2    0    0  0.00000000000E+00  0.00000000000E+00 -0.78784512383E+03  0.11760176899E+04  0.87310805042E+03 0.  0.
        1    1    3    3  502    0 -0.16886292879E+03 -0.14321107807E+03  0.11284516877E+03  0.24851183823E+03  0.50400001928E-02 0.  1.
       -1    1    3    3    0  502  0.16886292879E+03  0.14321107807E+03 -0.90069029260E+03  0.92750585163E+03  0.50400001928E-02 0. -1.
</event>
<event>
 5   0  0.8612969E-03  0.8849945E+03  0.7818609E-02  0.9444536E-01
       -1   -1    0    0    0  501  0.00000000000E+00  0.00000000000E+00  0.40028893666E+03  0.40028893669E+03  0.50400001928E-02 0. -1.
        1   -1    0    0  501    0  0.00000000000E+00  0.00000000000E+00 -0.48915625250E+03  0.48915625252E+03  0.50400001928E-02 0.  1.
    10030    2    1    2    0    0  0.00000000000E+00  0.00000000000E+00 -0.88867315833E+02  0.88944518922E+03  0.88499454507E+03 0.  0.
        4    1    3    3  502    0  0.33019668188E+03  0.38985121438E+02 -0.33788239665E+03  0.47404199738E+03  0.12699999809E+01 0.  1.
       -4    1    3    3    0  502 -0.33019668188E+03 -0.38985121438E+02  0.24901508081E+03  0.41540319184E+03  0.12699999809E+01 0. -1.
</event>
<event>
 5   0  0.8612969E-03  0.8756053E+03  0.7818609E-02  0.9456600E-01
        1   -1    0    0  501    0  0.00000000000E+00  0.00000000000E+00  0.23927236238E+03  0.23927236244E+03  0.50400001928E-02 0. -1.
       -1   -1    0    0    0  501  0.00000000000E+00  0.00000000000E+00 -0.80105852323E+03  0.80105852324E+03  0.50400001928E-02 0.  1.
    10030    2    1    2    0    0  0.00000000000E+00  0.00000000000E+00 -0.56178616084E+03  0.10403308857E+04  0.87560531131E+03 0.  0.
        4    1    3    3  502    0 -0.14240391152E+03 -0.12469694466E+03  0.18814106067E+03  0.26688363313E+03  0.12699999809E+01 0. -1.
       -4    1    3    3    0  502  0.14240391152E+03  0.12469694466E+03 -0.74992722151E+03  0.77344725255E+03  0.12699999809E+01 0.  1.
</event>
<event>
 5   0  0.8738044E-03  0.7915320E+03  0.7818609E-02  0.9572356E-01
        1   -1    0    0  501    0  0.00000000000E+00  0.00000000000E+00  0.67191310143E+03  0.67191310145E+03  0.50400001928E-02 0.  1.
       -1   -1    0    0    0  501  0.00000000000E+00  0.00000000000E+00 -0.23311158249E+03  0.23311158254E+03  0.50400001928E-02 0. -1.
    10030    2    1    2    0    0  0.00000000000E+00  0.00000000000E+00  0.43880151895E+03  0.90502468399E+03  0.79153199911E+03 0.  0.
        3    1    3    3  502    0 -0.38427656821E+03 -0.79514370685E+02  0.27814553501E+03  0.48099476595E+03  0.10100000352E+00 0.  1.
       -3    1    3    3    0  502  0.38427656821E+03  0.79514370685E+02  0.16065598394E+03  0.42402991805E+03  0.10100000352E+00 0. -1.
</event>
<event>
 5   0  0.1454652E-02  0.9180266E+03  0.7818609E-02  0.9403324E-01
       -2   -1    0    0    0  501  0.00000000000E+00  0.00000000000E+00  0.97915246694E+02  0.97915246727E+02  0.25500000920E-02 0.  1.
        2   -1    0    0  501    0  0.00000000000E+00  0.00000000000E+00 -0.21517914223E+04  0.21517914223E+04  0.25500000920E-02 0. -1.
    10030    2    1    2    0    0  0.00000000000E+00  0.00000000000E+00 -0.20538761756E+04  0.22497066690E+04  0.91802655296E+03 0.  0.
        4    1    3    3  502    0 -0.15518987098E+03 -0.25828878357E+03 -0.18754744038E+04  0.18995270053E+04  0.12699999809E+01 0. -1.
       -4    1    3    3    0  502  0.15518987098E+03  0.25828878357E+03 -0.17840177177E+03  0.35017966366E+03  0.12699999809E+01 0.  1.
</event>
<event>
 5   0  0.8524692E-03  0.9070187E+03  0.7818609E-02  0.9416850E-01
        1   -1    0    0  501    0  0.00000000000E+00  0.00000000000E+00  0.21155569486E+03  0.21155569492E+03  0.50400001928E-02 0.  1.
       -1   -1    0    0    0  501  0.00000000000E+00  0.00000000000E+00 -0.97218248678E+03  0.97218248680E+03  0.50400001928E-02 0. -1.
    10030    2    1    2    0    0  0.00000000000E+00  0.00000000000E+00 -0.76062679192E+03  0.11837381817E+04  0.90701872432E+03 0.  0.
        5    1    3    3  502    0  0.40393511649E+03 -0.19791169440E+03 -0.45546684572E+03  0.64015994459E+03  0.46999998093E+01 0.  1.
       -5    1    3    3    0  502 -0.40393511649E+03  0.19791169440E+03 -0.30515994620E+03  0.54357823713E+03  0.46999998093E+01 0. -1.
</event>
<event>
 5   0  0.1440615E-02  0.9188114E+03  0.7818609E-02  0.9402367E-01
        2   -1    0    0  501    0  0.00000000000E+00  0.00000000000E+00  0.11756805868E+04  0.11756805868E+04  0.25500000920E-02 0. -1.
       -2   -1    0    0    0  501  0.00000000000E+00  0.00000000000E+00 -0.17951609657E+03  0.17951609659E+03  0.25500000920E-02 0.  1.
    10030    2    1    2    0    0  0.00000000000E+00  0.00000000000E+00  0.99616449018E+03  0.13551966833E+04  0.91881138382E+03 0.  0.
        3    1    3    3  502    0  0.20920281271E+03 -0.38430036769E+03  0.29158466457E+03  0.52580815538E+03  0.10100000352E+00 0.  1.
       -3    1    3    3    0  502 -0.20920281271E+03  0.38430036769E+03  0.70457982561E+03  0.82938852796E+03  0.10100000352E+00 0. -1.
</event>
<event>
 5   0  0.1440615E-02  0.8407299E+03  0.7818609E-02  0.9502864E-01
        2   -1    0    0  501    0  0.00000000000E+00  0.00000000000E+00  0.56535642567E+03  0.56535642568E+03  0.25500000920E-02 0. -1.
       -2   -1    0    0    0  501  0.00000000000E+00  0.00000000000E+00 -0.31255800275E+03  0.31255800276E+03  0.25500000920E-02 0.  1.
    10030    2    1    2    0    0  0.00000000000E+00  0.00000000000E+00  0.25279842292E+03  0.87791442844E+03  0.84072986210E+03 0.  0.
        3    1    3    3  502    0 -0.12543960310E+02 -0.40246194478E+03  0.33825935446E+00  0.40265753756E+03  0.10100000352E+00 0.  1.
       -3    1    3    3    0  502  0.12543960310E+02  0.40246194478E+03  0.25246016356E+03  0.47525689087E+03  0.10100000352E+00 0. -1.
</event>
<event>
 5   0  0.8524692E-03  0.9648889E+03  0.7818609E-02  0.9347915E-01
       -1   -1    0    0    0  501  0.00000000000E+00  0.00000000000E+00  0.53582969172E+03  0.53582969175E+03  0.50400001928E-02 0. -1.
        1   -1    0    0  501    0  0.00000000000E+00  0.00000000000E+00 -0.43437800637E+03  0.43437800640E+03  0.50400001928E-02 0.  1.
    10030    2    1    2    0    0  0.00000000000E+00  0.00000000000E+00  0.10145168535E+03  0.97020769814E+03  0.96488887084E+03 0.  0.
        5    1    3    3  502    0  0.16422949506E+03 -0.44255439330E+03  0.15079743880E+03  0.49556803329E+03  0.46999998093E+01 0.  1.
       -5    1    3    3    0  502 -0.16422949506E+03  0.44255439330E+03 -0.49345753442E+02  0.47463966486E+03  0.46999998093E+01 0. -1.
</event>
<event>
 5   0  0.5770125E-03  0.8923952E+03  0.7818609E-02  0.9435138E-01
        3   -1    0    0  501    0  0.00000000000E+00  0.00000000000E+00  0.68482118605E+03  0.68482119350E+03  0.10100000352E+00 0.  1.
       -3   -1    0    0    0  501  0.00000000000E+00  0.00000000000E+00 -0.29072158538E+03  0.29072160293E+03  0.10100000352E+00 0. -1.
    10030    2    1    2    0    0  0.00000000000E+00  0.00000000000E+00  0.39409960067E+03  0.97554279643E+03  0.89239523330E+03 0.  0.
        3    1    3    3  502    0 -0.14083037013E+03 -0.42336479208E+03  0.19199718878E+03  0.48573024512E+03  0.10100000352E+00 0.  1.
       -3    1    3    3    0  502  0.14083037013E+03  0.42336479208E+03  0.20210241189E+03  0.48981255131E+03  0.10100000352E+00 0. -1.
</event>
<event>
 5   0  0.8524692E-03  0.8978549E+03  0.7818609E-02  0.9428267E-01
       -1   -1    0    0    0  501  0.00000000000E+00  0.00000000000E+00  0.20822643877E+03  0.20822643883E+03  0.50400001928E-02 0.  1.
        1   -1    0    0  501    0  0.00000000000E+00  0.00000000000E+00 -0.96786866258E+03  0.96786866259E+03  0.50400001928E-02 0. -1.
    10030    2    1    2    0    0  0.00000000000E+00  0.00000000000E+00 -0.75964222381E+03  0.11760951014E+04  0.89785487658E+03 0.  0.
        5    1    3    3  502    0  0.26189337557E+01 -0.26337745716E+03  0.96338055464E+02  0.28049537372E+03  0.46999998093E+01 0.  1.
       -5    1    3    3    0  502 -0.26189337557E+01  0.26337745716E+03 -0.85598027927E+03  0.89559972770E+03  0.46999998093E+01 0. -1.
</event>
<event>
 5   0  0.1440615E-02  0.8940650E+03  0.7818609E-02  0.9433031E-01
        2   -1    0    0  501    0  0.00000000000E+00  0.00000000000E+00  0.66392907122E+03  0.66392907123E+03  0.25500000920E-02 0. -1.
       -2   -1    0    0    0  501  0.00000000000E+00  0.00000000000E+00 -0.30099309652E+03  0.30099309653E+03  0.25500000920E-02 0.  1.
    10030    2    1    2    0    0  0.00000000000E+00  0.00000000000E+00  0.36293597471E+03  0.96492216776E+03  0.89406502453E+03 0.  0.
        3    1    3    3  502    0  0.18695714469E+03 -0.12846811428E+03  0.59719894302E+03  0.63882988196E+03  0.10100000352E+00 0. -1.
       -3    1    3    3    0  502 -0.18695714469E+03  0.12846811428E+03 -0.23426296831E+03  0.32609228580E+03  0.10100000352E+00 0.  1.
</event>
<event>
 5   0  0.5770125E-03  0.8974839E+03  0.7818609E-02  0.9428732E-01
       -3   -1    0    0    0  501  0.00000000000E+00  0.00000000000E+00  0.34184186410E+03  0.34184187902E+03  0.10100000352E+00 0. -1.
        3   -1    0    0  501    0  0.00000000000E+00  0.00000000000E+00 -0.58907159719E+03  0.58907160585E+03  0.10100000352E+00 0.  1.
    10030    2    1    2    0    0  0.00000000000E+00  0.00000000000E+00 -0.24722973309E+03  0.93091348487E+03  0.89748391372E+03 0.  0.
        2    1    3    3  502    0  0.90182600320E+01 -0.24160510227E+03  0.26850743129E+03  0.36131785885E+03  0.25500000920E-02 0. -1.
       -2    1    3    3    0  502 -0.90182600320E+01  0.24160510227E+03 -0.51573716438E+03  0.56959562602E+03  0.25500000920E-02 0.  1.
</event>
<event>
 5   0  0.1535906E-02  0.8982409E+03  0.7818609E-02  0.9427783E-01
       -2   -1    0    0    0  501  0.00000000000E+00  0.00000000000E+00  0.24446683007E+03  0.24446683009E+03  0.25500000920E-02 0.  1.
        2   -1    0    0  501    0  0.00000000000E+00  0.00000000000E+00 -0.82509840764E+03  0.82509840765E+03  0.25500000920E-02 0. -1.
    10030    2    1    2    0    0  0.00000000000E+00  0.00000000000E+00 -0.58063157757E+03  0.10695652377E+04  0.89824093032E+03 0.  0.
        2    1    3    3  502    0 -0.24501792854E+03  0.37488890568E+03 -0.33040859396E+03  0.55654767620E+03  0.25500000920E-02 0. -1.
       -2    1    3    3    0  502  0.24501792854E+03 -0.37488890568E+03 -0.25022298361E+03  0.51301756154E+03  0.25500000920E-02 0.  1.
</event>
<event>
 5   0  0.1483326E-02  0.8952872E+03  0.7818609E-02  0.9431492E-01
       -2   -1    0    0    0  501  0.00000000000E+00  0.00000000000E+00  0.21845291588E+03  0.21845291590E+03  0.25500000920E-02 0.  1.
        2   -1    0    0  501    0  0.00000000000E+00  0.00000000000E+00 -0.91729055171E+03  0.91729055171E+03  0.25500000920E-02 0. -1.
    10030    2    1    2    0    0  0.00000000000E+00  0.00000000000E+00 -0.69883763583E+03  0.11357434676E+04  0.89528720698E+03 0.  0.
        1    1    3    3  502    0 -0.31265790931E+03  0.28121022703E+03 -0.54409785339E+03  0.68766026069E+03  0.50400001928E-02 0. -1.
       -1    1    3    3    0  502  0.31265790931E+03 -0.28121022703E+03 -0.15473978243E+03  0.44808320693E+03  0.50400001928E-02 0.  1.
</event>
<event>
 5   0  0.8291252E-03  0.9285356E+03  0.7818609E-02  0.9390597E-01
        1   -1    0    0  501    0  0.00000000000E+00  0.00000000000E+00  0.31967110481E+03  0.31967110485E+03  0.50400001928E-02 0. -1.
       -1   -1    0    0    0  501  0.00000000000E+00  0.00000000000E+00 -0.67426980574E+03  0.67426980576E+03  0.50400001928E-02 0.  1.
    10030    2    1    2    0    0  0.00000000000E+00  0.00000000000E+00 -0.35459870094E+03  0.99394091061E+03  0.92853556479E+03 0.  0.
        1    1    3    3  502    0 -0.17549154806E+03 -0.34235800800E+03 -0.45548648232E+03  0.59621659209E+03  0.50400001928E-02 0.  1.
       -1    1    3    3    0  502  0.17549154806E+03  0.34235800800E+03  0.10088778138E+03  0.39772431852E+03  0.50400001928E-02 0. -1.
</event>
<event>
 5   0  0.1454652E-02  0.8866838E+03  0.7818609E-02  0.9442382E-01
        2   -1    0    0  501    0  0.00000000000E+00  0.00000000000E+00  0.83581466046E+03  0.83581466047E+03  0.25500000920E-02 0. -1.
       -2   -1    0    0    0  501  0.00000000000E+00  0.00000000000E+00 -0.23516224827E+03  0.23516224828E+03  0.25500000920E-02 0.  1.
    10030    2    1    2    0    0  0.00000000000E+00  0.00000000000E+00  0.60065241220E+03  0.10709769087E+04  0.88668383248E+03 0.  0.
        4    1    3    3  502    0  0.35372218916E+03 -0.10452854184E+02  0.62289506827E+03  0.71639969866E+03  0.12699999809E+01 0. -1.
       -4    1    3    3    0  502 -0.35372218916E+03  0.10452854184E+02 -0.22242656066E+02  0.35457721009E+03  0.12699999809E+01 0.  1.
</event>
<event>
 5   0  0.1454652E-02  0.9158491E+03  0.7818609E-02  0.9405983E-01
       -2   -1    0    0    0  501  0.00000000000E+00  0.00000000000E+00  0.18437113297E+03  0.18437113299E+03  0.25500000920E-02 0. -1.
        2   -1    0    0  501    0  0.00000000000E+00  0.00000000000E+00 -0.11373521688E+04  0.11373521688E+04  0.25500000920E-02 0.  1.
    10030    2    1    2    0    0  0.00000000000E+00  0.00000000000E+00 -0.95298103586E+03  0.13217233018E+04  0.91584913161E+03 0.  0.
        4    1    3    3  502    0  0.11776655379E+03  0.27983822349E+02  0.16086218636E+03  0.20132141318E+03  0.12699999809E+01 0. -1.
       -4    1    3    3    0  502 -0.11776655379E+03 -0.27983822349E+02 -0.11138432222E+04  0.11204018886E+04  0.12699999809E+01 0.  1.
</event>
<event>
 5   0  0.1441195E-02  0.9020125E+03  0.7818609E-02  0.9423069E-01
       -2   -1    0    0    0  501  0.00000000000E+00  0.00000000000E+00  0.13524928835E+04  0.13524928835E+04  0.25500000920E-02 0.  1.
        2   -1    0    0  501    0  0.00000000000E+00  0.00000000000E+00 -0.15039385574E+03  0.15039385576E+03  0.25500000920E-02 0. -1.
    10030    2    1    2    0    0  0.00000000000E+00  0.00000000000E+00  0.12020990278E+04  0.15028867393E+04  0.90201246029E+03 0.  0.
        5    1    3    3  502    0 -0.12887938893E+03 -0.22284066147E+03  0.12180121280E+04  0.12449271028E+04  0.46999998093E+01 0.  1.
       -5    1    3    3    0  502  0.12887938893E+03  0.22284066147E+03 -0.15913100237E+02  0.25795963648E+03  0.46999998093E+01 0. -1.
</event>
<event>
 5   0  0.8612969E-03  0.9356443E+03  0.7818609E-02  0.9382089E-01
        1   -1    0    0  501    0  0.00000000000E+00  0.00000000000E+00  0.42311816180E+03  0.42311816183E+03  0.50400001928E-02 0. -1.
       -1   -1    0    0    0  501  0.00000000000E+00  0.00000000000E+00 -0.51724932223E+03  0.51724932226E+03  0.50400001928E-02 0.  1.
    10030    2    1    2    0    0  0.00000000000E+00  0.00000000000E+00 -0.94131160435E+02  0.94036748409E+03  0.93564433935E+03 0.  0.
        4    1    3    3  502    0  0.76578233680E+02  0.36363812985E+03 -0.33268150699E+03  0.49877401030E+03  0.12699999809E+01 0.  1.
       -4    1    3    3    0  502 -0.76578233680E+02 -0.36363812985E+03  0.23855034655E+03  0.44159347379E+03  0.12699999809E+01 0. -1.
</event>
<event>
 5   0  0.8885324E-03  0.8879065E+03  0.7818609E-02  0.9440826E-01
        1   -1    0    0  501    0  0.00000000000E+00  0.00000000000E+00  0.44310597975E+03  0.44310597977E+03  0.50400001928E-02 0. -1.
       -1   -1    0    0    0  501  0.00000000000E+00  0.00000000000E+00 -0.44480216661E+03  0.44480216664E+03  0.50400001928E-02 0.  1.
    10030    2    1    2    0    0  0.00000000000E+00  0.00000000000E+00 -0.16961868647E+01  0.88790814641E+03  0.88790652628E+03 0.  0.
        2    1    3    3  502    0  0.22169878182E+03  0.38026859490E+02  0.38190331749E+03  0.44322289632E+03  0.25500000920E-02 0. -1.
       -2    1    3    3    0  502 -0.22169878182E+03 -0.38026859490E+02 -0.38359950435E+03  0.44468525009E+03  0.25500000920E-02 0.  1.
</event>
<event>
 5   0  0.1440615E-02  0.9127326E+03  0.7818609E-02  0.9409804E-01
       -2   -1    0    0    0  501  0.00000000000E+00  0.00000000000E+00  0.19653753802E+03  0.19653753804E+03  0.25500000920E-02 0.  1.
        2   -1    0    0  501    0  0.00000000000E+00  0.00000000000E+00 -0.10596968580E+04  0.10596968580E+04  0.25500000920E-02 0. -1.
    10030    2    1    2    0    0  0.00000000000E+00  0.00000000000E+00 -0.86315931996E+03  0.12562343960E+04  0.91273262576E+03 0.  0.
        3    1    3    3  502    0  0.41487283862E+03 -0.12186871922E+03 -0.23071473528E+03  0.49010280169E+03  0.10100000352E+00 0.  1.
       -3    1    3    3    0  502 -0.41487283862E+03  0.12186871922E+03 -0.63244458468E+03  0.76613159433E+03  0.10100000352E+00 0. -1.
</event>
<event>
 5   0  0.1454652E-02  0.8995875E+03  0.7818609E-02  0.9426097E-01
        2   -1    0    0  501    0  0.00000000000E+00  0.00000000000E+00  0.59548167531E+03  0.59548167531E+03  0.25500000920E-02 0.  1.
       -2   -1    0    0    0  501  0.00000000000E+00  0.00000000000E+00 -0.33974921136E+03  0.33974921137E+03  0.25500000920E-02 0. -1.
    10030    2    1    2    0    0  0.00000000000E+00  0.00000000000E+00  0.25573246395E+03  0.93523088668E+03  0.89958752676E+03 0.  0.
        4    1    3    3  502    0 -0.32043096704E+03 -0.10431407098E+02 -0.20011428788E+03  0.37793142236E+03  0.12699999809E+01 0. -1.
       -4    1    3    3    0  502  0.32043096704E+03  0.10431407098E+02  0.45584675183E+03  0.55729946433E+03  0.12699999809E+01 0.  1.
</event>
<event>
 5   0  0.1454652E-02  0.9019026E+03  0.7818609E-02  0.9423206E-01
        2   -1    0    0  501    0  0.00000000000E+00  0.00000000000E+00  0.86305305993E+03  0.86305305993E+03  0.25500000920E-02 0.  1.
       -2   -1    0    0    0  501  0.00000000000E+00  0.00000000000E+00 -0.23562523608E+03  0.23562523609E+03  0.25500000920E-02 0. -1.
    10030    2    1    2    0    0  0.00000000000E+00  0.00000000000E+00  0.62742782385E+03  0.10986782960E+04  0.90190261338E+03 0.  0.
        4    1    3    3  502    0 -0.34596439074E+03 -0.24298571363E+03  0.12256447772E+03  0.44017846470E+03  0.12699999809E+01 0.  1.
       -4    1    3    3    0  502  0.34596439074E+03  0.24298571363E+03  0.50486334612E+03  0.65849983132E+03  0.12699999809E+01 0. -1.
</event>
<event>
 5   0  0.8738044E-03  0.8600627E+03  0.7818609E-02  0.9476930E-01
        1   -1    0    0  501    0  0.00000000000E+00  0.00000000000E+00  0.30896481277E+04  0.30896481277E+04  0.50400001928E-02 0.  1.
       -1   -1    0    0    0  501  0.00000000000E+00  0.00000000000E+00 -0.59853732260E+02  0.59853732472E+02  0.50400001928E-02 0. -1.
    10030    2    1    2    0    0  0.00000000000E+00  0.00000000000E+00  0.30297943954E+04  0.31495018601E+04  0.86006272364E+03 0.  0.
        3    1    3    3  502    0 -0.38021434422E+03  0.19735578995E+03  0.13771620022E+04  0.14422508263E+04  0.10100000352E+00 0.  1.
       -3    1    3    3    0  502  0.38021434422E+03 -0.19735578995E+03  0.16526323932E+04  0.17072510338E+04  0.10100000352E+00 0. -1.
</event>
<event>
 5   0  0.8291252E-03  0.8967120E+03  0.7818609E-02  0.9429701E-01
        1   -1    0    0  501    0  0.00000000000E+00  0.00000000000E+00  0.67088756941E+03  0.67088756943E+03  0.50400001928E-02 0. -1.
       -1   -1    0    0    0  501  0.00000000000E+00  0.00000000000E+00 -0.29963752870E+03  0.29963752874E+03  0.50400001928E-02 0.  1.
    10030    2    1    2    0    0  0.00000000000E+00  0.00000000000E+00  0.37125004071E+03  0.97052509817E+03  0.89671197910E+03 0.  0.
        1    1    3    3  502    0  0.23253471352E+03 -0.15267321949E+03  0.56619636724E+03  0.63084057514E+03  0.50400001928E-02 0. -1.
       -1    1    3    3    0  502 -0.23253471352E+03  0.15267321949E+03 -0.19494632652E+03  0.33968452304E+03  0.50400001928E-02 0.  1.
</event>
<event>
 5   0  0.8885324E-03  0.9113926E+03  0.7818609E-02  0.9411451E-01
        1   -1    0    0  501    0  0.00000000000E+00  0.00000000000E+00  0.12493328196E+04  0.12493328196E+04  0.50400001928E-02 0.  1.
       -1   -1    0    0    0  501  0.00000000000E+00  0.00000000000E+00 -0.16621601834E+03  0.16621601842E+03  0.50400001928E-02 0. -1.
    10030    2    1    2    0    0  0.00000000000E+00  0.00000000000E+00  0.10831168013E+04  0.14155488381E+04  0.91139261994E+03 0.  0.
        2    1    3    3  502    0 -0.32199532521E+03 -0.87643573644E+02  0.59582697252E+02  0.33898743823E+03  0.25500000920E-02 0. -1.
       -2    1    3    3    0  502  0.32199532521E+03  0.87643573644E+02  0.10235341040E+04  0.10765613998E+04  0.25500000920E-02 0.  1.
</event>
<event>
 5   0  0.1483326E-02  0.8848527E+03  0.7818609E-02  0.9444717E-01
        2   -1    0    0  501    0  0.00000000000E+00  0.00000000000E+00  0.62458619055E+03  0.62458619056E+03  0.25500000920E-02 0. -1.
       -2   -1    0    0    0  501  0.00000000000E+00  0.00000000000E+00 -0.31339318758E+03  0.31339318759E+03  0.25500000920E-02 0.  1.
    10030    2    1    2    0    0  0.00000000000E+00  0.00000000000E+00  0.31119300298E+03  0.93797937815E+03  0.88485265933E+03 0.  0.
        1    1    3    3  502    0  0.42879345470E+03 -0.98187388403E+02  0.20572718072E+03  0.48562152233E+03  0.50400001928E-02 0. -1.
       -1    1    3    3    0  502 -0.42879345470E+03  0.98187388403E+02  0.10546582225E+03  0.45235785582E+03  0.50400001928E-02 0.  1.
</event>
<event>
 5   0  0.1454652E-02  0.8866395E+03  0.7818609E-02  0.9442439E-01
       -2   -1    0    0    0  501  0.00000000000E+00  0.00000000000E+00  0.26776915180E+03  0.26776915181E+03  0.25500000920E-02 0.  1.
        2   -1    0    0  501    0  0.00000000000E+00  0.00000000000E+00 -0.73396203610E+03  0.73396203611E+03  0.25500000920E-02 0. -1.
    10030    2    1    2    0    0  0.00000000000E+00  0.00000000000E+00 -0.46619288430E+03  0.10017311879E+04  0.88663947999E+03 0.  0.
        4    1    3    3  502    0 -0.33360236661E+03 -0.20861438204E+03 -0.46386558386E+03  0.60826260134E+03  0.12699999809E+01 0. -1.
       -4    1    3    3    0  502  0.33360236661E+03  0.20861438204E+03 -0.23273004479E+01  0.39346858658E+03  0.12699999809E+01 0.  1.
</event>
<event>
 5   0  0.8524692E-03  0.9394852E+03  0.7818609E-02  0.9377526E-01
       -1   -1    0    0    0  501  0.00000000000E+00  0.00000000000E+00  0.10852861116E+04  0.10852861116E+04  0.50400001928E-02 0. -1.
        1   -1    0    0  501    0  0.00000000000E+00  0.00000000000E+00 -0.20331792771E+03  0.20331792777E+03  0.50400001928E-02 0.  1.
    10030    2    1    2    0    0  0.00000000000E+00  0.00000000000E+00  0.88196818389E+03  0.12886040394E+04  0.93948522762E+03 0.  0.
        5    1    3    3  502    0 -0.26447539302E+03 -0.60066873070E+02  0.96701041919E+03  0.10043338606E+04  0.46999998093E+01 0. -1.
       -5    1    3    3    0  502  0.26447539302E+03  0.60066873070E+02 -0.85042235298E+02  0.28427017877E+03  0.46999998093E+01 0.  1.
</event>
<event>
 5   0  0.1483326E-02  0.9125263E+03  0.7818609E-02  0.9410057E-01
       -2   -1    0    0    0  501  0.00000000000E+00  0.00000000000E+00  0.26570199961E+03  0.26570199962E+03  0.25500000920E-02 0.  1.
        2   -1    0    0  501    0  0.00000000000E+00  0.00000000000E+00 -0.78349450738E+03  0.78349450739E+03  0.25500000920E-02 0. -1.
    10030    2    1    2    0    0  0.00000000000E+00  0.00000000000E+00 -0.51779250777E+03  0.10491965070E+04  0.91252628960E+03 0.  0.
        1    1    3    3  502    0  0.31779089850E+03 -0.25840274169E+03 -0.27757838437E+02  0.41052835432E+03  0.50400001928E-02 0.  1.
       -1    1    3    3    0  502 -0.31779089850E+03  0.25840274169E+03 -0.49003466933E+03  0.63866815269E+03  0.50400001928E-02 0. -1.
</event>
<event>
 5   0  0.8291252E-03  0.9101230E+03  0.7818609E-02  0.9413015E-01
        1   -1    0    0  501    0  0.00000000000E+00  0.00000000000E+00  0.55560676426E+03  0.55560676429E+03  0.50400001928E-02 0. -1.
       -1   -1    0    0    0  501  0.00000000000E+00  0.00000000000E+00 -0.37271138367E+03  0.37271138371E+03  0.50400001928E-02 0.  1.
    10030    2    1    2    0    0  0.00000000000E+00  0.00000000000E+00  0.18289538059E+03  0.92831814799E+03  0.91012299370E+03 0.  0.
        1    1    3    3  502    0  0.40645449365E+03  0.12711002225E+03  0.25502448936E+03  0.49638664704E+03  0.50400001928E-02 0. -1.
       -1    1    3    3    0  502 -0.40645449365E+03 -0.12711002225E+03 -0.72129108770E+02  0.43193150095E+03  0.50400001928E-02 0.  1.
</event>
<event>
 5   0  0.8524692E-03  0.9060188E+03  0.7818609E-02  0.9418089E-01
        1   -1    0    0  501    0  0.00000000000E+00  0.00000000000E+00  0.36757420149E+03  0.36757420153E+03  0.50400001928E-02 0.  1.
       -1   -1    0    0    0  501  0.00000000000E+00  0.00000000000E+00 -0.55830233869E+03  0.55830233871E+03  0.50400001928E-02 0. -1.
    10030    2    1    2    0    0  0.00000000000E+00  0.00000000000E+00 -0.19072813720E+03  0.92587654024E+03  0.90601884387E+03 0.  0.
        5    1    3    3  502    0 -0.28716942049E+03  0.23000803571E+03 -0.36540077066E+03  0.51856512200E+03  0.46999998093E+01 0. -1.
       -5    1    3    3    0  502  0.28716942049E+03 -0.23000803571E+03  0.17467263346E+03  0.40731141824E+03  0.46999998093E+01 0.  1.
</event>
<event>
 5   0  0.8524692E-03  0.9028910E+03  0.7818609E-02  0.9421975E-01
       -1   -1    0    0    0  501  0.00000000000E+00  0.00000000000E+00  0.52558429032E+03  0.52558429034E+03  0.50400001928E-02 0. -1.
        1   -1    0    0  501    0  0.00000000000E+00  0.00000000000E+00 -0.38776467239E+03  0.38776467242E+03  0.50400001928E-02 0.  1.
    10030    2    1    2    0    0  0.00000000000E+00  0.00000000000E+00  0.13781961793E+03  0.91334896277E+03  0.90289095726E+03 0.  0.
        5    1    3    3  502    0  0.83472849008E+02  0.34815097579E+02  0.51630066957E+03  0.52418344016E+03  0.46999998093E+01 0. -1.
       -5    1    3    3    0  502 -0.83472849008E+02 -0.34815097579E+02 -0.37848105164E+03  0.38916552261E+03  0.46999998093E+01 0.  1.
</event>
<event>
 5   0  0.1441195E-02  0.9046874E+03  0.7818609E-02  0.9419741E-01
        2   -1    0    0  501    0  0.00000000000E+00  0.00000000000E+00  0.60129000155E+03  0.60129000155E+03  0.25500000920E-02 0.  1.
       -2   -1    0    0    0  501  0.00000000000E+00  0.00000000000E+00 -0.34029310908E+03  0.34029310909E+03  0.25500000920E-02 0. -1.
    10030    2    1    2    0    0  0.00000000000E+00  0.00000000000E+00  0.26099689246E+03  0.94158311064E+03  0.90468744679E+03 0.  0.
        5    1    3    3  502    0  0.12408081181E+03  0.75238403665E+02 -0.31538422615E+03  0.34719758833E+03  0.46999998093E+01 0. -1.
       -5    1    3    3    0  502 -0.12408081181E+03 -0.75238403665E+02  0.57638111861E+03  0.59438552231E+03  0.46999998093E+01 0.  1.
</event>
<event>
 5   0  0.1441195E-02  0.8602804E+03  0.7818609E-02  0.9476642E-01
        2   -1    0    0  501    0  0.00000000000E+00  0.00000000000E+00  0.15301768074E+04  0.15301768074E+04  0.25500000920E-02 0.  1.
       -2   -1    0    0    0  501  0.00000000000E+00  0.00000000000E+00 -0.12091450830E+03  0.12091450833E+03  0.25500000920E-02 0. -1.
    10030    2    1    2    0    0  0.00000000000E+00  0.00000000000E+00  0.14092622991E+04  0.16510913158E+04  0.86028036433E+03 0.  0.
        5    1    3    3  502    0 -0.90246812175E+02 -0.34273494513E+03  0.23692197804E+03  0.42634005606E+03  0.46999998093E+01 0. -1.
       -5    1    3    3    0  502  0.90246812175E+02  0.34273494513E+03  0.11723403211E+04  0.12247512597E+04  0.46999998093E+01 0.  1.
</event>
<event>
 5   0  0.1454652E-02  0.8947643E+03  0.7818609E-02  0.9432150E-01
       -2   -1    0    0    0  501  0.00000000000E+00  0.00000000000E+00  0.70302563325E+03  0.70302563326E+03  0.25500000920E-02 0.  1.
        2   -1    0    0  501    0  0.00000000000E+00  0.00000000000E+00 -0.28469915310E+03  0.28469915311E+03  0.25500000920E-02 0. -1.
    10030    2    1    2    0    0  0.00000000000E+00  0.00000000000E+00  0.41832648016E+03  0.98772478636E+03  0.89476433187E+03 0.  0.
        4    1    3    3  502    0  0.36548516533E+03  0.25627110848E+03  0.24218613341E+03  0.50784842545E+03  0.12699999809E+01 0.  1.
       -4    1    3    3    0  502 -0.36548516533E+03 -0.25627110848E+03  0.17614034674E+03  0.47987636091E+03  0.12699999809E+01 0. -1.
</event>
<event>
 5   0  0.8291252E-03  0.8910856E+03  0.7818609E-02  0.9436794E-01
       -1   -1    0    0    0  501  0.00000000000E+00  0.00000000000E+00  0.18851525771E+03  0.18851525778E+03  0.50400001928E-02 0. -1.
        1   -1    0    0  501    0  0.00000000000E+00  0.00000000000E+00 -0.10530096983E+04  0.10530096983E+04  0.50400001928E-02 0.  1.
    10030    2    1    2    0    0  0.00000000000E+00  0.00000000000E+00 -0.86449444057E+03  0.12415249561E+04  0.89108561809E+03 0.  0.
        1    1    3    3  502    0  0.37418457265E+03  0.75388257590E+01 -0.95439755322E+02  0.38623784800E+03  0.50400001928E-02 0. -1.
       -1    1    3    3    0  502 -0.37418457265E+03 -0.75388257590E+01 -0.76905468525E+03  0.85528710807E+03  0.50400001928E-02 0.  1.
</event>
<event>
 5   0  0.1441195E-02  0.8990293E+03  0.7818609E-02  0.9426796E-01
        2   -1    0    0  501    0  0.00000000000E+00  0.00000000000E+00  0.46677472282E+03  0.46677472283E+03  0.25500000920E-02 0.  1.
       -2   -1    0    0    0  501  0.00000000000E+00  0.00000000000E+00 -0.43289277180E+03  0.43289277181E+03  0.25500000920E-02 0. -1.
    10030    2    1    2    0    0  0.00000000000E+00  0.00000000000E+00  0.33881951024E+02  0.89966749464E+03  0.89902926221E+03 0.  0.
        5    1    3    3  502    0 -0.11190871904E+03  0.17940448151E+03  0.41387327100E+03  0.46478242633E+03  0.46999998093E+01 0.  1.
       -5    1    3    3    0  502  0.11190871904E+03 -0.17940448151E+03 -0.37999131997E+03  0.43488506831E+03  0.46999998093E+01 0. -1.
</event>
<event>
 5   0  0.8524692E-03  0.9323236E+03  0.7818609E-02  0.9386054E-01
        1   -1    0    0  501    0  0.00000000000E+00  0.00000000000E+00  0.37245847308E+03  0.37245847311E+03  0.50400001928E-02 0.  1.
       -1   -1    0    0    0  501  0.00000000000E+00  0.00000000000E+00 -0.58343904215E+03  0.58343904217E+03  0.50400001928E-02 0. -1.
    10030    2    1    2    0    0  0.00000000000E+00  0.00000000000E+00 -0.21098056907E+03  0.95589751528E+03  0.93232358073E+03 0.  0.
        5    1    3    3  502    0 -0.56369149459E+01 -0.23972495165E+03 -0.51532857211E+03  0.56840606478E+03  0.46999998093E+01 0. -1.
       -5    1    3    3    0  502  0.56369149459E+01  0.23972495165E+03  0.30434800304E+03  0.38749145049E+03  0.46999998093E+01 0.  1.
</event>
<event>
 5   0  0.1440615E-02  0.8937006E+03  0.7818609E-02  0.9433490E-01
       -2   -1    0    0    0  501  0.00000000000E+00  0.00000000000E+00  0.49562436919E+03  0.49562436919E+03  0.25500000920E-02 0.  1.
        2   -1    0    0  501    0  0.00000000000E+00  0.00000000000E+00 -0.40287602013E+03  0.40287602014E+03  0.25500000920E-02 0. -1.
    10030    2    1    2    0    0  0.00000000000E+00  0.00000000000E+00  0.92748349053E+02  0.89850038933E+03  0.89370056136E+03 0.  0.
        3    1    3    3  502    0  0.15247047835E+03  0.26627479727E+03 -0.28021760883E+03  0.41553752289E+03  0.10100000352E+00 0. -1.
       -3    1    3    3    0  502 -0.15247047835E+03 -0.26627479727E+03  0.37296595788E+03  0.48296286645E+03  0.10100000352E+00 0.  1.
</event>
<event>
 5   0  0.1441195E-02  0.8913011E+03  0.7818609E-02  0.9436521E-01
       -2   -1    0    0    0  501  0.00000000000E+00  0.00000000000E+00  0.80405005770E+03  0.80405005771E+03  0.25500000920E-02 0. -1.
        2   -1    0    0  501    0  0.00000000000E+00  0.00000000000E+00 -0.24700501562E+03  0.24700501563E+03  0.25500000920E-02 0.  1.
    10030    2    1    2    0    0  0.00000000000E+00  0.00000000000E+00  0.55704504208E+03  0.10510550733E+04  0.89130106490E+03 0.  0.
        5    1    3    3  502    0 -0.23586973953E+03 -0.12231278951E+02 -0.16709511114E+03  0.28935618945E+03  0.46999998093E+01 0.  1.
       -5    1    3    3    0  502  0.23586973953E+03  0.12231278951E+02  0.72414015322E+03  0.76169888389E+03  0.46999998093E+01 0. -1.
</event>
<event>
 5   0  0.8612969E-03  0.8875629E+03  0.7818609E-02  0.9441263E-01
       -1   -1    0    0    0  501  0.00000000000E+00  0.00000000000E+00  0.46833036046E+03  0.46833036048E+03  0.50400001928E-02 0.  1.
        1   -1    0    0  501    0  0.00000000000E+00  0.00000000000E+00 -0.42051935241E+03  0.42051935244E+03  0.50400001928E-02 0. -1.
    10030    2    1    2    0    0  0.00000000000E+00  0.00000000000E+00  0.47811008051E+02  0.88884971292E+03  0.88756291026E+03 0.  0.
        4    1    3    3  502    0 -0.37400402350E+03  0.18897177133E+03 -0.12242624938E+03  0.43655370734E+03  0.12699999809E+01 0.  1.
       -4    1    3    3    0  502  0.37400402350E+03 -0.18897177133E+03  0.17023725743E+03  0.45229600559E+03  0.12699999809E+01 0. -1.
</event>
<event>
 5   0  0.1440615E-02  0.8964534E+03  0.7818609E-02  0.9430026E-01
       -2   -1    0    0    0  501  0.00000000000E+00  0.00000000000E+00  0.12017763890E+03  0.12017763892E+03  0.25500000920E-02 0. -1.
        2   -1    0    0  501    0  0.00000000000E+00  0.00000000000E+00 -0.16717516399E+04  0.16717516399E+04  0.25500000920E-02 0.  1.
    10030    2    1    2    0    0  0.00000000000E+00  0.00000000000E+00 -0.15515740010E+04  0.17919292788E+04  0.89645337845E+03 0.  0.
        3    1    3    3  502    0  0.10730103460E+03  0.59271711378E+02  0.86020126708E+02  0.14975353150E+03  0.10100000352E+00 0. -1.
       -3    1    3    3    0  502 -0.10730103460E+03 -0.59271711378E+02 -0.16375941277E+04  0.16421757473E+04  0.10100000352E+00 0.  1.
</event>
<event>
 5   0  0.1535906E-02  0.8794822E+03  0.7818609E-02  0.9451599E-01
        2   -1    0    0  501    0  0.00000000000E+00  0.00000000000E+00  0.23210068494E+04  0.23210068494E+04  0.25500000920E-02 0. -1.
       -2   -1    0    0    0  501  0.00000000000E+00  0.00000000000E+00 -0.83313946002E+02  0.83313946041E+02  0.25500000920E-02 0.  1.
    10030    2    1    2    0    0  0.00000000000E+00  0.00000000000E+00  0.22376929034E+04  0.24043207954E+04  0.87948220987E+03 0.  0.
        2    1    3    3  502    0 -0.51906138024E+02  0.31011890699E+03  0.27843678954E+03  0.41999408259E+03  0.25500000920E-02 0.  1.
       -2    1    3    3    0  502  0.51906138024E+02 -0.31011890699E+03  0.19592561138E+04  0.19843267128E+04  0.25500000920E-02 0. -1.
</event>
<event>
 5   0  0.1454652E-02  0.9197546E+03  0.7818609E-02  0.9401219E-01
        2   -1    0    0  501    0  0.00000000000E+00  0.00000000000E+00  0.34735596835E+03  0.34735596836E+03  0.25500000920E-02 0. -1.
       -2   -1    0    0    0  501  0.00000000000E+00  0.00000000000E+00 -0.60884847407E+03  0.60884847407E+03  0.25500000920E-02 0.  1.
    10030    2    1    2    0    0  0.00000000000E+00  0.00000000000E+00 -0.26149250571E+03  0.95620444243E+03  0.91975464402E+03 0.  0.
        4    1    3    3  502    0  0.34110175132E+03 -0.24916024472E+03  0.58267232278E+02  0.42641284639E+03  0.12699999809E+01 0. -1.
       -4    1    3    3    0  502 -0.34110175132E+03  0.24916024472E+03 -0.31975973799E+03  0.52979159605E+03  0.12699999809E+01 0.  1.
</event>
<event>
 5   0  0.1441195E-02  0.8980847E+03  0.7818609E-02  0.9427979E-01
       -2   -1    0    0    0  501  0.00000000000E+00  0.00000000000E+00  0.11862794038E+03  0.11862794041E+03  0.25500000920E-02 0. -1.
        2   -1    0    0  501    0  0.00000000000E+00  0.00000000000E+00 -0.16997598840E+04  0.16997598840E+04  0.25500000920E-02 0.  1.
    10030    2    1    2    0    0  0.00000000000E+00  0.00000000000E+00 -0.15811319436E+04  0.18183878244E+04  0.89808466017E+03 0.  0.
        5    1    3    3  502    0  0.42338079234E+03 -0.55194595179E+02 -0.10719915993E+04  0.11539002633E+04  0.46999998093E+01 0. -1.
       -5    1    3    3    0  502 -0.42338079234E+03  0.55194595179E+02 -0.50914034426E+03  0.66448756106E+03  0.46999998093E+01 0.  1.
</event>
<event>
 5   0  0.1483326E-02  0.9140187E+03  0.7818609E-02  0.9408225E-01
        2   -1    0    0  501    0  0.00000000000E+00  0.00000000000E+00  0.48032182829E+03  0.48032182829E+03  0.25500000920E-02 0. -1.
       -2   -1    0    0    0  501  0.00000000000E+00  0.00000000000E+00 -0.43482837639E+03  0.43482837639E+03  0.25500000920E-02 0.  1.
    10030    2    1    2    0    0  0.00000000000E+00  0.00000000000E+00  0.45493451900E+02  0.91515020469E+03  0.91401873229E+03 0.  0.
        1    1    3    3  502    0  0.34534493798E+02  0.37088003783E+03 -0.24236951524E+03  0.44439578718E+03  0.50400001928E-02 0.  1.
       -1    1    3    3    0  502 -0.34534493798E+02 -0.37088003783E+03  0.28786296714E+03  0.47075441750E+03  0.50400001928E-02 0. -1.
</event>
<event>
 5   0  0.1483326E-02  0.9034798E+03  0.7818609E-02  0.9421242E-01
       -2   -1    0    0    0  501  0.00000000000E+00  0.00000000000E+00  0.12848988023E+03  0.12848988026E+03  0.25500000920E-02 0.  1.
        2   -1    0    0  501    0  0.00000000000E+00  0.00000000000E+00 -0.15882101129E+04  0.15882101129E+04  0.25500000920E-02 0. -1.
    10030    2    1    2    0    0  0.00000000000E+00  0.00000000000E+00 -0.14597202327E+04  0.17166999932E+04  0.90347977779E+03 0.  0.
        1    1    3    3  502    0 -0.69385658667E+02 -0.35813474349E+03 -0.22358453030E+03  0.42786084927E+03  0.50400001928E-02 0.  1.
       -1    1    3    3    0  502  0.69385658667E+02  0.35813474349E+03 -0.12361357024E+04  0.12888391439E+04  0.50400001928E-02 0. -1.
</event>
<event>
 5   0  0.8291252E-03  0.8911257E+03  0.7818609E-02  0.9436743E-01
        1   -1    0    0  501    0  0.00000000000E+00  0.00000000000E+00  0.52454457207E+03  0.52454457209E+03  0.50400001928E-02 0. -1.
       -1   -1    0    0    0  501  0.00000000000E+00  0.00000000000E+00 -0.37847354419E+03  0.37847354422E+03  0.50400001928E-02 0.  1.
    10030    2    1    2    0    0  0.00000000000E+00  0.00000000000E+00  0.14607102788E+03  0.90301811632E+03  0.89112567756E+03 0.  0.
        1    1    3    3  502    0 -0.58620153801E+02 -0.38617208213E+03  0.29028184317E+03  0.48665053986E+03  0.50400001928E-02 0.  1.
       -1    1    3    3    0  502  0.58620153801E+02  0.38617208213E+03 -0.14421081529E+03  0.41636757645E+03  0.50400001928E-02 0. -1.
</event>
<event>
 5   0  0.8885324E-03  0.7781911E+03  0.7818609E-02  0.9592132E-01
       -1   -1    0    0    0  501  0.00000000000E+00  0.00000000000E+00  0.68575684170E+03  0.68575684171E+03  0.50400001928E-02 0.  1.
        1   -1    0    0  501    0  0.00000000000E+00  0.00000000000E+00 -0.22077116916E+03  0.22077116921E+03  0.50400001928E-02 0. -1.
    10030    2    1    2    0    0  0.00000000000E+00  0.00000000000E+00  0.46498567254E+03  0.90652801093E+03  0.77819108125E+03 0.  0.
        2    1    3    3  502    0  0.24155648312E+03 -0.29197288330E+03  0.12962571500E+03  0.40050034346E+03  0.25500000920E-02 0.  1.
       -2    1    3    3    0  502 -0.24155648312E+03  0.29197288330E+03  0.33535995754E+03  0.50602766747E+03  0.25500000920E-02 0. -1.
</event>
<event>
 5   0  0.1483326E-02  0.9025220E+03  0.7818609E-02  0.9422434E-01
        2   -1    0    0  501    0  0.00000000000E+00  0.00000000000E+00  0.17377230004E+04  0.17377230004E+04  0.25500000920E-02 0. -1.
       -2   -1    0    0    0  501  0.00000000000E+00  0.00000000000E+00 -0.11718582658E+03  0.11718582660E+03  0.25500000920E-02 0.  1.
    10030    2    1    2    0    0  0.00000000000E+00  0.00000000000E+00  0.16205371738E+04  0.18549088270E+04  0.90252203559E+03 0.  0.
        1    1    3    3  502    0 -0.43401306264E+03  0.59861979150E+02  0.58809505162E+03  0.73335297426E+03  0.50400001928E-02 0.  1.
       -1    1    3    3    0  502  0.43401306264E+03 -0.59861979150E+02  0.10324421222E+04  0.11215558527E+04  0.50400001928E-02 0. -1.
</event>
<event>
 5   0  0.8738044E-03  0.9115881E+03  0.7818609E-02  0.9411211E-01
        1   -1    0    0  501    0  0.00000000000E+00  0.00000000000E+00  0.21590827874E+03  0.21590827880E+03  0.50400001928E-02 0. -1.
       -1   -1    0    0    0  501  0.00000000000E+00  0.00000000000E+00 -0.96220589024E+03  0.96220589026E+03  0.50400001928E-02 0.  1.
    10030    2    1    2    0    0  0.00000000000E+00  0.00000000000E+00 -0.74629761150E+03  0.11781141691E+04  0.91158810347E+03 0.  0.
        3    1    3    3  502    0  0.29745718803E+03  0.33085709270E+03 -0.50109406854E+03  0.67010631263E+03  0.10100000352E+00 0.  1.
       -3    1    3    3    0  502 -0.29745718803E+03 -0.33085709270E+03 -0.24520354296E+03  0.50800785642E+03  0.10100000352E+00 0. -1.
</event>
<event>
 5   0  0.1441195E-02  0.8902035E+03  0.7818609E-02  0.9437911E-01
        2   -1    0    0  501    0  0.00000000000E+00  0.00000000000E+00  0.12780198358E+04  0.12780198358E+04  0.25500000920E-02 0.  1.
       -2   -1    0    0    0  501  0.00000000000E+00  0.00000000000E+00 -0.15501759311E+03  0.15501759313E+03  0.25500000920E-02 0. -1.
    10030    2    1    2    0    0  0.00000000000E+00  0.00000000000E+00  0.11230022427E+04  0.14330374290E+04  0.89020347990E+03 0.  0.
        5    1    3    3  502    0 -0.26175177492E+03  0.35850189284E+03  0.50919247457E+03  0.67552695357E+03  0.46999998093E+01 0. -1.
       -5    1    3    3    0  502  0.26175177492E+03 -0.35850189284E+03  0.61380976814E+03  0.75751047538E+03  0.46999998093E+01 0.  1.
</event>
<event>
 5   0  0.8738044E-03  0.8892988E+03  0.7818609E-02  0.9439058E-01
        1   -1    0    0  501    0  0.00000000000E+00  0.00000000000E+00  0.57038571750E+03  0.57038571753E+03  0.50400001928E-02 0. -1.
       -1   -1    0    0    0  501  0.00000000000E+00  0.00000000000E+00 -0.34663052938E+03  0.34663052942E+03  0.50400001928E-02 0.  1.
    10030    2    1    2    0    0  0.00000000000E+00  0.00000000000E+00  0.22375518812E+03  0.91701624695E+03  0.88929883220E+03 0.  0.
        3    1    3    3  502    0  0.42643983331E+03  0.64890943433E+02  0.22318319145E+03  0.48566708054E+03  0.10100000352E+00 0. -1.
       -3    1    3    3    0  502 -0.42643983331E+03 -0.64890943433E+02  0.57199666514E+00  0.43134916640E+03  0.10100000352E+00 0.  1.
</event>
<event>
 5   0  0.1535906E-02  0.8975601E+03  0.7818609E-02  0.9428637E-01
       -2   -1    0    0    0  501  0.00000000000E+00  0.00000000000E+00  0.23219870166E+03  0.23219870167E+03  0.25500000920E-02 0. -1.
        2   -1    0    0  501    0  0.00000000000E+00  0.00000000000E+00 -0.86737583240E+03  0.86737583240E+03  0.25500000920E-02 0.  1.
    10030    2    1    2    0    0  0.00000000000E+00  0.00000000000E+00 -0.63517713074E+03  0.10995745341E+04  0.89756011976E+03 0.  0.
        2    1    3    3  502    0  0.25844048452E+03 -0.24252723733E+03 -0.65485608609E+03  0.74461227386E+03  0.25500000920E-02 0.  1.
       -2    1    3    3    0  502 -0.25844048452E+03  0.24252723733E+03  0.19678955356E+02  0.35496226021E+03  0.25500000920E-02 0. -1.
</event>
<event>
 5   0  0.8612969E-03  0.9374014E+03  0.7818609E-02  0.9379999E-01
       -1   -1    0    0    0  501  0.00000000000E+00  0.00000000000E+00  0.22806667976E+03  0.22806667982E+03  0.50400001928E-02 0. -1.
        1   -1    0    0  501    0  0.00000000000E+00  0.00000000000E+00 -0.96322861171E+03  0.96322861172E+03  0.50400001928E-02 0.  1.
    10030    2    1    2    0    0  0.00000000000E+00  0.00000000000E+00 -0.73516193195E+03  0.11912952915E+04  0.93740141106E+03 0.  0.
        4    1    3    3  502    0  0.34330098574E+03  0.76465388835E+02 -0.76129022999E+03  0.83861012973E+03  0.12699999809E+01 0.  1.
       -4    1    3    3    0  502 -0.34330098574E+03 -0.76465388835E+02  0.26128298043E+02  0.35268516181E+03  0.12699999809E+01 0. -1.
</event>
<event>
 5   0  0.8524692E-03  0.9039450E+03  0.7818609E-02  0.9420663E-01
        1   -1    0    0  501    0  0.00000000000E+00  0.00000000000E+00  0.12325701151E+04  0.12325701151E+04  0.50400001928E-02 0. -1.
       -1   -1    0    0    0  501  0.00000000000E+00  0.00000000000E+00 -0.16573428603E+03  0.16573428611E+03  0.50400001928E-02 0.  1.
    10030    2    1    2    0    0  0.00000000000E+00  0.00000000000E+00  0.10668358291E+04  0.13983044012E+04  0.90394497194E+03 0.  0.
        5    1    3    3  502    0 -0.15026527438E+03 -0.15602011790E+01 -0.12591879632E+03  0.19611149935E+03  0.46999998093E+01 0.  1.
       -5    1    3    3    0  502  0.15026527438E+03  0.15602011790E+01  0.11927546254E+04  0.12021929019E+04  0.46999998093E+01 0. -1.
</event>
<event>
 5   0  0.8291252E-03  0.9108036E+03  0.7818609E-02  0.9412176E-01
       -1   -1    0    0    0  501  0.00000000000E+00  0.00000000000E+00  0.29556924380E+03  0.29556924384E+03  0.50400001928E-02 0.  1.
        1   -1    0    0  501    0  0.00000000000E+00  0.00000000000E+00 -0.70166571961E+03  0.70166571963E+03  0.50400001928E-02 0. -1.
    10030    2    1    2    0    0  0.00000000000E+00  0.00000000000E+00 -0.40609647581E+03  0.99723496347E+03  0.91080361479E+03 0.  0.
        1    1    3    3  502    0  0.14378114488E+02  0.45483308081E+03 -0.22235521330E+03  0.50647971577E+03  0.50400001928E-02 0. -1.
       -1    1    3    3    0  502 -0.14378114488E+02 -0.45483308081E+03 -0.18374126252E+03  0.49075524771E+03  0.50400001928E-02 0.  1.
</event>
<event>
 5   0  0.8885324E-03  0.8939529E+03  0.7818609E-02  0.9433172E-01
       -1   -1    0    0    0  501  0.00000000000E+00  0.00000000000E+00  0.12896285218E+03  0.12896285228E+03  0.50400001928E-02 0. -1.
        1   -1    0    0  501    0  0.00000000000E+00  0.00000000000E+00 -0.15491899202E+04  0.15491899202E+04  0.50400001928E-02 0.  1.
    10030    2    1    2    0    0  0.00000000000E+00  0.00000000000E+00 -0.14202270680E+04  0.16781527724E+04  0.89395290874E+03 0.  0.
        2    1    3    3  502    0  0.40731659846E+03 -0.16194486214E+03 -0.87435752093E+03  0.97807669647E+03  0.25500000920E-02 0.  1.
       -2    1    3    3    0  502 -0.40731659846E+03  0.16194486214E+03 -0.54586954704E+03  0.70007607598E+03  0.25500000920E-02 0. -1.
</event>
<event>
 5   0  0.1440615E-02  0.9002470E+03  0.7818609E-02  0.9425273E-01
        2   -1    0    0  501    0  0.00000000000E+00  0.00000000000E+00  0.11712810612E+04  0.11712810613E+04  0.25500000920E-02 0. -1.
       -2   -1    0    0    0  501  0.00000000000E+00  0.00000000000E+00 -0.17298255005E+03  0.17298255006E+03  0.25500000920E-02 0.  1.
    10030    2    1    2    0    0  0.00000000000E+00  0.00000000000E+00  0.99829851120E+03  0.13442636113E+04  0.90024704345E+03 0.  0.
        3    1    3    3  502    0  0.21626509645E+03 -0.14304929001E+03  0.10485584928E+04  0.10801428676E+04  0.10100000352E+00 0. -1.
       -3    1    3    3    0  502 -0.21626509645E+03  0.14304929001E+03 -0.50259981629E+02  0.26412074373E+03  0.10100000352E+00 0.  1.
</event>
<event>
 5   0  0.1483326E-02  0.9007778E+03  0.7818609E-02  0.9424610E-01
        2   -1    0    0  501    0  0.00000000000E+00  0.00000000000E+00  0.13692157816E+04  0.13692157816E+04  0.25500000920E-02 0. -1.
       -2   -1    0    0    0  501  0.00000000000E+00  0.00000000000E+00 -0.14815062839E+03  0.14815062841E+03  0.25500000920E-02 0.  1.
    10030    2    1    2    0    0  0.00000000000E+00  0.00000000000E+00  0.12210651533E+04  0.15173664101E+04  0.90077783824E+03 0.  0.
        1    1    3    3  502    0  0.42111063081E+03  0.14920242750E+03  0.70663292565E+03  0.83601771476E+03  0.50400001928E-02 0. -1.
       -1    1    3    3    0  502 -0.42111063081E+03 -0.14920242750E+03  0.51443222761E+03  0.68134869529E+03  0.50400001928E-02 0.  1.
</event>
<event>
 5   0  0.8885324E-03  0.8865446E+03  0.7818609E-02  0.9442559E-01
       -1   -1    0    0    0  501  0.00000000000E+00  0.00000000000E+00  0.11289131842E+03  0.11289131854E+03  0.50400001928E-02 0.  1.
        1   -1    0    0  501    0  0.00000000000E+00  0.00000000000E+00 -0.17405263806E+04  0.17405263806E+04  0.50400001928E-02 0. -1.
    10030    2    1    2    0    0  0.00000000000E+00  0.00000000000E+00 -0.16276350622E+04  0.18534176992E+04  0.88654456847E+03 0.  0.
        2    1    3    3  502    0  0.17297258734E+03 -0.26379984904E+03 -0.16276682933E+03  0.35496889590E+03  0.25500000920E-02 0.  1.
       -2    1    3    3    0  502 -0.17297258734E+03  0.26379984904E+03 -0.14648682329E+04  0.14984488033E+04  0.25500000920E-02 0. -1.
</event>
<event>
 5   0  0.8612969E-03  0.8948825E+03  0.7818609E-02  0.9432001E-01
        1   -1    0    0  501    0  0.00000000000E+00  0.00000000000E+00  0.78851346971E+03  0.78851346973E+03  0.50400001928E-02 0.  1.
       -1   -1    0    0    0  501  0.00000000000E+00  0.00000000000E+00 -0.25390015546E+03  0.25390015551E+03  0.50400001928E-02 0. -1.
    10030    2    1    2    0    0  0.00000000000E+00  0.00000000000E+00  0.53461331426E+03  0.10424136252E+04  0.89488254553E+03 0.  0.
        4    1    3    3  502    0  0.17066716188E+02 -0.99137456523E+02 -0.24055472634E+03  0.26074450589E+03  0.12699999809E+01 0. -1.
       -4    1    3    3    0  502 -0.17066716188E+02  0.99137456523E+02  0.77516804059E+03  0.78166911935E+03  0.12699999809E+01 0.  1.
</event>
<event>
 5   0  0.8738044E-03  0.1146823E+04  0.7818609E-02  0.9160719E-01
       -1   -1    0    0    0  501  0.00000000000E+00  0.00000000000E+00  0.46094316666E+03  0.46094316669E+03  0.50400001928E-02 0.  1.
        1   -1    0    0  501    0  0.00000000000E+00  0.00000000000E+00 -0.71332196994E+03  0.71332196995E+03  0.50400001928E-02 0. -1.
    10030    2    1    2    0    0  0.00000000000E+00  0.00000000000E+00 -0.25237880327E+03  0.11742651366E+04  0.11468232430E+04 0.  0.
        3    1    3    3  502    0 -0.21040903432E+03  0.31466595312E+03  0.31483063657E+03  0.49234638589E+03  0.10100000352E+00 0.  1.
       -3    1    3    3    0  502  0.21040903432E+03 -0.31466595312E+03 -0.56720943984E+03  0.68191875075E+03  0.10100000352E+00 0. -1.
</event>
<event>
 5   0  0.8612969E-03  0.8827771E+03  0.7818609E-02  0.9447371E-01
        1   -1    0    0  501    0  0.00000000000E+00  0.00000000000E+00  0.52593838554E+03  0.52593838556E+03  0.50400001928E-02 0. -1.
       -1   -1    0    0    0  501  0.00000000000E+00  0.00000000000E+00 -0.37043090572E+03  0.37043090576E+03  0.50400001928E-02 0.  1.
    10030    2    1    2    0    0  0.00000000000E+00  0.00000000000E+00  0.15550747981E+03  0.89636929132E+03  0.88277705574E+03 0.  0.
        4    1    3    3  502    0 -0.21428475474E+03 -0.46864754205E-01  0.46957635244E+03  0.51616036460E+03  0.12699999809E+01 0. -1.
       -4    1    3    3    0  502  0.21428475474E+03  0.46864754205E-01 -0.31406887262E+03  0.38020892673E+03  0.12699999809E+01 0.  1.
</event>
<event>
 5   0  0.1535906E-02  0.9064205E+03  0.7818609E-02  0.9417591E-01
        2   -1    0    0  501    0  0.00000000000E+00  0.00000000000E+00  0.55261716454E+03  0.55261716455E+03  0.25500000920E-02 0.  1.
       -2   -1    0    0    0  501  0.00000000000E+00  0.00000000000E+00 -0.37168503060E+03  0.37168503061E+03  0.25500000920E-02 0. -1.
    10030    2    1    2    0    0  0.00000000000E+00  0.00000000000E+00  0.18093213394E+03  0.92430219515E+03  0.90642049341E+03 0.  0.
        2    1    3    3  502    0  0.20431763762E+03  0.18424664031E+03 -0.27678746919E+03  0.39026122612E+03  0.25500000920E-02 0. -1.
       -2    1    3    3    0  502 -0.20431763762E+03 -0.18424664031E+03  0.45771960313E+03  0.53404096903E+03  0.25500000920E-02 0.  1.
</event>
<event>
 5   0  0.1483326E-02  0.8781264E+03  0.7818609E-02  0.9453345E-01
       -2   -1    0    0    0  501  0.00000000000E+00  0.00000000000E+00  0.80441296673E+03  0.80441296673E+03  0.25500000920E-02 0.  1.
        2   -1    0    0  501    0  0.00000000000E+00  0.00000000000E+00 -0.23964867126E+03  0.23964867128E+03  0.25500000920E-02 0. -1.
    10030    2    1    2    0    0  0.00000000000E+00  0.00000000000E+00  0.56476429547E+03  0.10440616380E+04  0.87812641148E+03 0.  0.
        1    1    3    3  502    0  0.35406428020E+03 -0.19776257181E+03  0.48241452193E+03  0.63023433762E+03  0.50400001928E-02 0.  1.
       -1    1    3    3    0  502 -0.35406428020E+03  0.19776257181E+03  0.82349773534E+02  0.41382730039E+03  0.50400001928E-02 0. -1.
</event>
<event>
 5   0  0.5770125E-03  0.8808067E+03  0.7818609E-02  0.9449897E-01
        3   -1    0    0  501    0  0.00000000000E+00  0.00000000000E+00  0.51784029381E+03  0.51784030366E+03  0.10100000352E+00 0.  1.
       -3   -1    0    0    0  501  0.00000000000E+00  0.00000000000E+00 -0.37454618369E+03  0.37454619731E+03  0.10100000352E+00 0. -1.
    10030    2    1    2    0    0  0.00000000000E+00  0.00000000000E+00  0.14329411012E+03  0.89238650097E+03  0.88080671269E+03 0.  0.
        1    1    3    3  502    0  0.31081157479E+03 -0.21786391111E+03  0.29793651099E+03  0.48252946376E+03  0.50400001928E-02 0. -1.
       -1    1    3    3    0  502 -0.31081157479E+03  0.21786391111E+03 -0.15464240087E+03  0.40985703722E+03  0.50400001928E-02 0.  1.
</event>
<event>
 5   0  0.8291252E-03  0.9086525E+03  0.7818609E-02  0.9414830E-01
       -1   -1    0    0    0  501  0.00000000000E+00  0.00000000000E+00  0.40104008136E+03  0.40104008139E+03  0.50400001928E-02 0.  1.
        1   -1    0    0  501    0  0.00000000000E+00  0.00000000000E+00 -0.51469254918E+03  0.51469254920E+03  0.50400001928E-02 0. -1.
    10030    2    1    2    0    0  0.00000000000E+00  0.00000000000E+00 -0.11365246782E+03  0.91573263059E+03  0.90865250084E+03 0.  0.
        1    1    3    3  502    0 -0.22162918316E+03 -0.39621628415E+03 -0.39211393756E+02  0.45568012034E+03  0.50400001928E-02 0.  1.
       -1    1    3    3    0  502  0.22162918316E+03  0.39621628415E+03 -0.74441074064E+02  0.46005251025E+03  0.50400001928E-02 0. -1.
</event>
<event>
 5   0  0.1535906E-02  0.9148484E+03  0.7818609E-02  0.9407208E-01
        2   -1    0    0  501    0  0.00000000000E+00  0.00000000000E+00  0.32900755534E+03  0.32900755535E+03  0.25500000920E-02 0. -1.
       -2   -1    0    0    0  501  0.00000000000E+00  0.00000000000E+00 -0.63596375627E+03  0.63596375627E+03  0.25500000920E-02 0.  1.
    10030    2    1    2    0    0  0.00000000000E+00  0.00000000000E+00 -0.30695620093E+03  0.96497131162E+03  0.91484836064E+03 0.  0.
        2    1    3    3  502    0 -0.12598161328E+03  0.34139006336E+03 -0.44582449535E+03  0.57548068856E+03  0.25500000920E-02 0.  1.
       -2    1    3    3    0  502  0.12598161328E+03 -0.34139006336E+03  0.13886829442E+03  0.38949062306E+03  0.25500000920E-02 0. -1.
</event>
<event>
 5   0  0.8291252E-03  0.8914577E+03  0.7818609E-02  0.9436323E-01
       -1   -1    0    0    0  501  0.00000000000E+00  0.00000000000E+00  0.26897455633E+03  0.26897455638E+03  0.50400001928E-02 0.  1.
        1   -1    0    0  501    0  0.00000000000E+00  0.00000000000E+00 -0.73863561625E+03  0.73863561627E+03  0.50400001928E-02 0. -1.
    10030    2    1    2    0    0  0.00000000000E+00  0.00000000000E+00 -0.46966105992E+03  0.10076101726E+04  0.89145765397E+03 0.  0.
        1    1    3    3  502    0 -0.28445140036E+03  0.31811287971E+03 -0.89352363252E+02  0.43599569751E+03  0.50400001928E-02 0.  1.
       -1    1    3    3    0  502  0.28445140036E+03 -0.31811287971E+03 -0.38030869666E+03  0.57161447514E+03  0.50400001928E-02 0. -1.
</event>
<event>
 5   0  0.1483326E-02  0.9039086E+03  0.7818609E-02  0.9420709E-01
       -2   -1    0    0    0  501  0.00000000000E+00  0.00000000000E+00  0.20756368741E+03  0.20756368742E+03  0.25500000920E-02 0. -1.
        2   -1    0    0  501    0  0.00000000000E+00  0.00000000000E+00 -0.98409639123E+03  0.98409639123E+03  0.25500000920E-02 0.  1.
    10030    2    1    2    0    0  0.00000000000E+00  0.00000000000E+00 -0.77653270382E+03  0.11916600787E+04  0.90390857002E+03 0.  0.
        1    1    3    3  502    0 -0.21456255923E+03  0.30927942752E+03 -0.58491693818E+02  0.38093586649E+03  0.50400001928E-02 0. -1.
       -1    1    3    3    0  502  0.21456255923E+03 -0.30927942752E+03 -0.71804101000E+03  0.81072421216E+03  0.50400001928E-02 0.  1.
</event>
<event>
 5   0  0.8738044E-03  0.8826043E+03  0.7818609E-02  0.9447592E-01
       -1   -1    0    0    0  501  0.00000000000E+00  0.00000000000E+00  0.27238621837E+03  0.27238621842E+03  0.50400001928E-02 0. -1.
        1   -1    0    0  501    0  0.00000000000E+00  0.00000000000E+00 -0.71496852583E+03  0.71496852584E+03  0.50400001928E-02 0.  1.
    10030    2    1    2    0    0  0.00000000000E+00  0.00000000000E+00 -0.44258230745E+03  0.98735474426E+03  0.88260426701E+03 0.  0.
        3    1    3    3  502    0  0.29270406748E+03  0.23795259868E+03 -0.47749273990E+03  0.60851987412E+03  0.10100000352E+00 0.  1.
       -3    1    3    3    0  502 -0.29270406748E+03 -0.23795259868E+03  0.34910432447E+02  0.37883487014E+03  0.10100000352E+00 0. -1.
</event>
<event>
 5   0  0.1441195E-02  0.8346719E+03  0.7818609E-02  0.9511144E-01
       -2   -1    0    0    0  501  0.00000000000E+00  0.00000000000E+00  0.10575948357E+03  0.10575948360E+03  0.25500000920E-02 0. -1.
        2   -1    0    0  501    0  0.00000000000E+00  0.00000000000E+00 -0.16468431931E+04  0.16468431931E+04  0.25500000920E-02 0.  1.
    10030    2    1    2    0    0  0.00000000000E+00  0.00000000000E+00 -0.15410837096E+04  0.17526026767E+04  0.83467187722E+03 0.  0.
        5    1    3    3  502    0 -0.20664166282E+03 -0.27490962013E+03 -0.12668613984E+04  0.13127208267E+04  0.46999998093E+01 0.  1.
       -5    1    3    3    0  502  0.20664166282E+03  0.27490962013E+03 -0.27422231112E+03  0.43988185001E+03  0.46999998093E+01 0. -1.
</event>
<event>
 5   0  0.1483326E-02  0.8846123E+03  0.7818609E-02  0.9445024E-01
       -2   -1    0    0    0  501  0.00000000000E+00  0.00000000000E+00  0.11921551514E+03  0.11921551517E+03  0.25500000920E-02 0.  1.
        2   -1    0    0  501    0  0.00000000000E+00  0.00000000000E+00 -0.16410172821E+04  0.16410172821E+04  0.25500000920E-02 0. -1.
    10030    2    1    2    0    0  0.00000000000E+00  0.00000000000E+00 -0.15218017670E+04  0.17602327973E+04  0.88461227815E+03 0.  0.
        1    1    3    3  502    0  0.38796531439E+03 -0.46840793077E+01 -0.33834448012E+03  0.51479706004E+03  0.50400001928E-02 0.  1.
       -1    1    3    3    0  502 -0.38796531439E+03  0.46840793077E+01 -0.11834572869E+04  0.12454357373E+04  0.50400001928E-02 0. -1.
</event>
<event>
 5   0  0.8885324E-03  0.8875896E+03  0.7818609E-02  0.9441229E-01
        1   -1    0    0  501    0  0.00000000000E+00  0.00000000000E+00  0.93096865173E+03  0.93096865174E+03  0.50400001928E-02 0.  1.
       -1   -1    0    0    0  501  0.00000000000E+00  0.00000000000E+00 -0.21155795786E+03  0.21155795792E+03  0.50400001928E-02 0. -1.
    10030    2    1    2    0    0  0.00000000000E+00  0.00000000000E+00  0.71941069387E+03  0.11425266097E+04  0.88758960524E+03 0.  0.
        2    1    3    3  502    0 -0.11262686017E+03  0.32211759886E+03 -0.55335813489E+01  0.34128459921E+03  0.25500000920E-02 0. -1.
       -2    1    3    3    0  502  0.11262686017E+03 -0.32211759886E+03  0.72494427522E+03  0.80124201045E+03  0.25500000920E-02 0.  1.
</event>
<event>
 5   0  0.1535906E-02  0.8072237E+03  0.7818609E-02  0.9549620E-01
       -2   -1    0    0    0  501  0.00000000000E+00  0.00000000000E+00  0.43662738932E+03  0.43662738932E+03  0.25500000920E-02 0.  1.
        2   -1    0    0  501    0  0.00000000000E+00  0.00000000000E+00 -0.37309281544E+03  0.37309281545E+03  0.25500000920E-02 0. -1.
    10030    2    1    2    0    0  0.00000000000E+00  0.00000000000E+00  0.63534573877E+02  0.80972020477E+03  0.80722374094E+03 0.  0.
        2    1    3    3  502    0  0.37573870669E+03  0.65681047596E+02 -0.10058380898E+03  0.39447519359E+03  0.25500000920E-02 0. -1.
       -2    1    3    3    0  502 -0.37573870669E+03 -0.65681047596E+02  0.16411838286E+03  0.41524501119E+03  0.25500000920E-02 0.  1.
</event>
<event>
 5   0  0.1483326E-02  0.8894513E+03  0.7818609E-02  0.9438865E-01
        2   -1    0    0  501    0  0.00000000000E+00  0.00000000000E+00  0.96255668636E+03  0.96255668636E+03  0.25500000920E-02 0.  1.
       -2   -1    0    0    0  501  0.00000000000E+00  0.00000000000E+00 -0.20547453075E+03  0.20547453076E+03  0.25500000920E-02 0. -1.
    10030    2    1    2    0    0  0.00000000000E+00  0.00000000000E+00  0.75708215562E+03  0.11680312171E+04  0.88945125433E+03 0.  0.
        1    1    3    3  502    0 -0.48048369030E+01 -0.19749751397E+03 -0.14468890711E+03  0.24487391521E+03  0.50400001928E-02 0. -1.
       -1    1    3    3    0  502  0.48048369030E+01  0.19749751397E+03  0.90177106273E+03  0.92315730192E+03  0.50400001928E-02 0.  1.
</event>
<event>
 5   0  0.8885324E-03  0.8966871E+03  0.7818609E-02  0.9429732E-01
       -1   -1    0    0    0  501  0.00000000000E+00  0.00000000000E+00  0.27287034135E+03  0.27287034140E+03  0.50400001928E-02 0.  1.
        1   -1    0    0  501    0  0.00000000000E+00  0.00000000000E+00 -0.73665733685E+03  0.73665733686E+03  0.50400001928E-02 0. -1.
    10030    2    1    2    0    0  0.00000000000E+00  0.00000000000E+00 -0.46378699550E+03  0.10095276783E+04  0.89668710037E+03 0.  0.
        2    1    3    3  502    0 -0.41658140231E+03 -0.65800318482E+02 -0.60624183971E+02  0.42608102323E+03  0.25500000920E-02 0.  1.
       -2    1    3    3    0  502  0.41658140231E+03  0.65800318482E+02 -0.40316281153E+03  0.58344665503E+03  0.25500000920E-02 0. -1.
</event>
<event>
 5   0  0.8612969E-03  0.9036978E+03  0.7818609E-02  0.9420971E-01
       -1   -1    0    0    0  501  0.00000000000E+00  0.00000000000E+00  0.23333181217E+03  0.23333181222E+03  0.50400001928E-02 0.  1.
        1   -1    0    0  501    0  0.00000000000E+00  0.00000000000E+00 -0.87500890561E+03  0.87500890563E+03  0.50400001928E-02 0. -1.
    10030    2    1    2    0    0  0.00000000000E+00  0.00000000000E+00 -0.64167709344E+03  0.11083407178E+04  0.90369776729E+03 0.  0.
        4    1    3    3  502    0 -0.14259854740E+03 -0.11525776366E+03  0.18565305950E+03  0.26093556524E+03  0.12699999809E+01 0.  1.
       -4    1    3    3    0  502  0.14259854740E+03  0.11525776366E+03 -0.82733015294E+03  0.84740515261E+03  0.12699999809E+01 0. -1.
</event>
<event>
 5   0  0.1441195E-02  0.8997072E+03  0.7818609E-02  0.9425947E-01
        2   -1    0    0  501    0  0.00000000000E+00  0.00000000000E+00  0.52095121892E+03  0.52095121893E+03  0.25500000920E-02 0. -1.
       -2   -1    0    0    0  501  0.00000000000E+00  0.00000000000E+00 -0.38845915528E+03  0.38845915529E+03  0.25500000920E-02 0.  1.
    10030    2    1    2    0    0  0.00000000000E+00  0.00000000000E+00  0.13249206365E+03  0.90941037421E+03  0.89970722004E+03 0.  0.
        5    1    3    3  502    0 -0.53719035222E+00 -0.36220705657E+03 -0.20337394784E+03  0.41542423263E+03  0.46999998093E+01 0.  1.
       -5    1    3    3    0  502  0.53719035222E+00  0.36220705657E+03  0.33586601149E+03  0.49398614158E+03  0.46999998093E+01 0. -1.
</event>
<event>
 5   0  0.8738044E-03  0.8838613E+03  0.7818609E-02  0.9445983E-01
       -1   -1    0    0    0  501  0.00000000000E+00  0.00000000000E+00  0.17094322150E+03  0.17094322158E+03  0.50400001928E-02 0.  1.
        1   -1    0    0  501    0  0.00000000000E+00  0.00000000000E+00 -0.11425005276E+04  0.11425005276E+04  0.50400001928E-02 0. -1.
    10030    2    1    2    0    0  0.00000000000E+00  0.00000000000E+00 -0.97155730610E+03  0.13134437492E+04  0.88386134843E+03 0.  0.
        3    1    3    3  502    0 -0.41057873804E+03 -0.12767806725E+03 -0.63751468722E+03  0.76896136158E+03  0.10100000352E+00 0. -1.
       -3    1    3    3    0  502  0.41057873804E+03  0.12767806725E+03 -0.33404261889E+03  0.54448238761E+03  0.10100000352E+00 0.  1.
</event>
<event>
 5   0  0.8291252E-03  0.8638871E+03  0.7818609E-02  0.9471885E-01
        1   -1    0    0  501    0  0.00000000000E+00  0.00000000000E+00  0.20412914224E+04  0.20412914224E+04  0.50400001928E-02 0.  1.
       -1   -1    0    0    0  501  0.00000000000E+00  0.00000000000E+00 -0.91400591244E+02  0.91400591383E+02  0.50400001928E-02 0. -1.
    10030    2    1    2    0    0  0.00000000000E+00  0.00000000000E+00  0.19498908312E+04  0.21326920138E+04  0.86388712935E+03 0.  0.
        1    1    3    3  502    0 -0.33197184102E+03  0.26614933509E+03  0.79128768800E+03  0.89843028500E+03  0.50400001928E-02 0. -1.
       -1    1    3    3    0  502  0.33197184102E+03 -0.26614933509E+03  0.11586031432E+04  0.12342617288E+04  0.50400001928E-02 0.  1.
</event>
<event>
 5   0  0.1440615E-02  0.9693487E+03  0.7818609E-02  0.9342816E-01
       -2   -1    0    0    0  501  0.00000000000E+00  0.00000000000E+00  0.25032102495E+03  0.25032102497E+03  0.25500000920E-02 0. -1.
        2   -1    0    0  501    0  0.00000000000E+00  0.00000000000E+00 -0.93843189152E+03  0.93843189153E+03  0.25500000920E-02 0.  1.
    10030    2    1    2    0    0  0.00000000000E+00  0.00000000000E+00 -0.68811086657E+03  0.11887529165E+04  0.96934871526E+03 0.  0.
        3    1    3    3  502    0  0.97185643572E+02  0.15224393019E+03 -0.89561754532E+03  0.91364876254E+03  0.10100000352E+00 0.  1.
       -3    1    3    3    0  502 -0.97185643572E+02 -0.15224393019E+03  0.20750667875E+03  0.27510415396E+03  0.10100000352E+00 0. -1.
</event>
<event>
 5   0  0.1441195E-02  0.9030594E+03  0.7818609E-02  0.9421765E-01
        2   -1    0    0  501    0  0.00000000000E+00  0.00000000000E+00  0.14937054248E+04  0.14937054248E+04  0.25500000920E-02 0.  1.
       -2   -1    0    0    0  501  0.00000000000E+00  0.00000000000E+00 -0.13649214038E+03  0.13649214040E+03  0.25500000920E-02 0. -1.
    10030    2    1    2    0    0  0.00000000000E+00  0.00000000000E+00  0.13572132845E+04  0.16301975653E+04  0.90305935698E+03 0.  0.
        5    1    3    3  502    0  0.24188215851E+03  0.57863139082E+02  0.13588603660E+04  0.13814408079E+04  0.46999998093E+01 0.  1.
       -5    1    3    3    0  502 -0.24188215851E+03 -0.57863139082E+02 -0.16470814894E+01  0.24875675739E+03  0.46999998093E+01 0. -1.
</event>
<event>
 5   0  0.8524692E-03  0.8999092E+03  0.7818609E-02  0.9425695E-01
       -1   -1    0    0    0  501  0.00000000000E+00  0.00000000000E+00  0.49575708461E+03  0.49575708464E+03  0.50400001928E-02 0.  1.
        1   -1    0    0  501    0  0.00000000000E+00  0.00000000000E+00 -0.40838379716E+03  0.40838379719E+03  0.50400001928E-02 0. -1.
    10030    2    1    2    0    0  0.00000000000E+00  0.00000000000E+00  0.87373287457E+02  0.90414088183E+03  0.89990924144E+03 0.  0.
        5    1    3    3  502    0 -0.79888586731E+02 -0.81571905863E+02 -0.39356195277E+03  0.40981613290E+03  0.46999998093E+01 0. -1.
       -5    1    3    3    0  502  0.79888586731E+02  0.81571905863E+02  0.48093524023E+03  0.49432474893E+03  0.46999998093E+01 0.  1.
</event>
<event>
 5   0  0.8885324E-03  0.9116801E+03  0.7818609E-02  0.9411097E-01
        1   -1    0    0  501    0  0.00000000000E+00  0.00000000000E+00  0.46932097291E+03  0.46932097294E+03  0.50400001928E-02 0. -1.
       -1   -1    0    0    0  501  0.00000000000E+00  0.00000000000E+00 -0.44274635760E+03  0.44274635763E+03  0.50400001928E-02 0.  1.
    10030    2    1    2    0    0  0.00000000000E+00  0.00000000000E+00  0.26574615307E+02  0.91206733057E+03  0.91168010032E+03 0.  0.
        2    1    3    3  502    0  0.56870452053E+01 -0.20215928985E+03  0.42198185239E+03  0.46794166806E+03  0.25500000920E-02 0. -1.
       -2    1    3    3    0  502 -0.56870452053E+01  0.20215928985E+03 -0.39540723708E+03  0.44412566251E+03  0.25500000920E-02 0.  1.
</event>
<event>
 5   0  0.1454652E-02  0.9095870E+03  0.7818609E-02  0.9413676E-01
        2   -1    0    0  501    0  0.00000000000E+00  0.00000000000E+00  0.78679597521E+03  0.78679597522E+03  0.25500000920E-02 0. -1.
       -2   -1    0    0    0  501  0.00000000000E+00  0.00000000000E+00 -0.26288534518E+03  0.26288534519E+03  0.25500000920E-02 0.  1.
    10030    2    1    2    0    0  0.00000000000E+00  0.00000000000E+00  0.52391063003E+03  0.10496813204E+04  0.90958700857E+03 0.  0.
        4    1    3    3  502    0  0.33222708316E+03  0.17815993699E+03  0.55553874306E+03  0.67137225581E+03  0.12699999809E+01 0. -1.
       -4    1    3    3    0  502 -0.33222708316E+03 -0.17815993699E+03 -0.31628113024E+02  0.37830906461E+03  0.12699999809E+01 0.  1.
</event>
<event>
 5   0  0.1441195E-02  0.8747997E+03  0.7818609E-02  0.9457643E-01
        2   -1    0    0  501    0  0.00000000000E+00  0.00000000000E+00  0.12968573667E+04  0.12968573668E+04  0.25500000920E-02 0.  1.
       -2   -1    0    0    0  501  0.00000000000E+00  0.00000000000E+00 -0.14752479016E+03  0.14752479018E+03  0.25500000920E-02 0. -1.
    10030    2    1    2    0    0  0.00000000000E+00  0.00000000000E+00  0.11493325766E+04  0.14443821569E+04  0.87479965914E+03 0.  0.
        5    1    3    3  502    0  0.81835456340E+02  0.22777642456E+03  0.11761687492E+04  0.12008222841E+04  0.46999998093E+01 0.  1.
       -5    1    3    3    0  502 -0.81835456340E+02 -0.22777642456E+03 -0.26836172562E+02  0.24355987283E+03  0.46999998093E+01 0. -1.
</event>
<event>
 5   0  0.8291252E-03  0.8947531E+03  0.7818609E-02  0.9432164E-01
        1   -1    0    0  501    0  0.00000000000E+00  0.00000000000E+00  0.36443039787E+03  0.36443039791E+03  0.50400001928E-02 0. -1.
       -1   -1    0    0    0  501  0.00000000000E+00  0.00000000000E+00 -0.54920165631E+03  0.54920165634E+03  0.50400001928E-02 0.  1.
    10030    2    1    2    0    0  0.00000000000E+00  0.00000000000E+00 -0.18477125844E+03  0.91363205424E+03  0.89475310147E+03 0.  0.
        1    1    3    3  502    0 -0.39950965925E+03  0.18863055638E+03 -0.20499030168E+02  0.44227781416E+03  0.50400001928E-02 0. -1.
       -1    1    3    3    0  502  0.39950965925E+03 -0.18863055638E+03 -0.16427222827E+03  0.47135424008E+03  0.50400001928E-02 0.  1.
</event>
<event>
 5   0  0.1535906E-02  0.8973748E+03  0.7818609E-02  0.9428869E-01
       -2   -1    0    0    0  501  0.00000000000E+00  0.00000000000E+00  0.16240089877E+03  0.16240089879E+03  0.25500000920E-02 0. -1.
        2   -1    0    0  501    0  0.00000000000E+00  0.00000000000E+00 -0.12396505680E+04  0.12396505680E+04  0.25500000920E-02 0.  1.
    10030    2    1    2    0    0  0.00000000000E+00  0.00000000000E+00 -0.10772496692E+04  0.14020514668E+04  0.89737476323E+03 0.  0.
        2    1    3    3  502    0 -0.37881408541E+03  0.14500377508E+02 -0.16361814074E+03  0.41289377355E+03  0.25500000920E-02 0. -1.
       -2    1    3    3    0  502  0.37881408541E+03 -0.14500377508E+02 -0.91363152846E+03  0.98915769322E+03  0.25500000920E-02 0.  1.
</event>
<event>
 5   0  0.5770125E-03  0.8979278E+03  0.7818609E-02  0.9428176E-01
       -3   -1    0    0    0  501  0.00000000000E+00  0.00000000000E+00  0.10519592435E+04  0.10519592483E+04  0.10100000352E+00 0. -1.
        3   -1    0    0  501    0  0.00000000000E+00  0.00000000000E+00 -0.19161251329E+03  0.19161253991E+03  0.10100000352E+00 0.  1.
    10030    2    1    2    0    0  0.00000000000E+00  0.00000000000E+00  0.86034673017E+03  0.12435717882E+04  0.89792777902E+03 0.  0.
        5    1    3    3  502    0  0.14949368856E+03 -0.99119973733E+01 -0.15593388434E+03  0.21629627111E+03  0.46999998093E+01 0.  1.
       -5    1    3    3    0  502 -0.14949368856E+03  0.99119973733E+01  0.10162806145E+04  0.10272755171E+04  0.46999998093E+01 0. -1.
</event>
<event>
 5   0  0.8885324E-03  0.8773566E+03  0.7818609E-02  0.9454338E-01
       -1   -1    0    0    0  501  0.00000000000E+00  0.00000000000E+00  0.10105727124E+03  0.10105727136E+03  0.50400001928E-02 0. -1.
        1   -1    0    0  501    0  0.00000000000E+00  0.00000000000E+00 -0.19042533370E+04  0.19042533370E+04  0.50400001928E-02 0.  1.
    10030    2    1    2    0    0  0.00000000000E+00  0.00000000000E+00 -0.18031960657E+04  0.20053106083E+04  0.87735658909E+03 0.  0.
        2    1    3    3  502    0  0.12476592420E+03 -0.17448352847E+03 -0.26982886625E+02  0.21619230728E+03  0.25500000920E-02 0. -1.
       -2    1    3    3    0  502 -0.12476592420E+03  0.17448352847E+03 -0.17762131791E+04  0.17891183011E+04  0.25500000920E-02 0.  1.
</event>
<event>
 5   0  0.1483326E-02  0.8787583E+03  0.7818609E-02  0.9452531E-01
       -2   -1    0    0    0  501  0.00000000000E+00  0.00000000000E+00  0.13111372403E+03  0.13111372406E+03  0.25500000920E-02 0.  1.
        2   -1    0    0  501    0  0.00000000000E+00  0.00000000000E+00 -0.14724167388E+04  0.14724167388E+04  0.25500000920E-02 0. -1.
    10030    2    1    2    0    0  0.00000000000E+00  0.00000000000E+00 -0.13413030148E+04  0.16035304629E+04  0.87875831029E+03 0.  0.
        1    1    3    3  502    0  0.40837207721E+03  0.11366350707E+03 -0.88162264704E+03  0.97823598282E+03  0.50400001928E-02 0. -1.
       -1    1    3    3    0  502 -0.40837207721E+03 -0.11366350707E+03 -0.45968036777E+03  0.62529448008E+03  0.50400001928E-02 0.  1.
</event>
<event>
 5   0  0.8291252E-03  0.9171911E+03  0.7818609E-02  0.9404343E-01
        1   -1    0    0  501    0  0.00000000000E+00  0.00000000000E+00  0.36334408688E+03  0.36334408692E+03  0.50400001928E-02 0.  1.
       -1   -1    0    0    0  501  0.00000000000E+00  0.00000000000E+00 -0.57881733775E+03  0.57881733777E+03  0.50400001928E-02 0. -1.
    10030    2    1    2    0    0  0.00000000000E+00  0.00000000000E+00 -0.21547325087E+03  0.94216142468E+03  0.91719105334E+03 0.  0.
        1    1    3    3  502    0 -0.14344426252E+03  0.23739085719E+03 -0.48289058364E+03  0.55687879411E+03  0.50400001928E-02 0. -1.
       -1    1    3    3    0  502  0.14344426252E+03 -0.23739085719E+03  0.26741733278E+03  0.38528263058E+03  0.50400001928E-02 0.  1.
</event>
<event>
 5   0  0.8738044E-03  0.7663425E+03  0.7818609E-02  0.9610055E-01
       -1   -1    0    0    0  501  0.00000000000E+00  0.00000000000E+00  0.29272779595E+03  0.29272779599E+03  0.50400001928E-02 0.  1.
        1   -1    0    0  501    0  0.00000000000E+00  0.00000000000E+00 -0.50155877504E+03  0.50155877507E+03  0.50400001928E-02 0. -1.
    10030    2    1    2    0    0  0.00000000000E+00  0.00000000000E+00 -0.20883097909E+03  0.79428657106E+03  0.76634246857E+03 0.  0.
        3    1    3    3  502    0  0.29638393759E+03  0.19110641968E+03  0.50898885575E+02  0.35630858656E+03  0.10100000352E+00 0.  1.
       -3    1    3    3    0  502 -0.29638393759E+03 -0.19110641968E+03 -0.25972986467E+03  0.43797798450E+03  0.10100000352E+00 0. -1.
</event>
<event>
 5   0  0.1454652E-02  0.9185993E+03  0.7818609E-02  0.9402625E-01
        2   -1    0    0  501    0  0.00000000000E+00  0.00000000000E+00  0.14951724643E+04  0.14951724643E+04  0.25500000920E-02 0. -1.
       -2   -1    0    0    0  501  0.00000000000E+00  0.00000000000E+00 -0.14109153673E+03  0.14109153675E+03  0.25500000920E-02 0.  1.
    10030    2    1    2    0    0  0.00000000000E+00  0.00000000000E+00  0.13540809275E+04  0.16362640010E+04  0.91859932653E+03 0.  0.
        4    1    3    3  502    0 -0.11857902493E+01 -0.17518746520E+03  0.14333158472E+04  0.14439833742E+04  0.12699999809E+01 0. -1.
       -4    1    3    3    0  502  0.11857902493E+01  0.17518746520E+03 -0.79234919695E+02  0.19228062684E+03  0.12699999809E+01 0.  1.
</event>
<event>
 5   0  0.1483326E-02  0.9033149E+03  0.7818609E-02  0.9421447E-01
       -2   -1    0    0    0  501  0.00000000000E+00  0.00000000000E+00  0.78640922543E+02  0.78640922585E+02  0.25500000920E-02 0. -1.
        2   -1    0    0  501    0  0.00000000000E+00  0.00000000000E+00 -0.25939985341E+04  0.25939985341E+04  0.25500000920E-02 0.  1.
    10030    2    1    2    0    0  0.00000000000E+00  0.00000000000E+00 -0.25153576115E+04  0.26726394566E+04  0.90331486836E+03 0.  0.
        1    1    3    3  502    0  0.11268216524E+03  0.13627595843E+03 -0.28032771858E+02  0.17903698929E+03  0.50400001928E-02 0. -1.
       -1    1    3    3    0  502 -0.11268216524E+03 -0.13627595843E+03 -0.24873248396E+04  0.24936024673E+04  0.50400001928E-02 0.  1.
</event>
<event>
 5   0  0.5770125E-03  0.8659549E+03  0.7818609E-02  0.9469170E-01
        4   -1    0    0  501    0  0.00000000000E+00  0.00000000000E+00  0.27464892666E+03  0.27465186294E+03  0.12699999809E+01 0.  1.
       -4   -1    0    0    0  501  0.00000000000E+00  0.00000000000E+00 -0.68257137745E+03  0.68257255893E+03  0.12699999809E+01 0. -1.
    10030    2    1    2    0    0  0.00000000000E+00  0.00000000000E+00 -0.40792245079E+03  0.95722442187E+03  0.86595488795E+03 0.  0.
        2    1    3    3  502    0 -0.19087728877E+03 -0.26150439782E+03 -0.52175250384E+03  0.61403938368E+03  0.25500000920E-02 0. -1.
       -2    1    3    3    0  502  0.19087728877E+03  0.26150439782E+03  0.11383005305E+03  0.34318503818E+03  0.25500000920E-02 0.  1.
</event>
<event>
 5   0  0.8612969E-03  0.9114526E+03  0.7818609E-02  0.9411377E-01
        1   -1    0    0  501    0  0.00000000000E+00  0.00000000000E+00  0.70845680944E+03  0.70845680945E+03  0.50400001928E-02 0.  1.
       -1   -1    0    0    0  501  0.00000000000E+00  0.00000000000E+00 -0.29315328066E+03  0.29315328071E+03  0.50400001928E-02 0. -1.
    10030    2    1    2    0    0  0.00000000000E+00  0.00000000000E+00  0.41530352877E+03  0.10016100902E+04  0.91145255044E+03 0.  0.
        4    1    3    3  502    0  0.26233784478E+03  0.37104276539E+03  0.16972806045E+03  0.48508051492E+03  0.12699999809E+01 0. -1.
       -4    1    3    3    0  502 -0.26233784478E+03 -0.37104276539E+03  0.24557546832E+03  0.51652957524E+03  0.12699999809E+01 0.  1.
</event>
<event>
 5   0  0.8524692E-03  0.9147146E+03  0.7818609E-02  0.9407372E-01
        1   -1    0    0  501    0  0.00000000000E+00  0.00000000000E+00  0.31513593483E+03  0.31513593487E+03  0.50400001928E-02 0. -1.
       -1   -1    0    0    0  501  0.00000000000E+00  0.00000000000E+00 -0.66376346292E+03  0.66376346294E+03  0.50400001928E-02 0.  1.
    10030    2    1    2    0    0  0.00000000000E+00  0.00000000000E+00 -0.34862752809E+03  0.97889939782E+03  0.91471464277E+03 0.  0.
        5    1    3    3  502    0  0.27352585294E+03  0.35118104951E+03 -0.62027019830E+02  0.44945963439E+03  0.46999998093E+01 0. -1.
       -5    1    3    3    0  502 -0.27352585294E+03 -0.35118104951E+03 -0.28660050826E+03  0.52943976342E+03  0.46999998093E+01 0.  1.
</event>
<event>
 5   0  0.1535906E-02  0.9154239E+03  0.7818609E-02  0.9406504E-01
        2   -1    0    0  501    0  0.00000000000E+00  0.00000000000E+00  0.84411685564E+03  0.84411685564E+03  0.25500000920E-02 0. -1.
       -2   -1    0    0    0  501  0.00000000000E+00  0.00000000000E+00 -0.24818864160E+03  0.24818864161E+03  0.25500000920E-02 0.  1.
    10030    2    1    2    0    0  0.00000000000E+00  0.00000000000E+00  0.59592821404E+03  0.10923054973E+04  0.91542387069E+03 0.  0.
        2    1    3    3  502    0  0.37004229914E+03 -0.18623622298E+03  0.53021394953E+03  0.67286110467E+03  0.25500000920E-02 0. -1.
       -2    1    3    3    0  502 -0.37004229914E+03  0.18623622298E+03  0.65714264516E+02  0.41944439258E+03  0.25500000920E-02 0.  1.
</event>
<event>
 5   0  0.8612969E-03  0.8945407E+03  0.7818609E-02  0.9432432E-01
       -1   -1    0    0    0  501  0.00000000000E+00  0.00000000000E+00  0.36636862940E+03  0.36636862943E+03  0.50400001928E-02 0. -1.
        1   -1    0    0  501    0  0.00000000000E+00  0.00000000000E+00 -0.54603687431E+03  0.54603687433E+03  0.50400001928E-02 0.  1.
    10030    2    1    2    0    0  0.00000000000E+00  0.00000000000E+00 -0.17966824491E+03  0.91240550376E+03  0.89454073416E+03 0.  0.
        4    1    3    3  502    0  0.13568100216E+03 -0.26533991891E+03  0.25034499355E+03  0.38921566722E+03  0.12699999809E+01 0. -1.
       -4    1    3    3    0  502 -0.13568100216E+03  0.26533991891E+03 -0.43001323846E+03  0.52318983654E+03  0.12699999809E+01 0.  1.
</event>
<event>
 5   0  0.1441195E-02  0.9041505E+03  0.7818609E-02  0.9420408E-01
       -2   -1    0    0    0  501  0.00000000000E+00  0.00000000000E+00  0.48011712653E+03  0.48011712654E+03  0.25500000920E-02 0.  1.
        2   -1    0    0  501    0  0.00000000000E+00  0.00000000000E+00 -0.42567116966E+03  0.42567116966E+03  0.25500000920E-02 0. -1.
    10030    2    1    2    0    0  0.00000000000E+00  0.00000000000E+00  0.54445956875E+02  0.90578829620E+03  0.90415047161E+03 0.  0.
        5    1    3    3  502    0  0.36882978455E+03 -0.13095147263E+03 -0.19938630832E+03  0.43927290845E+03  0.46999998093E+01 0. -1.
       -5    1    3    3    0  502 -0.36882978455E+03  0.13095147263E+03  0.25383226519E+03  0.46651538775E+03  0.46999998093E+01 0.  1.
</event>
<event>
 5   0  0.8524692E-03  0.9049325E+03  0.7818609E-02  0.9419437E-01
       -1   -1    0    0    0  501  0.00000000000E+00  0.00000000000E+00  0.13283386830E+03  0.13283386839E+03  0.50400001928E-02 0.  1.
        1   -1    0    0  501    0  0.00000000000E+00  0.00000000000E+00 -0.15412160611E+04  0.15412160611E+04  0.50400001928E-02 0. -1.
    10030    2    1    2    0    0  0.00000000000E+00  0.00000000000E+00 -0.14083821928E+04  0.16740499295E+04  0.90493246459E+03 0.  0.
        5    1    3    3  502    0 -0.12045946461E+03 -0.35762284456E+03 -0.24245604423E+03  0.44856616563E+03  0.46999998093E+01 0.  1.
       -5    1    3    3    0  502  0.12045946461E+03  0.35762284456E+03 -0.11659261486E+04  0.12254837639E+04  0.46999998093E+01 0. -1.
</event>
<event>
 5   0  0.8291252E-03  0.8981079E+03  0.7818609E-02  0.9427950E-01
        1   -1    0    0  501    0  0.00000000000E+00  0.00000000000E+00  0.42447354074E+03  0.42447354077E+03  0.50400001928E-02 0.  1.
       -1   -1    0    0    0  501  0.00000000000E+00  0.00000000000E+00 -0.47505777809E+03  0.47505777811E+03  0.50400001928E-02 0. -1.
    10030    2    1    2    0    0  0.00000000000E+00  0.00000000000E+00 -0.50584237343E+02  0.89953131889E+03  0.89810791590E+03 0.  0.
        1    1    3    3  502    0  0.35377954823E+03 -0.71517125349E+02  0.24229190728E+03  0.43471834136E+03  0.50400001928E-02 0.  1.
       -1    1    3    3    0  502 -0.35377954823E+03  0.71517125349E+02 -0.29287614462E+03  0.46481297752E+03  0.50400001928E-02 0. -1.
</event>
<event>
 5   0  0.1535906E-02  0.9145676E+03  0.7818609E-02  0.9407552E-01
        2   -1    0    0  501    0  0.00000000000E+00  0.00000000000E+00  0.29057772746E+03  0.29057772747E+03  0.25500000920E-02 0.  1.
       -2   -1    0    0    0  501  0.00000000000E+00  0.00000000000E+00 -0.71963004219E+03  0.71963004219E+03  0.25500000920E-02 0. -1.
    10030    2    1    2    0    0  0.00000000000E+00  0.00000000000E+00 -0.42905231473E+03  0.10102077697E+04  0.91456757494E+03 0.  0.
        2    1    3    3  502    0 -0.14617722400E+03  0.38732648041E+03 -0.42904937054E+03  0.59621551943E+03  0.25500000920E-02 0.  1.
       -2    1    3    3    0  502  0.14617722400E+03 -0.38732648041E+03 -0.29441901209E-02  0.41399225024E+03  0.25500000920E-02 0. -1.
</event>
<event>
 5   0  0.8524692E-03  0.8839032E+03  0.7818609E-02  0.9445930E-01
        1   -1    0    0  501    0  0.00000000000E+00  0.00000000000E+00  0.15249770924E+04  0.15249770924E+04  0.50400001928E-02 0.  1.
       -1   -1    0    0    0  501  0.00000000000E+00  0.00000000000E+00 -0.12808140934E+03  0.12808140944E+03  0.50400001928E-02 0. -1.
    10030    2    1    2    0    0  0.00000000000E+00  0.00000000000E+00  0.13968956831E+04  0.16530585019E+04  0.88390319675E+03 0.  0.
        5    1    3    3  502    0 -0.93276914556E+02 -0.22801272089E+03  0.12296129740E+02  0.24670563123E+03  0.46999998093E+01 0. -1.
       -5    1    3    3    0  502  0.93276914556E+02  0.22801272089E+03  0.13845995533E+04  0.14063528706E+04  0.46999998093E+01 0.  1.
</event>
<event>
 5   0  0.1483326E-02  0.9007078E+03  0.7818609E-02  0.9424697E-01
        2   -1    0    0  501    0  0.00000000000E+00  0.00000000000E+00  0.10471083838E+04  0.10471083838E+04  0.25500000920E-02 0. -1.
       -2   -1    0    0    0  501  0.00000000000E+00  0.00000000000E+00 -0.19369401700E+03  0.19369401702E+03  0.25500000920E-02 0.  1.
    10030    2    1    2    0    0  0.00000000000E+00  0.00000000000E+00  0.85341436678E+03  0.12408024008E+04  0.90070778636E+03 0.  0.
        1    1    3    3  502    0  0.28141268034E+03 -0.21115820702E+03  0.81399690909E+03  0.88677610088E+03  0.50400001928E-02 0. -1.
       -1    1    3    3    0  502 -0.28141268034E+03  0.21115820702E+03  0.39417457685E+02  0.35402629993E+03  0.50400001928E-02 0.  1.
</event>
<event>
 5   0  0.8291252E-03  0.9384176E+03  0.7818609E-02  0.9378792E-01
       -1   -1    0    0    0  501  0.00000000000E+00  0.00000000000E+00  0.35837954540E+03  0.35837954544E+03  0.50400001928E-02 0.  1.
        1   -1    0    0  501    0  0.00000000000E+00  0.00000000000E+00 -0.61431206535E+03  0.61431206537E+03  0.50400001928E-02 0. -1.
    10030    2    1    2    0    0  0.00000000000E+00  0.00000000000E+00 -0.25593251994E+03  0.97269161081E+03  0.93841755896E+03 0.  0.
        1    1    3    3  502    0  0.30502810111E+03 -0.29142088999E+03  0.84934203846E+02  0.43032789428E+03  0.50400001928E-02 0.  1.
       -1    1    3    3    0  502 -0.30502810111E+03  0.29142088999E+03 -0.34086672379E+03  0.54236371652E+03  0.50400001928E-02 0. -1.
</event>
<event>
 5   0  0.8885324E-03  0.8989447E+03  0.7818609E-02  0.9426902E-01
        1   -1    0    0  501    0  0.00000000000E+00  0.00000000000E+00  0.11752582499E+04  0.11752582499E+04  0.50400001928E-02 0. -1.
       -1   -1    0    0    0  501  0.00000000000E+00  0.00000000000E+00 -0.17189871181E+03  0.17189871189E+03  0.50400001928E-02 0.  1.
    10030    2    1    2    0    0  0.00000000000E+00  0.00000000000E+00  0.10033595381E+04  0.13471569618E+04  0.89894466851E+03 0.  0.
        2    1    3    3  502    0 -0.36313692587E+03 -0.17442673310E+03  0.20296485114E+03  0.45109626795E+03  0.25500000920E-02 0.  1.
       -2    1    3    3    0  502  0.36313692587E+03  0.17442673310E+03  0.80039468695E+03  0.89606069385E+03  0.25500000920E-02 0. -1.
</event>
<event>
 5   0  0.1454652E-02  0.8949196E+03  0.7818609E-02  0.9431955E-01
       -2   -1    0    0    0  501  0.00000000000E+00  0.00000000000E+00  0.67825573525E+03  0.67825573525E+03  0.25500000920E-02 0.  1.
        2   -1    0    0  501    0  0.00000000000E+00  0.00000000000E+00 -0.29519878727E+03  0.29519878728E+03  0.25500000920E-02 0. -1.
    10030    2    1    2    0    0  0.00000000000E+00  0.00000000000E+00  0.38305694797E+03  0.97345452253E+03  0.89491959530E+03 0.  0.
        4    1    3    3  502    0 -0.85681960452E+02 -0.11711491088E+03  0.65194809292E+03  0.66790360791E+03  0.12699999809E+01 0.  1.
       -4    1    3    3    0  502  0.85681960452E+02  0.11711491088E+03 -0.26889114495E+03  0.30555091462E+03  0.12699999809E+01 0. -1.
</event>
<event>
 5   0  0.1535906E-02  0.9084643E+03  0.7818609E-02  0.9415062E-01
        2   -1    0    0  501    0  0.00000000000E+00  0.00000000000E+00  0.59840818632E+03  0.59840818632E+03  0.25500000920E-02 0.  1.
       -2   -1    0    0    0  501  0.00000000000E+00  0.00000000000E+00 -0.34479282614E+03  0.34479282615E+03  0.25500000920E-02 0. -1.
    10030    2    1    2    0    0  0.00000000000E+00  0.00000000000E+00  0.25361536018E+03  0.94320101247E+03  0.90846430805E+03 0.  0.
        2    1    3    3  502    0 -0.25818151991E+03  0.37290783163E+03  0.15242713929E+03  0.47848926938E+03  0.25500000920E-02 0. -1.
       -2    1    3    3    0  502  0.25818151991E+03 -0.37290783163E+03  0.10118822089E+03  0.46471174309E+03  0.25500000920E-02 0.  1.
</event>
<event>
 5   0  0.1454652E-02  0.8840944E+03  0.7818609E-02  0.9445686E-01
        2   -1    0    0  501    0  0.00000000000E+00  0.00000000000E+00  0.97294728564E+03  0.97294728564E+03  0.25500000920E-02 0. -1.
       -2   -1    0    0    0  501  0.00000000000E+00  0.00000000000E+00 -0.20083895090E+03  0.20083895092E+03  0.25500000920E-02 0.  1.
    10030    2    1    2    0    0  0.00000000000E+00  0.00000000000E+00  0.77210833474E+03  0.11737862366E+04  0.88409436633E+03 0.  0.
        4    1    3    3  502    0  0.71683547842E+02 -0.15563650367E+03 -0.15494983147E+03  0.23102449108E+03  0.12699999809E+01 0.  1.
       -4    1    3    3    0  502 -0.71683547842E+02  0.15563650367E+03  0.92705816621E+03  0.94276174548E+03  0.12699999809E+01 0. -1.
</event>
<event>
 5   0  0.8885324E-03  0.9006145E+03  0.7818609E-02  0.9424814E-01
        1   -1    0    0  501    0  0.00000000000E+00  0.00000000000E+00  0.32879320119E+03  0.32879320122E+03  0.50400001928E-02 0. -1.
       -1   -1    0    0    0  501  0.00000000000E+00  0.00000000000E+00 -0.61672991144E+03  0.61672991146E+03  0.50400001928E-02 0.  1.
    10030    2    1    2    0    0  0.00000000000E+00  0.00000000000E+00 -0.28793671026E+03  0.94552311269E+03  0.90061446108E+03 0.  0.
        2    1    3    3  502    0  0.79021279068E+02 -0.27019559890E+03  0.22502066050E+03  0.36039467514E+03  0.25500000920E-02 0. -1.
       -2    1    3    3    0  502 -0.79021279068E+02  0.27019559890E+03 -0.51295737075E+03  0.58512843755E+03  0.25500000920E-02 0.  1.
</event>
<event>
 5   0  0.1483326E-02  0.9010821E+03  0.7818609E-02  0.9424230E-01
        2   -1    0    0  501    0  0.00000000000E+00  0.00000000000E+00  0.77492169300E+03  0.77492169300E+03  0.25500000920E-02 0.  1.
       -2   -1    0    0    0  501  0.00000000000E+00  0.00000000000E+00 -0.26194551263E+03  0.26194551265E+03  0.25500000920E-02 0. -1.
    10030    2    1    2    0    0  0.00000000000E+00  0.00000000000E+00  0.51297618036E+03  0.10368672056E+04  0.90108214971E+03 0.  0.
        1    1    3    3  502    0  0.39161399970E+03 -0.20334901812E+03  0.15181369776E+03  0.46664734735E+03  0.50400001928E-02 0.  1.
       -1    1    3    3    0  502 -0.39161399970E+03  0.20334901812E+03  0.36116248260E+03  0.57021985830E+03  0.50400001928E-02 0. -1.
</event>
<event>
 5   0  0.8612969E-03  0.8970814E+03  0.7818609E-02  0.9429237E-01
        1   -1    0    0  501    0  0.00000000000E+00  0.00000000000E+00  0.17685934053E+04  0.17685934053E+04  0.50400001928E-02 0. -1.
       -1   -1    0    0    0  501  0.00000000000E+00  0.00000000000E+00 -0.11375637463E+03  0.11375637475E+03  0.50400001928E-02 0.  1.
    10030    2    1    2    0    0  0.00000000000E+00  0.00000000000E+00  0.16548370306E+04  0.18823497800E+04  0.89708143242E+03 0.  0.
        4    1    3    3  502    0 -0.39274547469E+03  0.20501715756E+03  0.97439148608E+03  0.10703837741E+04  0.12699999809E+01 0. -1.
       -4    1    3    3    0  502  0.39274547469E+03 -0.20501715756E+03  0.68044554455E+03  0.81196600593E+03  0.12699999809E+01 0.  1.
</event>
<event>
 5   0  0.8885324E-03  0.9098472E+03  0.7818609E-02  0.9413355E-01
        1   -1    0    0  501    0  0.00000000000E+00  0.00000000000E+00  0.43410907362E+03  0.43410907365E+03  0.50400001928E-02 0.  1.
       -1   -1    0    0    0  501  0.00000000000E+00  0.00000000000E+00 -0.47673617395E+03  0.47673617398E+03  0.50400001928E-02 0. -1.
    10030    2    1    2    0    0  0.00000000000E+00  0.00000000000E+00 -0.42627100331E+02  0.91084524763E+03  0.90984723742E+03 0.  0.
        2    1    3    3  502    0 -0.24268201272E+02  0.14017225037E+03  0.41126955195E+03  0.43517795180E+03  0.25500000920E-02 0.  1.
       -2    1    3    3    0  502  0.24268201272E+02 -0.14017225037E+03 -0.45389665228E+03  0.47566729583E+03  0.25500000920E-02 0. -1.
</event>
<event>
 5   0  0.8291252E-03  0.9052652E+03  0.7818609E-02  0.9419024E-01
       -1   -1    0    0    0  501  0.00000000000E+00  0.00000000000E+00  0.45585919397E+03  0.45585919400E+03  0.50400001928E-02 0.  1.
        1   -1    0    0  501    0  0.00000000000E+00  0.00000000000E+00 -0.44942884261E+03  0.44942884264E+03  0.50400001928E-02 0. -1.
    10030    2    1    2    0    0  0.00000000000E+00  0.00000000000E+00  0.64303513568E+01  0.90528803664E+03  0.90526519864E+03 0.  0.
        1    1    3    3  502    0  0.33448353433E+03  0.21750445169E+03 -0.21053971666E+03  0.45112569597E+03  0.50400001928E-02 0. -1.
       -1    1    3    3    0  502 -0.33448353433E+03 -0.21750445169E+03  0.21697006801E+03  0.45416234067E+03  0.50400001928E-02 0.  1.
</event>
<event>
 5   0  0.1483326E-02  0.8943457E+03  0.7818609E-02  0.9432677E-01
       -2   -1    0    0    0  501  0.00000000000E+00  0.00000000000E+00  0.35946943225E+03  0.35946943226E+03  0.25500000920E-02 0. -1.
        2   -1    0    0  501    0  0.00000000000E+00  0.00000000000E+00 -0.55627421961E+03  0.55627421961E+03  0.25500000920E-02 0.  1.
    10030    2    1    2    0    0  0.00000000000E+00  0.00000000000E+00 -0.19680478735E+03  0.91574365187E+03  0.89434574501E+03 0.  0.
        1    1    3    3  502    0 -0.37559235335E+03 -0.16320173547E+03  0.85503212629E+02  0.41834820634E+03  0.50400001928E-02 0. -1.
       -1    1    3    3    0  502  0.37559235335E+03  0.16320173547E+03 -0.28230799998E+03  0.49739544553E+03  0.50400001928E-02 0.  1.
</event>
<event>
 5   0  0.8291252E-03  0.8907683E+03  0.7818609E-02  0.9437196E-01
        1   -1    0    0  501    0  0.00000000000E+00  0.00000000000E+00  0.17394223143E+03  0.17394223150E+03  0.50400001928E-02 0.  1.
       -1   -1    0    0    0  501  0.00000000000E+00  0.00000000000E+00 -0.11404190091E+04  0.11404190091E+04  0.50400001928E-02 0. -1.
    10030    2    1    2    0    0  0.00000000000E+00  0.00000000000E+00 -0.96647677762E+03  0.13143612406E+04  0.89076826897E+03 0.  0.
        1    1    3    3  502    0 -0.29422768685E+03 -0.30335959536E+03 -0.69070771903E+03  0.80973707397E+03  0.50400001928E-02 0. -1.
       -1    1    3    3    0  502  0.29422768685E+03  0.30335959536E+03 -0.27576905859E+03  0.50462416659E+03  0.50400001928E-02 0.  1.
</event>
<event>
 5   0  0.8524692E-03  0.8945533E+03  0.7818609E-02  0.9432416E-01
        1   -1    0    0  501    0  0.00000000000E+00  0.00000000000E+00  0.84877963904E+03  0.84877963906E+03  0.50400001928E-02 0. -1.
       -1   -1    0    0    0  501  0.00000000000E+00  0.00000000000E+00 -0.23569887875E+03  0.23569887881E+03  0.50400001928E-02 0.  1.
    10030    2    1    2    0    0  0.00000000000E+00  0.00000000000E+00  0.61308076029E+03  0.10844785179E+04  0.89455331707E+03 0.  0.
        5    1    3    3  502    0  0.11421146536E+03 -0.42025288009E+03  0.18304158797E+03  0.47242253859E+03  0.46999998093E+01 0.  1.
       -5    1    3    3    0  502 -0.11421146536E+03  0.42025288009E+03  0.43003917232E+03  0.61205597928E+03  0.46999998093E+01 0. -1.
</event>
<event>
 5   0  0.8738044E-03  0.9028857E+03  0.7818609E-02  0.9421981E-01
        1   -1    0    0  501    0  0.00000000000E+00  0.00000000000E+00  0.23439458865E+04  0.23439458865E+04  0.50400001928E-02 0. -1.
       -1   -1    0    0    0  501  0.00000000000E+00  0.00000000000E+00 -0.86947673097E+02  0.86947673244E+02  0.50400001928E-02 0.  1.
    10030    2    1    2    0    0  0.00000000000E+00  0.00000000000E+00  0.22569982134E+04  0.24308935598E+04  0.90288568686E+03 0.  0.
        3    1    3    3  502    0 -0.40058718408E+03  0.13150153928E+03  0.69405289268E+03  0.81207892161E+03  0.10100000352E+00 0.  1.
       -3    1    3    3    0  502  0.40058718408E+03 -0.13150153928E+03  0.15629453208E+04  0.16188146382E+04  0.10100000352E+00 0. -1.
</event>
<event>
 5   0  0.1535906E-02  0.1019684E+04  0.7818609E-02  0.9287216E-01
        2   -1    0    0  501    0  0.00000000000E+00  0.00000000000E+00  0.52646510907E+03  0.52646510907E+03  0.25500000920E-02 0.  1.
       -2   -1    0    0    0  501  0.00000000000E+00  0.00000000000E+00 -0.49374352776E+03  0.49374352776E+03  0.25500000920E-02 0. -1.
    10030    2    1    2    0    0  0.00000000000E+00  0.00000000000E+00  0.32721581311E+02  0.10202086368E+04  0.10196837553E+04 0.  0.
        2    1    3    3  502    0  0.15893315631E+03  0.19325982475E+03 -0.42808587098E+03  0.49584939344E+03  0.25500000920E-02 0. -1.
       -2    1    3    3    0  502 -0.15893315631E+03 -0.19325982475E+03  0.46080745229E+03  0.52435924339E+03  0.25500000920E-02 0.  1.
</event>
<event>
 5   0  0.1454652E-02  0.8992370E+03  0.7818609E-02  0.9426536E-01
        2   -1    0    0  501    0  0.00000000000E+00  0.00000000000E+00  0.57892127996E+03  0.57892127997E+03  0.25500000920E-02 0. -1.
       -2   -1    0    0    0  501  0.00000000000E+00  0.00000000000E+00 -0.34919565525E+03  0.34919565526E+03  0.25500000920E-02 0.  1.
    10030    2    1    2    0    0  0.00000000000E+00  0.00000000000E+00  0.22972562471E+03  0.92811693523E+03  0.89923700036E+03 0.  0.
        4    1    3    3  502    0 -0.26703095570E+02  0.48089481923E+02 -0.34570794745E+03  0.35005892563E+03  0.12699999809E+01 0.  1.
       -4    1    3    3    0  502  0.26703095570E+02 -0.48089481923E+02  0.57543357217E+03  0.57805800960E+03  0.12699999809E+01 0. -1.
</event>
<event>
 5   0  0.5770125E-03  0.8888261E+03  0.7818609E-02  0.9439658E-01
       -3   -1    0    0    0  501  0.00000000000E+00  0.00000000000E+00  0.13708961115E+03  0.13708964836E+03  0.10100000352E+00 0. -1.
        3   -1    0    0  501    0  0.00000000000E+00  0.00000000000E+00 -0.14406850149E+04  0.14406850184E+04  0.10100000352E+00 0.  1.
    10030    2    1    2    0    0  0.00000000000E+00  0.00000000000E+00 -0.13035954037E+04  0.15777746668E+04  0.88882614863E+03 0.  0.
        5    1    3    3  502    0  0.11188318376E+03 -0.21511226892E+03 -0.13128721136E+04  0.13350829232E+04  0.46999998093E+01 0.  1.
       -5    1    3    3    0  502 -0.11188318376E+03  0.21511226892E+03  0.92767099230E+01  0.24269174356E+03  0.46999998093E+01 0. -1.
</event>
<event>
 5   0  0.1454652E-02  0.8993630E+03  0.7818609E-02  0.9426378E-01
        2   -1    0    0  501    0  0.00000000000E+00  0.00000000000E+00  0.13967611804E+04  0.13967611804E+04  0.25500000920E-02 0.  1.
       -2   -1    0    0    0  501  0.00000000000E+00  0.00000000000E+00 -0.14477309716E+03  0.14477309718E+03  0.25500000920E-02 0. -1.
    10030    2    1    2    0    0  0.00000000000E+00  0.00000000000E+00  0.12519880833E+04  0.15415342776E+04  0.89936297922E+03 0.  0.
        4    1    3    3  502    0 -0.83739747204E+02  0.19526668200E+03  0.13052999061E+04  0.13224790660E+04  0.12699999809E+01 0.  1.
       -4    1    3    3    0  502  0.83739747204E+02 -0.19526668200E+03 -0.53311822832E+02  0.21905521156E+03  0.12699999809E+01 0. -1.
</event>
<event>
 5   0  0.8524692E-03  0.8824917E+03  0.7818609E-02  0.9447736E-01
        1   -1    0    0  501    0  0.00000000000E+00  0.00000000000E+00  0.10773899225E+04  0.10773899225E+04  0.50400001928E-02 0.  1.
       -1   -1    0    0    0  501  0.00000000000E+00  0.00000000000E+00 -0.18071258651E+03  0.18071258658E+03  0.50400001928E-02 0. -1.
    10030    2    1    2    0    0  0.00000000000E+00  0.00000000000E+00  0.89667733598E+03  0.12581025091E+04  0.88249174414E+03 0.  0.
        5    1    3    3  502    0 -0.86097663646E+01 -0.43893016869E+03  0.38551389219E+03  0.58427465470E+03  0.46999998093E+01 0. -1.
       -5    1    3    3    0  502  0.86097663646E+01  0.43893016869E+03  0.51116344380E+03  0.67382785438E+03  0.46999998093E+01 0.  1.
</event>
<event>
 5   0  0.8291252E-03  0.9236176E+03  0.7818609E-02  0.9396530E-01
        1   -1    0    0  501    0  0.00000000000E+00  0.00000000000E+00  0.72027768985E+03  0.72027768987E+03  0.50400001928E-02 0. -1.
       -1   -1    0    0    0  501  0.00000000000E+00  0.00000000000E+00 -0.29609048786E+03  0.29609048791E+03  0.50400001928E-02 0.  1.
    10030    2    1    2    0    0  0.00000000000E+00  0.00000000000E+00  0.42418720199E+03  0.10163681778E+04  0.92361761052E+03 0.  0.
        1    1    3    3  502    0 -0.25755427137E+03 -0.55516863118E+02  0.62945796885E+03  0.68237354826E+03  0.50400001928E-02 0. -1.
       -1    1    3    3    0  502  0.25755427137E+03  0.55516863118E+02 -0.20527076686E+03  0.33399462951E+03  0.50400001928E-02 0.  1.
</event>
<event>
 5   0  0.8612969E-03  0.9185683E+03  0.7818609E-02  0.9402663E-01
        1   -1    0    0  501    0  0.00000000000E+00  0.00000000000E+00  0.20065001992E+04  0.20065001992E+04  0.50400001928E-02 0. -1.
       -1   -1    0    0    0  501  0.00000000000E+00  0.00000000000E+00 -0.10512927446E+03  0.10512927458E+03  0.50400001928E-02 0.  1.
    10030    2    1    2    0    0  0.00000000000E+00  0.00000000000E+00  0.19013709248E+04  0.21116294738E+04  0.91856825611E+03 0.  0.
        4    1    3    3  502    0  0.32438381350E+03  0.75009868807E+02  0.16779616485E+04  0.17106747924E+04  0.12699999809E+01 0. -1.
       -4    1    3    3    0  502 -0.32438381350E+03 -0.75009868807E+02  0.22340927630E+03  0.40095468137E+03  0.12699999809E+01 0.  1.
</event>
<event>
 5   0  0.1441195E-02  0.9063262E+03  0.7818609E-02  0.9417708E-01
       -2   -1    0    0    0  501  0.00000000000E+00  0.00000000000E+00  0.22940677385E+03  0.22940677386E+03  0.25500000920E-02 0.  1.
        2   -1    0    0  501    0  0.00000000000E+00  0.00000000000E+00 -0.89516445006E+03  0.89516445006E+03  0.25500000920E-02 0. -1.
    10030    2    1    2    0    0  0.00000000000E+00  0.00000000000E+00 -0.66575767621E+03  0.11245712239E+04  0.90632618534E+03 0.  0.
        5    1    3    3  502    0  0.30971567259E+03  0.75818346622E+02 -0.73237557280E+03  0.79879176834E+03  0.46999998093E+01 0. -1.
       -5    1    3    3    0  502 -0.30971567259E+03 -0.75818346622E+02  0.66617896587E+02  0.32577945558E+03  0.46999998093E+01 0.  1.
</event>
<event>
 5   0  0.8738044E-03  0.8850762E+03  0.7818609E-02  0.9444432E-01
        1   -1    0    0  501    0  0.00000000000E+00  0.00000000000E+00  0.29074134993E+03  0.29074134998E+03  0.50400001928E-02 0. -1.
       -1   -1    0    0    0  501  0.00000000000E+00  0.00000000000E+00 -0.67358835382E+03  0.67358835384E+03  0.50400001928E-02 0.  1.
    10030    2    1    2    0    0  0.00000000000E+00  0.00000000000E+00 -0.38284700389E+03  0.96432970382E+03  0.88507623924E+03 0.  0.
        3    1    3    3  502    0 -0.30473915414E+03  0.52355002319E+02  0.15352175770E+03  0.34521868232E+03  0.10100000352E+00 0. -1.
       -3    1    3    3    0  502  0.30473915414E+03 -0.52355002319E+02 -0.53636876159E+03  0.61911102150E+03  0.10100000352E+00 0.  1.
</event>
<event>
 5   0  0.8885324E-03  0.8471679E+03  0.7818609E-02  0.9494146E-01
        1   -1    0    0  501    0  0.00000000000E+00  0.00000000000E+00  0.51736022806E+03  0.51736022808E+03  0.50400001928E-02 0.  1.
       -1   -1    0    0    0  501  0.00000000000E+00  0.00000000000E+00 -0.34680546898E+03  0.34680546901E+03  0.50400001928E-02 0. -1.
    10030    2    1    2    0    0  0.00000000000E+00  0.00000000000E+00  0.17055475908E+03  0.86416569710E+03  0.84716788548E+03 0.  0.
        2    1    3    3  502    0  0.35662197189E+03  0.12532561856E+03  0.28026077852E+03  0.47056545292E+03  0.25500000920E-02 0.  1.
       -2    1    3    3    0  502 -0.35662197189E+03 -0.12532561856E+03 -0.10970601944E+03  0.39360024417E+03  0.25500000920E-02 0. -1.
</event>
<event>
 5   0  0.1440615E-02  0.8935931E+03  0.7818609E-02  0.9433626E-01
       -2   -1    0    0    0  501  0.00000000000E+00  0.00000000000E+00  0.31502738777E+03  0.31502738778E+03  0.25500000920E-02 0.  1.
        2   -1    0    0  501    0  0.00000000000E+00  0.00000000000E+00 -0.63368191487E+03  0.63368191487E+03  0.25500000920E-02 0. -1.
    10030    2    1    2    0    0  0.00000000000E+00  0.00000000000E+00 -0.31865452710E+03  0.94870930265E+03  0.89359310276E+03 0.  0.
        3    1    3    3  502    0 -0.26022329004E+01 -0.39395373335E+03  0.64434923304E+02  0.39919692532E+03  0.10100000352E+00 0.  1.
       -3    1    3    3    0  502  0.26022329004E+01  0.39395373335E+03 -0.38308945040E+03  0.54951237734E+03  0.10100000352E+00 0. -1.
</event>
<event>
 5   0  0.8738044E-03  0.9349680E+03  0.7818609E-02  0.9382895E-01
        1   -1    0    0  501    0  0.00000000000E+00  0.00000000000E+00  0.12090939000E+04  0.12090939000E+04  0.50400001928E-02 0. -1.
       -1   -1    0    0    0  501  0.00000000000E+00  0.00000000000E+00 -0.18074799429E+03  0.18074799436E+03  0.50400001928E-02 0.  1.
    10030    2    1    2    0    0  0.00000000000E+00  0.00000000000E+00  0.10283459057E+04  0.13898418943E+04  0.93496801524E+03 0.  0.
        3    1    3    3  502    0 -0.32330599381E+03 -0.33613456154E+03  0.56183598799E+03  0.73018689163E+03  0.10100000352E+00 0.  1.
       -3    1    3    3    0  502  0.32330599381E+03  0.33613456154E+03  0.46650991768E+03  0.65965500270E+03  0.10100000352E+00 0. -1.
</event>
<event>
 5   0  0.8738044E-03  0.8856473E+03  0.7818609E-02  0.9443703E-01
       -1   -1    0    0    0  501  0.00000000000E+00  0.00000000000E+00  0.51920021544E+03  0.51920021547E+03  0.50400001928E-02 0. -1.
        1   -1    0    0  501    0  0.00000000000E+00  0.00000000000E+00 -0.37768236988E+03  0.37768236991E+03  0.50400001928E-02 0.  1.
    10030    2    1    2    0    0  0.00000000000E+00  0.00000000000E+00  0.14151784556E+03  0.89688258538E+03  0.88564726124E+03 0.  0.
        3    1    3    3  502    0  0.15374817144E+03 -0.40220071035E+03 -0.33939518892E+02  0.43192107238E+03  0.10100000352E+00 0.  1.
       -3    1    3    3    0  502 -0.15374817144E+03  0.40220071035E+03  0.17545736445E+03  0.46496151300E+03  0.10100000352E+00 0. -1.
</event>
<event>
 5   0  0.8291252E-03  0.9647141E+03  0.7818609E-02  0.9348115E-01
       -1   -1    0    0    0  501  0.00000000000E+00  0.00000000000E+00  0.58349229423E+03  0.58349229426E+03  0.50400001928E-02 0. -1.
        1   -1    0    0  501    0  0.00000000000E+00  0.00000000000E+00 -0.39875133760E+03  0.39875133764E+03  0.50400001928E-02 0.  1.
    10030    2    1    2    0    0  0.00000000000E+00  0.00000000000E+00  0.18474095663E+03  0.98224363189E+03  0.96471411897E+03 0.  0.
        1    1    3    3  502    0 -0.32930264775E+02 -0.29685173476E+03  0.47801796745E+03  0.56365462120E+03  0.50400001928E-02 0. -1.
       -1    1    3    3    0  502  0.32930264775E+02  0.29685173476E+03 -0.29327701082E+03  0.41858901069E+03  0.50400001928E-02 0.  1.
</event>
<event>
 5   0  0.5770125E-03  0.8001575E+03  0.7818609E-02  0.9559789E-01
       -4   -1    0    0    0  501  0.00000000000E+00  0.00000000000E+00  0.34413165755E+03  0.34413400098E+03  0.12699999809E+01 0. -1.
        4   -1    0    0  501    0  0.00000000000E+00  0.00000000000E+00 -0.46511660495E+03  0.46511833881E+03  0.12699999809E+01 0.  1.
    10030    2    1    2    0    0  0.00000000000E+00  0.00000000000E+00 -0.12098494740E+03  0.80925233979E+03  0.80015747948E+03 0.  0.
        4    1    3    3  502    0  0.16646689160E+03  0.35507989021E+03 -0.14056580698E+03  0.41659730367E+03  0.12699999809E+01 0.  1.
       -4    1    3    3    0  502 -0.16646689160E+03 -0.35507989021E+03  0.19580859585E+02  0.39265503612E+03  0.12699999809E+01 0. -1.
</event>
<event>
 5   0  0.8612969E-03  0.9058425E+03  0.7818609E-02  0.9418307E-01
       -1   -1    0    0    0  501  0.00000000000E+00  0.00000000000E+00  0.17361978639E+03  0.17361978646E+03  0.50400001928E-02 0. -1.
        1   -1    0    0  501    0  0.00000000000E+00  0.00000000000E+00 -0.11815337734E+04  0.11815337734E+04  0.50400001928E-02 0.  1.
    10030    2    1    2    0    0  0.00000000000E+00  0.00000000000E+00 -0.10079139870E+04  0.13551535598E+04  0.90584246180E+03 0.  0.
        4    1    3    3  502    0 -0.38342051129E+03 -0.24074879291E+03 -0.48475439281E+03  0.66329458314E+03  0.12699999809E+01 0.  1.
       -4    1    3    3    0  502  0.38342051129E+03  0.24074879291E+03 -0.52315959417E+03  0.69185897670E+03  0.12699999809E+01 0. -1.
</event>
<event>
 5   0  0.8885324E-03  0.9023484E+03  0.7818609E-02  0.9422651E-01
       -1   -1    0    0    0  501  0.00000000000E+00  0.00000000000E+00  0.92785958226E+03  0.92785958227E+03  0.50400001928E-02 0. -1.
        1   -1    0    0  501    0  0.00000000000E+00  0.00000000000E+00 -0.21938464138E+03  0.21938464144E+03  0.50400001928E-02 0.  1.
    10030    2    1    2    0    0  0.00000000000E+00  0.00000000000E+00  0.70847494088E+03  0.11472442237E+04  0.90234836232E+03 0.  0.
        2    1    3    3  502    0 -0.30410227988E+03  0.26718798175E+03  0.60753157447E+03  0.73004262082E+03  0.25500000920E-02 0. -1.
       -2    1    3    3    0  502  0.30410227988E+03 -0.26718798175E+03  0.10094336641E+03  0.41720160289E+03  0.25500000920E-02 0.  1.
</event>
<event>
 5   0  0.1440615E-02  0.9157682E+03  0.7818609E-02  0.9406082E-01
       -2   -1    0    0    0  501  0.00000000000E+00  0.00000000000E+00  0.26012951120E+03  0.26012951121E+03  0.25500000920E-02 0.  1.
        2   -1    0    0  501    0  0.00000000000E+00  0.00000000000E+00 -0.80597489998E+03  0.80597489998E+03  0.25500000920E-02 0. -1.
    10030    2    1    2    0    0  0.00000000000E+00  0.00000000000E+00 -0.54584538878E+03  0.10661044112E+04  0.91576821691E+03 0.  0.
        3    1    3    3  502    0  0.14884901287E+03  0.25727020648E+03 -0.67840264254E+03  0.74065791252E+03  0.10100000352E+00 0. -1.
       -3    1    3    3    0  502 -0.14884901287E+03 -0.25727020648E+03  0.13255725376E+03  0.32544649867E+03  0.10100000352E+00 0.  1.
</event>
<event>
 5   0  0.1454652E-02  0.7505122E+03  0.7818609E-02  0.9634547E-01
        2   -1    0    0  501    0  0.00000000000E+00  0.00000000000E+00  0.18259790601E+03  0.18259790603E+03  0.25500000920E-02 0.  1.
       -2   -1    0    0    0  501  0.00000000000E+00  0.00000000000E+00 -0.77118695142E+03  0.77118695143E+03  0.25500000920E-02 0. -1.
    10030    2    1    2    0    0  0.00000000000E+00  0.00000000000E+00 -0.58858904541E+03  0.95378485746E+03  0.75051215175E+03 0.  0.
        4    1    3    3  502    0 -0.21356346798E+03  0.22971633328E+03 -0.32498656004E+02  0.31533589103E+03  0.12699999809E+01 0.  1.
       -4    1    3    3    0  502  0.21356346798E+03 -0.22971633328E+03 -0.55609038941E+03  0.63844896642E+03  0.12699999809E+01 0. -1.
</event>
<event>
 5   0  0.1454652E-02  0.8805921E+03  0.7818609E-02  0.9450173E-01
        2   -1    0    0  501    0  0.00000000000E+00  0.00000000000E+00  0.73564428305E+03  0.73564428305E+03  0.25500000920E-02 0. -1.
       -2   -1    0    0    0  501  0.00000000000E+00  0.00000000000E+00 -0.26352491547E+03  0.26352491548E+03  0.25500000920E-02 0.  1.
    10030    2    1    2    0    0  0.00000000000E+00  0.00000000000E+00  0.47211936758E+03  0.99916919853E+03  0.88059206791E+03 0.  0.
        4    1    3    3  502    0 -0.86759851104E+02  0.25809460336E+03  0.62865544524E+03  0.68509078068E+03  0.12699999809E+01 0. -1.
       -4    1    3    3    0  502  0.86759851104E+02 -0.25809460336E+03 -0.15653607766E+03  0.31407841785E+03  0.12699999809E+01 0.  1.
</event>
<event>
 5   0  0.8524692E-03  0.9059886E+03  0.7818609E-02  0.9418126E-01
       -1   -1    0    0    0  501  0.00000000000E+00  0.00000000000E+00  0.27863824985E+03  0.27863824989E+03  0.50400001928E-02 0. -1.
        1   -1    0    0  501    0  0.00000000000E+00  0.00000000000E+00 -0.73645245963E+03  0.73645245965E+03  0.50400001928E-02 0.  1.
    10030    2    1    2    0    0  0.00000000000E+00  0.00000000000E+00 -0.45781420979E+03  0.10150907095E+04  0.90598857494E+03 0.  0.
        5    1    3    3  502    0  0.17220486256E+03  0.33579794328E+03 -0.50961051145E+03  0.63414488627E+03  0.46999998093E+01 0.  1.
       -5    1    3    3    0  502 -0.17220486256E+03 -0.33579794328E+03  0.51796301668E+02  0.38094582327E+03  0.46999998093E+01 0. -1.
</event>
<event>
 5   0  0.8738044E-03  0.9119830E+03  0.7818609E-02  0.9410725E-01
        1   -1    0    0  501    0  0.00000000000E+00  0.00000000000E+00  0.10938331550E+04  0.10938331550E+04  0.50400001928E-02 0. -1.
       -1   -1    0    0    0  501  0.00000000000E+00  0.00000000000E+00 -0.19009135839E+03  0.19009135846E+03  0.50400001928E-02 0.  1.
    10030    2    1    2    0    0  0.00000000000E+00  0.00000000000E+00  0.90374179661E+03  0.12839245135E+04  0.91198296111E+03 0.  0.
        3    1    3    3  502    0 -0.13748844522E+03 -0.33234102715E+03  0.57237510206E+02  0.36418370868E+03  0.10100000352E+00 0.  1.
       -3    1    3    3    0  502  0.13748844522E+03  0.33234102715E+03  0.84650428641E+03  0.91974080479E+03  0.10100000352E+00 0. -1.
</event>
<event>
 5   0  0.1454652E-02  0.8991446E+03  0.7818609E-02  0.9426651E-01
       -2   -1    0    0    0  501  0.00000000000E+00  0.00000000000E+00  0.43983131369E+03  0.43983131369E+03  0.25500000920E-02 0.  1.
        2   -1    0    0  501    0  0.00000000000E+00  0.00000000000E+00 -0.45952906331E+03  0.45952906332E+03  0.25500000920E-02 0. -1.
    10030    2    1    2    0    0  0.00000000000E+00  0.00000000000E+00 -0.19697749622E+02  0.89936037701E+03  0.89914464153E+03 0.  0.
        4    1    3    3  502    0  0.41707097739E+03  0.14036721918E+03  0.82165057119E+02  0.44766490360E+03  0.12699999809E+01 0.  1.
       -4    1    3    3    0  502 -0.41707097739E+03 -0.14036721918E+03 -0.10186280674E+03  0.45169547341E+03  0.12699999809E+01 0. -1.
</event>
<event>
 5   0  0.5770125E-03  0.8790877E+03  0.7818609E-02  0.9452107E-01
        3   -1    0    0  501    0  0.00000000000E+00  0.00000000000E+00  0.51773171665E+03  0.51773172650E+03  0.10100000352E+00 0. -1.
       -3   -1    0    0    0  501  0.00000000000E+00  0.00000000000E+00 -0.37316386670E+03  0.37316388037E+03  0.10100000352E+00 0.  1.
    10030    2    1    2    0    0  0.00000000000E+00  0.00000000000E+00  0.14456784995E+03  0.89089560687E+03  0.87908766292E+03 0.  0.
        5    1    3    3  502    0  0.41759644297E+03  0.40251361497E+02 -0.60509430819E+02  0.42389909471E+03  0.46999998093E+01 0.  1.
       -5    1    3    3    0  502 -0.41759644297E+03 -0.40251361497E+02  0.20507728077E+03  0.46699651216E+03  0.46999998093E+01 0. -1.
</event>
<event>
 5   0  0.1441195E-02  0.9005061E+03  0.7818609E-02  0.9424949E-01
        2   -1    0    0  501    0  0.00000000000E+00  0.00000000000E+00  0.21099580092E+03  0.21099580093E+03  0.25500000920E-02 0. -1.
       -2   -1    0    0    0  501  0.00000000000E+00  0.00000000000E+00 -0.96081433546E+03  0.96081433546E+03  0.25500000920E-02 0.  1.
    10030    2    1    2    0    0  0.00000000000E+00  0.00000000000E+00 -0.74981853454E+03  0.11718101364E+04  0.90050605829E+03 0.  0.
        5    1    3    3  502    0  0.11614696807E+03 -0.40208412182E+03 -0.59087440546E+03  0.72409696328E+03  0.46999998093E+01 0.  1.
       -5    1    3    3    0  502 -0.11614696807E+03  0.40208412182E+03 -0.15894412908E+03  0.44771317311E+03  0.46999998093E+01 0. -1.
</event>
<event>
 5   0  0.8524692E-03  0.8827775E+03  0.7818609E-02  0.9447370E-01
       -1   -1    0    0    0  501  0.00000000000E+00  0.00000000000E+00  0.41345902783E+03  0.41345902786E+03  0.50400001928E-02 0.  1.
        1   -1    0    0  501    0  0.00000000000E+00  0.00000000000E+00 -0.47120513176E+03  0.47120513179E+03  0.50400001928E-02 0. -1.
    10030    2    1    2    0    0  0.00000000000E+00  0.00000000000E+00 -0.57746103932E+02  0.88466415964E+03  0.88277747074E+03 0.  0.
        5    1    3    3  502    0  0.80938605599E+02  0.14442218194E+03  0.38113838358E+03  0.41556874516E+03  0.46999998093E+01 0.  1.
       -5    1    3    3    0  502 -0.80938605599E+02 -0.14442218194E+03 -0.43888448752E+03  0.46909541449E+03  0.46999998093E+01 0. -1.
</event>
<event>
 5   0  0.8738044E-03  0.9152443E+03  0.7818609E-02  0.9406723E-01
       -1   -1    0    0    0  501  0.00000000000E+00  0.00000000000E+00  0.92203608551E+03  0.92203608552E+03  0.50400001928E-02 0.  1.
        1   -1    0    0  501    0  0.00000000000E+00  0.00000000000E+00 -0.22712565282E+03  0.22712565288E+03  0.50400001928E-02 0. -1.
    10030    2    1    2    0    0  0.00000000000E+00  0.00000000000E+00  0.69491043268E+03  0.11491617384E+04  0.91524433435E+03 0.  0.
        3    1    3    3  502    0 -0.39871153089E+02  0.40183025519E+03  0.61780090713E+03  0.73806180899E+03  0.10100000352E+00 0.  1.
       -3    1    3    3    0  502  0.39871153089E+02 -0.40183025519E+03  0.77109525552E+02  0.41109992941E+03  0.10100000352E+00 0. -1.
</event>
<event>
 5   0  0.1535906E-02  0.8915868E+03  0.7818609E-02  0.9436160E-01
        2   -1    0    0  501    0  0.00000000000E+00  0.00000000000E+00  0.10339136715E+04  0.10339136715E+04  0.25500000920E-02 0.  1.
       -2   -1    0    0    0  501  0.00000000000E+00  0.00000000000E+00 -0.19221308476E+03  0.19221308478E+03  0.25500000920E-02 0. -1.
    10030    2    1    2    0    0  0.00000000000E+00  0.00000000000E+00  0.84170058670E+03  0.12261267562E+04  0.89158675671E+03 0.  0.
        2    1    3    3  502    0  0.84292026203E+02 -0.26728786950E+03  0.89760468232E+03  0.94034148935E+03  0.25500000920E-02 0.  1.
       -2    1    3    3    0  502 -0.84292026203E+02  0.26728786950E+03 -0.55904095620E+02  0.28578526690E+03  0.25500000920E-02 0. -1.
</event>
<event>
 5   0  0.1441195E-02  0.8709740E+03  0.7818609E-02  0.9462611E-01
       -2   -1    0    0    0  501  0.00000000000E+00  0.00000000000E+00  0.64320817136E+03  0.64320817136E+03  0.25500000920E-02 0. -1.
        2   -1    0    0  501    0  0.00000000000E+00  0.00000000000E+00 -0.29484841422E+03  0.29484841423E+03  0.25500000920E-02 0.  1.
    10030    2    1    2    0    0  0.00000000000E+00  0.00000000000E+00  0.34835975714E+03  0.93805658559E+03  0.87097395907E+03 0.  0.
        5    1    3    3  502    0  0.33207142621E+03  0.27344663917E+03  0.10127330219E+03  0.44195346849E+03  0.46999998093E+01 0.  1.
       -5    1    3    3    0  502 -0.33207142621E+03 -0.27344663917E+03  0.24708645495E+03  0.49610311710E+03  0.46999998093E+01 0. -1.
</event>
<event>
 5   0  0.1483326E-02  0.9003673E+03  0.7818609E-02  0.9425122E-01
       -2   -1    0    0    0  501  0.00000000000E+00  0.00000000000E+00  0.66173368556E+03  0.66173368557E+03  0.25500000920E-02 0. -1.
        2   -1    0    0  501    0  0.00000000000E+00  0.00000000000E+00 -0.30626420239E+03  0.30626420241E+03  0.25500000920E-02 0.  1.
    10030    2    1    2    0    0  0.00000000000E+00  0.00000000000E+00  0.35546948317E+03  0.96799788797E+03  0.90036734595E+03 0.  0.
        1    1    3    3  502    0 -0.28327409464E+02  0.21963278826E+03  0.59912518552E+03  0.63874250818E+03  0.50400001928E-02 0. -1.
       -1    1    3    3    0  502  0.28327409464E+02 -0.21963278826E+03 -0.24365570235E+03  0.32925537979E+03  0.50400001928E-02 0.  1.
</event>
<event>
 5   0  0.1454652E-02  0.8993350E+03  0.7818609E-02  0.9426413E-01
        2   -1    0    0  501    0  0.00000000000E+00  0.00000000000E+00  0.36959978827E+03  0.36959978828E+03  0.25500000920E-02 0. -1.
       -2   -1    0    0    0  501  0.00000000000E+00  0.00000000000E+00 -0.54708054470E+03  0.54708054471E+03  0.25500000920E-02 0.  1.
    10030    2    1    2    0    0  0.00000000000E+00  0.00000000000E+00 -0.17748075643E+03  0.91668033299E+03  0.89933498430E+03 0.  0.
        4    1    3    3  502    0  0.33438193507E+03  0.28200925354E+03 -0.19495546382E+03  0.47890473307E+03  0.12699999809E+01 0. -1.
       -4    1    3    3    0  502 -0.33438193507E+03 -0.28200925354E+03  0.17474707390E+02  0.43777559992E+03  0.12699999809E+01 0.  1.
</event>
<event>
 5   0  0.1441195E-02  0.8842502E+03  0.7818609E-02  0.9445486E-01
        2   -1    0    0  501    0  0.00000000000E+00  0.00000000000E+00  0.14264825863E+04  0.14264825863E+04  0.25500000920E-02 0.  1.
       -2   -1    0    0    0  501  0.00000000000E+00  0.00000000000E+00 -0.13703258782E+03  0.13703258785E+03  0.25500000920E-02 0. -1.
    10030    2    1    2    0    0  0.00000000000E+00  0.00000000000E+00  0.12894499985E+04  0.15635151742E+04  0.88425019155E+03 0.  0.
        5    1    3    3  502    0 -0.40029178815E+03  0.27044722204E+02  0.97309107563E+03  0.10525650878E+04  0.46999998093E+01 0.  1.
       -5    1    3    3    0  502  0.40029178815E+03 -0.27044722204E+02  0.31635892290E+03  0.51095008636E+03  0.46999998093E+01 0. -1.
</event>
<event>
 5   0  0.1440615E-02  0.8844705E+03  0.7818609E-02  0.9445205E-01
       -2   -1    0    0    0  501  0.00000000000E+00  0.00000000000E+00  0.25631939572E+03  0.25631939574E+03  0.25500000920E-02 0. -1.
        2   -1    0    0  501    0  0.00000000000E+00  0.00000000000E+00 -0.76300130640E+03  0.76300130641E+03  0.25500000920E-02 0.  1.
    10030    2    1    2    0    0  0.00000000000E+00  0.00000000000E+00 -0.50668191068E+03  0.10193207021E+04  0.88447053948E+03 0.  0.
        3    1    3    3  502    0 -0.42084871882E+03  0.21495467245E+02 -0.40794447581E+03  0.58651036205E+03  0.10100000352E+00 0.  1.
       -3    1    3    3    0  502  0.42084871882E+03 -0.21495467245E+02 -0.98737434870E+02  0.43281034009E+03  0.10100000352E+00 0. -1.
</event>
<event>
 5   0  0.8885324E-03  0.8906903E+03  0.7818609E-02  0.9437294E-01
        1   -1    0    0  501    0  0.00000000000E+00  0.00000000000E+00  0.68127606109E+03  0.68127606111E+03  0.50400001928E-02 0. -1.
       -1   -1    0    0    0  501  0.00000000000E+00  0.00000000000E+00 -0.29111885645E+03  0.29111885649E+03  0.50400001928E-02 0.  1.
    10030    2    1    2    0    0  0.00000000000E+00  0.00000000000E+00  0.39015720464E+03  0.97239491760E+03  0.89069031174E+03 0.  0.
        2    1    3    3  502    0  0.36574800450E+03  0.86396319883E+02 -0.65789057701E+02  0.38152867128E+03  0.25500000920E-02 0.  1.
       -2    1    3    3    0  502 -0.36574800450E+03 -0.86396319883E+02  0.45594626234E+03  0.59086624632E+03  0.25500000920E-02 0. -1.
</event>
<event>
 5   0  0.1441195E-02  0.9252832E+03  0.7818609E-02  0.9394517E-01
       -2   -1    0    0    0  501  0.00000000000E+00  0.00000000000E+00  0.24746727138E+03  0.24746727139E+03  0.25500000920E-02 0.  1.
        2   -1    0    0  501    0  0.00000000000E+00  0.00000000000E+00 -0.86491124977E+03  0.86491124977E+03  0.25500000920E-02 0. -1.
    10030    2    1    2    0    0  0.00000000000E+00  0.00000000000E+00 -0.61744397839E+03  0.11123785212E+04  0.92528315012E+03 0.  0.
        5    1    3    3  502    0  0.19151395841E+03 -0.20286152006E+02  0.19695569231E+03  0.27550455343E+03  0.46999998093E+01 0.  1.
       -5    1    3    3    0  502 -0.19151395841E+03  0.20286152006E+02 -0.81439967070E+03  0.83687396773E+03  0.46999998093E+01 0. -1.
</event>
<event>
 5   0  0.8524692E-03  0.9016147E+03  0.7818609E-02  0.9423565E-01
       -1   -1    0    0    0  501  0.00000000000E+00  0.00000000000E+00  0.13854045380E+03  0.13854045389E+03  0.50400001928E-02 0.  1.
        1   -1    0    0  501    0  0.00000000000E+00  0.00000000000E+00 -0.14669162604E+04  0.14669162604E+04  0.50400001928E-02 0. -1.
    10030    2    1    2    0    0  0.00000000000E+00  0.00000000000E+00 -0.13283758066E+04  0.16054567143E+04  0.90161465045E+03 0.  0.
        5    1    3    3  502    0  0.91629799376E+02 -0.87303500713E+02  0.10621117265E+03  0.16529012240E+03  0.46999998093E+01 0.  1.
       -5    1    3    3    0  502 -0.91629799376E+02  0.87303500713E+02 -0.14345869792E+04  0.14401665919E+04  0.46999998093E+01 0. -1.
</event>
<event>
 5   0  0.8524692E-03  0.9079501E+03  0.7818609E-02  0.9415698E-01
       -1   -1    0    0    0  501  0.00000000000E+00  0.00000000000E+00  0.16230216689E+03  0.16230216697E+03  0.50400001928E-02 0. -1.
        1   -1    0    0  501    0  0.00000000000E+00  0.00000000000E+00 -0.12698127226E+04  0.12698127226E+04  0.50400001928E-02 0.  1.
    10030    2    1    2    0    0  0.00000000000E+00  0.00000000000E+00 -0.11075105557E+04  0.14321148896E+04  0.90795012305E+03 0.  0.
        5    1    3    3  502    0  0.11144575070E+03  0.71119809969E+02 -0.12387366312E+04  0.12457803635E+04  0.46999998093E+01 0.  1.
       -5    1    3    3    0  502 -0.11144575070E+03 -0.71119809969E+02  0.13122607547E+03  0.18633452605E+03  0.46999998093E+01 0. -1.
</event>
<event>
 5   0  0.8524692E-03  0.9033258E+03  0.7818609E-02  0.9421434E-01
       -1   -1    0    0    0  501  0.00000000000E+00  0.00000000000E+00  0.93507701060E+03  0.93507701061E+03  0.50400001928E-02 0.  1.
        1   -1    0    0  501    0  0.00000000000E+00  0.00000000000E+00 -0.21816318228E+03  0.21816318234E+03  0.50400001928E-02 0. -1.
    10030    2    1    2    0    0  0.00000000000E+00  0.00000000000E+00  0.71691382832E+03  0.11532401929E+04  0.90332580246E+03 0.  0.
        5    1    3    3  502    0  0.15574551351E+03  0.30043944900E+03 -0.23383536622E+02  0.33924829739E+03  0.46999998093E+01 0. -1.
       -5    1    3    3    0  502 -0.15574551351E+03 -0.30043944900E+03  0.74029736494E+03  0.81399189556E+03  0.46999998093E+01 0.  1.
</event>
<event>
 5   0  0.8612969E-03  0.9121588E+03  0.7818609E-02  0.9410509E-01
        1   -1    0    0  501    0  0.00000000000E+00  0.00000000000E+00  0.49248766534E+03  0.49248766537E+03  0.50400001928E-02 0.  1.
       -1   -1    0    0    0  501  0.00000000000E+00  0.00000000000E+00 -0.42236270871E+03  0.42236270874E+03  0.50400001928E-02 0. -1.
    10030    2    1    2    0    0  0.00000000000E+00  0.00000000000E+00  0.70124956634E+02  0.91485037411E+03  0.91215881154E+03 0.  0.
        4    1    3    3  502    0 -0.50411240769E+02  0.44177204926E+03  0.13686556130E+03  0.46522857981E+03  0.12699999809E+01 0.  1.
       -4    1    3    3    0  502  0.50411240769E+02 -0.44177204926E+03 -0.66740604671E+02  0.44962179430E+03  0.12699999809E+01 0. -1.
</event>
<event>
 5   0  0.1440615E-02  0.9016846E+03  0.7818609E-02  0.9423478E-01
       -2   -1    0    0    0  501  0.00000000000E+00  0.00000000000E+00  0.31330877026E+03  0.31330877027E+03  0.25500000920E-02 0.  1.
        2   -1    0    0  501    0  0.00000000000E+00  0.00000000000E+00 -0.64874916107E+03  0.64874916108E+03  0.25500000920E-02 0. -1.
    10030    2    1    2    0    0  0.00000000000E+00  0.00000000000E+00 -0.33544039082E+03  0.96205793134E+03  0.90168464968E+03 0.  0.
        3    1    3    3  502    0 -0.21779849807E+03  0.14740456387E+03 -0.55842795038E+03  0.61725689723E+03  0.10100000352E+00 0. -1.
       -3    1    3    3    0  502  0.21779849807E+03 -0.14740456387E+03  0.22298755956E+03  0.34480103412E+03  0.10100000352E+00 0.  1.
</event>
<event>
 5   0  0.5770125E-03  0.8913162E+03  0.7818609E-02  0.9436502E-01
        4   -1    0    0  501    0  0.00000000000E+00  0.00000000000E+00  0.48804318258E+03  0.48804483499E+03  0.12699999809E+01 0.  1.
       -4   -1    0    0    0  501  0.00000000000E+00  0.00000000000E+00 -0.40695070885E+03  0.40695269053E+03  0.12699999809E+01 0. -1.
    10030    2    1    2    0    0  0.00000000000E+00  0.00000000000E+00  0.81092473730E+02  0.89499752552E+03  0.89131620730E+03 0.  0.
        2    1    3    3  502    0  0.25181640198E+03  0.27899200438E+03  0.28104140893E+03  0.46928915644E+03  0.25500000920E-02 0.  1.
       -2    1    3    3    0  502 -0.25181640198E+03 -0.27899200438E+03 -0.19994893520E+03  0.42570836908E+03  0.25500000920E-02 0. -1.
</event>
<event>
 5   0  0.8612969E-03  0.9045876E+03  0.7818609E-02  0.9419865E-01
       -1   -1    0    0    0  501  0.00000000000E+00  0.00000000000E+00  0.51790569986E+03  0.51790569988E+03  0.50400001928E-02 0.  1.
        1   -1    0    0  501    0  0.00000000000E+00  0.00000000000E+00 -0.39499406066E+03  0.39499406070E+03  0.50400001928E-02 0. -1.
    10030    2    1    2    0    0  0.00000000000E+00  0.00000000000E+00  0.12291163919E+03  0.91289976058E+03  0.90458758659E+03 0.  0.
        4    1    3    3  502    0  0.40173503381E+03  0.18227013217E+03 -0.39233846740E+02  0.44289315427E+03  0.12699999809E+01 0.  1.
       -4    1    3    3    0  502 -0.40173503381E+03 -0.18227013217E+03  0.16214548593E+03  0.47000660631E+03  0.12699999809E+01 0. -1.
</event>
<event>
 5   0  0.1454652E-02  0.8859605E+03  0.7818609E-02  0.9443304E-01
       -2   -1    0    0    0  501  0.00000000000E+00  0.00000000000E+00  0.32463844417E+03  0.32463844418E+03  0.25500000920E-02 0. -1.
        2   -1    0    0  501    0  0.00000000000E+00  0.00000000000E+00 -0.60446167093E+03  0.60446167093E+03  0.25500000920E-02 0.  1.
    10030    2    1    2    0    0  0.00000000000E+00  0.00000000000E+00 -0.27982322676E+03  0.92910011512E+03  0.88596048765E+03 0.  0.
        4    1    3    3  502    0 -0.34319777039E+03  0.26884525378E+03 -0.22226838988E+03  0.48935399265E+03  0.12699999809E+01 0. -1.
       -4    1    3    3    0  502  0.34319777039E+03 -0.26884525378E+03 -0.57554836876E+02  0.43974612247E+03  0.12699999809E+01 0.  1.
</event>
<event>
 5   0  0.1535906E-02  0.9014491E+03  0.7818609E-02  0.9423772E-01
       -2   -1    0    0    0  501  0.00000000000E+00  0.00000000000E+00  0.45964818660E+03  0.45964818660E+03  0.25500000920E-02 0.  1.
        2   -1    0    0  501    0  0.00000000000E+00  0.00000000000E+00 -0.44197419828E+03  0.44197419829E+03  0.25500000920E-02 0. -1.
    10030    2    1    2    0    0  0.00000000000E+00  0.00000000000E+00  0.17673988314E+02  0.90162238490E+03  0.90144914171E+03 0.  0.
        2    1    3    3  502    0  0.11622525332E+03  0.25444665795E+03 -0.34464460354E+03  0.44388209471E+03  0.25500000920E-02 0. -1.
       -2    1    3    3    0  502 -0.11622525332E+03 -0.25444665795E+03  0.36231859185E+03  0.45774029018E+03  0.25500000920E-02 0.  1.
</event>
<event>
 5   0  0.8612969E-03  0.9026097E+03  0.7818609E-02  0.9422325E-01
        1   -1    0    0  501    0  0.00000000000E+00  0.00000000000E+00  0.89077804145E+03  0.89077804147E+03  0.50400001928E-02 0.  1.
       -1   -1    0    0    0  501  0.00000000000E+00  0.00000000000E+00 -0.22864961743E+03  0.22864961749E+03  0.50400001928E-02 0. -1.
    10030    2    1    2    0    0  0.00000000000E+00  0.00000000000E+00  0.66212842402E+03  0.11194276590E+04  0.90260967962E+03 0.  0.
        4    1    3    3  502    0 -0.21697584388E+03  0.84169284470E+02  0.81061354174E+03  0.84336167344E+03  0.12699999809E+01 0.  1.
       -4    1    3    3    0  502  0.21697584388E+03 -0.84169284470E+02 -0.14848511772E+03  0.27606598552E+03  0.12699999809E+01 0. -1.
</event>
<event>
 5   0  0.1441195E-02  0.8776831E+03  0.7818609E-02  0.9453917E-01
        2   -1    0    0  501    0  0.00000000000E+00  0.00000000000E+00  0.64764497047E+03  0.64764497048E+03  0.25500000920E-02 0.  1.
       -2   -1    0    0    0  501  0.00000000000E+00  0.00000000000E+00 -0.29735721677E+03  0.29735721678E+03  0.25500000920E-02 0. -1.
    10030    2    1    2    0    0  0.00000000000E+00  0.00000000000E+00  0.35028775371E+03  0.94500218726E+03  0.87768309971E+03 0.  0.
        5    1    3    3  502    0 -0.14900313037E+03  0.23647105234E+03  0.53937975322E+03  0.60751386786E+03  0.46999998093E+01 0.  1.
       -5    1    3    3    0  502  0.14900313037E+03 -0.23647105234E+03 -0.18909199951E+03  0.33748831940E+03  0.46999998093E+01 0. -1.
</event>
<event>
 5   0  0.8738044E-03  0.7656776E+03  0.7818609E-02  0.9611071E-01
        1   -1    0    0  501    0  0.00000000000E+00  0.00000000000E+00  0.39655802994E+03  0.39655802997E+03  0.50400001928E-02 0. -1.
       -1   -1    0    0    0  501  0.00000000000E+00  0.00000000000E+00 -0.36959417090E+03  0.36959417094E+03  0.50400001928E-02 0.  1.
    10030    2    1    2    0    0  0.00000000000E+00  0.00000000000E+00  0.26963859034E+02  0.76615220091E+03  0.76567757265E+03 0.  0.
        3    1    3    3  502    0  0.33096511623E+03  0.11793387796E+02 -0.17870100694E+03  0.37631243965E+03  0.10100000352E+00 0. -1.
       -3    1    3    3    0  502 -0.33096511623E+03 -0.11793387796E+02  0.20566486597E+03  0.38983976125E+03  0.10100000352E+00 0.  1.
</event>
<event>
 5   0  0.1454652E-02  0.9109122E+03  0.7818609E-02  0.9412043E-01
        2   -1    0    0  501    0  0.00000000000E+00  0.00000000000E+00  0.14814826331E+04  0.14814826331E+04  0.25500000920E-02 0.  1.
       -2   -1    0    0    0  501  0.00000000000E+00  0.00000000000E+00 -0.14002205064E+03  0.14002205066E+03  0.25500000920E-02 0. -1.
    10030    2    1    2    0    0  0.00000000000E+00  0.00000000000E+00  0.13414605825E+04  0.16215046838E+04  0.91091215010E+03 0.  0.
        4    1    3    3  502    0 -0.28508664831E+03 -0.29505067925E+03  0.10227620633E+04  0.11019860033E+04  0.12699999809E+01 0.  1.
       -4    1    3    3    0  502  0.28508664831E+03  0.29505067925E+03  0.31869851915E+03  0.51951868049E+03  0.12699999809E+01 0. -1.
</event>
<event>
 5   0  0.5770125E-03  0.8836278E+03  0.7818609E-02  0.9446282E-01
        3   -1    0    0  501    0  0.00000000000E+00  0.00000000000E+00  0.28260617004E+03  0.28260618809E+03  0.10100000352E+00 0. -1.
       -3   -1    0    0    0  501  0.00000000000E+00  0.00000000000E+00 -0.69071219588E+03  0.69071220326E+03  0.10100000352E+00 0.  1.
    10030    2    1    2    0    0  0.00000000000E+00  0.00000000000E+00 -0.40810602584E+03  0.97331839135E+03  0.88362784169E+03 0.  0.
        2    1    3    3  502    0  0.29192773536E+03 -0.14156369661E+03  0.12628293867E+03  0.34815149501E+03  0.25500000920E-02 0. -1.
       -2    1    3    3    0  502 -0.29192773536E+03  0.14156369661E+03 -0.53438896452E+03  0.62516689634E+03  0.25500000920E-02 0.  1.
</event>
<event>
 5   0  0.5770125E-03  0.9292452E+03  0.7818609E-02  0.9389744E-01
        4   -1    0    0  501    0  0.00000000000E+00  0.00000000000E+00  0.14444765920E+04  0.14444771503E+04  0.12699999809E+01 0. -1.
       -4   -1    0    0    0  501  0.00000000000E+00  0.00000000000E+00 -0.14944472575E+03  0.14945012196E+03  0.12699999809E+01 0.  1.
    10030    2    1    2    0    0  0.00000000000E+00  0.00000000000E+00  0.12950318662E+04  0.15939272722E+04  0.92924518543E+03 0.  0.
        2    1    3    3  502    0 -0.74559826941E+02 -0.40528039486E+03  0.27937569459E+03  0.49785755492E+03  0.25500000920E-02 0.  1.
       -2    1    3    3    0  502  0.74559826941E+02  0.40528039486E+03  0.10156561716E+04  0.10960697173E+04  0.25500000920E-02 0. -1.
</event>
<event>
 5   0  0.8291252E-03  0.9038562E+03  0.7818609E-02  0.9420774E-01
        1   -1    0    0  501    0  0.00000000000E+00  0.00000000000E+00  0.59863789387E+03  0.59863789389E+03  0.50400001928E-02 0.  1.
       -1   -1    0    0    0  501  0.00000000000E+00  0.00000000000E+00 -0.34117284713E+03  0.34117284716E+03  0.50400001928E-02 0. -1.
    10030    2    1    2    0    0  0.00000000000E+00  0.00000000000E+00  0.25746504674E+03  0.93981074105E+03  0.90385617147E+03 0.  0.
        1    1    3    3  502    0 -0.13283938914E+03 -0.25511044053E+03  0.49118369464E+03  0.56920037076E+03  0.50400001928E-02 0.  1.
       -1    1    3    3    0  502  0.13283938914E+03  0.25511044053E+03 -0.23371864789E+03  0.37061037029E+03  0.50400001928E-02 0. -1.
</event>
<event>
 5   0  0.8291252E-03  0.9481830E+03  0.7818609E-02  0.9367277E-01
        1   -1    0    0  501    0  0.00000000000E+00  0.00000000000E+00  0.24470730373E+03  0.24470730378E+03  0.50400001928E-02 0.  1.
       -1   -1    0    0    0  501  0.00000000000E+00  0.00000000000E+00 -0.91849630393E+03  0.91849630394E+03  0.50400001928E-02 0. -1.
    10030    2    1    2    0    0  0.00000000000E+00  0.00000000000E+00 -0.67378900020E+03  0.11632036077E+04  0.94818300777E+03 0.  0.
        1    1    3    3  502    0 -0.27743313657E+03  0.49866045144E+02  0.13074029723E+03  0.31072301664E+03  0.50400001928E-02 0.  1.
       -1    1    3    3    0  502  0.27743313657E+03 -0.49866045144E+02 -0.80452929742E+03  0.85248059108E+03  0.50400001928E-02 0. -1.
</event>
<event>
 5   0  0.8738044E-03  0.9098313E+03  0.7818609E-02  0.9413375E-01
        1   -1    0    0  501    0  0.00000000000E+00  0.00000000000E+00  0.11714920410E+04  0.11714920410E+04  0.50400001928E-02 0.  1.
       -1   -1    0    0    0  501  0.00000000000E+00  0.00000000000E+00 -0.17665356415E+03  0.17665356422E+03  0.50400001928E-02 0. -1.
    10030    2    1    2    0    0  0.00000000000E+00  0.00000000000E+00  0.99483847685E+03  0.13481456052E+04  0.90983129090E+03 0.  0.
        3    1    3    3  502    0  0.20148434663E+03 -0.16541765262E+03  0.10498356895E+04  0.10817180441E+04  0.10100000352E+00 0.  1.
       -3    1    3    3    0  502 -0.20148434663E+03  0.16541765262E+03 -0.54997212664E+02  0.26642756114E+03  0.10100000352E+00 0. -1.
</event>
<event>
 5   0  0.1454652E-02  0.9093772E+03  0.7818609E-02  0.9413935E-01
        2   -1    0    0  501    0  0.00000000000E+00  0.00000000000E+00  0.88597202747E+03  0.88597202747E+03  0.25500000920E-02 0.  1.
       -2   -1    0    0    0  501  0.00000000000E+00  0.00000000000E+00 -0.23335016799E+03  0.23335016800E+03  0.25500000920E-02 0. -1.
    10030    2    1    2    0    0  0.00000000000E+00  0.00000000000E+00  0.65262185948E+03  0.11193221955E+04  0.90937719666E+03 0.  0.
        4    1    3    3  502    0 -0.13754394435E+03 -0.39944770183E+03  0.53324048852E+03  0.68031157173E+03  0.12699999809E+01 0.  1.
       -4    1    3    3    0  502  0.13754394435E+03  0.39944770183E+03  0.11938137096E+03  0.43901062375E+03  0.12699999809E+01 0. -1.
</event>
<event>
 5   0  0.1483326E-02  0.8783810E+03  0.7818609E-02  0.9453017E-01
       -2   -1    0    0    0  501  0.00000000000E+00  0.00000000000E+00  0.34828332679E+03  0.34828332680E+03  0.25500000920E-02 0. -1.
        2   -1    0    0  501    0  0.00000000000E+00  0.00000000000E+00 -0.55382581708E+03  0.55382581709E+03  0.25500000920E-02 0.  1.
    10030    2    1    2    0    0  0.00000000000E+00  0.00000000000E+00 -0.20554249029E+03  0.90210914389E+03  0.87838100627E+03 0.  0.
        1    1    3    3  502    0  0.45015426853E+02  0.35660251515E+03  0.15642823296E+03  0.39199685529E+03  0.50400001928E-02 0.  1.
       -1    1    3    3    0  502 -0.45015426853E+02 -0.35660251515E+03 -0.36197072325E+03  0.51011228860E+03  0.50400001928E-02 0. -1.
</event>
<event>
 5   0  0.5770125E-03  0.8726032E+03  0.7818609E-02  0.9460492E-01
        4   -1    0    0  501    0  0.00000000000E+00  0.00000000000E+00  0.10489991957E+04  0.10489999645E+04  0.12699999809E+01 0. -1.
       -4   -1    0    0    0  501  0.00000000000E+00  0.00000000000E+00 -0.18146425773E+03  0.18146870180E+03  0.12699999809E+01 0.  1.
    10030    2    1    2    0    0  0.00000000000E+00  0.00000000000E+00  0.86753493801E+03  0.12304686663E+04  0.87260315729E+03 0.  0.
        2    1    3    3  502    0  0.19969463252E+02  0.26603153272E+03 -0.53053364215E+02  0.27200407226E+03  0.25500000920E-02 0.  1.
       -2    1    3    3    0  502 -0.19969463252E+02 -0.26603153272E+03  0.92058830222E+03  0.95846459406E+03  0.25500000920E-02 0. -1.
</event>
<event>
 5   0  0.8885324E-03  0.9143088E+03  0.7818609E-02  0.9407869E-01
        1   -1    0    0  501    0  0.00000000000E+00  0.00000000000E+00  0.10504897717E+04  0.10504897717E+04  0.50400001928E-02 0. -1.
       -1   -1    0    0    0  501  0.00000000000E+00  0.00000000000E+00 -0.19894545721E+03  0.19894545727E+03  0.50400001928E-02 0.  1.
    10030    2    1    2    0    0  0.00000000000E+00  0.00000000000E+00  0.85154431445E+03  0.12494352289E+04  0.91430884926E+03 0.  0.
        2    1    3    3  502    0  0.53366610834E+02  0.30979012369E+03 -0.27811018611E+02  0.31558100173E+03  0.25500000920E-02 0.  1.
       -2    1    3    3    0  502 -0.53366610834E+02 -0.30979012369E+03  0.87935533306E+03  0.93385422721E+03  0.25500000920E-02 0. -1.
</event>
<event>
 5   0  0.5770125E-03  0.8828114E+03  0.7818609E-02  0.9447327E-01
       -3   -1    0    0    0  501  0.00000000000E+00  0.00000000000E+00  0.43552643296E+03  0.43552644467E+03  0.10100000352E+00 0. -1.
        3   -1    0    0  501    0  0.00000000000E+00  0.00000000000E+00 -0.44736434733E+03  0.44736435873E+03  0.10100000352E+00 0.  1.
    10030    2    1    2    0    0  0.00000000000E+00  0.00000000000E+00 -0.11837914373E+02  0.88289080340E+03  0.88281143769E+03 0.  0.
        5    1    3    3  502    0 -0.17212373154E+03 -0.16994106998E+03  0.36331658066E+03  0.43649464373E+03  0.46999998093E+01 0. -1.
       -5    1    3    3    0  502  0.17212373154E+03  0.16994106998E+03 -0.37515449504E+03  0.44639615967E+03  0.46999998093E+01 0.  1.
</event>
<event>
 5   0  0.8524692E-03  0.8912539E+03  0.7818609E-02  0.9436581E-01
       -1   -1    0    0    0  501  0.00000000000E+00  0.00000000000E+00  0.31339899217E+03  0.31339899221E+03  0.50400001928E-02 0. -1.
        1   -1    0    0  501    0  0.00000000000E+00  0.00000000000E+00 -0.63364401135E+03  0.63364401137E+03  0.50400001928E-02 0.  1.
    10030    2    1    2    0    0  0.00000000000E+00  0.00000000000E+00 -0.32024501919E+03  0.94704300358E+03  0.89125393593E+03 0.  0.
        5    1    3    3  502    0 -0.36657140632E+03  0.12439503015E+03  0.74402319465E+02  0.39421632969E+03  0.46999998093E+01 0. -1.
       -5    1    3    3    0  502  0.36657140632E+03 -0.12439503015E+03 -0.39464733865E+03  0.55282667389E+03  0.46999998093E+01 0.  1.
</event>
<event>
 5   0  0.1454652E-02  0.8921407E+03  0.7818609E-02  0.9435460E-01
       -2   -1    0    0    0  501  0.00000000000E+00  0.00000000000E+00  0.11178885888E+03  0.11178885891E+03  0.25500000920E-02 0.  1.
        2   -1    0    0  501    0  0.00000000000E+00  0.00000000000E+00 -0.17799515429E+04  0.17799515429E+04  0.25500000920E-02 0. -1.
    10030    2    1    2    0    0  0.00000000000E+00  0.00000000000E+00 -0.16681626840E+04  0.18917404018E+04  0.89214068816E+03 0.  0.
        4    1    3    3  502    0 -0.32251847843E+03  0.16830511686E+03 -0.13814384755E+04  0.14285372434E+04  0.12699999809E+01 0. -1.
       -4    1    3    3    0  502  0.32251847843E+03 -0.16830511686E+03 -0.28672420847E+03  0.46320315836E+03  0.12699999809E+01 0.  1.
</event>
<event>
 5   0  0.8738044E-03  0.9169332E+03  0.7818609E-02  0.9404658E-01
        1   -1    0    0  501    0  0.00000000000E+00  0.00000000000E+00  0.56250265183E+03  0.56250265185E+03  0.50400001928E-02 0. -1.
       -1   -1    0    0    0  501  0.00000000000E+00  0.00000000000E+00 -0.37367221438E+03  0.37367221441E+03  0.50400001928E-02 0.  1.
    10030    2    1    2    0    0  0.00000000000E+00  0.00000000000E+00  0.18883043745E+03  0.93617486627E+03  0.91693317429E+03 0.  0.
        3    1    3    3  502    0  0.11328349179E+03 -0.43716219826E+03  0.17511607302E+03  0.48436513740E+03  0.10100000352E+00 0.  1.
       -3    1    3    3    0  502 -0.11328349179E+03  0.43716219826E+03  0.13714364429E+02  0.45180972886E+03  0.10100000352E+00 0. -1.
</event>
<event>
 5   0  0.1454652E-02  0.8699603E+03  0.7818609E-02  0.9463932E-01
       -2   -1    0    0    0  501  0.00000000000E+00  0.00000000000E+00  0.11369333540E+03  0.11369333542E+03  0.25500000920E-02 0.  1.
        2   -1    0    0  501    0  0.00000000000E+00  0.00000000000E+00 -0.16641937392E+04  0.16641937392E+04  0.25500000920E-02 0. -1.
    10030    2    1    2    0    0  0.00000000000E+00  0.00000000000E+00 -0.15505004038E+04  0.17778870746E+04  0.86996031398E+03 0.  0.
        4    1    3    3  502    0 -0.25428553115E+03  0.94412261889E+02 -0.80317949205E+02  0.28289113173E+03  0.12699999809E+01 0.  1.
       -4    1    3    3    0  502  0.25428553115E+03 -0.94412261889E+02 -0.14701824546E+04  0.14949959429E+04  0.12699999809E+01 0. -1.
</event>
<event>
 5   0  0.8291252E-03  0.8965859E+03  0.7818609E-02  0.9429859E-01
        1   -1    0    0  501    0  0.00000000000E+00  0.00000000000E+00  0.70346715438E+03  0.70346715440E+03  0.50400001928E-02 0.  1.
       -1   -1    0    0    0  501  0.00000000000E+00  0.00000000000E+00 -0.28568012508E+03  0.28568012512E+03  0.50400001928E-02 0. -1.
    10030    2    1    2    0    0  0.00000000000E+00  0.00000000000E+00  0.41778702930E+03  0.98914727952E+03  0.89658593494E+03 0.  0.
        1    1    3    3  502    0 -0.36994152098E+03  0.15783303157E+03 -0.95324493734E+01  0.40231686817E+03  0.50400001928E-02 0. -1.
       -1    1    3    3    0  502  0.36994152098E+03 -0.15783303157E+03  0.42731947868E+03  0.58683041135E+03  0.50400001928E-02 0.  1.
</event>
<event>
 5   0  0.8291252E-03  0.9052498E+03  0.7818609E-02  0.9419043E-01
       -1   -1    0    0    0  501  0.00000000000E+00  0.00000000000E+00  0.24456277810E+03  0.24456277815E+03  0.50400001928E-02 0.  1.
        1   -1    0    0  501    0  0.00000000000E+00  0.00000000000E+00 -0.83769611258E+03  0.83769611260E+03  0.50400001928E-02 0. -1.
    10030    2    1    2    0    0  0.00000000000E+00  0.00000000000E+00 -0.59313333448E+03  0.10822588907E+04  0.90524977444E+03 0.  0.
        1    1    3    3  502    0  0.98826566539E+02 -0.28834594192E+02  0.23038029908E+03  0.25233550346E+03  0.50400001928E-02 0.  1.
       -1    1    3    3    0  502 -0.98826566539E+02  0.28834594192E+02 -0.82351363356E+03  0.82992338729E+03  0.50400001928E-02 0. -1.
</event>
<event>
 5   0  0.1454652E-02  0.9033903E+03  0.7818609E-02  0.9421353E-01
       -2   -1    0    0    0  501  0.00000000000E+00  0.00000000000E+00  0.66306781993E+03  0.66306781993E+03  0.25500000920E-02 0.  1.
        2   -1    0    0  501    0  0.00000000000E+00  0.00000000000E+00 -0.30770381299E+03  0.30770381300E+03  0.25500000920E-02 0. -1.
    10030    2    1    2    0    0  0.00000000000E+00  0.00000000000E+00  0.35536400694E+03  0.97077163293E+03  0.90339027329E+03 0.  0.
        4    1    3    3  502    0 -0.16323860603E+03 -0.20938000669E+02  0.62970100601E+03  0.65085344912E+03  0.12699999809E+01 0.  1.
       -4    1    3    3    0  502  0.16323860603E+03  0.20938000669E+02 -0.27433699907E+03  0.31991818381E+03  0.12699999809E+01 0. -1.
</event>
<event>
 5   0  0.1483326E-02  0.9029320E+03  0.7818609E-02  0.9421924E-01
        2   -1    0    0  501    0  0.00000000000E+00  0.00000000000E+00  0.37456752734E+03  0.37456752735E+03  0.25500000920E-02 0. -1.
       -2   -1    0    0    0  501  0.00000000000E+00  0.00000000000E+00 -0.54415172184E+03  0.54415172185E+03  0.25500000920E-02 0.  1.
    10030    2    1    2    0    0  0.00000000000E+00  0.00000000000E+00 -0.16958419450E+03  0.91871924920E+03  0.90293203500E+03 0.  0.
        1    1    3    3  502    0 -0.96160754989E+02  0.43834636481E+03 -0.34664713151E+02  0.45010673035E+03  0.50400001928E-02 0.  1.
       -1    1    3    3    0  502  0.96160754989E+02 -0.43834636481E+03 -0.13491948135E+03  0.46861251885E+03  0.50400001928E-02 0. -1.
</event>
<event>
 5   0  0.1454652E-02  0.9040012E+03  0.7818609E-02  0.9420594E-01
       -2   -1    0    0    0  501  0.00000000000E+00  0.00000000000E+00  0.22378190740E+03  0.22378190742E+03  0.25500000920E-02 0.  1.
        2   -1    0    0  501    0  0.00000000000E+00  0.00000000000E+00 -0.91296271573E+03  0.91296271574E+03  0.25500000920E-02 0. -1.
    10030    2    1    2    0    0  0.00000000000E+00  0.00000000000E+00 -0.68918080833E+03  0.11367446232E+04  0.90400119010E+03 0.  0.
        4    1    3    3  502    0 -0.31580563920E+03 -0.16072906255E+03  0.82516011628E+01  0.35445272622E+03  0.12699999809E+01 0.  1.
       -4    1    3    3    0  502  0.31580563920E+03  0.16072906255E+03 -0.69743240949E+03  0.78229189694E+03  0.12699999809E+01 0. -1.
</event>
<event>
 5   0  0.1454652E-02  0.8970499E+03  0.7818609E-02  0.9429277E-01
        2   -1    0    0  501    0  0.00000000000E+00  0.00000000000E+00  0.89812105265E+03  0.89812105265E+03  0.25500000920E-02 0. -1.
       -2   -1    0    0    0  501  0.00000000000E+00  0.00000000000E+00 -0.22399498329E+03  0.22399498330E+03  0.25500000920E-02 0.  1.
    10030    2    1    2    0    0  0.00000000000E+00  0.00000000000E+00  0.67412606936E+03  0.11221160360E+04  0.89704985411E+03 0.  0.
        4    1    3    3  502    0 -0.37391986152E+03  0.53838311593E+02  0.63950673452E+03  0.74275507607E+03  0.12699999809E+01 0. -1.
       -4    1    3    3    0  502  0.37391986152E+03 -0.53838311593E+02  0.34619334836E+02  0.37936095988E+03  0.12699999809E+01 0.  1.
</event>
<event>
 5   0  0.8291252E-03  0.8851079E+03  0.7818609E-02  0.9444391E-01
       -1   -1    0    0    0  501  0.00000000000E+00  0.00000000000E+00  0.76580320234E+03  0.76580320235E+03  0.50400001928E-02 0.  1.
        1   -1    0    0  501    0  0.00000000000E+00  0.00000000000E+00 -0.25574978207E+03  0.25574978212E+03  0.50400001928E-02 0. -1.
    10030    2    1    2    0    0  0.00000000000E+00  0.00000000000E+00  0.51005342027E+03  0.10215529845E+04  0.88510790786E+03 0.  0.
        1    1    3    3  502    0 -0.33446889386E+03 -0.66966730980E+02  0.58044974412E+03  0.67325766946E+03  0.50400001928E-02 0.  1.
       -1    1    3    3    0  502  0.33446889386E+03  0.66966730980E+02 -0.70396323844E+02  0.34829531501E+03  0.50400001928E-02 0. -1.
</event>
<event>
 5   0  0.8738044E-03  0.8976053E+03  0.7818609E-02  0.9428580E-01
       -1   -1    0    0    0  501  0.00000000000E+00  0.00000000000E+00  0.29512210718E+03  0.29512210722E+03  0.50400001928E-02 0. -1.
        1   -1    0    0  501    0  0.00000000000E+00  0.00000000000E+00 -0.68251016299E+03  0.68251016301E+03  0.50400001928E-02 0.  1.
    10030    2    1    2    0    0  0.00000000000E+00  0.00000000000E+00 -0.38738805581E+03  0.97763227023E+03  0.89760534201E+03 0.  0.
        3    1    3    3  502    0  0.22025097393E+03  0.15345176935E+03 -0.58543589669E+03  0.64404435901E+03  0.10100000352E+00 0.  1.
       -3    1    3    3    0  502 -0.22025097393E+03 -0.15345176935E+03  0.19804784088E+03  0.33358791122E+03  0.10100000352E+00 0. -1.
</event>
<event>
 5   0  0.1535906E-02  0.8804984E+03  0.7818609E-02  0.9450293E-01
        2   -1    0    0  501    0  0.00000000000E+00  0.00000000000E+00  0.14108610878E+04  0.14108610878E+04  0.25500000920E-02 0.  1.
       -2   -1    0    0    0  501  0.00000000000E+00  0.00000000000E+00 -0.13737665424E+03  0.13737665426E+03  0.25500000920E-02 0. -1.
    10030    2    1    2    0    0  0.00000000000E+00  0.00000000000E+00  0.12734844336E+04  0.15482377421E+04  0.88049844034E+03 0.  0.
        2    1    3    3  502    0 -0.40985036478E+03  0.10279192473E+03  0.85406842406E+03  0.95287794301E+03  0.25500000920E-02 0.  1.
       -2    1    3    3    0  502  0.40985036478E+03 -0.10279192473E+03  0.41941600955E+03  0.59535979909E+03  0.25500000920E-02 0. -1.
</event>
<event>
 5   0  0.5770125E-03  0.9490470E+03  0.7818609E-02  0.9366265E-01
       -3   -1    0    0    0  501  0.00000000000E+00  0.00000000000E+00  0.44035321174E+03  0.44035322333E+03  0.10100000352E+00 0. -1.
        3   -1    0    0  501    0  0.00000000000E+00  0.00000000000E+00 -0.51134523936E+03  0.51134524933E+03  0.10100000352E+00 0.  1.
    10030    2    1    2    0    0  0.00000000000E+00  0.00000000000E+00 -0.70992027611E+02  0.95169847266E+03  0.94904695083E+03 0.  0.
        3    1    3    3  502    0 -0.42160195349E+03  0.83877675115E+02  0.16603523755E+03  0.46081599568E+03  0.10100000352E+00 0. -1.
       -3    1    3    3    0  502  0.42160195349E+03 -0.83877675115E+02 -0.23702726517E+03  0.49088247697E+03  0.10100000352E+00 0.  1.
</event>
<event>
 5   0  0.8885324E-03  0.9079952E+03  0.7818609E-02  0.9415642E-01
       -1   -1    0    0    0  501  0.00000000000E+00  0.00000000000E+00  0.57157838525E+03  0.57157838528E+03  0.50400001928E-02 0.  1.
        1   -1    0    0  501    0  0.00000000000E+00  0.00000000000E+00 -0.36060466015E+03  0.36060466019E+03  0.50400001928E-02 0. -1.
    10030    2    1    2    0    0  0.00000000000E+00  0.00000000000E+00  0.21097372510E+03  0.93218304546E+03  0.90799521891E+03 0.  0.
        2    1    3    3  502    0 -0.22314657172E+03  0.25347435380E+03  0.41700056534E+03  0.53659399177E+03  0.25500000920E-02 0.  1.
       -2    1    3    3    0  502  0.22314657172E+03 -0.25347435380E+03 -0.20602684024E+03  0.39558905370E+03  0.25500000920E-02 0. -1.
</event>
<event>
 5   0  0.8885324E-03  0.9087475E+03  0.7818609E-02  0.9414712E-01
       -1   -1    0    0    0  501  0.00000000000E+00  0.00000000000E+00  0.58167870940E+03  0.58167870942E+03  0.50400001928E-02 0. -1.
        1   -1    0    0  501    0  0.00000000000E+00  0.00000000000E+00 -0.35493044407E+03  0.35493044411E+03  0.50400001928E-02 0.  1.
    10030    2    1    2    0    0  0.00000000000E+00  0.00000000000E+00  0.22674826532E+03  0.93660915353E+03  0.90874745152E+03 0.  0.
        2    1    3    3  502    0  0.28004190923E+03  0.31015620597E+02 -0.25402386104E+03  0.37935940957E+03  0.25500000920E-02 0.  1.
       -2    1    3    3    0  502 -0.28004190923E+03 -0.31015620597E+02  0.48077212636E+03  0.55724974396E+03  0.25500000920E-02 0. -1.
</event>
<event>
 5   0  0.8612969E-03  0.8978017E+03  0.7818609E-02  0.9428334E-01
        1   -1    0    0  501    0  0.00000000000E+00  0.00000000000E+00  0.39742831696E+03  0.39742831699E+03  0.50400001928E-02 0. -1.
       -1   -1    0    0    0  501  0.00000000000E+00  0.00000000000E+00 -0.50703981061E+03  0.50703981064E+03  0.50400001928E-02 0.  1.
    10030    2    1    2    0    0  0.00000000000E+00  0.00000000000E+00 -0.10961149365E+03  0.90446812763E+03  0.89780171216E+03 0.  0.
        4    1    3    3  502    0 -0.31302646830E+03  0.70618809299E+02  0.26143237653E+03  0.41390951484E+03  0.12699999809E+01 0. -1.
       -4    1    3    3    0  502  0.31302646830E+03 -0.70618809299E+02 -0.37104387018E+03  0.49055861278E+03  0.12699999809E+01 0.  1.
</event>
<event>
 5   0  0.1535906E-02  0.9196887E+03  0.7818609E-02  0.9401299E-01
        2   -1    0    0  501    0  0.00000000000E+00  0.00000000000E+00  0.13442580730E+04  0.13442580730E+04  0.25500000920E-02 0. -1.
       -2   -1    0    0    0  501  0.00000000000E+00  0.00000000000E+00 -0.15730375501E+03  0.15730375503E+03  0.25500000920E-02 0.  1.
    10030    2    1    2    0    0  0.00000000000E+00  0.00000000000E+00  0.11869543179E+04  0.15015618280E+04  0.91968873560E+03 0.  0.
        2    1    3    3  502    0 -0.10260142447E+03 -0.42723830410E+03  0.37202573656E+03  0.57572803429E+03  0.25500000920E-02 0.  1.
       -2    1    3    3    0  502  0.10260142447E+03  0.42723830410E+03  0.81492858138E+03  0.92583379370E+03  0.25500000920E-02 0. -1.
</event>
<event>
 5   0  0.8291252E-03  0.8997377E+03  0.7818609E-02  0.9425909E-01
       -1   -1    0    0    0  501  0.00000000000E+00  0.00000000000E+00  0.50169767479E+03  0.50169767482E+03  0.50400001928E-02 0.  1.
        1   -1    0    0  501    0  0.00000000000E+00  0.00000000000E+00 -0.40339427377E+03  0.40339427380E+03  0.50400001928E-02 0. -1.
    10030    2    1    2    0    0  0.00000000000E+00  0.00000000000E+00  0.98303401029E+02  0.90509194862E+03  0.89973767110E+03 0.  0.
        1    1    3    3  502    0  0.12864961658E+03  0.36162754200E+03  0.28518982047E+03  0.47818243036E+03  0.50400001928E-02 0.  1.
       -1    1    3    3    0  502 -0.12864961658E+03 -0.36162754200E+03 -0.18688641944E+03  0.42690951826E+03  0.50400001928E-02 0. -1.
</event>
<event>
 5   0  0.1535906E-02  0.8704689E+03  0.7818609E-02  0.9463269E-01
        2   -1    0    0  501    0  0.00000000000E+00  0.00000000000E+00  0.14857796769E+04  0.14857796769E+04  0.25500000920E-02 0.  1.
       -2   -1    0    0    0  501  0.00000000000E+00  0.00000000000E+00 -0.12749469808E+03  0.12749469811E+03  0.25500000920E-02 0. -1.
    10030    2    1    2    0    0  0.00000000000E+00  0.00000000000E+00  0.13582849789E+04  0.16132743750E+04  0.87046891121E+03 0.  0.
        2    1    3    3  502    0 -0.20708634936E+03  0.10671292398E+03  0.13604977970E+04  0.13802994820E+04  0.25500000920E-02 0.  1.
       -2    1    3    3    0  502  0.20708634936E+03 -0.10671292398E+03 -0.22128181573E+01  0.23297489308E+03  0.25500000920E-02 0. -1.
</event>
<event>
 5   0  0.1535906E-02  0.8952871E+03  0.7818609E-02  0.9431492E-01
        2   -1    0    0  501    0  0.00000000000E+00  0.00000000000E+00  0.14957630159E+04  0.14957630159E+04  0.25500000920E-02 0. -1.
       -2   -1    0    0    0  501  0.00000000000E+00  0.00000000000E+00 -0.13396824933E+03  0.13396824936E+03  0.25500000920E-02 0.  1.
    10030    2    1    2    0    0  0.00000000000E+00  0.00000000000E+00  0.13617947665E+04  0.16297312652E+04  0.89528711076E+03 0.  0.
        2    1    3    3  502    0  0.33188436179E+03 -0.24760018210E+03  0.99052553351E+03  0.10735892661E+04  0.25500000920E-02 0. -1.
       -2    1    3    3    0  502 -0.33188436179E+03  0.24760018210E+03  0.37126923301E+03  0.55614199910E+03  0.25500000920E-02 0.  1.
</event>
<event>
 5   0  0.1535906E-02  0.9106348E+03  0.7818609E-02  0.9412384E-01
        2   -1    0    0  501    0  0.00000000000E+00  0.00000000000E+00  0.53953306188E+03  0.53953306188E+03  0.25500000920E-02 0. -1.
       -2   -1    0    0    0  501  0.00000000000E+00  0.00000000000E+00 -0.38424697926E+03  0.38424697926E+03  0.25500000920E-02 0.  1.
    10030    2    1    2    0    0  0.00000000000E+00  0.00000000000E+00  0.15528608262E+03  0.92378004115E+03  0.91063483184E+03 0.  0.
        2    1    3    3  502    0  0.38214219006E+03  0.19758777517E+03  0.22892783962E+03  0.48732077535E+03  0.25500000920E-02 0. -1.
       -2    1    3    3    0  502 -0.38214219006E+03 -0.19758777517E+03 -0.73641757000E+02  0.43645926580E+03  0.25500000920E-02 0.  1.
</event>
<event>
 5   0  0.1483326E-02  0.8987260E+03  0.7818609E-02  0.9427175E-01
        2   -1    0    0  501    0  0.00000000000E+00  0.00000000000E+00  0.95825820671E+03  0.95825820672E+03  0.25500000920E-02 0.  1.
       -2   -1    0    0    0  501  0.00000000000E+00  0.00000000000E+00 -0.21072305713E+03  0.21072305715E+03  0.25500000920E-02 0. -1.
    10030    2    1    2    0    0  0.00000000000E+00  0.00000000000E+00  0.74753514958E+03  0.11689812639E+04  0.89872598461E+03 0.  0.
        1    1    3    3  502    0  0.26283176448E+03  0.31301096128E+03  0.13087704173E+03  0.42916803047E+03  0.50400001928E-02 0. -1.
       -1    1    3    3    0  502 -0.26283176448E+03 -0.31301096128E+03  0.61665810785E+03  0.73981323339E+03  0.50400001928E-02 0.  1.
</event>
<event>
 5   0  0.8885324E-03  0.8924164E+03  0.7818609E-02  0.9435111E-01
       -1   -1    0    0    0  501  0.00000000000E+00  0.00000000000E+00  0.21900950845E+03  0.21900950851E+03  0.50400001928E-02 0. -1.
        1   -1    0    0  501    0  0.00000000000E+00  0.00000000000E+00 -0.90910093964E+03  0.90910093965E+03  0.50400001928E-02 0.  1.
    10030    2    1    2    0    0  0.00000000000E+00  0.00000000000E+00 -0.69009143118E+03  0.11281104482E+04  0.89241638256E+03 0.  0.
        2    1    3    3  502    0  0.20329016625E+03  0.21062372301E+03 -0.77075640953E+03  0.82447236899E+03  0.25500000920E-02 0.  1.
       -2    1    3    3    0  502 -0.20329016625E+03 -0.21062372301E+03  0.80664978343E+02  0.30363807918E+03  0.25500000920E-02 0. -1.
</event>
<event>
 5   0  0.1454652E-02  0.9182820E+03  0.7818609E-02  0.9403012E-01
       -2   -1    0    0    0  501  0.00000000000E+00  0.00000000000E+00  0.27195159137E+03  0.27195159138E+03  0.25500000920E-02 0. -1.
        2   -1    0    0  501    0  0.00000000000E+00  0.00000000000E+00 -0.77517640602E+03  0.77517640603E+03  0.25500000920E-02 0.  1.
    10030    2    1    2    0    0  0.00000000000E+00  0.00000000000E+00 -0.50322481466E+03  0.10471279974E+04  0.91828199856E+03 0.  0.
        4    1    3    3  502    0 -0.39880450947E+03  0.22627529432E+03 -0.27867647588E+03  0.53657034646E+03  0.12699999809E+01 0. -1.
       -4    1    3    3    0  502  0.39880450947E+03 -0.22627529432E+03 -0.22454833878E+03  0.51055765095E+03  0.12699999809E+01 0.  1.
</event>
<event>
 5   0  0.1441195E-02  0.8950634E+03  0.7818609E-02  0.9431773E-01
       -2   -1    0    0    0  501  0.00000000000E+00  0.00000000000E+00  0.12494821827E+03  0.12494821830E+03  0.25500000920E-02 0. -1.
        2   -1    0    0  501    0  0.00000000000E+00  0.00000000000E+00 -0.16029411558E+04  0.16029411558E+04  0.25500000920E-02 0.  1.
    10030    2    1    2    0    0  0.00000000000E+00  0.00000000000E+00 -0.14779929376E+04  0.17278893741E+04  0.89506344230E+03 0.  0.
        5    1    3    3  502    0 -0.31655881628E+03  0.17340533144E+03 -0.22830284558E+03  0.42711025794E+03  0.46999998093E+01 0. -1.
       -5    1    3    3    0  502  0.31655881628E+03 -0.17340533144E+03 -0.12496900920E+04  0.13007791162E+04  0.46999998093E+01 0.  1.
</event>
<event>
 5   0  0.8738044E-03  0.8917369E+03  0.7818609E-02  0.9435970E-01
        1   -1    0    0  501    0  0.00000000000E+00  0.00000000000E+00  0.83497868581E+03  0.83497868583E+03  0.50400001928E-02 0. -1.
       -1   -1    0    0    0  501  0.00000000000E+00  0.00000000000E+00 -0.23808834048E+03  0.23808834053E+03  0.50400001928E-02 0.  1.
    10030    2    1    2    0    0  0.00000000000E+00  0.00000000000E+00  0.59689034533E+03  0.10730670264E+04  0.89173693357E+03 0.  0.
        3    1    3    3  502    0 -0.15938723493E+03 -0.32989347309E+03  0.60421006210E+03  0.70661432450E+03  0.10100000352E+00 0.  1.
       -3    1    3    3    0  502  0.15938723493E+03  0.32989347309E+03 -0.73197167625E+01  0.36645270186E+03  0.10100000352E+00 0. -1.
</event>
<event>
 5   0  0.1441195E-02  0.9035927E+03  0.7818609E-02  0.9421101E-01
       -2   -1    0    0    0  501  0.00000000000E+00  0.00000000000E+00  0.15348605047E+03  0.15348605049E+03  0.25500000920E-02 0.  1.
        2   -1    0    0  501    0  0.00000000000E+00  0.00000000000E+00 -0.13298924781E+04  0.13298924781E+04  0.25500000920E-02 0. -1.
    10030    2    1    2    0    0  0.00000000000E+00  0.00000000000E+00 -0.11764064276E+04  0.14833785286E+04  0.90359270478E+03 0.  0.
        5    1    3    3  502    0  0.24050171656E+03 -0.34702064654E+03 -0.32434508962E+03  0.53243425130E+03  0.46999998093E+01 0.  1.
       -5    1    3    3    0  502 -0.24050171656E+03  0.34702064654E+03 -0.85206133799E+03  0.95094427728E+03  0.46999998093E+01 0. -1.
</event>
<event>
 5   0  0.8524692E-03  0.9163413E+03  0.7818609E-02  0.9405381E-01
       -1   -1    0    0    0  501  0.00000000000E+00  0.00000000000E+00  0.12986479477E+03  0.12986479487E+03  0.50400001928E-02 0. -1.
        1   -1    0    0  501    0  0.00000000000E+00  0.00000000000E+00 -0.16164531676E+04  0.16164531677E+04  0.50400001928E-02 0.  1.
    10030    2    1    2    0    0  0.00000000000E+00  0.00000000000E+00 -0.14865883729E+04  0.17463179625E+04  0.91634133153E+03 0.  0.
        5    1    3    3  502    0 -0.26068834163E+02  0.14342238764E+03  0.84443936436E+02  0.16853021625E+03  0.46999998093E+01 0. -1.
       -5    1    3    3    0  502  0.26068834163E+02 -0.14342238764E+03 -0.15710323093E+04  0.15777877463E+04  0.46999998093E+01 0.  1.
</event>
<event>
 5   0  0.1441195E-02  0.8902294E+03  0.7818609E-02  0.9437878E-01
        2   -1    0    0  501    0  0.00000000000E+00  0.00000000000E+00  0.17682005456E+04  0.17682005456E+04  0.25500000920E-02 0.  1.
       -2   -1    0    0    0  501  0.00000000000E+00  0.00000000000E+00 -0.11205012106E+03  0.11205012109E+03  0.25500000920E-02 0. -1.
    10030    2    1    2    0    0  0.00000000000E+00  0.00000000000E+00  0.16561504245E+04  0.18802506667E+04  0.89022937545E+03 0.  0.
        5    1    3    3  502    0 -0.29523369580E+03 -0.28188084394E+03  0.12028474422E+04  0.12702298236E+04  0.46999998093E+01 0.  1.
       -5    1    3    3    0  502  0.29523369580E+03  0.28188084394E+03  0.45330298228E+03  0.61002084314E+03  0.46999998093E+01 0. -1.
</event>
<event>
 5   0  0.1535906E-02  0.8797116E+03  0.7818609E-02  0.9451304E-01
        2   -1    0    0  501    0  0.00000000000E+00  0.00000000000E+00  0.39725701117E+03  0.39725701118E+03  0.25500000920E-02 0. -1.
       -2   -1    0    0    0  501  0.00000000000E+00  0.00000000000E+00 -0.48702258512E+03  0.48702258513E+03  0.25500000920E-02 0.  1.
    10030    2    1    2    0    0  0.00000000000E+00  0.00000000000E+00 -0.89765573953E+02  0.88427959631E+03  0.87971162672E+03 0.  0.
        2    1    3    3  502    0 -0.85111024948E+01  0.12820845089E+03  0.37797162408E+03  0.39921472212E+03  0.25500000920E-02 0. -1.
       -2    1    3    3    0  502  0.85111024948E+01 -0.12820845089E+03 -0.46773719803E+03  0.48506487419E+03  0.25500000920E-02 0.  1.
</event>
<event>
 5   0  0.8291252E-03  0.9002067E+03  0.7818609E-02  0.9425323E-01
        1   -1    0    0  501    0  0.00000000000E+00  0.00000000000E+00  0.16637098871E+04  0.16637098871E+04  0.50400001928E-02 0. -1.
       -1   -1    0    0    0  501  0.00000000000E+00  0.00000000000E+00 -0.12177183557E+03  0.12177183567E+03  0.50400001928E-02 0.  1.
    10030    2    1    2    0    0  0.00000000000E+00  0.00000000000E+00  0.15419380515E+04  0.17854817228E+04  0.90020665829E+03 0.  0.
        1    1    3    3  502    0  0.10207826310E+02  0.44947315777E+03  0.72830546283E+03  0.85589670316E+03  0.50400001928E-02 0. -1.
       -1    1    3    3    0  502 -0.10207826310E+02 -0.44947315777E+03  0.81363258871E+03  0.92958501962E+03  0.50400001928E-02 0.  1.
</event>
<event>
 5   0  0.8291252E-03  0.9314857E+03  0.7818609E-02  0.9387057E-01
        1   -1    0    0  501    0  0.00000000000E+00  0.00000000000E+00  0.35061976115E+03  0.35061976118E+03  0.50400001928E-02 0.  1.
       -1   -1    0    0    0  501  0.00000000000E+00  0.00000000000E+00 -0.61866562658E+03  0.61866562660E+03  0.50400001928E-02 0. -1.
    10030    2    1    2    0    0  0.00000000000E+00  0.00000000000E+00 -0.26804586543E+03  0.96928538778E+03  0.93148568266E+03 0.  0.
        1    1    3    3  502    0 -0.14518211065E+03 -0.32185655299E+03 -0.45006972831E+03  0.57204217180E+03  0.50400001928E-02 0. -1.
       -1    1    3    3    0  502  0.14518211065E+03  0.32185655299E+03  0.18202386289E+03  0.39724321598E+03  0.50400001928E-02 0.  1.
</event>
<event>
 5   0  0.1454652E-02  0.9153981E+03  0.7818609E-02  0.9406535E-01
       -2   -1    0    0    0  501  0.00000000000E+00  0.00000000000E+00  0.15309341151E+03  0.15309341153E+03  0.25500000920E-02 0. -1.
        2   -1    0    0  501    0  0.00000000000E+00  0.00000000000E+00 -0.13683697838E+04  0.13683697838E+04  0.25500000920E-02 0.  1.
    10030    2    1    2    0    0  0.00000000000E+00  0.00000000000E+00 -0.12152763723E+04  0.15214631953E+04  0.91539805206E+03 0.  0.
        4    1    3    3  502    0  0.66577310602E+02  0.65146677091E+02 -0.13524461399E+04  0.13556506932E+04  0.12699999809E+01 0.  1.
       -4    1    3    3    0  502 -0.66577310602E+02 -0.65146677091E+02  0.13716976758E+03  0.16581250213E+03  0.12699999809E+01 0. -1.
</event>
<event>
 5   0  0.1454652E-02  0.9043163E+03  0.7818609E-02  0.9420202E-01
       -2   -1    0    0    0  501  0.00000000000E+00  0.00000000000E+00  0.88556214358E+02  0.88556214395E+02  0.25500000920E-02 0. -1.
        2   -1    0    0  501    0  0.00000000000E+00  0.00000000000E+00 -0.23086690965E+04  0.23086690965E+04  0.25500000920E-02 0.  1.
    10030    2    1    2    0    0  0.00000000000E+00  0.00000000000E+00 -0.22201128822E+04  0.23972253109E+04  0.90431630625E+03 0.  0.
        4    1    3    3  502    0 -0.19181560534E+03 -0.40019169950E+03 -0.13396095675E+04  0.14112058776E+04  0.12699999809E+01 0. -1.
       -4    1    3    3    0  502  0.19181560534E+03  0.40019169950E+03 -0.88050331471E+03  0.98601943334E+03  0.12699999809E+01 0.  1.
</event>
<event>
 5   0  0.1483326E-02  0.8943667E+03  0.7818609E-02  0.9432651E-01
       -2   -1    0    0    0  501  0.00000000000E+00  0.00000000000E+00  0.24382005499E+03  0.24382005500E+03  0.25500000920E-02 0.  1.
        2   -1    0    0  501    0  0.00000000000E+00  0.00000000000E+00 -0.82016614555E+03  0.82016614555E+03  0.25500000920E-02 0. -1.
    10030    2    1    2    0    0  0.00000000000E+00  0.00000000000E+00 -0.57634609056E+03  0.10639862006E+04  0.89436671386E+03 0.  0.
        1    1    3    3  502    0 -0.30638895230E+03  0.15805709293E+03  0.50652041746E+02  0.34845640197E+03  0.50400001928E-02 0.  1.
       -1    1    3    3    0  502  0.30638895230E+03 -0.15805709293E+03 -0.62699813230E+03  0.71552979858E+03  0.50400001928E-02 0. -1.
</event>
<event>
 5   0  0.1441195E-02  0.8583448E+03  0.7818609E-02  0.9479205E-01
        2   -1    0    0  501    0  0.00000000000E+00  0.00000000000E+00  0.53356807245E+03  0.53356807245E+03  0.25500000920E-02 0. -1.
       -2   -1    0    0    0  501  0.00000000000E+00  0.00000000000E+00 -0.34520233905E+03  0.34520233906E+03  0.25500000920E-02 0.  1.
    10030    2    1    2    0    0  0.00000000000E+00  0.00000000000E+00  0.18836573340E+03  0.87877041151E+03  0.85834479472E+03 0.  0.
        5    1    3    3  502    0 -0.10549694703E+03  0.34336709217E+03  0.33458173630E+03  0.49091505790E+03  0.46999998093E+01 0. -1.
       -5    1    3    3    0  502  0.10549694703E+03 -0.34336709217E+03 -0.14621600290E+03  0.38785535360E+03  0.46999998093E+01 0.  1.
</event>
<event>
 5   0  0.8738044E-03  0.8719216E+03  0.7818609E-02  0.9461378E-01
       -1   -1    0    0    0  501  0.00000000000E+00  0.00000000000E+00  0.14426191049E+03  0.14426191057E+03  0.50400001928E-02 0. -1.
        1   -1    0    0  501    0  0.00000000000E+00  0.00000000000E+00 -0.13174774650E+04  0.13174774650E+04  0.50400001928E-02 0.  1.
    10030    2    1    2    0    0  0.00000000000E+00  0.00000000000E+00 -0.11732155545E+04  0.14617393756E+04  0.87192159325E+03 0.  0.
        3    1    3    3  502    0 -0.27803564027E+03 -0.25230282470E+03 -0.21512482328E+03  0.43271148865E+03  0.10100000352E+00 0. -1.
       -3    1    3    3    0  502  0.27803564027E+03  0.25230282470E+03 -0.95809073124E+03  0.10290278869E+04  0.10100000352E+00 0.  1.
</event>
<event>
 5   0  0.8291252E-03  0.9044742E+03  0.7818609E-02  0.9420006E-01
       -1   -1    0    0    0  501  0.00000000000E+00  0.00000000000E+00  0.53993122553E+03  0.53993122556E+03  0.50400001928E-02 0. -1.
        1   -1    0    0  501    0  0.00000000000E+00  0.00000000000E+00 -0.37878597444E+03  0.37878597447E+03  0.50400001928E-02 0.  1.
    10030    2    1    2    0    0  0.00000000000E+00  0.00000000000E+00  0.16114525109E+03  0.91871720003E+03  0.90447415755E+03 0.  0.
        1    1    3    3  502    0 -0.35099803913E+03  0.82788518725E+01  0.37010553684E+03  0.51014338307E+03  0.50400001928E-02 0. -1.
       -1    1    3    3    0  502  0.35099803913E+03 -0.82788518725E+01 -0.20896028575E+03  0.40857381696E+03  0.50400001928E-02 0.  1.
</event>
<event>
 5   0  0.1535906E-02  0.8851259E+03  0.7818609E-02  0.9444368E-01
        2   -1    0    0  501    0  0.00000000000E+00  0.00000000000E+00  0.30594782768E+03  0.30594782769E+03  0.25500000920E-02 0.  1.
       -2   -1    0    0    0  501  0.00000000000E+00  0.00000000000E+00 -0.64018091351E+03  0.64018091351E+03  0.25500000920E-02 0. -1.
    10030    2    1    2    0    0  0.00000000000E+00  0.00000000000E+00 -0.33423308583E+03  0.94612874121E+03  0.88512588894E+03 0.  0.
        2    1    3    3  502    0  0.20566319381E+03  0.86514470303E+02 -0.57566197537E+03  0.61738870475E+03  0.25500000920E-02 0. -1.
       -2    1    3    3    0  502 -0.20566319381E+03 -0.86514470303E+02  0.24142888954E+03  0.32874003646E+03  0.25500000920E-02 0.  1.
</event>
<event>
 5   0  0.8524692E-03  0.8953208E+03  0.7818609E-02  0.9431450E-01
       -1   -1    0    0    0  501  0.00000000000E+00  0.00000000000E+00  0.30413168182E+03  0.30413168186E+03  0.50400001928E-02 0. -1.
        1   -1    0    0  501    0  0.00000000000E+00  0.00000000000E+00 -0.65892453682E+03  0.65892453684E+03  0.50400001928E-02 0.  1.
    10030    2    1    2    0    0  0.00000000000E+00  0.00000000000E+00 -0.35479285501E+03  0.96305621870E+03  0.89532078632E+03 0.  0.
        5    1    3    3  502    0 -0.10050245239E+03 -0.20218731976E+03 -0.59315797592E+03  0.63469593476E+03  0.46999998093E+01 0.  1.
       -5    1    3    3    0  502  0.10050245239E+03  0.20218731976E+03  0.23836512091E+03  0.32836028394E+03  0.46999998093E+01 0. -1.
</event>
<event>
 5   0  0.8291252E-03  0.9085744E+03  0.7818609E-02  0.9414926E-01
       -1   -1    0    0    0  501  0.00000000000E+00  0.00000000000E+00  0.22550422427E+03  0.22550422432E+03  0.50400001928E-02 0. -1.
        1   -1    0    0  501    0  0.00000000000E+00  0.00000000000E+00 -0.91517964971E+03  0.91517964972E+03  0.50400001928E-02 0.  1.
    10030    2    1    2    0    0  0.00000000000E+00  0.00000000000E+00 -0.68967542544E+03  0.11406838740E+04  0.90857443726E+03 0.  0.
        1    1    3    3  502    0 -0.32743807148E+03  0.28539366001E+03 -0.17775395288E+03  0.46932046580E+03  0.50400001928E-02 0. -1.
       -1    1    3    3    0  502  0.32743807148E+03 -0.28539366001E+03 -0.51192147256E+03  0.67136340824E+03  0.50400001928E-02 0.  1.
</event>
<event>
 5   0  0.8885324E-03  0.8981245E+03  0.7818609E-02  0.9427929E-01
        1   -1    0    0  501    0  0.00000000000E+00  0.00000000000E+00  0.55392341442E+03  0.55392341444E+03  0.50400001928E-02 0.  1.
       -1   -1    0    0    0  501  0.00000000000E+00  0.00000000000E+00 -0.36405194171E+03  0.36405194174E+03  0.50400001928E-02 0. -1.
    10030    2    1    2    0    0  0.00000000000E+00  0.00000000000E+00  0.18987147271E+03  0.91797535619E+03  0.89812447824E+03 0.  0.
        2    1    3    3  502    0 -0.33467795157E+03  0.13988103699E+03 -0.17564333185E+03  0.40302185524E+03  0.25500000920E-02 0. -1.
       -2    1    3    3    0  502  0.33467795157E+03 -0.13988103699E+03  0.36551480456E+03  0.51495350094E+03  0.25500000920E-02 0.  1.
</event>
<event>
 5   0  0.1535906E-02  0.9018866E+03  0.7818609E-02  0.9423226E-01
       -2   -1    0    0    0  501  0.00000000000E+00  0.00000000000E+00  0.33998128942E+03  0.33998128943E+03  0.25500000920E-02 0.  1.
        2   -1    0    0  501    0  0.00000000000E+00  0.00000000000E+00 -0.59812079532E+03  0.59812079533E+03  0.25500000920E-02 0. -1.
    10030    2    1    2    0    0  0.00000000000E+00  0.00000000000E+00 -0.25813950591E+03  0.93810208476E+03  0.90188664305E+03 0.  0.
        2    1    3    3  502    0 -0.16984410024E+02  0.33748496274E+03 -0.43966592962E+03  0.55451843967E+03  0.25500000920E-02 0. -1.
       -2    1    3    3    0  502  0.16984410024E+02 -0.33748496274E+03  0.18152642372E+03  0.38358364508E+03  0.25500000920E-02 0.  1.
</event>
<event>
 5   0  0.1440615E-02  0.9184442E+03  0.7818609E-02  0.9402815E-01
        2   -1    0    0  501    0  0.00000000000E+00  0.00000000000E+00  0.67556481827E+03  0.67556481827E+03  0.25500000920E-02 0. -1.
       -2   -1    0    0    0  501  0.00000000000E+00  0.00000000000E+00 -0.31216089400E+03  0.31216089401E+03  0.25500000920E-02 0.  1.
    10030    2    1    2    0    0  0.00000000000E+00  0.00000000000E+00  0.36340392427E+03  0.98772571228E+03  0.91844415754E+03 0.  0.
        3    1    3    3  502    0  0.26183554305E+03  0.37481002910E+03  0.13551465020E+03  0.47686962593E+03  0.10100000352E+00 0. -1.
       -3    1    3    3    0  502 -0.26183554305E+03 -0.37481002910E+03  0.22788927407E+03  0.51085608635E+03  0.10100000352E+00 0.  1.
</event>
<event>
 5   0  0.8524692E-03  0.8729207E+03  0.7818609E-02  0.9460080E-01
        1   -1    0    0  501    0  0.00000000000E+00  0.00000000000E+00  0.48293917671E+03  0.48293917673E+03  0.50400001928E-02 0.  1.
       -1   -1    0    0    0  501  0.00000000000E+00  0.00000000000E+00 -0.39445469592E+03  0.39445469595E+03  0.50400001928E-02 0. -1.
    10030    2    1    2    0    0  0.00000000000E+00  0.00000000000E+00  0.88484480791E+02  0.87739387268E+03  0.87292067479E+03 0.  0.
        5    1    3    3  502    0 -0.20508426298E+03 -0.32365083129E+03 -0.16579297786E+03  0.41751505006E+03  0.46999998093E+01 0. -1.
       -5    1    3    3    0  502  0.20508426298E+03  0.32365083129E+03  0.25427745865E+03  0.45987882262E+03  0.46999998093E+01 0.  1.
</event>
<event>
 5   0  0.8291252E-03  0.8968176E+03  0.7818609E-02  0.9429568E-01
        1   -1    0    0  501    0  0.00000000000E+00  0.00000000000E+00  0.66166443747E+03  0.66166443749E+03  0.50400001928E-02 0.  1.
       -1   -1    0    0    0  501  0.00000000000E+00  0.00000000000E+00 -0.30388582847E+03  0.30388582851E+03  0.50400001928E-02 0. -1.
    10030    2    1    2    0    0  0.00000000000E+00  0.00000000000E+00  0.35777860900E+03  0.96555026600E+03  0.89681758631E+03 0.  0.
        1    1    3    3  502    0  0.29460013033E+03 -0.32599191581E+03  0.82528584514E+02  0.44706927120E+03  0.50400001928E-02 0. -1.
       -1    1    3    3    0  502 -0.29460013033E+03  0.32599191581E+03  0.27525002448E+03  0.51848099480E+03  0.50400001928E-02 0.  1.
</event>
<event>
 5   0  0.8738044E-03  0.9049044E+03  0.7818609E-02  0.9419471E-01
        1   -1    0    0  501    0  0.00000000000E+00  0.00000000000E+00  0.66163798401E+03  0.66163798403E+03  0.50400001928E-02 0.  1.
       -1   -1    0    0    0  501  0.00000000000E+00  0.00000000000E+00 -0.30940335790E+03  0.30940335794E+03  0.50400001928E-02 0. -1.
    10030    2    1    2    0    0  0.00000000000E+00  0.00000000000E+00  0.35223462611E+03  0.97104134197E+03  0.90490444578E+03 0.  0.
        3    1    3    3  502    0 -0.43083778667E+03 -0.91067603976E+02  0.28762804128E+03  0.52596996801E+03  0.10100000352E+00 0.  1.
       -3    1    3    3    0  502  0.43083778667E+03  0.91067603976E+02  0.64606584827E+02  0.44507137396E+03  0.10100000352E+00 0. -1.
</event>
<event>
 5   0  0.1441195E-02  0.8996533E+03  0.7818609E-02  0.9426015E-01
       -2   -1    0    0    0  501  0.00000000000E+00  0.00000000000E+00  0.11281737457E+03  0.11281737460E+03  0.25500000920E-02 0. -1.
        2   -1    0    0  501    0  0.00000000000E+00  0.00000000000E+00 -0.17935536219E+04  0.17935536219E+04  0.25500000920E-02 0.  1.
    10030    2    1    2    0    0  0.00000000000E+00  0.00000000000E+00 -0.16807362473E+04  0.19063709965E+04  0.89965329056E+03 0.  0.
        5    1    3    3  502    0  0.50889224373E+02  0.25397889529E+03 -0.16195948521E+04  0.16401843090E+04  0.46999998093E+01 0.  1.
       -5    1    3    3    0  502 -0.50889224373E+02 -0.25397889529E+03 -0.61141395217E+02  0.26618668753E+03  0.46999998093E+01 0. -1.
</event>
<event>
 5   0  0.8524692E-03  0.8995602E+03  0.7818609E-02  0.9426131E-01
       -1   -1    0    0    0  501  0.00000000000E+00  0.00000000000E+00  0.82723711472E+03  0.82723711474E+03  0.50400001928E-02 0.  1.
        1   -1    0    0  501    0  0.00000000000E+00  0.00000000000E+00 -0.24455155022E+03  0.24455155028E+03  0.50400001928E-02 0. -1.
    10030    2    1    2    0    0  0.00000000000E+00  0.00000000000E+00  0.58268556450E+03  0.10717886650E+04  0.89956015662E+03 0.  0.
        5    1    3    3  502    0 -0.40408347400E+03 -0.84789038102E+02  0.50383498177E+03  0.65141723480E+03  0.46999998093E+01 0.  1.
       -5    1    3    3    0  502  0.40408347400E+03  0.84789038102E+02  0.78850582728E+02  0.42037143021E+03  0.46999998093E+01 0. -1.
</event>
<event>
 5   0  0.1535906E-02  0.8966347E+03  0.7818609E-02  0.9429798E-01
       -2   -1    0    0    0  501  0.00000000000E+00  0.00000000000E+00  0.14297172518E+03  0.14297172520E+03  0.25500000920E-02 0.  1.
        2   -1    0    0  501    0  0.00000000000E+00  0.00000000000E+00 -0.14057916836E+04  0.14057916836E+04  0.25500000920E-02 0. -1.
    10030    2    1    2    0    0  0.00000000000E+00  0.00000000000E+00 -0.12628199585E+04  0.15487634088E+04  0.89663473560E+03 0.  0.
        2    1    3    3  502    0 -0.39380604132E+03  0.17908228952E+03 -0.42824168893E+03  0.60872375405E+03  0.25500000920E-02 0.  1.
       -2    1    3    3    0  502  0.39380604132E+03 -0.17908228952E+03 -0.83457826954E+03  0.94003965480E+03  0.25500000920E-02 0. -1.
</event>
<event>
 5   0  0.1535906E-02  0.9159284E+03  0.7818609E-02  0.9405886E-01
       -2   -1    0    0    0  501  0.00000000000E+00  0.00000000000E+00  0.33322898947E+03  0.33322898948E+03  0.25500000920E-02 0. -1.
        2   -1    0    0  501    0  0.00000000000E+00  0.00000000000E+00 -0.62939070265E+03  0.62939070266E+03  0.25500000920E-02 0.  1.
    10030    2    1    2    0    0  0.00000000000E+00  0.00000000000E+00 -0.29616171318E+03  0.96261969213E+03  0.91592844225E+03 0.  0.
        2    1    3    3  502    0 -0.24899298934E+03  0.21351316310E+03 -0.48397586967E+03  0.58465205206E+03  0.25500000920E-02 0.  1.
       -2    1    3    3    0  502  0.24899298934E+03 -0.21351316310E+03  0.18781415648E+03  0.37796764007E+03  0.25500000920E-02 0. -1.
</event>
<event>
 5   0  0.1441195E-02  0.9057937E+03  0.7818609E-02  0.9418368E-01
        2   -1    0    0  501    0  0.00000000000E+00  0.00000000000E+00  0.12552670032E+04  0.12552670032E+04  0.25500000920E-02 0. -1.
       -2   -1    0    0    0  501  0.00000000000E+00  0.00000000000E+00 -0.16340392069E+03  0.16340392071E+03  0.25500000920E-02 0.  1.
    10030    2    1    2    0    0  0.00000000000E+00  0.00000000000E+00  0.10918630825E+04  0.14186709239E+04  0.90579368479E+03 0.  0.
        5    1    3    3  502    0  0.32287986299E+03  0.11489354556E+03  0.82263302727E+02  0.35247875640E+03  0.46999998093E+01 0.  1.
       -5    1    3    3    0  502 -0.32287986299E+03 -0.11489354556E+03  0.10095997798E+04  0.10661921675E+04  0.46999998093E+01 0. -1.
</event>
<event>
 5   0  0.1483326E-02  0.7588864E+03  0.7818609E-02  0.9621511E-01
       -2   -1    0    0    0  501  0.00000000000E+00  0.00000000000E+00  0.45868047180E+03  0.45868047181E+03  0.25500000920E-02 0. -1.
        2   -1    0    0  501    0  0.00000000000E+00  0.00000000000E+00 -0.31389422900E+03  0.31389422901E+03  0.25500000920E-02 0.  1.
    10030    2    1    2    0    0  0.00000000000E+00  0.00000000000E+00  0.14478624280E+03  0.77257470082E+03  0.75888642908E+03 0.  0.
        1    1    3    3  502    0 -0.10520240449E+02  0.17558845278E+03 -0.26987818868E+03  0.32214316221E+03  0.50400001928E-02 0.  1.
       -1    1    3    3    0  502  0.10520240449E+02 -0.17558845278E+03  0.41466443148E+03  0.45043153860E+03  0.50400001928E-02 0. -1.
</event>
<event>
 5   0  0.1535906E-02  0.9705144E+03  0.7818609E-02  0.9341489E-01
        2   -1    0    0  501    0  0.00000000000E+00  0.00000000000E+00  0.90077563276E+03  0.90077563276E+03  0.25500000920E-02 0.  1.
       -2   -1    0    0    0  501  0.00000000000E+00  0.00000000000E+00 -0.26141308436E+03  0.26141308438E+03  0.25500000920E-02 0. -1.
    10030    2    1    2    0    0  0.00000000000E+00  0.00000000000E+00  0.63936254840E+03  0.11621887171E+04  0.97051437184E+03 0.  0.
        2    1    3    3  502    0 -0.24153265856E+03 -0.19791547518E+03 -0.12511453083E+03  0.33639590708E+03  0.25500000920E-02 0. -1.
       -2    1    3    3    0  502  0.24153265856E+03  0.19791547518E+03  0.76447707923E+03  0.82579281006E+03  0.25500000920E-02 0.  1.
</event>
<event>
 5   0  0.1483326E-02  0.8984673E+03  0.7818609E-02  0.9427499E-01
       -2   -1    0    0    0  501  0.00000000000E+00  0.00000000000E+00  0.73692871209E+02  0.73692871253E+02  0.25500000920E-02 0.  1.
        2   -1    0    0  501    0  0.00000000000E+00  0.00000000000E+00 -0.27385400289E+04  0.27385400289E+04  0.25500000920E-02 0. -1.
    10030    2    1    2    0    0  0.00000000000E+00  0.00000000000E+00 -0.26648471577E+04  0.28122329001E+04  0.89846731206E+03 0.  0.
        1    1    3    3  502    0  0.17926485413E+03  0.74906839894E+02 -0.26002377209E+04  0.26074859785E+04  0.50400001928E-02 0. -1.
       -1    1    3    3    0  502 -0.17926485413E+03 -0.74906839894E+02 -0.64609436752E+02  0.20474692167E+03  0.50400001928E-02 0.  1.
</event>
<event>
 5   0  0.8612969E-03  0.8759636E+03  0.7818609E-02  0.9456137E-01
       -1   -1    0    0    0  501  0.00000000000E+00  0.00000000000E+00  0.11959503532E+03  0.11959503543E+03  0.50400001928E-02 0.  1.
        1   -1    0    0  501    0  0.00000000000E+00  0.00000000000E+00 -0.16039800420E+04  0.16039800420E+04  0.50400001928E-02 0. -1.
    10030    2    1    2    0    0  0.00000000000E+00  0.00000000000E+00 -0.14843850067E+04  0.17235750775E+04  0.87596358346E+03 0.  0.
        4    1    3    3  502    0  0.37347171698E+03 -0.22879097135E+03 -0.74233211545E+03  0.86190777609E+03  0.12699999809E+01 0. -1.
       -4    1    3    3    0  502 -0.37347171698E+03  0.22879097135E+03 -0.74205289126E+03  0.86166730138E+03  0.12699999809E+01 0.  1.
</event>
<event>
 5   0  0.8612969E-03  0.1018157E+04  0.7818609E-02  0.9288852E-01
       -1   -1    0    0    0  501  0.00000000000E+00  0.00000000000E+00  0.73501643060E+03  0.73501643062E+03  0.50400001928E-02 0.  1.
        1   -1    0    0  501    0  0.00000000000E+00  0.00000000000E+00 -0.35259200382E+03  0.35259200386E+03  0.50400001928E-02 0. -1.
    10030    2    1    2    0    0  0.00000000000E+00  0.00000000000E+00  0.38242442678E+03  0.10876084345E+04  0.10181569941E+04 0.  0.
        4    1    3    3  502    0 -0.41670745833E+03 -0.20035244373E+03  0.41875183084E+03  0.62381160318E+03  0.12699999809E+01 0.  1.
       -4    1    3    3    0  502  0.41670745833E+03  0.20035244373E+03 -0.36327404068E+02  0.46379683129E+03  0.12699999809E+01 0. -1.
</event>
<event>
 5   0  0.8612969E-03  0.9041879E+03  0.7818609E-02  0.9420361E-01
       -1   -1    0    0    0  501  0.00000000000E+00  0.00000000000E+00  0.13246144429E+03  0.13246144439E+03  0.50400001928E-02 0. -1.
        1   -1    0    0  501    0  0.00000000000E+00  0.00000000000E+00 -0.15430070666E+04  0.15430070666E+04  0.50400001928E-02 0.  1.
    10030    2    1    2    0    0  0.00000000000E+00  0.00000000000E+00 -0.14105456223E+04  0.16754685110E+04  0.90418791119E+03 0.  0.
        4    1    3    3  502    0  0.42587339121E+02  0.42510946382E+03 -0.43133064729E+03  0.60710746815E+03  0.12699999809E+01 0. -1.
       -4    1    3    3    0  502 -0.42587339121E+02 -0.42510946382E+03 -0.97921497506E+03  0.10683610429E+04  0.12699999809E+01 0.  1.
</event>
<event>
 5   0  0.1454652E-02  0.8922444E+03  0.7818609E-02  0.9435329E-01
       -2   -1    0    0    0  501  0.00000000000E+00  0.00000000000E+00  0.27739202847E+03  0.27739202848E+03  0.25500000920E-02 0. -1.
        2   -1    0    0  501    0  0.00000000000E+00  0.00000000000E+00 -0.71748646715E+03  0.71748646715E+03  0.25500000920E-02 0.  1.
    10030    2    1    2    0    0  0.00000000000E+00  0.00000000000E+00 -0.44009443868E+03  0.99487849563E+03  0.89224442061E+03 0.  0.
        4    1    3    3  502    0  0.23826344995E+03 -0.25272212766E+03  0.92131993510E+02  0.35934365519E+03  0.12699999809E+01 0. -1.
       -4    1    3    3    0  502 -0.23826344995E+03  0.25272212766E+03 -0.53222643219E+03  0.63553484044E+03  0.12699999809E+01 0.  1.
</event>
<event>
 5   0  0.8524692E-03  0.9001403E+03  0.7818609E-02  0.9425406E-01
       -1   -1    0    0    0  501  0.00000000000E+00  0.00000000000E+00  0.57610979833E+03  0.57610979835E+03  0.50400001928E-02 0.  1.
        1   -1    0    0  501    0  0.00000000000E+00  0.00000000000E+00 -0.35160509568E+03  0.35160509572E+03  0.50400001928E-02 0. -1.
    10030    2    1    2    0    0  0.00000000000E+00  0.00000000000E+00  0.22450470264E+03  0.92771489407E+03  0.90014030194E+03 0.  0.
        5    1    3    3  502    0 -0.56034206651E+02  0.43638200718E+03  0.20987442799E+03  0.48748174738E+03  0.46999998093E+01 0. -1.
       -5    1    3    3    0  502  0.56034206651E+02 -0.43638200718E+03  0.14630274656E+02  0.44023314669E+03  0.46999998093E+01 0.  1.
</event>
<event>
 5   0  0.8885324E-03  0.9014985E+03  0.7818609E-02  0.9423710E-01
       -1   -1    0    0    0  501  0.00000000000E+00  0.00000000000E+00  0.48266648573E+03  0.48266648576E+03  0.50400001928E-02 0.  1.
        1   -1    0    0  501    0  0.00000000000E+00  0.00000000000E+00 -0.42094260715E+03  0.42094260718E+03  0.50400001928E-02 0. -1.
    10030    2    1    2    0    0  0.00000000000E+00  0.00000000000E+00  0.61723878578E+02  0.90360909294E+03  0.90149850563E+03 0.  0.
        2    1    3    3  502    0  0.16581901321E+03 -0.41807573168E+03  0.60791960693E+02  0.45384901130E+03  0.25500000920E-02 0.  1.
       -2    1    3    3    0  502 -0.16581901321E+03  0.41807573168E+03  0.93191788516E+00  0.44976008164E+03  0.25500000920E-02 0. -1.
</event>
<event>
 5   0  0.8612969E-03  0.9038448E+03  0.7818609E-02  0.9420788E-01
       -1   -1    0    0    0  501  0.00000000000E+00  0.00000000000E+00  0.61358600856E+03  0.61358600859E+03  0.50400001928E-02 0. -1.
        1   -1    0    0  501    0  0.00000000000E+00  0.00000000000E+00 -0.33285286964E+03  0.33285286968E+03  0.50400001928E-02 0.  1.
    10030    2    1    2    0    0  0.00000000000E+00  0.00000000000E+00  0.28073313892E+03  0.94643887827E+03  0.90384481799E+03 0.  0.
        4    1    3    3  502    0  0.12138721684E+03  0.68467019867E+02  0.59052048870E+03  0.60674430339E+03  0.12699999809E+01 0. -1.
       -4    1    3    3    0  502 -0.12138721684E+03 -0.68467019867E+02 -0.30978734978E+03  0.33969457488E+03  0.12699999809E+01 0.  1.
</event>
<event>
 5   0  0.8612969E-03  0.8886736E+03  0.7818609E-02  0.9439852E-01
       -1   -1    0    0    0  501  0.00000000000E+00  0.00000000000E+00  0.36345616636E+03  0.36345616640E+03  0.50400001928E-02 0. -1.
        1   -1    0    0  501    0  0.00000000000E+00  0.00000000000E+00 -0.54321594487E+03  0.54321594489E+03  0.50400001928E-02 0.  1.
    10030    2    1    2    0    0  0.00000000000E+00  0.00000000000E+00 -0.17975977851E+03  0.90667211129E+03  0.88867358429E+03 0.  0.
        4    1    3    3  502    0  0.19472804607E+03  0.10960983208E+03  0.30195613092E+03  0.37564936459E+03  0.12699999809E+01 0. -1.
       -4    1    3    3    0  502 -0.19472804607E+03 -0.10960983208E+03 -0.48171590943E+03  0.53102274670E+03  0.12699999809E+01 0.  1.
</event>
<event>
 5   0  0.1440615E-02  0.8765179E+03  0.7818609E-02  0.9455421E-01
        2   -1    0    0  501    0  0.00000000000E+00  0.00000000000E+00  0.54581642330E+03  0.54581642331E+03  0.25500000920E-02 0.  1.
       -2   -1    0    0    0  501  0.00000000000E+00  0.00000000000E+00 -0.35189649885E+03  0.35189649885E+03  0.25500000920E-02 0. -1.
    10030    2    1    2    0    0  0.00000000000E+00  0.00000000000E+00  0.19391992445E+03  0.89771292216E+03  0.87651785693E+03 0.  0.
        3    1    3    3  502    0 -0.42883155989E+03 -0.55802319608E+02  0.24102801107E+02  0.43311818347E+03  0.10100000352E+00 0. -1.
       -3    1    3    3    0  502  0.42883155989E+03  0.55802319608E+02  0.16981712335E+03  0.46459473869E+03  0.10100000352E+00 0.  1.
</event>
<event>
 5   0  0.8885324E-03  0.7610932E+03  0.7818609E-02  0.9618106E-01
        1   -1    0    0  501    0  0.00000000000E+00  0.00000000000E+00  0.14788502962E+04  0.14788502962E+04  0.50400001928E-02 0. -1.
       -1   -1    0    0    0  501  0.00000000000E+00  0.00000000000E+00 -0.97924537367E+02  0.97924537496E+02  0.50400001928E-02 0.  1.
    10030    2    1    2    0    0  0.00000000000E+00  0.00000000000E+00  0.13809257589E+04  0.15767748337E+04  0.76109324318E+03 0.  0.
        2    1    3    3  502    0  0.40805688482E+02  0.37009287561E+03  0.85335214462E+03  0.93104442618E+03  0.25500000920E-02 0.  1.
       -2    1    3    3    0  502 -0.40805688482E+02 -0.37009287561E+03  0.52757361425E+03  0.64573040756E+03  0.25500000920E-02 0. -1.
</event>
<event>
 5   0  0.1440615E-02  0.9011547E+03  0.7818609E-02  0.9424139E-01
       -2   -1    0    0    0  501  0.00000000000E+00  0.00000000000E+00  0.30002951336E+03  0.30002951337E+03  0.25500000920E-02 0. -1.
        2   -1    0    0  501    0  0.00000000000E+00  0.00000000000E+00 -0.67666658092E+03  0.67666658093E+03  0.25500000920E-02 0.  1.
    10030    2    1    2    0    0  0.00000000000E+00  0.00000000000E+00 -0.37663706757E+03  0.97669609430E+03  0.90115469257E+03 0.  0.
        3    1    3    3  502    0  0.18784042337E+03  0.24367145330E+03 -0.54509390538E+03  0.62592905164E+03  0.10100000352E+00 0.  1.
       -3    1    3    3    0  502 -0.18784042337E+03 -0.24367145330E+03  0.16845683782E+03  0.35076704265E+03  0.10100000352E+00 0. -1.
</event>
<event>
 5   0  0.8524692E-03  0.9033528E+03  0.7818609E-02  0.9421400E-01
       -1   -1    0    0    0  501  0.00000000000E+00  0.00000000000E+00  0.58491953184E+03  0.58491953187E+03  0.50400001928E-02 0.  1.
        1   -1    0    0  501    0  0.00000000000E+00  0.00000000000E+00 -0.34878569284E+03  0.34878569288E+03  0.50400001928E-02 0. -1.
    10030    2    1    2    0    0  0.00000000000E+00  0.00000000000E+00  0.23613383900E+03  0.93370522474E+03  0.90335278645E+03 0.  0.
        5    1    3    3  502    0  0.55641926423E+02  0.31318291570E+03 -0.21334635001E+03  0.38303827188E+03  0.46999998093E+01 0. -1.
       -5    1    3    3    0  502 -0.55641926423E+02 -0.31318291570E+03  0.44948018902E+03  0.55066695286E+03  0.46999998093E+01 0.  1.
</event>
<event>
 5   0  0.1440615E-02  0.8969524E+03  0.7818609E-02  0.9429399E-01
        2   -1    0    0  501    0  0.00000000000E+00  0.00000000000E+00  0.68128213842E+03  0.68128213843E+03  0.25500000920E-02 0.  1.
       -2   -1    0    0    0  501  0.00000000000E+00  0.00000000000E+00 -0.29522410781E+03  0.29522410782E+03  0.25500000920E-02 0. -1.
    10030    2    1    2    0    0  0.00000000000E+00  0.00000000000E+00  0.38605803062E+03  0.97650624624E+03  0.89695242123E+03 0.  0.
        3    1    3    3  502    0 -0.28777711723E+03 -0.33925087783E+03  0.25484604283E+03  0.51269224985E+03  0.10100000352E+00 0. -1.
       -3    1    3    3    0  502  0.28777711723E+03  0.33925087783E+03  0.13121198779E+03  0.46381399639E+03  0.10100000352E+00 0.  1.
</event>
<event>
 5   0  0.8291252E-03  0.9126396E+03  0.7818609E-02  0.9409918E-01
       -1   -1    0    0    0  501  0.00000000000E+00  0.00000000000E+00  0.21849991308E+03  0.21849991313E+03  0.50400001928E-02 0.  1.
        1   -1    0    0  501    0  0.00000000000E+00  0.00000000000E+00 -0.95298780447E+03  0.95298780449E+03  0.50400001928E-02 0. -1.
    10030    2    1    2    0    0  0.00000000000E+00  0.00000000000E+00 -0.73448789140E+03  0.11714877176E+04  0.91263958381E+03 0.  0.
        1    1    3    3  502    0  0.23983022397E+03 -0.23106402464E+03  0.33195118100E+02  0.33468049794E+03  0.50400001928E-02 0.  1.
       -1    1    3    3    0  502 -0.23983022397E+03  0.23106402464E+03 -0.76768300950E+03  0.83680721968E+03  0.50400001928E-02 0. -1.
</event>
<event>
 5   0  0.8524692E-03  0.8274385E+03  0.7818609E-02  0.9521129E-01
        1   -1    0    0  501    0  0.00000000000E+00  0.00000000000E+00  0.14787402084E+04  0.14787402084E+04  0.50400001928E-02 0.  1.
       -1   -1    0    0    0  501  0.00000000000E+00  0.00000000000E+00 -0.11574961692E+03  0.11574961703E+03  0.50400001928E-02 0. -1.
    10030    2    1    2    0    0  0.00000000000E+00  0.00000000000E+00  0.13629905915E+04  0.15944898254E+04  0.82743848771E+03 0.  0.
        5    1    3    3  502    0  0.26131362572E+03  0.16522314271E+03  0.15179973561E+03  0.34445427506E+03  0.46999998093E+01 0. -1.
       -5    1    3    3    0  502 -0.26131362572E+03 -0.16522314271E+03  0.12111908559E+04  0.12500355504E+04  0.46999998093E+01 0.  1.
</event>
<event>
 5   0  0.1441195E-02  0.8943299E+03  0.7818609E-02  0.9432697E-01
       -2   -1    0    0    0  501  0.00000000000E+00  0.00000000000E+00  0.41597644490E+03  0.41597644491E+03  0.25500000920E-02 0.  1.
        2   -1    0    0  501    0  0.00000000000E+00  0.00000000000E+00 -0.48069184914E+03  0.48069184914E+03  0.25500000920E-02 0. -1.
    10030    2    1    2    0    0  0.00000000000E+00  0.00000000000E+00 -0.64715404232E+02  0.89666829405E+03  0.89432988657E+03 0.  0.
        5    1    3    3  502    0 -0.23772128594E+03 -0.25200684740E+03  0.25107481683E+03  0.42787792017E+03  0.46999998093E+01 0.  1.
       -5    1    3    3    0  502  0.23772128594E+03  0.25200684740E+03 -0.31579022107E+03  0.46879037388E+03  0.46999998093E+01 0. -1.
</event>
<event>
 5   0  0.8291252E-03  0.9072139E+03  0.7818609E-02  0.9416608E-01
       -1   -1    0    0    0  501  0.00000000000E+00  0.00000000000E+00  0.52698011300E+03  0.52698011303E+03  0.50400001928E-02 0. -1.
        1   -1    0    0  501    0  0.00000000000E+00  0.00000000000E+00 -0.39044974976E+03  0.39044974979E+03  0.50400001928E-02 0.  1.
    10030    2    1    2    0    0  0.00000000000E+00  0.00000000000E+00  0.13653036324E+03  0.91742986282E+03  0.90721387396E+03 0.  0.
        1    1    3    3  502    0 -0.30448504675E+03  0.24435057636E+03  0.30182244655E+03  0.49347252925E+03  0.50400001928E-02 0. -1.
       -1    1    3    3    0  502  0.30448504675E+03 -0.24435057636E+03 -0.16529208331E+03  0.42395733357E+03  0.50400001928E-02 0.  1.
</event>
<event>
 5   0  0.8885324E-03  0.8878320E+03  0.7818609E-02  0.9440921E-01
        1   -1    0    0  501    0  0.00000000000E+00  0.00000000000E+00  0.64512263186E+03  0.64512263188E+03  0.50400001928E-02 0. -1.
       -1   -1    0    0    0  501  0.00000000000E+00  0.00000000000E+00 -0.30546348595E+03  0.30546348599E+03  0.50400001928E-02 0.  1.
    10030    2    1    2    0    0  0.00000000000E+00  0.00000000000E+00  0.33965914591E+03  0.95058611787E+03  0.88783198415E+03 0.  0.
        2    1    3    3  502    0  0.16641708209E+03  0.29026742398E+03  0.48218929044E+03  0.58690402491E+03  0.25500000920E-02 0. -1.
       -2    1    3    3    0  502 -0.16641708209E+03 -0.29026742398E+03 -0.14253014453E+03  0.36368209296E+03  0.25500000920E-02 0.  1.
</event>
<event>
 5   0  0.1535906E-02  0.9004235E+03  0.7818609E-02  0.9425052E-01
        2   -1    0    0  501    0  0.00000000000E+00  0.00000000000E+00  0.81426042669E+03  0.81426042669E+03  0.25500000920E-02 0.  1.
       -2   -1    0    0    0  501  0.00000000000E+00  0.00000000000E+00 -0.24892601047E+03  0.24892601048E+03  0.25500000920E-02 0. -1.
    10030    2    1    2    0    0  0.00000000000E+00  0.00000000000E+00  0.56533441622E+03  0.10631864372E+04  0.90042345484E+03 0.  0.
        2    1    3    3  502    0  0.32653503506E+02 -0.11014755444E+02 -0.24736640471E+03  0.24975530888E+03  0.25500000920E-02 0. -1.
       -2    1    3    3    0  502 -0.32653503506E+02  0.11014755444E+02  0.81270082093E+03  0.81343112829E+03  0.25500000920E-02 0.  1.
</event>
<event>
 5   0  0.1535906E-02  0.8879419E+03  0.7818609E-02  0.9440781E-01
        2   -1    0    0  501    0  0.00000000000E+00  0.00000000000E+00  0.10072336066E+04  0.10072336066E+04  0.25500000920E-02 0.  1.
       -2   -1    0    0    0  501  0.00000000000E+00  0.00000000000E+00 -0.19569461346E+03  0.19569461347E+03  0.25500000920E-02 0. -1.
    10030    2    1    2    0    0  0.00000000000E+00  0.00000000000E+00  0.81153899312E+03  0.12029282201E+04  0.88794187042E+03 0.  0.
        2    1    3    3  502    0 -0.25722789671E+03  0.36172226722E+03  0.39215442734E+03  0.59227889068E+03  0.25500000920E-02 0.  1.
       -2    1    3    3    0  502  0.25722789671E+03 -0.36172226722E+03  0.41938456578E+03  0.61064932938E+03  0.25500000920E-02 0. -1.
</event>
<event>
 5   0  0.1454652E-02  0.8969192E+03  0.7818609E-02  0.9429441E-01
       -2   -1    0    0    0  501  0.00000000000E+00  0.00000000000E+00  0.68857946600E+03  0.68857946600E+03  0.25500000920E-02 0.  1.
        2   -1    0    0  501    0  0.00000000000E+00  0.00000000000E+00 -0.29207378834E+03  0.29207378835E+03  0.25500000920E-02 0. -1.
    10030    2    1    2    0    0  0.00000000000E+00  0.00000000000E+00  0.39650567766E+03  0.98065325436E+03  0.89691920086E+03 0.  0.
        4    1    3    3  502    0  0.37894378819E+03  0.69627508866E+02  0.44917304219E+03  0.59178071896E+03  0.12699999809E+01 0.  1.
       -4    1    3    3    0  502 -0.37894378819E+03 -0.69627508866E+02 -0.52667364535E+02  0.38887253540E+03  0.12699999809E+01 0. -1.
</event>
<event>
 5   0  0.1483326E-02  0.8913801E+03  0.7818609E-02  0.9436421E-01
        2   -1    0    0  501    0  0.00000000000E+00  0.00000000000E+00  0.69662327100E+03  0.69662327101E+03  0.25500000920E-02 0.  1.
       -2   -1    0    0    0  501  0.00000000000E+00  0.00000000000E+00 -0.28514642915E+03  0.28514642916E+03  0.25500000920E-02 0. -1.
    10030    2    1    2    0    0  0.00000000000E+00  0.00000000000E+00  0.41147684185E+03  0.98176970017E+03  0.89138013933E+03 0.  0.
        1    1    3    3  502    0 -0.36179623570E+03  0.25252704633E+03  0.27516369268E+03  0.51998219497E+03  0.50400001928E-02 0.  1.
       -1    1    3    3    0  502  0.36179623570E+03 -0.25252704633E+03  0.13631314917E+03  0.46178750520E+03  0.50400001928E-02 0. -1.
</event>
<event>
 5   0  0.5770125E-03  0.9047296E+03  0.7818609E-02  0.9419688E-01
       -4   -1    0    0    0  501  0.00000000000E+00  0.00000000000E+00  0.38646157728E+03  0.38646366403E+03  0.12699999809E+01 0. -1.
        4   -1    0    0  501    0  0.00000000000E+00  0.00000000000E+00 -0.52950216180E+03  0.52950368483E+03  0.12699999809E+01 0.  1.
    10030    2    1    2    0    0  0.00000000000E+00  0.00000000000E+00 -0.14304058452E+03  0.91596734886E+03  0.90472955924E+03 0.  0.
        2    1    3    3  502    0 -0.30265410845E+03  0.11076858575E+03  0.24985718083E+03  0.40779627238E+03  0.25500000920E-02 0. -1.
       -2    1    3    3    0  502  0.30265410845E+03 -0.11076858575E+03 -0.39289776534E+03  0.50817107648E+03  0.25500000920E-02 0.  1.
</event>
<event>
 5   0  0.1454652E-02  0.9135675E+03  0.7818609E-02  0.9408779E-01
       -2   -1    0    0    0  501  0.00000000000E+00  0.00000000000E+00  0.24642843522E+03  0.24642843524E+03  0.25500000920E-02 0.  1.
        2   -1    0    0  501    0  0.00000000000E+00  0.00000000000E+00 -0.84670179073E+03  0.84670179073E+03  0.25500000920E-02 0. -1.
    10030    2    1    2    0    0  0.00000000000E+00  0.00000000000E+00 -0.60027335551E+03  0.10931302260E+04  0.91356750686E+03 0.  0.
        4    1    3    3  502    0 -0.25035883655E+03 -0.10914422047E+03 -0.73824072441E+03  0.78714229208E+03  0.12699999809E+01 0. -1.
       -4    1    3    3    0  502  0.25035883655E+03  0.10914422047E+03  0.13796736891E+03  0.30598793389E+03  0.12699999809E+01 0.  1.
</event>
<event>
 5   0  0.1440615E-02  0.9239740E+03  0.7818609E-02  0.9396099E-01
       -2   -1    0    0    0  501  0.00000000000E+00  0.00000000000E+00  0.68195971377E+02  0.68195971425E+02  0.25500000920E-02 0.  1.
        2   -1    0    0  501    0  0.00000000000E+00  0.00000000000E+00 -0.31296863490E+04  0.31296863490E+04  0.25500000920E-02 0. -1.
    10030    2    1    2    0    0  0.00000000000E+00  0.00000000000E+00 -0.30614903776E+04  0.31978823204E+04  0.92397402724E+03 0.  0.
        3    1    3    3  502    0  0.33719108641E+02  0.31673349370E+03 -0.26888905401E+04  0.27076907931E+04  0.10100000352E+00 0. -1.
       -3    1    3    3    0  502 -0.33719108641E+02 -0.31673349370E+03 -0.37259983753E+03  0.49019152731E+03  0.10100000352E+00 0.  1.
</event>
<event>
 5   0  0.8524692E-03  0.8962452E+03  0.7818609E-02  0.9430287E-01
       -1   -1    0    0    0  501  0.00000000000E+00  0.00000000000E+00  0.52775462059E+03  0.52775462062E+03  0.50400001928E-02 0. -1.
        1   -1    0    0  501    0  0.00000000000E+00  0.00000000000E+00 -0.38050608205E+03  0.38050608208E+03  0.50400001928E-02 0.  1.
    10030    2    1    2    0    0  0.00000000000E+00  0.00000000000E+00  0.14724853854E+03  0.90826070270E+03  0.89624515171E+03 0.  0.
        5    1    3    3  502    0  0.41344723592E+03  0.17166872260E+02  0.24785486436E+03  0.48237686738E+03  0.46999998093E+01 0. -1.
       -5    1    3    3    0  502 -0.41344723592E+03 -0.17166872260E+02 -0.10060632582E+03  0.42588383532E+03  0.46999998093E+01 0.  1.
</event>
<event>
 5   0  0.8524692E-03  0.9008041E+03  0.7818609E-02  0.9424577E-01
       -1   -1    0    0    0  501  0.00000000000E+00  0.00000000000E+00  0.33030744737E+03  0.33030744741E+03  0.50400001928E-02 0. -1.
        1   -1    0    0  501    0  0.00000000000E+00  0.00000000000E+00 -0.61416115579E+03  0.61416115581E+03  0.50400001928E-02 0.  1.
    10030    2    1    2    0    0  0.00000000000E+00  0.00000000000E+00 -0.28385370842E+03  0.94446860322E+03  0.90080409340E+03 0.  0.
        5    1    3    3  502    0 -0.18614608081E+03 -0.32115967195E+03 -0.40933062248E+03  0.55260071190E+03  0.46999998093E+01 0. -1.
       -5    1    3    3    0  502  0.18614608081E+03  0.32115967195E+03  0.12547691406E+03  0.39186789132E+03  0.46999998093E+01 0.  1.
</event>
<event>
 5   0  0.8738044E-03  0.8911205E+03  0.7818609E-02  0.9436750E-01
       -1   -1    0    0    0  501  0.00000000000E+00  0.00000000000E+00  0.17233105032E+03  0.17233105039E+03  0.50400001928E-02 0.  1.
        1   -1    0    0  501    0  0.00000000000E+00  0.00000000000E+00 -0.11519916747E+04  0.11519916747E+04  0.50400001928E-02 0. -1.
    10030    2    1    2    0    0  0.00000000000E+00  0.00000000000E+00 -0.97966062436E+03  0.13243227251E+04  0.89112049759E+03 0.  0.
        3    1    3    3  502    0 -0.38836706402E+03  0.20648993489E+03 -0.38414912848E+03  0.58398427440E+03  0.10100000352E+00 0.  1.
       -3    1    3    3    0  502  0.38836706402E+03 -0.20648993489E+03 -0.59551149588E+03  0.74033845068E+03  0.10100000352E+00 0. -1.
</event>
<event>
 5   0  0.1441195E-02  0.9131665E+03  0.7818609E-02  0.9409271E-01
        2   -1    0    0  501    0  0.00000000000E+00  0.00000000000E+00  0.60011674062E+03  0.60011674063E+03  0.25500000920E-02 0.  1.
       -2   -1    0    0    0  501  0.00000000000E+00  0.00000000000E+00 -0.34737953381E+03  0.34737953382E+03  0.25500000920E-02 0. -1.
    10030    2    1    2    0    0  0.00000000000E+00  0.00000000000E+00  0.25273720682E+03  0.94749627444E+03  0.91316652062E+03 0.  0.
        5    1    3    3  502    0 -0.15327304995E+03  0.22486007706E+03 -0.25400768244E+03  0.37228574352E+03  0.46999998093E+01 0. -1.
       -5    1    3    3    0  502  0.15327304995E+03 -0.22486007706E+03  0.50674488925E+03  0.57521053092E+03  0.46999998093E+01 0.  1.
</event>
<event>
 5   0  0.8612969E-03  0.8988543E+03  0.7818609E-02  0.9427015E-01
        1   -1    0    0  501    0  0.00000000000E+00  0.00000000000E+00  0.88444832586E+03  0.88444832587E+03  0.50400001928E-02 0. -1.
       -1   -1    0    0    0  501  0.00000000000E+00  0.00000000000E+00 -0.22837374399E+03  0.22837374405E+03  0.50400001928E-02 0.  1.
    10030    2    1    2    0    0  0.00000000000E+00  0.00000000000E+00  0.65607458186E+03  0.11128220699E+04  0.89885432765E+03 0.  0.
        4    1    3    3  502    0  0.34691372646E+03  0.18271518640E+03  0.56092071503E+02  0.39608320632E+03  0.12699999809E+01 0.  1.
       -4    1    3    3    0  502 -0.34691372646E+03 -0.18271518640E+03  0.59998251036E+03  0.71673886359E+03  0.12699999809E+01 0. -1.
</event>
<event>
 5   0  0.1483326E-02  0.9815992E+03  0.7818609E-02  0.9328960E-01
        2   -1    0    0  501    0  0.00000000000E+00  0.00000000000E+00  0.80740127749E+03  0.80740127750E+03  0.25500000920E-02 0.  1.
       -2   -1    0    0    0  501  0.00000000000E+00  0.00000000000E+00 -0.29834513296E+03  0.29834513297E+03  0.25500000920E-02 0. -1.
    10030    2    1    2    0    0  0.00000000000E+00  0.00000000000E+00  0.50905614453E+03  0.11057464105E+04  0.98159918805E+03 0.  0.
        1    1    3    3  502    0 -0.45177549360E+02  0.99423604346E+02 -0.28448516066E+03  0.30472589442E+03  0.50400001928E-02 0. -1.
       -1    1    3    3    0  502  0.45177549360E+02 -0.99423604346E+02  0.79354130519E+03  0.80102051605E+03  0.50400001928E-02 0.  1.
</event>
<event>
 5   0  0.5770125E-03  0.8885524E+03  0.7818609E-02  0.9440006E-01
       -3   -1    0    0    0  501  0.00000000000E+00  0.00000000000E+00  0.26849006269E+03  0.26849008169E+03  0.10100000352E+00 0. -1.
        3   -1    0    0  501    0  0.00000000000E+00  0.00000000000E+00 -0.73515316211E+03  0.73515316905E+03  0.10100000352E+00 0.  1.
    10030    2    1    2    0    0  0.00000000000E+00  0.00000000000E+00 -0.46666309942E+03  0.10036432507E+04  0.88855237685E+03 0.  0.
        4    1    3    3  502    0 -0.42840978199E+02  0.42883065514E+03 -0.35524003054E+03  0.55850530203E+03  0.12699999809E+01 0.  1.
       -4    1    3    3    0  502  0.42840978199E+02 -0.42883065514E+03 -0.11142306888E+03  0.44513794871E+03  0.12699999809E+01 0. -1.
</event>
<event>
 5   0  0.1535906E-02  0.9037354E+03  0.7818609E-02  0.9420924E-01
       -2   -1    0    0    0  501  0.00000000000E+00  0.00000000000E+00  0.46713223041E+03  0.46713223042E+03  0.25500000920E-02 0. -1.
        2   -1    0    0  501    0  0.00000000000E+00  0.00000000000E+00 -0.43710201482E+03  0.43710201483E+03  0.25500000920E-02 0.  1.
    10030    2    1    2    0    0  0.00000000000E+00  0.00000000000E+00  0.30030215588E+02  0.90423424525E+03  0.90373544605E+03 0.  0.
        2    1    3    3  502    0 -0.35883442603E+03 -0.22589461240E+03 -0.14125661972E+03  0.44692723550E+03  0.25500000920E-02 0.  1.
       -2    1    3    3    0  502  0.35883442603E+03  0.22589461240E+03  0.17128683531E+03  0.45730700975E+03  0.25500000920E-02 0. -1.
</event>
<event>
 5   0  0.8524692E-03  0.9052005E+03  0.7818609E-02  0.9419104E-01
        1   -1    0    0  501    0  0.00000000000E+00  0.00000000000E+00  0.83608475471E+03  0.83608475473E+03  0.50400001928E-02 0.  1.
       -1   -1    0    0    0  501  0.00000000000E+00  0.00000000000E+00 -0.24500745017E+03  0.24500745022E+03  0.50400001928E-02 0. -1.
    10030    2    1    2    0    0  0.00000000000E+00  0.00000000000E+00  0.59107730454E+03  0.10810922049E+04  0.90520051682E+03 0.  0.
        5    1    3    3  502    0 -0.30688061572E+03  0.25883058116E+03  0.54507828092E+03  0.67697961888E+03  0.46999998093E+01 0.  1.
       -5    1    3    3    0  502  0.30688061572E+03 -0.25883058116E+03  0.45999023629E+02  0.40411258607E+03  0.46999998093E+01 0. -1.
</event>
<event>
 5   0  0.1454652E-02  0.8787931E+03  0.7818609E-02  0.9452486E-01
        2   -1    0    0  501    0  0.00000000000E+00  0.00000000000E+00  0.12573556342E+04  0.12573556342E+04  0.25500000920E-02 0. -1.
       -2   -1    0    0    0  501  0.00000000000E+00  0.00000000000E+00 -0.15355189141E+03  0.15355189143E+03  0.25500000920E-02 0.  1.
    10030    2    1    2    0    0  0.00000000000E+00  0.00000000000E+00  0.11038037428E+04  0.14109075257E+04  0.87879311748E+03 0.  0.
        4    1    3    3  502    0  0.21902359948E+03 -0.12208757866E+03 -0.27396622413E+02  0.25224769932E+03  0.12699999809E+01 0.  1.
       -4    1    3    3    0  502 -0.21902359948E+03  0.12208757866E+03  0.11312003652E+04  0.11586598264E+04  0.12699999809E+01 0. -1.
</event>
<event>
 5   0  0.1441195E-02  0.9029467E+03  0.7818609E-02  0.9421905E-01
        2   -1    0    0  501    0  0.00000000000E+00  0.00000000000E+00  0.12638278125E+04  0.12638278125E+04  0.25500000920E-02 0. -1.
       -2   -1    0    0    0  501  0.00000000000E+00  0.00000000000E+00 -0.16127844898E+03  0.16127844901E+03  0.25500000920E-02 0.  1.
    10030    2    1    2    0    0  0.00000000000E+00  0.00000000000E+00  0.11025493636E+04  0.14251062616E+04  0.90294670808E+03 0.  0.
        5    1    3    3  502    0 -0.95022852363E+02 -0.37548874509E+03  0.18524563470E+03  0.42937067358E+03  0.46999998093E+01 0.  1.
       -5    1    3    3    0  502  0.95022852363E+02  0.37548874509E+03  0.91730372887E+03  0.99573558797E+03  0.46999998093E+01 0. -1.
</event>
<event>
 5   0  0.8612969E-03  0.8871331E+03  0.7818609E-02  0.9441810E-01
       -1   -1    0    0    0  501  0.00000000000E+00  0.00000000000E+00  0.37705876077E+03  0.37705876081E+03  0.50400001928E-02 0.  1.
        1   -1    0    0  501    0  0.00000000000E+00  0.00000000000E+00 -0.52180530671E+03  0.52180530673E+03  0.50400001928E-02 0. -1.
    10030    2    1    2    0    0  0.00000000000E+00  0.00000000000E+00 -0.14474654594E+03  0.89886406754E+03  0.88713305054E+03 0.  0.
        4    1    3    3  502    0  0.44866691875E+02  0.40642224540E+02  0.37285152699E+03  0.37773626320E+03  0.12699999809E+01 0.  1.
       -4    1    3    3    0  502 -0.44866691875E+02 -0.40642224540E+02 -0.51759807293E+03  0.52112780434E+03  0.12699999809E+01 0. -1.
</event>
<event>
 5   0  0.1440615E-02  0.8981506E+03  0.7818609E-02  0.9427896E-01
        2   -1    0    0  501    0  0.00000000000E+00  0.00000000000E+00  0.85132840977E+03  0.85132840978E+03  0.25500000920E-02 0. -1.
       -2   -1    0    0    0  501  0.00000000000E+00  0.00000000000E+00 -0.23688697943E+03  0.23688697945E+03  0.25500000920E-02 0.  1.
    10030    2    1    2    0    0  0.00000000000E+00  0.00000000000E+00  0.61444143034E+03  0.10882153892E+04  0.89815057870E+03 0.  0.
        3    1    3    3  502    0  0.30624173313E+03 -0.28146906216E+03  0.51233791740E+03  0.65992346819E+03  0.10100000352E+00 0. -1.
       -3    1    3    3    0  502 -0.30624173313E+03  0.28146906216E+03  0.10210351294E+03  0.42829192103E+03  0.10100000352E+00 0.  1.
</event>
<event>
 5   0  0.8524692E-03  0.9039886E+03  0.7818609E-02  0.9420609E-01
        1   -1    0    0  501    0  0.00000000000E+00  0.00000000000E+00  0.31123875026E+03  0.31123875030E+03  0.50400001928E-02 0. -1.
       -1   -1    0    0    0  501  0.00000000000E+00  0.00000000000E+00 -0.65640561313E+03  0.65640561315E+03  0.50400001928E-02 0.  1.
    10030    2    1    2    0    0  0.00000000000E+00  0.00000000000E+00 -0.34516686287E+03  0.96764436345E+03  0.90398863427E+03 0.  0.
        5    1    3    3  502    0  0.12505481621E+03 -0.28710438544E+03 -0.52142942704E+03  0.60825847514E+03  0.46999998093E+01 0.  1.
       -5    1    3    3    0  502 -0.12505481621E+03  0.28710438544E+03  0.17626256416E+03  0.35938588832E+03  0.46999998093E+01 0. -1.
</event>
<event>
 5   0  0.8291252E-03  0.8953318E+03  0.7818609E-02  0.9431436E-01
        1   -1    0    0  501    0  0.00000000000E+00  0.00000000000E+00  0.12081484183E+04  0.12081484184E+04  0.50400001928E-02 0. -1.
       -1   -1    0    0    0  501  0.00000000000E+00  0.00000000000E+00 -0.16587760268E+03  0.16587760276E+03  0.50400001928E-02 0.  1.
    10030    2    1    2    0    0  0.00000000000E+00  0.00000000000E+00  0.10422708157E+04  0.13740260211E+04  0.89533181197E+03 0.  0.
        1    1    3    3  502    0 -0.52898289762E+02 -0.44320989841E+03  0.46860801557E+03  0.64716822805E+03  0.50400001928E-02 0.  1.
       -1    1    3    3    0  502  0.52898289762E+02  0.44320989841E+03  0.57366280010E+03  0.72685779307E+03  0.50400001928E-02 0. -1.
</event>
<event>
 5   0  0.8738044E-03  0.8593616E+03  0.7818609E-02  0.9477858E-01
        1   -1    0    0  501    0  0.00000000000E+00  0.00000000000E+00  0.27479803232E+03  0.27479803237E+03  0.50400001928E-02 0. -1.
       -1   -1    0    0    0  501  0.00000000000E+00  0.00000000000E+00 -0.67185924102E+03  0.67185924104E+03  0.50400001928E-02 0.  1.
    10030    2    1    2    0    0  0.00000000000E+00  0.00000000000E+00 -0.39706120870E+03  0.94665727341E+03  0.85936161763E+03 0.  0.
        3    1    3    3  502    0  0.73266411867E+02 -0.67826281783E+01  0.26780642478E+03  0.27773055739E+03  0.10100000352E+00 0. -1.
       -3    1    3    3    0  502 -0.73266411867E+02  0.67826281783E+01 -0.66486763348E+03  0.66892671602E+03  0.10100000352E+00 0.  1.
</event>
<event>
 5   0  0.8612969E-03  0.9041019E+03  0.7818609E-02  0.9420468E-01
        1   -1    0    0  501    0  0.00000000000E+00  0.00000000000E+00  0.90610480447E+03  0.90610480449E+03  0.50400001928E-02 0. -1.
       -1   -1    0    0    0  501  0.00000000000E+00  0.00000000000E+00 -0.22552584129E+03  0.22552584134E+03  0.50400001928E-02 0.  1.
    10030    2    1    2    0    0  0.00000000000E+00  0.00000000000E+00  0.68057896319E+03  0.11316306458E+04  0.90410187117E+03 0.  0.
        4    1    3    3  502    0 -0.13008240686E+03  0.32517799027E+03  0.69802485407E+03  0.78096252646E+03  0.12699999809E+01 0. -1.
       -4    1    3    3    0  502  0.13008240686E+03 -0.32517799027E+03 -0.17445890887E+02  0.35066811937E+03  0.12699999809E+01 0.  1.
</event>
<event>
 5   0  0.1440615E-02  0.8935389E+03  0.7818609E-02  0.9433694E-01
        2   -1    0    0  501    0  0.00000000000E+00  0.00000000000E+00  0.10268086040E+04  0.10268086040E+04  0.25500000920E-02 0.  1.
       -2   -1    0    0    0  501  0.00000000000E+00  0.00000000000E+00 -0.19439157687E+03  0.19439157689E+03  0.25500000920E-02 0. -1.
    10030    2    1    2    0    0  0.00000000000E+00  0.00000000000E+00  0.83241702709E+03  0.12212001809E+04  0.89353890500E+03 0.  0.
        3    1    3    3  502    0  0.14221067060E+03  0.11308557218E+03 -0.14161752871E+03  0.23036439852E+03  0.10100000352E+00 0. -1.
       -3    1    3    3    0  502 -0.14221067060E+03 -0.11308557218E+03  0.97403455580E+03  0.99083578234E+03  0.10100000352E+00 0.  1.
</event>
<event>
 5   0  0.8524692E-03  0.7705201E+03  0.7818609E-02  0.9603696E-01
       -1   -1    0    0    0  501  0.00000000000E+00  0.00000000000E+00  0.17652601673E+03  0.17652601680E+03  0.50400001928E-02 0.  1.
        1   -1    0    0  501    0  0.00000000000E+00  0.00000000000E+00 -0.84081257238E+03  0.84081257239E+03  0.50400001928E-02 0. -1.
    10030    2    1    2    0    0  0.00000000000E+00  0.00000000000E+00 -0.66428655565E+03  0.10173385892E+04  0.77052006920E+03 0.  0.
        5    1    3    3  502    0 -0.36903007169E+03  0.10954608440E+03 -0.35171201643E+03  0.52144699723E+03  0.46999998093E+01 0. -1.
       -5    1    3    3    0  502  0.36903007169E+03 -0.10954608440E+03 -0.31257453922E+03  0.49589159196E+03  0.46999998093E+01 0.  1.
</event>
<event>
 5   0  0.1440615E-02  0.8950058E+03  0.7818609E-02  0.9431846E-01
        2   -1    0    0  501    0  0.00000000000E+00  0.00000000000E+00  0.34149030109E+03  0.34149030110E+03  0.25500000920E-02 0.  1.
       -2   -1    0    0    0  501  0.00000000000E+00  0.00000000000E+00 -0.58642615465E+03  0.58642615466E+03  0.25500000920E-02 0. -1.
    10030    2    1    2    0    0  0.00000000000E+00  0.00000000000E+00 -0.24493585357E+03  0.92791645576E+03  0.89500579691E+03 0.  0.
        3    1    3    3  502    0 -0.18559530530E+03 -0.38836590547E+03 -0.24938306625E+03  0.49745916196E+03  0.10100000352E+00 0.  1.
       -3    1    3    3    0  502  0.18559530530E+03  0.38836590547E+03  0.44472126813E+01  0.43045729380E+03  0.10100000352E+00 0. -1.
</event>
<event>
 5   0  0.1441195E-02  0.8968924E+03  0.7818609E-02  0.9429474E-01
        2   -1    0    0  501    0  0.00000000000E+00  0.00000000000E+00  0.54842934776E+03  0.54842934777E+03  0.25500000920E-02 0.  1.
       -2   -1    0    0    0  501  0.00000000000E+00  0.00000000000E+00 -0.36669079974E+03  0.36669079975E+03  0.25500000920E-02 0. -1.
    10030    2    1    2    0    0  0.00000000000E+00  0.00000000000E+00  0.18173854802E+03  0.91512014752E+03  0.89689240411E+03 0.  0.
        5    1    3    3  502    0  0.14217554195E+03  0.88526651652E+02 -0.33355459191E+03  0.37327149444E+03  0.46999998093E+01 0. -1.
       -5    1    3    3    0  502 -0.14217554195E+03 -0.88526651652E+02  0.51529313993E+03  0.54184865308E+03  0.46999998093E+01 0.  1.
</event>
<event>
 5   0  0.8885324E-03  0.9044524E+03  0.7818609E-02  0.9420033E-01
        1   -1    0    0  501    0  0.00000000000E+00  0.00000000000E+00  0.92125718083E+03  0.92125718085E+03  0.50400001928E-02 0. -1.
       -1   -1    0    0    0  501  0.00000000000E+00  0.00000000000E+00 -0.22198851904E+03  0.22198851910E+03  0.50400001928E-02 0.  1.
    10030    2    1    2    0    0  0.00000000000E+00  0.00000000000E+00  0.69926866179E+03  0.11432456999E+04  0.90445235866E+03 0.  0.
        2    1    3    3  502    0 -0.35670860994E+03 -0.26992493632E+03  0.43355623800E+03  0.62295386279E+03  0.25500000920E-02 0. -1.
       -2    1    3    3    0  502  0.35670860994E+03  0.26992493632E+03  0.26571242380E+03  0.52029183716E+03  0.25500000920E-02 0.  1.
</event>
<event>
 5   0  0.8612969E-03  0.8924107E+03  0.7818609E-02  0.9435118E-01
       -1   -1    0    0    0  501  0.00000000000E+00  0.00000000000E+00  0.37544799664E+03  0.37544799668E+03  0.50400001928E-02 0.  1.
        1   -1    0    0  501    0  0.00000000000E+00  0.00000000000E+00 -0.53029770244E+03  0.53029770246E+03  0.50400001928E-02 0. -1.
    10030    2    1    2    0    0  0.00000000000E+00  0.00000000000E+00 -0.15484970580E+03  0.90574569914E+03  0.89241069028E+03 0.  0.
        4    1    3    3  502    0 -0.39255006507E+03 -0.15324587938E+03 -0.22630606110E+03  0.47832614326E+03  0.12699999809E+01 0. -1.
       -4    1    3    3    0  502  0.39255006507E+03  0.15324587938E+03  0.71456355306E+02  0.42741955588E+03  0.12699999809E+01 0.  1.
</event>
<event>
 5   0  0.1535906E-02  0.8556849E+03  0.7818609E-02  0.9482739E-01
       -2   -1    0    0    0  501  0.00000000000E+00  0.00000000000E+00  0.10456426328E+03  0.10456426331E+03  0.25500000920E-02 0. -1.
        2   -1    0    0  501    0  0.00000000000E+00  0.00000000000E+00 -0.17505899998E+04  0.17505899998E+04  0.25500000920E-02 0.  1.
    10030    2    1    2    0    0  0.00000000000E+00  0.00000000000E+00 -0.16460257365E+04  0.18551542631E+04  0.85568488047E+03 0.  0.
        2    1    3    3  502    0 -0.31679711910E+03  0.24934884288E+03 -0.11335333270E+04  0.12030931234E+04  0.25500000920E-02 0.  1.
       -2    1    3    3    0  502  0.31679711910E+03 -0.24934884288E+03 -0.51249240949E+03  0.65206113970E+03  0.25500000920E-02 0. -1.
</event>
<event>
 5   0  0.1440615E-02  0.8967474E+03  0.7818609E-02  0.9429656E-01
       -2   -1    0    0    0  501  0.00000000000E+00  0.00000000000E+00  0.50841470692E+03  0.50841470693E+03  0.25500000920E-02 0.  1.
        2   -1    0    0  501    0  0.00000000000E+00  0.00000000000E+00 -0.39542322179E+03  0.39542322180E+03  0.25500000920E-02 0. -1.
    10030    2    1    2    0    0  0.00000000000E+00  0.00000000000E+00  0.11299148513E+03  0.90383792872E+03  0.89674741465E+03 0.  0.
        3    1    3    3  502    0 -0.32578643745E+03  0.24139637409E+03  0.24939859297E+03  0.47603432715E+03  0.10100000352E+00 0.  1.
       -3    1    3    3    0  502  0.32578643745E+03 -0.24139637409E+03 -0.13640710784E+03  0.42780360157E+03  0.10100000352E+00 0. -1.
</event>
<event>
 5   0  0.8291252E-03  0.9059880E+03  0.7818609E-02  0.9418127E-01
        1   -1    0    0  501    0  0.00000000000E+00  0.00000000000E+00  0.80084383264E+03  0.80084383265E+03  0.50400001928E-02 0. -1.
       -1   -1    0    0    0  501  0.00000000000E+00  0.00000000000E+00 -0.25623420115E+03  0.25623420120E+03  0.50400001928E-02 0.  1.
    10030    2    1    2    0    0  0.00000000000E+00  0.00000000000E+00  0.54460963148E+03  0.10570780339E+04  0.90598803467E+03 0.  0.
        1    1    3    3  502    0  0.33722234679E+03  0.30032685779E+03  0.23042373591E+03  0.50696176461E+03  0.50400001928E-02 0.  1.
       -1    1    3    3    0  502 -0.33722234679E+03 -0.30032685779E+03  0.31418589557E+03  0.55011626924E+03  0.50400001928E-02 0. -1.
</event>
<event>
 5   0  0.1441195E-02  0.8362180E+03  0.7818609E-02  0.9509024E-01
        2   -1    0    0  501    0  0.00000000000E+00  0.00000000000E+00  0.29621091080E+03  0.29621091081E+03  0.25500000920E-02 0. -1.
       -2   -1    0    0    0  501  0.00000000000E+00  0.00000000000E+00 -0.59017109275E+03  0.59017109275E+03  0.25500000920E-02 0.  1.
    10030    2    1    2    0    0  0.00000000000E+00  0.00000000000E+00 -0.29396018195E+03  0.88638200356E+03  0.83621795464E+03 0.  0.
        5    1    3    3  502    0 -0.22704733439E+03  0.22902004111E+03 -0.42900964694E+03  0.53672342827E+03  0.46999998093E+01 0.  1.
       -5    1    3    3    0  502  0.22704733439E+03 -0.22902004111E+03  0.13504946499E+03  0.34965857529E+03  0.46999998093E+01 0. -1.
</event>
<event>
 5   0  0.8612969E-03  0.8952082E+03  0.7818609E-02  0.9431591E-01
       -1   -1    0    0    0  501  0.00000000000E+00  0.00000000000E+00  0.67433584328E+03  0.67433584330E+03  0.50400001928E-02 0. -1.
        1   -1    0    0  501    0  0.00000000000E+00  0.00000000000E+00 -0.29710629849E+03  0.29710629853E+03  0.50400001928E-02 0.  1.
    10030    2    1    2    0    0  0.00000000000E+00  0.00000000000E+00  0.37722954479E+03  0.97144214184E+03  0.89520819113E+03 0.  0.
        4    1    3    3  502    0  0.18964340943E+01 -0.41951819522E+03  0.35794355635E+03  0.55147467305E+03  0.12699999809E+01 0. -1.
       -4    1    3    3    0  502 -0.18964340943E+01  0.41951819522E+03  0.19285988442E+02  0.41996746878E+03  0.12699999809E+01 0.  1.
</event>
<event>
 5   0  0.8524692E-03  0.9052463E+03  0.7818609E-02  0.9419047E-01
        1   -1    0    0  501    0  0.00000000000E+00  0.00000000000E+00  0.14586789479E+03  0.14586789488E+03  0.50400001928E-02 0.  1.
       -1   -1    0    0    0  501  0.00000000000E+00  0.00000000000E+00 -0.14044741929E+04  0.14044741929E+04  0.50400001928E-02 0. -1.
    10030    2    1    2    0    0  0.00000000000E+00  0.00000000000E+00 -0.12586062981E+04  0.15503420878E+04  0.90524625131E+03 0.  0.
        5    1    3    3  502    0 -0.20355340996E+02 -0.25755066278E+02 -0.14023907895E+04  0.14027828342E+04  0.46999998093E+01 0. -1.
       -5    1    3    3    0  502  0.20355340996E+02  0.25755066278E+02  0.14378449143E+03  0.14755925359E+03  0.46999998093E+01 0.  1.
</event>
<event>
 5   0  0.1535906E-02  0.9321776E+03  0.7818609E-02  0.9386228E-01
        2   -1    0    0  501    0  0.00000000000E+00  0.00000000000E+00  0.12876406097E+04  0.12876406097E+04  0.25500000920E-02 0. -1.
       -2   -1    0    0    0  501  0.00000000000E+00  0.00000000000E+00 -0.16871072667E+03  0.16871072669E+03  0.25500000920E-02 0.  1.
    10030    2    1    2    0    0  0.00000000000E+00  0.00000000000E+00  0.11189298831E+04  0.14563513364E+04  0.93217762894E+03 0.  0.
        2    1    3    3  502    0 -0.70406840026E+02  0.42260209941E+03  0.27270904910E+03  0.50785813276E+03  0.25500000920E-02 0.  1.
       -2    1    3    3    0  502  0.70406840026E+02 -0.42260209941E+03  0.84622083397E+03  0.94849320367E+03  0.25500000920E-02 0. -1.
</event>
<event>
 5   0  0.8291252E-03  0.8826922E+03  0.7818609E-02  0.9447479E-01
       -1   -1    0    0    0  501  0.00000000000E+00  0.00000000000E+00  0.39100634020E+03  0.39100634023E+03  0.50400001928E-02 0.  1.
        1   -1    0    0  501    0  0.00000000000E+00  0.00000000000E+00 -0.49816682147E+03  0.49816682150E+03  0.50400001928E-02 0. -1.
    10030    2    1    2    0    0  0.00000000000E+00  0.00000000000E+00 -0.10716048127E+03  0.88917316173E+03  0.88269221295E+03 0.  0.
        1    1    3    3  502    0 -0.12249343112E+03 -0.22030143508E+01  0.37353393356E+03  0.39311206225E+03  0.50400001928E-02 0.  1.
       -1    1    3    3    0  502  0.12249343112E+03  0.22030143508E+01 -0.48069441484E+03  0.49606109948E+03  0.50400001928E-02 0. -1.
</event>
<event>
 5   0  0.8885324E-03  0.9100120E+03  0.7818609E-02  0.9413152E-01
        1   -1    0    0  501    0  0.00000000000E+00  0.00000000000E+00  0.59954034942E+03  0.59954034945E+03  0.50400001928E-02 0.  1.
       -1   -1    0    0    0  501  0.00000000000E+00  0.00000000000E+00 -0.34531528715E+03  0.34531528719E+03  0.50400001928E-02 0. -1.
    10030    2    1    2    0    0  0.00000000000E+00  0.00000000000E+00  0.25422506227E+03  0.94485563663E+03  0.91001197343E+03 0.  0.
        2    1    3    3  502    0  0.40974421894E+03  0.19760844098E+03  0.13701865061E+03  0.47509318194E+03  0.25500000920E-02 0. -1.
       -2    1    3    3    0  502 -0.40974421894E+03 -0.19760844098E+03  0.11720641166E+03  0.46976245470E+03  0.25500000920E-02 0.  1.
</event>
<event>
 5   0  0.1441195E-02  0.9101665E+03  0.7818609E-02  0.9412961E-01
       -2   -1    0    0    0  501  0.00000000000E+00  0.00000000000E+00  0.98272675347E+02  0.98272675381E+02  0.25500000920E-02 0.  1.
        2   -1    0    0  501    0  0.00000000000E+00  0.00000000000E+00 -0.21074094259E+04  0.21074094259E+04  0.25500000920E-02 0. -1.
    10030    2    1    2    0    0  0.00000000000E+00  0.00000000000E+00 -0.20091367505E+04  0.22056821013E+04  0.91016649548E+03 0.  0.
        5    1    3    3  502    0  0.11101034182E+03  0.22033318729E+03 -0.77933530223E+02  0.25877738414E+03  0.46999998093E+01 0.  1.
       -5    1    3    3    0  502 -0.11101034182E+03 -0.22033318729E+03 -0.19312032203E+04  0.19469047171E+04  0.46999998093E+01 0. -1.
</event>
<event>
 5   0  0.1454652E-02  0.8973381E+03  0.7818609E-02  0.9428915E-01
        2   -1    0    0  501    0  0.00000000000E+00  0.00000000000E+00  0.26780759369E+04  0.26780759369E+04  0.25500000920E-02 0. -1.
       -2   -1    0    0    0  501  0.00000000000E+00  0.00000000000E+00 -0.75167369748E+02  0.75167369792E+02  0.25500000920E-02 0.  1.
    10030    2    1    2    0    0  0.00000000000E+00  0.00000000000E+00  0.26029085672E+04  0.27532433067E+04  0.89733811738E+03 0.  0.
        4    1    3    3  502    0 -0.28081379392E+03  0.28611278261E+03  0.68333343563E+03  0.79225192229E+03  0.12699999809E+01 0. -1.
       -4    1    3    3    0  502  0.28081379392E+03 -0.28611278261E+03  0.19195751315E+04  0.19609913844E+04  0.12699999809E+01 0.  1.
</event>
<event>
 5   0  0.8885324E-03  0.8937757E+03  0.7818609E-02  0.9433396E-01
       -1   -1    0    0    0  501  0.00000000000E+00  0.00000000000E+00  0.26469926397E+03  0.26469926402E+03  0.50400001928E-02 0.  1.
        1   -1    0    0  501    0  0.00000000000E+00  0.00000000000E+00 -0.75447419935E+03  0.75447419936E+03  0.50400001928E-02 0. -1.
    10030    2    1    2    0    0  0.00000000000E+00  0.00000000000E+00 -0.48977493537E+03  0.10191734634E+04  0.89377573314E+03 0.  0.
        2    1    3    3  502    0  0.21435442912E+03 -0.31751289738E+03 -0.50727197786E+03  0.63567847282E+03  0.25500000920E-02 0. -1.
       -2    1    3    3    0  502 -0.21435442912E+03  0.31751289738E+03  0.17497042489E+02  0.38349499056E+03  0.25500000920E-02 0.  1.
</event>
<event>
 5   0  0.8738044E-03  0.9006666E+03  0.7818609E-02  0.9424749E-01
       -1   -1    0    0    0  501  0.00000000000E+00  0.00000000000E+00  0.15057501022E+03  0.15057501031E+03  0.50400001928E-02 0.  1.
        1   -1    0    0  501    0  0.00000000000E+00  0.00000000000E+00 -0.13468375838E+04  0.13468375838E+04  0.50400001928E-02 0. -1.
    10030    2    1    2    0    0  0.00000000000E+00  0.00000000000E+00 -0.11962625736E+04  0.14974125942E+04  0.90066660430E+03 0.  0.
        3    1    3    3  502    0  0.32971618809E-02 -0.28235448891E+03 -0.14868678917E+02  0.28274572540E+03  0.10100000352E+00 0.  1.
       -3    1    3    3    0  502 -0.32971618809E-02  0.28235448891E+03 -0.11813938947E+04  0.12146668688E+04  0.10100000352E+00 0. -1.
</event>
<event>
 5   0  0.8885324E-03  0.9073343E+03  0.7818609E-02  0.9416459E-01
       -1   -1    0    0    0  501  0.00000000000E+00  0.00000000000E+00  0.33642941428E+03  0.33642941432E+03  0.50400001928E-02 0.  1.
        1   -1    0    0  501    0  0.00000000000E+00  0.00000000000E+00 -0.61175949043E+03  0.61175949046E+03  0.50400001928E-02 0. -1.
    10030    2    1    2    0    0  0.00000000000E+00  0.00000000000E+00 -0.27533007615E+03  0.94818890478E+03  0.90733430901E+03 0.  0.
        2    1    3    3  502    0  0.22184172041E+03  0.25507110683E+03 -0.45384206121E+03  0.56590426309E+03  0.25500000920E-02 0. -1.
       -2    1    3    3    0  502 -0.22184172041E+03 -0.25507110683E+03  0.17851198506E+03  0.38228464169E+03  0.25500000920E-02 0.  1.
</event>
<event>
 5   0  0.1440615E-02  0.9200705E+03  0.7818609E-02  0.9400834E-01
       -2   -1    0    0    0  501  0.00000000000E+00  0.00000000000E+00  0.47159768086E+03  0.47159768087E+03  0.25500000920E-02 0.  1.
        2   -1    0    0  501    0  0.00000000000E+00  0.00000000000E+00 -0.44875625729E+03  0.44875625730E+03  0.25500000920E-02 0. -1.
    10030    2    1    2    0    0  0.00000000000E+00  0.00000000000E+00  0.22841423573E+02  0.92035393816E+03  0.92007045429E+03 0.  0.
        3    1    3    3  502    0 -0.35041780809E+03 -0.15434786875E+03  0.26648259835E+03  0.46650711703E+03  0.10100000352E+00 0.  1.
       -3    1    3    3    0  502  0.35041780809E+03  0.15434786875E+03 -0.24364117478E+03  0.45384682114E+03  0.10100000352E+00 0. -1.
</event>
<event>
 5   0  0.8524692E-03  0.9033291E+03  0.7818609E-02  0.9421429E-01
        1   -1    0    0  501    0  0.00000000000E+00  0.00000000000E+00  0.56000994971E+03  0.56000994973E+03  0.50400001928E-02 0.  1.
       -1   -1    0    0    0  501  0.00000000000E+00  0.00000000000E+00 -0.36428075916E+03  0.36428075920E+03  0.50400001928E-02 0. -1.
    10030    2    1    2    0    0  0.00000000000E+00  0.00000000000E+00  0.19572919054E+03  0.92429070893E+03  0.90332906439E+03 0.  0.
        5    1    3    3  502    0 -0.79425210809E+02  0.27414139665E+02 -0.35618810280E+03  0.36599447228E+03  0.46999998093E+01 0. -1.
       -5    1    3    3    0  502  0.79425210809E+02 -0.27414139665E+02  0.55191729334E+03  0.55829623665E+03  0.46999998093E+01 0.  1.
</event>
<event>
 5   0  0.8612969E-03  0.9038740E+03  0.7818609E-02  0.9420752E-01
       -1   -1    0    0    0  501  0.00000000000E+00  0.00000000000E+00  0.42213667154E+03  0.42213667157E+03  0.50400001928E-02 0. -1.
        1   -1    0    0  501    0  0.00000000000E+00  0.00000000000E+00 -0.48384107998E+03  0.48384108001E+03  0.50400001928E-02 0.  1.
    10030    2    1    2    0    0  0.00000000000E+00  0.00000000000E+00 -0.61704408438E+02  0.90597775158E+03  0.90387402460E+03 0.  0.
        4    1    3    3  502    0 -0.20577422793E+03  0.23093284081E+03 -0.36112243241E+03  0.47548294810E+03  0.12699999809E+01 0.  1.
       -4    1    3    3    0  502  0.20577422793E+03 -0.23093284081E+03  0.29941802398E+03  0.43049480348E+03  0.12699999809E+01 0. -1.
</event>
<event>
 5   0  0.8291252E-03  0.8961436E+03  0.7818609E-02  0.9430415E-01
        1   -1    0    0  501    0  0.00000000000E+00  0.00000000000E+00  0.46171169113E+03  0.46171169116E+03  0.50400001928E-02 0. -1.
       -1   -1    0    0    0  501  0.00000000000E+00  0.00000000000E+00 -0.43483487915E+03  0.43483487918E+03  0.50400001928E-02 0.  1.
    10030    2    1    2    0    0  0.00000000000E+00  0.00000000000E+00  0.26876811980E+02  0.89654657033E+03  0.89614362117E+03 0.  0.
        1    1    3    3  502    0  0.17783851537E+03  0.31866068645E+03  0.27354988269E+03  0.45607094731E+03  0.50400001928E-02 0. -1.
       -1    1    3    3    0  502 -0.17783851537E+03 -0.31866068645E+03 -0.24667307072E+03  0.44047562302E+03  0.50400001928E-02 0.  1.
</event>
<event>
 5   0  0.1483326E-02  0.8988497E+03  0.7818609E-02  0.9427020E-01
        2   -1    0    0  501    0  0.00000000000E+00  0.00000000000E+00  0.62315340278E+03  0.62315340278E+03  0.25500000920E-02 0.  1.
       -2   -1    0    0    0  501  0.00000000000E+00  0.00000000000E+00 -0.32412997204E+03  0.32412997205E+03  0.25500000920E-02 0. -1.
    10030    2    1    2    0    0  0.00000000000E+00  0.00000000000E+00  0.29902343073E+03  0.94728337483E+03  0.89884969829E+03 0.  0.
        1    1    3    3  502    0  0.79738909097E+02  0.41505483967E+03  0.31056603368E+03  0.52448076691E+03  0.50400001928E-02 0.  1.
       -1    1    3    3    0  502 -0.79738909097E+02 -0.41505483967E+03 -0.11542602943E+02  0.42280260792E+03  0.50400001928E-02 0. -1.
</event>
<event>
 5   0  0.8291252E-03  0.8923922E+03  0.7818609E-02  0.9435142E-01
        1   -1    0    0  501    0  0.00000000000E+00  0.00000000000E+00  0.23805881359E+04  0.23805881359E+04  0.50400001928E-02 0. -1.
       -1   -1    0    0    0  501  0.00000000000E+00  0.00000000000E+00 -0.83630991236E+02  0.83630991387E+02  0.50400001928E-02 0.  1.
    10030    2    1    2    0    0  0.00000000000E+00  0.00000000000E+00  0.22969571447E+04  0.24642191273E+04  0.89239216878E+03 0.  0.
        1    1    3    3  502    0  0.23046341031E+03  0.35395309366E+03  0.15457193950E+04  0.16023871643E+04  0.50400001928E-02 0.  1.
       -1    1    3    3    0  502 -0.23046341031E+03 -0.35395309366E+03  0.75123774965E+03  0.86183196304E+03  0.50400001928E-02 0. -1.
</event>
<event>
 5   0  0.1440615E-02  0.8654478E+03  0.7818609E-02  0.9469835E-01
       -2   -1    0    0    0  501  0.00000000000E+00  0.00000000000E+00  0.22920665683E+03  0.22920665684E+03  0.25500000920E-02 0.  1.
        2   -1    0    0  501    0  0.00000000000E+00  0.00000000000E+00 -0.81694824628E+03  0.81694824628E+03  0.25500000920E-02 0. -1.
    10030    2    1    2    0    0  0.00000000000E+00  0.00000000000E+00 -0.58774158945E+03  0.10461549031E+04  0.86544780626E+03 0.  0.
        3    1    3    3  502    0 -0.27037724604E+03  0.31935607778E+03 -0.16058534926E+03  0.44819618940E+03  0.10100000352E+00 0.  1.
       -3    1    3    3    0  502  0.27037724604E+03 -0.31935607778E+03 -0.42715624019E+03  0.59795871373E+03  0.10100000352E+00 0. -1.
</event>
<event>
 5   0  0.1440615E-02  0.9061879E+03  0.7818609E-02  0.9417879E-01
        2   -1    0    0  501    0  0.00000000000E+00  0.00000000000E+00  0.20863703378E+03  0.20863703380E+03  0.25500000920E-02 0. -1.
       -2   -1    0    0    0  501  0.00000000000E+00  0.00000000000E+00 -0.98397740684E+03  0.98397740685E+03  0.25500000920E-02 0.  1.
    10030    2    1    2    0    0  0.00000000000E+00  0.00000000000E+00 -0.77534037306E+03  0.11926144406E+04  0.90618789991E+03 0.  0.
        3    1    3    3  502    0 -0.30352761992E+03  0.28255520940E+03 -0.14740868749E+03  0.44010884309E+03  0.10100000352E+00 0. -1.
       -3    1    3    3    0  502  0.30352761992E+03 -0.28255520940E+03 -0.62793168557E+03  0.75250559756E+03  0.10100000352E+00 0.  1.
</event>
<event>
 5   0  0.1454652E-02  0.9200370E+03  0.7818609E-02  0.9400875E-01
        2   -1    0    0  501    0  0.00000000000E+00  0.00000000000E+00  0.18130292055E+04  0.18130292055E+04  0.25500000920E-02 0. -1.
       -2   -1    0    0    0  501  0.00000000000E+00  0.00000000000E+00 -0.11672015051E+03  0.11672015053E+03  0.25500000920E-02 0.  1.
    10030    2    1    2    0    0  0.00000000000E+00  0.00000000000E+00  0.16963090550E+04  0.19297493560E+04  0.92003704656E+03 0.  0.
        4    1    3    3  502    0  0.19074169486E+03 -0.41629478280E+03  0.75596870429E+03  0.88384050321E+03  0.12699999809E+01 0.  1.
       -4    1    3    3    0  502 -0.19074169486E+03  0.41629478280E+03  0.94034035067E+03  0.10459088528E+04  0.12699999809E+01 0. -1.
</event>
<event>
 5   0  0.8738044E-03  0.9016852E+03  0.7818609E-02  0.9423477E-01
        1   -1    0    0  501    0  0.00000000000E+00  0.00000000000E+00  0.61124559299E+03  0.61124559301E+03  0.50400001928E-02 0. -1.
       -1   -1    0    0    0  501  0.00000000000E+00  0.00000000000E+00 -0.33253251254E+03  0.33253251258E+03  0.50400001928E-02 0.  1.
    10030    2    1    2    0    0  0.00000000000E+00  0.00000000000E+00  0.27871308045E+03  0.94377810559E+03  0.90168516201E+03 0.  0.
        3    1    3    3  502    0  0.14165301430E+03  0.42156297602E+03  0.61887158657E+02  0.44901107984E+03  0.10100000352E+00 0.  1.
       -3    1    3    3    0  502 -0.14165301430E+03 -0.42156297602E+03  0.21682592179E+03  0.49476702575E+03  0.10100000352E+00 0. -1.
</event>
<event>
 5   0  0.1454652E-02  0.8848568E+03  0.7818609E-02  0.9444712E-01
        2   -1    0    0  501    0  0.00000000000E+00  0.00000000000E+00  0.46773584372E+03  0.46773584373E+03  0.25500000920E-02 0.  1.
       -2   -1    0    0    0  501  0.00000000000E+00  0.00000000000E+00 -0.41849024628E+03  0.41849024629E+03  0.25500000920E-02 0. -1.
    10030    2    1    2    0    0  0.00000000000E+00  0.00000000000E+00  0.49245597440E+02  0.88622609002E+03  0.88485679845E+03 0.  0.
        4    1    3    3  502    0 -0.36169955496E+03 -0.67617851002E+00 -0.23055422170E+03  0.42893342994E+03  0.12699999809E+01 0. -1.
       -4    1    3    3    0  502  0.36169955496E+03  0.67617851002E+00  0.27979981914E+03  0.45729266008E+03  0.12699999809E+01 0.  1.
</event>
<event>
 5   0  0.8524692E-03  0.9042453E+03  0.7818609E-02  0.9420290E-01
        1   -1    0    0  501    0  0.00000000000E+00  0.00000000000E+00  0.59065120364E+03  0.59065120366E+03  0.50400001928E-02 0. -1.
       -1   -1    0    0    0  501  0.00000000000E+00  0.00000000000E+00 -0.34608391761E+03  0.34608391764E+03  0.50400001928E-02 0.  1.
    10030    2    1    2    0    0  0.00000000000E+00  0.00000000000E+00  0.24456728603E+03  0.93673512131E+03  0.90424528204E+03 0.  0.
        5    1    3    3  502    0 -0.13830404164E+03 -0.36860339472E+03  0.35252209609E+03  0.52847931725E+03  0.46999998093E+01 0. -1.
       -5    1    3    3    0  502  0.13830404164E+03  0.36860339472E+03 -0.10795481006E+03  0.40825580405E+03  0.46999998093E+01 0.  1.
</event>
<event>
 5   0  0.1483326E-02  0.9031228E+03  0.7818609E-02  0.9421686E-01
        2   -1    0    0  501    0  0.00000000000E+00  0.00000000000E+00  0.11546610921E+04  0.11546610921E+04  0.25500000920E-02 0.  1.
       -2   -1    0    0    0  501  0.00000000000E+00  0.00000000000E+00 -0.17659528233E+03  0.17659528235E+03  0.25500000920E-02 0. -1.
    10030    2    1    2    0    0  0.00000000000E+00  0.00000000000E+00  0.97806580974E+03  0.13312563744E+04  0.90312280797E+03 0.  0.
        1    1    3    3  502    0  0.17704751130E+03 -0.12443518340E+03  0.10732472910E+04  0.10948468769E+04  0.50400001928E-02 0.  1.
       -1    1    3    3    0  502 -0.17704751130E+03  0.12443518340E+03 -0.95181481276E+02  0.23640949754E+03  0.50400001928E-02 0. -1.
</event>
<event>
 5   0  0.8885324E-03  0.9003981E+03  0.7818609E-02  0.9425084E-01
       -1   -1    0    0    0  501  0.00000000000E+00  0.00000000000E+00  0.12032992704E+03  0.12032992715E+03  0.50400001928E-02 0.  1.
        1   -1    0    0  501    0  0.00000000000E+00  0.00000000000E+00 -0.16843623544E+04  0.16843623544E+04  0.50400001928E-02 0. -1.
    10030    2    1    2    0    0  0.00000000000E+00  0.00000000000E+00 -0.15640324274E+04  0.18046922816E+04  0.90039813266E+03 0.  0.
        2    1    3    3  502    0 -0.41266424499E+02 -0.43445423078E+03 -0.56039707129E+03  0.71028041924E+03  0.25500000920E-02 0.  1.
       -2    1    3    3    0  502  0.41266424499E+02  0.43445423078E+03 -0.10036353561E+04  0.10944118623E+04  0.25500000920E-02 0. -1.
</event>
<event>
 5   0  0.1441195E-02  0.7535130E+03  0.7818609E-02  0.9629855E-01
       -2   -1    0    0    0  501  0.00000000000E+00  0.00000000000E+00  0.92064853904E+02  0.92064853939E+02  0.25500000920E-02 0.  1.
        2   -1    0    0  501    0  0.00000000000E+00  0.00000000000E+00 -0.15417986220E+04  0.15417986220E+04  0.25500000920E-02 0. -1.
    10030    2    1    2    0    0  0.00000000000E+00  0.00000000000E+00 -0.14497337681E+04  0.16338634759E+04  0.75351301226E+03 0.  0.
        5    1    3    3  502    0  0.37324986903E+03 -0.48227697790E+02 -0.76127926347E+03  0.84924059168E+03  0.46999998093E+01 0. -1.
       -5    1    3    3    0  502 -0.37324986903E+03  0.48227697790E+02 -0.68845450460E+03  0.78462288423E+03  0.46999998093E+01 0.  1.
</event>
<event>
 5   0  0.8738044E-03  0.9092819E+03  0.7818609E-02  0.9414052E-01
        1   -1    0    0  501    0  0.00000000000E+00  0.00000000000E+00  0.75460712859E+03  0.75460712860E+03  0.50400001928E-02 0.  1.
       -1   -1    0    0    0  501  0.00000000000E+00  0.00000000000E+00 -0.27391525286E+03  0.27391525290E+03  0.50400001928E-02 0. -1.
    10030    2    1    2    0    0  0.00000000000E+00  0.00000000000E+00  0.48069187573E+03  0.10285223815E+04  0.90928191991E+03 0.  0.
        3    1    3    3  502    0 -0.94217134157E+02 -0.34407889943E+03  0.55914045847E+03  0.66325351104E+03  0.10100000352E+00 0.  1.
       -3    1    3    3    0  502  0.94217134157E+02  0.34407889943E+03 -0.78448582744E+02  0.36526887047E+03  0.10100000352E+00 0. -1.
</event>
<event>
 5   0  0.8291252E-03  0.8912993E+03  0.7818609E-02  0.9436524E-01
       -1   -1    0    0    0  501  0.00000000000E+00  0.00000000000E+00  0.25221550746E+03  0.25221550751E+03  0.50400001928E-02 0.  1.
        1   -1    0    0  501    0  0.00000000000E+00  0.00000000000E+00 -0.78743622004E+03  0.78743622005E+03  0.50400001928E-02 0. -1.
    10030    2    1    2    0    0  0.00000000000E+00  0.00000000000E+00 -0.53522071257E+03  0.10396517276E+04  0.89129933438E+03 0.  0.
        1    1    3    3  502    0 -0.14302617787E+03  0.40368556795E+03 -0.12387184818E+03  0.44582817331E+03  0.50400001928E-02 0.  1.
       -1    1    3    3    0  502  0.14302617787E+03 -0.40368556795E+03 -0.41134886439E+03  0.59382355425E+03  0.50400001928E-02 0. -1.
</event>
<event>
 5   0  0.8524692E-03  0.8644605E+03  0.7818609E-02  0.9471131E-01
       -1   -1    0    0    0  501  0.00000000000E+00  0.00000000000E+00  0.12193844097E+03  0.12193844107E+03  0.50400001928E-02 0.  1.
        1   -1    0    0  501    0  0.00000000000E+00  0.00000000000E+00 -0.15321090555E+04  0.15321090555E+04  0.50400001928E-02 0. -1.
    10030    2    1    2    0    0  0.00000000000E+00  0.00000000000E+00 -0.14101706145E+04  0.16540474966E+04  0.86446050162E+03 0.  0.
        5    1    3    3  502    0  0.18575728586E+01  0.30482011671E+03 -0.11881982483E+03  0.32719870859E+03  0.46999998093E+01 0.  1.
       -5    1    3    3    0  502 -0.18575728586E+01 -0.30482011671E+03 -0.12913507897E+04  0.13268487880E+04  0.46999998093E+01 0. -1.
</event>
<event>
 5   0  0.8291252E-03  0.8940210E+03  0.7818609E-02  0.9433086E-01
        1   -1    0    0  501    0  0.00000000000E+00  0.00000000000E+00  0.17333261926E+04  0.17333261926E+04  0.50400001928E-02 0. -1.
       -1   -1    0    0    0  501  0.00000000000E+00  0.00000000000E+00 -0.11528032117E+03  0.11528032128E+03  0.50400001928E-02 0.  1.
    10030    2    1    2    0    0  0.00000000000E+00  0.00000000000E+00  0.16180458714E+04  0.18486065138E+04  0.89402102946E+03 0.  0.
        1    1    3    3  502    0  0.12146012558E+03  0.40577210860E+03  0.51358267953E+03  0.66571069915E+03  0.50400001928E-02 0.  1.
       -1    1    3    3    0  502 -0.12146012558E+03 -0.40577210860E+03  0.11044631919E+04  0.11828958147E+04  0.50400001928E-02 0. -1.
</event>
<event>
 5   0  0.8885324E-03  0.8991439E+03  0.7818609E-02  0.9426652E-01
       -1   -1    0    0    0  501  0.00000000000E+00  0.00000000000E+00  0.69286693370E+03  0.69286693372E+03  0.50400001928E-02 0.  1.
        1   -1    0    0  501    0  0.00000000000E+00  0.00000000000E+00 -0.29170818525E+03  0.29170818530E+03  0.50400001928E-02 0. -1.
    10030    2    1    2    0    0  0.00000000000E+00  0.00000000000E+00  0.40115874845E+03  0.98457511902E+03  0.89914393928E+03 0.  0.
        2    1    3    3  502    0  0.26804023168E+03  0.89322182301E+02 -0.18234831688E+03  0.33626615460E+03  0.25500000920E-02 0. -1.
       -2    1    3    3    0  502 -0.26804023168E+03 -0.89322182301E+02  0.58350706533E+03  0.64830896442E+03  0.25500000920E-02 0.  1.
</event>
<event>
 5   0  0.8524692E-03  0.9112158E+03  0.7818609E-02  0.9411669E-01
       -1   -1    0    0    0  501  0.00000000000E+00  0.00000000000E+00  0.19513677636E+03  0.19513677642E+03  0.50400001928E-02 0. -1.
        1   -1    0    0  501    0  0.00000000000E+00  0.00000000000E+00 -0.10637593356E+04  0.10637593356E+04  0.50400001928E-02 0.  1.
    10030    2    1    2    0    0  0.00000000000E+00  0.00000000000E+00 -0.86862255922E+03  0.12588961120E+04  0.91121581991E+03 0.  0.
        5    1    3    3  502    0 -0.37450748908E+03 -0.85416722097E+02 -0.95887461940E+02  0.39593985799E+03  0.46999998093E+01 0. -1.
       -5    1    3    3    0  502  0.37450748908E+03  0.85416722097E+02 -0.77273509728E+03  0.86295625402E+03  0.46999998093E+01 0.  1.
</event>
<event>
 5   0  0.1441195E-02  0.8496165E+03  0.7818609E-02  0.9490852E-01
       -2   -1    0    0    0  501  0.00000000000E+00  0.00000000000E+00  0.12663675474E+03  0.12663675476E+03  0.25500000920E-02 0.  1.
        2   -1    0    0  501    0  0.00000000000E+00  0.00000000000E+00 -0.14250368761E+04  0.14250368761E+04  0.25500000920E-02 0. -1.
    10030    2    1    2    0    0  0.00000000000E+00  0.00000000000E+00 -0.12984001214E+04  0.15516736309E+04  0.84961649089E+03 0.  0.
        5    1    3    3  502    0 -0.29209817496E+03  0.30347278061E+03 -0.54878748287E+03  0.69181418295E+03  0.46999998093E+01 0.  1.
       -5    1    3    3    0  502  0.29209817496E+03 -0.30347278061E+03 -0.74961263854E+03  0.85985944796E+03  0.46999998093E+01 0. -1.
</event>
<event>
 5   0  0.8524692E-03  0.9067206E+03  0.7818609E-02  0.9417219E-01
        1   -1    0    0  501    0  0.00000000000E+00  0.00000000000E+00  0.59711614892E+03  0.59711614894E+03  0.50400001928E-02 0. -1.
       -1   -1    0    0    0  501  0.00000000000E+00  0.00000000000E+00 -0.34421369304E+03  0.34421369307E+03  0.50400001928E-02 0.  1.
    10030    2    1    2    0    0  0.00000000000E+00  0.00000000000E+00  0.25290245588E+03  0.94132984201E+03  0.90672058501E+03 0.  0.
        5    1    3    3  502    0  0.32827452720E+02  0.33178564749E+03  0.44534699635E+03  0.55634107765E+03  0.46999998093E+01 0.  1.
       -5    1    3    3    0  502 -0.32827452720E+02 -0.33178564749E+03 -0.19244454047E+03  0.38498876436E+03  0.46999998093E+01 0. -1.
</event>
<event>
 5   0  0.1483326E-02  0.9429844E+03  0.7818609E-02  0.9373389E-01
       -2   -1    0    0    0  501  0.00000000000E+00  0.00000000000E+00  0.31795512069E+03  0.31795512070E+03  0.25500000920E-02 0. -1.
        2   -1    0    0  501    0  0.00000000000E+00  0.00000000000E+00 -0.69917061397E+03  0.69917061397E+03  0.25500000920E-02 0.  1.
    10030    2    1    2    0    0  0.00000000000E+00  0.00000000000E+00 -0.38121549328E+03  0.10171257347E+04  0.94298436245E+03 0.  0.
        1    1    3    3  502    0 -0.34454516262E+03 -0.32147137824E+03 -0.17356477396E+03  0.50217521534E+03  0.50400001928E-02 0. -1.
       -1    1    3    3    0  502  0.34454516262E+03  0.32147137824E+03 -0.20765071932E+03  0.51495051934E+03  0.50400001928E-02 0.  1.
</event>
<event>
 5   0  0.8291252E-03  0.8046169E+03  0.7818609E-02  0.9553358E-01
        1   -1    0    0  501    0  0.00000000000E+00  0.00000000000E+00  0.10436082607E+04  0.10436082607E+04  0.50400001928E-02 0. -1.
       -1   -1    0    0    0  501  0.00000000000E+00  0.00000000000E+00 -0.15508892439E+03  0.15508892448E+03  0.50400001928E-02 0.  1.
    10030    2    1    2    0    0  0.00000000000E+00  0.00000000000E+00  0.88851933634E+03  0.11986971852E+04  0.80461688449E+03 0.  0.
        1    1    3    3  502    0 -0.18227365086E+01 -0.32481307127E+03  0.79788951917E+03  0.86147230858E+03  0.50400001928E-02 0. -1.
       -1    1    3    3    0  502  0.18227365086E+01  0.32481307127E+03  0.90629817171E+02  0.33722487664E+03  0.50400001928E-02 0.  1.
</event>
<event>
 5   0  0.1454652E-02  0.8934391E+03  0.7818609E-02  0.9433820E-01
       -2   -1    0    0    0  501  0.00000000000E+00  0.00000000000E+00  0.22950624147E+03  0.22950624149E+03  0.25500000920E-02 0. -1.
        2   -1    0    0  501    0  0.00000000000E+00  0.00000000000E+00 -0.86951172949E+03  0.86951172950E+03  0.25500000920E-02 0.  1.
    10030    2    1    2    0    0  0.00000000000E+00  0.00000000000E+00 -0.64000548802E+03  0.10990179710E+04  0.89343912822E+03 0.  0.
        4    1    3    3  502    0  0.31001426389E+03  0.24543836933E+03 -0.64308176512E+02  0.40060702867E+03  0.12699999809E+01 0. -1.
       -4    1    3    3    0  502 -0.31001426389E+03 -0.24543836933E+03 -0.57569731151E+03  0.69841094231E+03  0.12699999809E+01 0.  1.
</event>
<event>
 5   0  0.1440615E-02  0.9015144E+03  0.7818609E-02  0.9423690E-01
        2   -1    0    0  501    0  0.00000000000E+00  0.00000000000E+00  0.14569234213E+04  0.14569234213E+04  0.25500000920E-02 0.  1.
       -2   -1    0    0    0  501  0.00000000000E+00  0.00000000000E+00 -0.13945967173E+03  0.13945967175E+03  0.25500000920E-02 0. -1.
    10030    2    1    2    0    0  0.00000000000E+00  0.00000000000E+00  0.13174637496E+04  0.15963830931E+04  0.90151441938E+03 0.  0.
        3    1    3    3  502    0 -0.50379154275E+02 -0.10637083577E+03  0.14292330148E+04  0.14340710703E+04  0.10100000352E+00 0.  1.
       -3    1    3    3    0  502  0.50379154275E+02  0.10637083577E+03 -0.11176926521E+03  0.16231202276E+03  0.10100000352E+00 0. -1.
</event>
<event>
 5   0  0.8738044E-03  0.8971443E+03  0.7818609E-02  0.9429158E-01
       -1   -1    0    0    0  501  0.00000000000E+00  0.00000000000E+00  0.31451890735E+03  0.31451890739E+03  0.50400001928E-02 0.  1.
        1   -1    0    0  501    0  0.00000000000E+00  0.00000000000E+00 -0.63976119388E+03  0.63976119390E+03  0.50400001928E-02 0. -1.
    10030    2    1    2    0    0  0.00000000000E+00  0.00000000000E+00 -0.32524228653E+03  0.95428010129E+03  0.89714433998E+03 0.  0.
        3    1    3    3  502    0 -0.11535073430E+02 -0.42729350429E+02 -0.63743301314E+03  0.63896769225E+03  0.10100000352E+00 0. -1.
       -3    1    3    3    0  502  0.11535073430E+02  0.42729350429E+02  0.31219072661E+03  0.31531240903E+03  0.10100000352E+00 0.  1.
</event>
<event>
 5   0  0.8524692E-03  0.9164068E+03  0.7818609E-02  0.9405301E-01
        1   -1    0    0  501    0  0.00000000000E+00  0.00000000000E+00  0.18747697168E+04  0.18747697169E+04  0.50400001928E-02 0. -1.
       -1   -1    0    0    0  501  0.00000000000E+00  0.00000000000E+00 -0.11198728386E+03  0.11198728398E+03  0.50400001928E-02 0.  1.
    10030    2    1    2    0    0  0.00000000000E+00  0.00000000000E+00  0.17627824330E+04  0.19867570008E+04  0.91640682795E+03 0.  0.
        5    1    3    3  502    0  0.31520780006E+03 -0.57101096680E+02  0.17119206781E+03  0.36324276530E+03  0.46999998093E+01 0.  1.
       -5    1    3    3    0  502 -0.31520780006E+03  0.57101096680E+02  0.15915903652E+04  0.16235142355E+04  0.46999998093E+01 0. -1.
</event>
<event>
 5   0  0.5770125E-03  0.8622620E+03  0.7818609E-02  0.9474026E-01
        3   -1    0    0  501    0  0.00000000000E+00  0.00000000000E+00  0.89073312262E+03  0.89073312835E+03  0.10100000352E+00 0.  1.
       -3   -1    0    0    0  501  0.00000000000E+00  0.00000000000E+00 -0.20867521301E+03  0.20867523745E+03  0.10100000352E+00 0. -1.
    10030    2    1    2    0    0  0.00000000000E+00  0.00000000000E+00  0.68205790962E+03  0.10994083658E+04  0.86226200353E+03 0.  0.
        2    1    3    3  502    0  0.32402169304E+03  0.26592740076E+03  0.21246905223E+03  0.46994737811E+03  0.25500000920E-02 0.  1.
       -2    1    3    3    0  502 -0.32402169304E+03 -0.26592740076E+03  0.46958885739E+03  0.62946098769E+03  0.25500000920E-02 0. -1.
</event>
<event>
 5   0  0.8885324E-03  0.9165645E+03  0.7818609E-02  0.9405109E-01
        1   -1    0    0  501    0  0.00000000000E+00  0.00000000000E+00  0.59143533865E+03  0.59143533867E+03  0.50400001928E-02 0. -1.
       -1   -1    0    0    0  501  0.00000000000E+00  0.00000000000E+00 -0.35510666500E+03  0.35510666504E+03  0.50400001928E-02 0.  1.
    10030    2    1    2    0    0  0.00000000000E+00  0.00000000000E+00  0.23632867365E+03  0.94654200371E+03  0.91656452189E+03 0.  0.
        2    1    3    3  502    0 -0.22940989174E+03  0.37146773786E+03 -0.25695223824E+02  0.43735274463E+03  0.25500000920E-02 0. -1.
       -2    1    3    3    0  502  0.22940989174E+03 -0.37146773786E+03  0.26202389748E+03  0.50918925908E+03  0.25500000920E-02 0.  1.
</event>
<event>
 5   0  0.1441195E-02  0.8751828E+03  0.7818609E-02  0.9457147E-01
        2   -1    0    0  501    0  0.00000000000E+00  0.00000000000E+00  0.52270309565E+03  0.52270309566E+03  0.25500000920E-02 0. -1.
       -2   -1    0    0    0  501  0.00000000000E+00  0.00000000000E+00 -0.36633839323E+03  0.36633839323E+03  0.25500000920E-02 0.  1.
    10030    2    1    2    0    0  0.00000000000E+00  0.00000000000E+00  0.15636470243E+03  0.88904148889E+03  0.87518275166E+03 0.  0.
        5    1    3    3  502    0 -0.39376076454E+03 -0.29383087594E+02  0.26972378261E+03  0.47820906979E+03  0.46999998093E+01 0. -1.
       -5    1    3    3    0  502  0.39376076454E+03  0.29383087594E+02 -0.11335908019E+03  0.41083241910E+03  0.46999998093E+01 0.  1.
</event>
<event>
 5   0  0.1535906E-02  0.8978744E+03  0.7818609E-02  0.9428242E-01
        2   -1    0    0  501    0  0.00000000000E+00  0.00000000000E+00  0.12431820806E+04  0.12431820806E+04  0.25500000920E-02 0. -1.
       -2   -1    0    0    0  501  0.00000000000E+00  0.00000000000E+00 -0.16211995507E+03  0.16211995509E+03  0.25500000920E-02 0.  1.
    10030    2    1    2    0    0  0.00000000000E+00  0.00000000000E+00  0.10810621255E+04  0.14053020357E+04  0.89787443012E+03 0.  0.
        2    1    3    3  502    0 -0.15485132582E+03 -0.88058494976E+01  0.11999155857E+04  0.12098982970E+04  0.25500000920E-02 0. -1.
       -2    1    3    3    0  502  0.15485132582E+03  0.88058494976E+01 -0.11885346022E+03  0.19540373872E+03  0.25500000920E-02 0.  1.
</event>
<event>
 5   0  0.1440615E-02  0.9009986E+03  0.7818609E-02  0.9424334E-01
       -2   -1    0    0    0  501  0.00000000000E+00  0.00000000000E+00  0.18911398087E+03  0.18911398089E+03  0.25500000920E-02 0.  1.
        2   -1    0    0  501    0  0.00000000000E+00  0.00000000000E+00 -0.10731602868E+04  0.10731602868E+04  0.25500000920E-02 0. -1.
    10030    2    1    2    0    0  0.00000000000E+00  0.00000000000E+00 -0.88404630598E+03  0.12622742677E+04  0.90099858816E+03 0.  0.
        3    1    3    3  502    0  0.18997026757E+02 -0.13457296485E+03 -0.10437548524E+04  0.10525658991E+04  0.10100000352E+00 0. -1.
       -3    1    3    3    0  502 -0.18997026757E+02  0.13457296485E+03  0.15970854638E+03  0.20970836865E+03  0.10100000352E+00 0.  1.
</event>
<event>
 5   0  0.1535906E-02  0.9022403E+03  0.7818609E-02  0.9422785E-01
        2   -1    0    0  501    0  0.00000000000E+00  0.00000000000E+00  0.16735338941E+03  0.16735338943E+03  0.25500000920E-02 0. -1.
       -2   -1    0    0    0  501  0.00000000000E+00  0.00000000000E+00 -0.12160458344E+04  0.12160458344E+04  0.25500000920E-02 0.  1.
    10030    2    1    2    0    0  0.00000000000E+00  0.00000000000E+00 -0.10486924450E+04  0.13833992238E+04  0.90224030519E+03 0.  0.
        2    1    3    3  502    0  0.82912990454E+02  0.43802902283E+03 -0.63019238847E+03  0.77193680785E+03  0.25500000920E-02 0.  1.
       -2    1    3    3    0  502 -0.82912990454E+02 -0.43802902283E+03 -0.41850005650E+03  0.61146241596E+03  0.25500000920E-02 0. -1.
</event>
<event>
 5   0  0.1440615E-02  0.9076077E+03  0.7818609E-02  0.9416121E-01
        2   -1    0    0  501    0  0.00000000000E+00  0.00000000000E+00  0.42162354021E+03  0.42162354022E+03  0.25500000920E-02 0.  1.
       -2   -1    0    0    0  501  0.00000000000E+00  0.00000000000E+00 -0.48844026929E+03  0.48844026930E+03  0.25500000920E-02 0. -1.
    10030    2    1    2    0    0  0.00000000000E+00  0.00000000000E+00 -0.66816729082E+02  0.91006380952E+03  0.90760765869E+03 0.  0.
        3    1    3    3  502    0  0.97523292664E+02 -0.78905110876E+02  0.40389236310E+03  0.42292536021E+03  0.10100000352E+00 0.  1.
       -3    1    3    3    0  502 -0.97523292664E+02  0.78905110876E+02 -0.47070909218E+03  0.48713844931E+03  0.10100000352E+00 0. -1.
</event>
<event>
 5   0  0.1441195E-02  0.9033707E+03  0.7818609E-02  0.9421378E-01
        2   -1    0    0  501    0  0.00000000000E+00  0.00000000000E+00  0.14117678240E+04  0.14117678240E+04  0.25500000920E-02 0.  1.
       -2   -1    0    0    0  501  0.00000000000E+00  0.00000000000E+00 -0.14451359926E+03  0.14451359928E+03  0.25500000920E-02 0. -1.
    10030    2    1    2    0    0  0.00000000000E+00  0.00000000000E+00  0.12672542247E+04  0.15562814233E+04  0.90337068710E+03 0.  0.
        5    1    3    3  502    0  0.49051744837E+02 -0.79115987994E+01 -0.13974907945E+03  0.14839326896E+03  0.46999998093E+01 0. -1.
       -5    1    3    3    0  502 -0.49051744837E+02  0.79115987994E+01  0.14070033042E+04  0.14078881543E+04  0.46999998093E+01 0.  1.
</event>
<event>
 5   0  0.1454652E-02  0.8819130E+03  0.7818609E-02  0.9448478E-01
        2   -1    0    0  501    0  0.00000000000E+00  0.00000000000E+00  0.18347772776E+04  0.18347772776E+04  0.25500000920E-02 0.  1.
       -2   -1    0    0    0  501  0.00000000000E+00  0.00000000000E+00 -0.10597616286E+03  0.10597616289E+03  0.25500000920E-02 0. -1.
    10030    2    1    2    0    0  0.00000000000E+00  0.00000000000E+00  0.17288011148E+04  0.19407534405E+04  0.88191304699E+03 0.  0.
        4    1    3    3  502    0  0.41254531748E+03 -0.44303262872E+02  0.11929095472E+04  0.12630087960E+04  0.12699999809E+01 0.  1.
       -4    1    3    3    0  502 -0.41254531748E+03  0.44303262872E+02  0.53589156758E+03  0.67774464453E+03  0.12699999809E+01 0. -1.
</event>
<event>
 5   0  0.1454652E-02  0.8828386E+03  0.7818609E-02  0.9447292E-01
        2   -1    0    0  501    0  0.00000000000E+00  0.00000000000E+00  0.98853188063E+03  0.98853188064E+03  0.25500000920E-02 0.  1.
       -2   -1    0    0    0  501  0.00000000000E+00  0.00000000000E+00 -0.19711150055E+03  0.19711150056E+03  0.25500000920E-02 0. -1.
    10030    2    1    2    0    0  0.00000000000E+00  0.00000000000E+00  0.79142038008E+03  0.11856433812E+04  0.88283860890E+03 0.  0.
        4    1    3    3  502    0  0.36262070591E+03  0.50524589217E+02  0.72686787286E+03  0.81387039998E+03  0.12699999809E+01 0.  1.
       -4    1    3    3    0  502 -0.36262070591E+03 -0.50524589217E+02  0.64552507225E+02  0.37177298122E+03  0.12699999809E+01 0. -1.
</event>
<event>
 5   0  0.8291252E-03  0.9168974E+03  0.7818609E-02  0.9404702E-01
       -1   -1    0    0    0  501  0.00000000000E+00  0.00000000000E+00  0.14772850401E+03  0.14772850409E+03  0.50400001928E-02 0.  1.
        1   -1    0    0  501    0  0.00000000000E+00  0.00000000000E+00 -0.14227126820E+04  0.14227126820E+04  0.50400001928E-02 0. -1.
    10030    2    1    2    0    0  0.00000000000E+00  0.00000000000E+00 -0.12749841780E+04  0.15704411861E+04  0.91689741240E+03 0.  0.
        1    1    3    3  502    0 -0.36356392105E+03  0.26758402434E+03 -0.50052041630E+03  0.67401826528E+03  0.50400001928E-02 0.  1.
       -1    1    3    3    0  502  0.36356392105E+03 -0.26758402434E+03 -0.77446376169E+03  0.89642292082E+03  0.50400001928E-02 0. -1.
</event>
<event>
 5   0  0.1535906E-02  0.9449881E+03  0.7818609E-02  0.9371028E-01
        2   -1    0    0  501    0  0.00000000000E+00  0.00000000000E+00  0.75945356540E+03  0.75945356540E+03  0.25500000920E-02 0.  1.
       -2   -1    0    0    0  501  0.00000000000E+00  0.00000000000E+00 -0.29396218014E+03  0.29396218015E+03  0.25500000920E-02 0. -1.
    10030    2    1    2    0    0  0.00000000000E+00  0.00000000000E+00  0.46549138526E+03  0.10534157455E+04  0.94498809687E+03 0.  0.
        2    1    3    3  502    0  0.11253809353E+03  0.32495948837E+03 -0.12844912291E+03  0.36710035243E+03  0.25500000920E-02 0. -1.
       -2    1    3    3    0  502 -0.11253809353E+03 -0.32495948837E+03  0.59394050817E+03  0.68631539312E+03  0.25500000920E-02 0.  1.
</event>
<event>
 5   0  0.8524692E-03  0.9081849E+03  0.7818609E-02  0.9415407E-01
       -1   -1    0    0    0  501  0.00000000000E+00  0.00000000000E+00  0.15430563483E+03  0.15430563491E+03  0.50400001928E-02 0.  1.
        1   -1    0    0  501    0  0.00000000000E+00  0.00000000000E+00 -0.13363086031E+04  0.13363086031E+04  0.50400001928E-02 0. -1.
    10030    2    1    2    0    0  0.00000000000E+00  0.00000000000E+00 -0.11820029683E+04  0.14906142380E+04  0.90818488734E+03 0.  0.
        5    1    3    3  502    0 -0.21994220679E+03 -0.38798575408E+03 -0.73094999659E+03  0.85628120802E+03  0.46999998093E+01 0. -1.
       -5    1    3    3    0  502  0.21994220679E+03  0.38798575408E+03 -0.45105297170E+03  0.63433303002E+03  0.46999998093E+01 0.  1.
</event>
<event>
 5   0  0.8612969E-03  0.9284824E+03  0.7818609E-02  0.9390661E-01
       -1   -1    0    0    0  501  0.00000000000E+00  0.00000000000E+00  0.11039647746E+03  0.11039647757E+03  0.50400001928E-02 0.  1.
        1   -1    0    0  501    0  0.00000000000E+00  0.00000000000E+00 -0.19522353457E+04  0.19522353457E+04  0.50400001928E-02 0. -1.
    10030    2    1    2    0    0  0.00000000000E+00  0.00000000000E+00 -0.18418388682E+04  0.20626318232E+04  0.92848242945E+03 0.  0.
        4    1    3    3  502    0  0.27640450204E+03  0.70358834346E+02 -0.17346362131E+04  0.17579289574E+04  0.12699999809E+01 0. -1.
       -4    1    3    3    0  502 -0.27640450204E+03 -0.70358834346E+02 -0.10720265507E+03  0.30470286587E+03  0.12699999809E+01 0.  1.
</event>
<event>
 5   0  0.8524692E-03  0.9118890E+03  0.7818609E-02  0.9410840E-01
        1   -1    0    0  501    0  0.00000000000E+00  0.00000000000E+00  0.82307500580E+03  0.82307500581E+03  0.50400001928E-02 0. -1.
       -1   -1    0    0    0  501  0.00000000000E+00  0.00000000000E+00 -0.25257159185E+03  0.25257159190E+03  0.50400001928E-02 0.  1.
    10030    2    1    2    0    0  0.00000000000E+00  0.00000000000E+00  0.57050341395E+03  0.10756465977E+04  0.91188895039E+03 0.  0.
        5    1    3    3  502    0 -0.15379722463E+03  0.39310667133E+03  0.48845766240E+03  0.64560004593E+03  0.46999998093E+01 0. -1.
       -5    1    3    3    0  502  0.15379722463E+03 -0.39310667133E+03  0.82045751552E+02  0.43004655178E+03  0.46999998093E+01 0.  1.
</event>
<event>
 5   0  0.1483326E-02  0.9012665E+03  0.7818609E-02  0.9424000E-01
       -2   -1    0    0    0  501  0.00000000000E+00  0.00000000000E+00  0.93934032597E+03  0.93934032597E+03  0.25500000920E-02 0. -1.
        2   -1    0    0  501    0  0.00000000000E+00  0.00000000000E+00 -0.21618397109E+03  0.21618397110E+03  0.25500000920E-02 0.  1.
    10030    2    1    2    0    0  0.00000000000E+00  0.00000000000E+00  0.72315635488E+03  0.11555242971E+04  0.90126649085E+03 0.  0.
        1    1    3    3  502    0  0.82138798775E+01 -0.22271602251E+03  0.86373473942E+03  0.89202443611E+03  0.50400001928E-02 0. -1.
       -1    1    3    3    0  502 -0.82138798775E+01  0.22271602251E+03 -0.14057838454E+03  0.26349986097E+03  0.50400001928E-02 0.  1.
</event>
<event>
 5   0  0.1440615E-02  0.9064565E+03  0.7818609E-02  0.9417546E-01
        2   -1    0    0  501    0  0.00000000000E+00  0.00000000000E+00  0.10749649614E+04  0.10749649614E+04  0.25500000920E-02 0. -1.
       -2   -1    0    0    0  501  0.00000000000E+00  0.00000000000E+00 -0.19109075652E+03  0.19109075654E+03  0.25500000920E-02 0.  1.
    10030    2    1    2    0    0  0.00000000000E+00  0.00000000000E+00  0.88387420486E+03  0.12660557179E+04  0.90645654661E+03 0.  0.
        3    1    3    3  502    0  0.18007225495E+03 -0.23865039888E+03  0.91771239089E+03  0.96518188569E+03  0.10100000352E+00 0. -1.
       -3    1    3    3    0  502 -0.18007225495E+03  0.23865039888E+03 -0.33838186029E+02  0.30087383223E+03  0.10100000352E+00 0.  1.
</event>
<event>
 5   0  0.1441195E-02  0.8947775E+03  0.7818609E-02  0.9432133E-01
       -2   -1    0    0    0  501  0.00000000000E+00  0.00000000000E+00  0.10499451458E+03  0.10499451461E+03  0.25500000920E-02 0.  1.
        2   -1    0    0  501    0  0.00000000000E+00  0.00000000000E+00 -0.19063538332E+04  0.19063538332E+04  0.25500000920E-02 0. -1.
    10030    2    1    2    0    0  0.00000000000E+00  0.00000000000E+00 -0.18013593187E+04  0.20113483479E+04  0.89477750391E+03 0.  0.
        5    1    3    3  502    0 -0.99665750483E+02 -0.37041682841E+03 -0.38321543574E+03  0.54223431169E+03  0.46999998093E+01 0.  1.
       -5    1    3    3    0  502  0.99665750483E+02  0.37041682841E+03 -0.14181438829E+04  0.14691140362E+04  0.46999998093E+01 0. -1.
</event>
<event>
 5   0  0.8524692E-03  0.8955916E+03  0.7818609E-02  0.9431109E-01
        1   -1    0    0  501    0  0.00000000000E+00  0.00000000000E+00  0.34444924899E+03  0.34444924903E+03  0.50400001928E-02 0.  1.
       -1   -1    0    0    0  501  0.00000000000E+00  0.00000000000E+00 -0.58214984737E+03  0.58214984739E+03  0.50400001928E-02 0. -1.
    10030    2    1    2    0    0  0.00000000000E+00  0.00000000000E+00 -0.23770059838E+03  0.92659909642E+03  0.89559159834E+03 0.  0.
        5    1    3    3  502    0  0.34711330469E+03 -0.22864209387E+03  0.53451244855E+02  0.41909900854E+03  0.46999998093E+01 0.  1.
       -5    1    3    3    0  502 -0.34711330469E+03  0.22864209387E+03 -0.29115184323E+03  0.50750008788E+03  0.46999998093E+01 0. -1.
</event>
<event>
 5   0  0.1440615E-02  0.9047111E+03  0.7818609E-02  0.9419711E-01
        2   -1    0    0  501    0  0.00000000000E+00  0.00000000000E+00  0.93077623316E+03  0.93077623316E+03  0.25500000920E-02 0. -1.
       -2   -1    0    0    0  501  0.00000000000E+00  0.00000000000E+00 -0.21984397775E+03  0.21984397777E+03  0.25500000920E-02 0.  1.
    10030    2    1    2    0    0  0.00000000000E+00  0.00000000000E+00  0.71093225540E+03  0.11506202109E+04  0.90471111302E+03 0.  0.
        3    1    3    3  502    0 -0.84777195103E+02  0.41379920064E+03  0.56136021993E+03  0.70252562799E+03  0.10100000352E+00 0. -1.
       -3    1    3    3    0  502  0.84777195103E+02 -0.41379920064E+03  0.14957203547E+03  0.44809458294E+03  0.10100000352E+00 0.  1.
</event>
<event>
 5   0  0.1454652E-02  0.8763055E+03  0.7818609E-02  0.9455695E-01
        2   -1    0    0  501    0  0.00000000000E+00  0.00000000000E+00  0.26968565071E+03  0.26968565072E+03  0.25500000920E-02 0. -1.
       -2   -1    0    0    0  501  0.00000000000E+00  0.00000000000E+00 -0.71185782698E+03  0.71185782698E+03  0.25500000920E-02 0.  1.
    10030    2    1    2    0    0  0.00000000000E+00  0.00000000000E+00 -0.44217217627E+03  0.98154347770E+03  0.87630552044E+03 0.  0.
        4    1    3    3  502    0  0.27280277683E+03  0.26345583217E+03 -0.46685878719E+03  0.60148904448E+03  0.12699999809E+01 0.  1.
       -4    1    3    3    0  502 -0.27280277683E+03 -0.26345583217E+03  0.24686610917E+02  0.38005443322E+03  0.12699999809E+01 0. -1.
</event>
<event>
 5   0  0.1441195E-02  0.8890175E+03  0.7818609E-02  0.9439415E-01
        2   -1    0    0  501    0  0.00000000000E+00  0.00000000000E+00  0.76152946547E+03  0.76152946548E+03  0.25500000920E-02 0. -1.
       -2   -1    0    0    0  501  0.00000000000E+00  0.00000000000E+00 -0.25946208612E+03  0.25946208613E+03  0.25500000920E-02 0.  1.
    10030    2    1    2    0    0  0.00000000000E+00  0.00000000000E+00  0.50206737936E+03  0.10209915516E+04  0.88901748860E+03 0.  0.
        5    1    3    3  502    0  0.19113983865E+03 -0.24723779487E+01  0.71188307725E+03  0.73711610771E+03  0.46999998093E+01 0. -1.
       -5    1    3    3    0  502 -0.19113983865E+03  0.24723779487E+01 -0.20981569789E+03  0.28387544390E+03  0.46999998093E+01 0.  1.
</event>
<event>
 5   0  0.8524692E-03  0.8967107E+03  0.7818609E-02  0.9429703E-01
        1   -1    0    0  501    0  0.00000000000E+00  0.00000000000E+00  0.39209622102E+03  0.39209622106E+03  0.50400001928E-02 0.  1.
       -1   -1    0    0    0  501  0.00000000000E+00  0.00000000000E+00 -0.51268670144E+03  0.51268670146E+03  0.50400001928E-02 0. -1.
    10030    2    1    2    0    0  0.00000000000E+00  0.00000000000E+00 -0.12059048041E+03  0.90478292252E+03  0.89671069633E+03 0.  0.
        5    1    3    3  502    0  0.28346822401E+03  0.67991829530E+02 -0.40398347176E+03  0.49819861337E+03  0.46999998093E+01 0. -1.
       -5    1    3    3    0  502 -0.28346822401E+03 -0.67991829530E+02  0.28339299135E+03  0.40658430915E+03  0.46999998093E+01 0.  1.
</event>
<event>
 5   0  0.1440615E-02  0.9149768E+03  0.7818609E-02  0.9407051E-01
       -2   -1    0    0    0  501  0.00000000000E+00  0.00000000000E+00  0.75450814327E+03  0.75450814327E+03  0.25500000920E-02 0. -1.
        2   -1    0    0  501    0  0.00000000000E+00  0.00000000000E+00 -0.27739349533E+03  0.27739349534E+03  0.25500000920E-02 0.  1.
    10030    2    1    2    0    0  0.00000000000E+00  0.00000000000E+00  0.47711464794E+03  0.10319016386E+04  0.91497683276E+03 0.  0.
        3    1    3    3  502    0 -0.13024079339E+03 -0.47719969654E+02  0.73022170485E+03  0.74327895719E+03  0.10100000352E+00 0. -1.
       -3    1    3    3    0  502  0.13024079339E+03  0.47719969654E+02 -0.25310705692E+03  0.28862268142E+03  0.10100000352E+00 0.  1.
</event>
<event>
 5   0  0.1483326E-02  0.8971872E+03  0.7818609E-02  0.9429104E-01
       -2   -1    0    0    0  501  0.00000000000E+00  0.00000000000E+00  0.17955377535E+03  0.17955377537E+03  0.25500000920E-02 0.  1.
        2   -1    0    0  501    0  0.00000000000E+00  0.00000000000E+00 -0.11207574433E+04  0.11207574433E+04  0.25500000920E-02 0. -1.
    10030    2    1    2    0    0  0.00000000000E+00  0.00000000000E+00 -0.94120366794E+03  0.13003112187E+04  0.89718722731E+03 0.  0.
        1    1    3    3  502    0 -0.16628293042E+03  0.28307047097E+03 -0.91367036165E+03  0.97086169678E+03  0.50400001928E-02 0. -1.
       -1    1    3    3    0  502  0.16628293042E+03 -0.28307047097E+03 -0.27533306287E+02  0.32944952188E+03  0.50400001928E-02 0.  1.
</event>
<event>
 5   0  0.1454652E-02  0.8648259E+03  0.7818609E-02  0.9470651E-01
        2   -1    0    0  501    0  0.00000000000E+00  0.00000000000E+00  0.19228215618E+03  0.19228215620E+03  0.25500000920E-02 0.  1.
       -2   -1    0    0    0  501  0.00000000000E+00  0.00000000000E+00 -0.97243009268E+03  0.97243009268E+03  0.25500000920E-02 0. -1.
    10030    2    1    2    0    0  0.00000000000E+00  0.00000000000E+00 -0.78014793649E+03  0.11647122489E+04  0.86482588992E+03 0.  0.
        4    1    3    3  502    0  0.39828582581E+03  0.11767133744E+03 -0.55225196149E+03  0.69098624050E+03  0.12699999809E+01 0. -1.
       -4    1    3    3    0  502 -0.39828582581E+03 -0.11767133744E+03 -0.22789597500E+03  0.47372600838E+03  0.12699999809E+01 0.  1.
</event>
<event>
 5   0  0.1483326E-02  0.8954977E+03  0.7818609E-02  0.9431227E-01
       -2   -1    0    0    0  501  0.00000000000E+00  0.00000000000E+00  0.21889186028E+03  0.21889186030E+03  0.25500000920E-02 0. -1.
        2   -1    0    0  501    0  0.00000000000E+00  0.00000000000E+00 -0.91588162538E+03  0.91588162538E+03  0.25500000920E-02 0.  1.
    10030    2    1    2    0    0  0.00000000000E+00  0.00000000000E+00 -0.69698976510E+03  0.11347734857E+04  0.89549770025E+03 0.  0.
        1    1    3    3  502    0 -0.39781174222E+03  0.13207321496E+03 -0.14901061805E+03  0.44486141738E+03  0.50400001928E-02 0.  1.
       -1    1    3    3    0  502  0.39781174222E+03 -0.13207321496E+03 -0.54797914705E+03  0.68991206830E+03  0.50400001928E-02 0. -1.
</event>
<event>
 5   0  0.1440615E-02  0.8782233E+03  0.7818609E-02  0.9453220E-01
       -2   -1    0    0    0  501  0.00000000000E+00  0.00000000000E+00  0.12835507927E+03  0.12835507930E+03  0.25500000920E-02 0. -1.
        2   -1    0    0  501    0  0.00000000000E+00  0.00000000000E+00 -0.15022316226E+04  0.15022316227E+04  0.25500000920E-02 0.  1.
    10030    2    1    2    0    0  0.00000000000E+00  0.00000000000E+00 -0.13738765434E+04  0.16305867020E+04  0.87822334070E+03 0.  0.
        3    1    3    3  502    0  0.88227302362E+02 -0.70571391892E+02  0.10090733328E+03  0.15148161059E+03  0.10100000352E+00 0. -1.
       -3    1    3    3    0  502 -0.88227302362E+02  0.70571391892E+02 -0.14747838767E+04  0.14791050914E+04  0.10100000352E+00 0.  1.
</event>
<event>
 5   0  0.1535906E-02  0.8863298E+03  0.7818609E-02  0.9442833E-01
       -2   -1    0    0    0  501  0.00000000000E+00  0.00000000000E+00  0.25285331861E+03  0.25285331862E+03  0.25500000920E-02 0.  1.
        2   -1    0    0  501    0  0.00000000000E+00  0.00000000000E+00 -0.77671569087E+03  0.77671569088E+03  0.25500000920E-02 0. -1.
    10030    2    1    2    0    0  0.00000000000E+00  0.00000000000E+00 -0.52386237226E+03  0.10295690095E+04  0.88632982588E+03 0.  0.
        2    1    3    3  502    0  0.18212978042E+03  0.40273109091E+03 -0.29923949516E+03  0.53376761233E+03  0.25500000920E-02 0. -1.
       -2    1    3    3    0  502 -0.18212978042E+03 -0.40273109091E+03 -0.22462287711E+03  0.49580139717E+03  0.25500000920E-02 0.  1.
</event>
<event>
 5   0  0.1483326E-02  0.9036348E+03  0.7818609E-02  0.9421049E-01
       -2   -1    0    0    0  501  0.00000000000E+00  0.00000000000E+00  0.33334662721E+03  0.33334662722E+03  0.25500000920E-02 0. -1.
        2   -1    0    0  501    0  0.00000000000E+00  0.00000000000E+00 -0.61239250024E+03  0.61239250025E+03  0.25500000920E-02 0.  1.
    10030    2    1    2    0    0  0.00000000000E+00  0.00000000000E+00 -0.27904587303E+03  0.94573912747E+03  0.90363482557E+03 0.  0.
        1    1    3    3  502    0  0.14355367858E+02  0.15440837779E+03  0.30462161885E+03  0.34182210931E+03  0.50400001928E-02 0. -1.
       -1    1    3    3    0  502 -0.14355367858E+02 -0.15440837779E+03 -0.58366749188E+03  0.60391701816E+03  0.50400001928E-02 0.  1.
</event>
<event>
 5   0  0.1535906E-02  0.9015899E+03  0.7818609E-02  0.9423596E-01
       -2   -1    0    0    0  501  0.00000000000E+00  0.00000000000E+00  0.84502860198E+02  0.84502860236E+02  0.25500000920E-02 0.  1.
        2   -1    0    0  501    0  0.00000000000E+00  0.00000000000E+00 -0.24048429483E+04  0.24048429483E+04  0.25500000920E-02 0. -1.
    10030    2    1    2    0    0  0.00000000000E+00  0.00000000000E+00 -0.23203400881E+04  0.24893458085E+04  0.90158994561E+03 0.  0.
        2    1    3    3  502    0 -0.60810850186E+02  0.30393538922E+03 -0.25640636293E+03  0.40226720383E+03  0.25500000920E-02 0.  1.
       -2    1    3    3    0  502  0.60810850186E+02 -0.30393538922E+03 -0.20639337252E+04  0.20870786047E+04  0.25500000920E-02 0. -1.
</event>
<event>
 5   0  0.8291252E-03  0.9420104E+03  0.7818609E-02  0.9374538E-01
       -1   -1    0    0    0  501  0.00000000000E+00  0.00000000000E+00  0.26020403715E+03  0.26020403719E+03  0.50400001928E-02 0.  1.
        1   -1    0    0  501    0  0.00000000000E+00  0.00000000000E+00 -0.85258445885E+03  0.85258445886E+03  0.50400001928E-02 0. -1.
    10030    2    1    2    0    0  0.00000000000E+00  0.00000000000E+00 -0.59238042170E+03  0.11127884961E+04  0.94201044205E+03 0.  0.
        1    1    3    3  502    0  0.46607818365E+03 -0.41425424626E+02 -0.23256500323E+03  0.52252408541E+03  0.50400001928E-02 0.  1.
       -1    1    3    3    0  502 -0.46607818365E+03  0.41425424626E+02 -0.35981541847E+03  0.59026441064E+03  0.50400001928E-02 0. -1.
</event>
<event>
 5   0  0.8885324E-03  0.8914209E+03  0.7818609E-02  0.9436370E-01
        1   -1    0    0  501    0  0.00000000000E+00  0.00000000000E+00  0.81283153684E+03  0.81283153686E+03  0.50400001928E-02 0.  1.
       -1   -1    0    0    0  501  0.00000000000E+00  0.00000000000E+00 -0.24440218127E+03  0.24440218132E+03  0.50400001928E-02 0. -1.
    10030    2    1    2    0    0  0.00000000000E+00  0.00000000000E+00  0.56842935557E+03  0.10572337182E+04  0.89142088969E+03 0.  0.
        2    1    3    3  502    0  0.47097115337E+02  0.18779865483E+03 -0.19192249629E+03  0.27261826354E+03  0.25500000920E-02 0. -1.
       -2    1    3    3    0  502 -0.47097115337E+02 -0.18779865483E+03  0.76035185186E+03  0.78461545464E+03  0.25500000920E-02 0.  1.
</event>
<event>
 5   0  0.8612969E-03  0.8867175E+03  0.7818609E-02  0.9442339E-01
        1   -1    0    0  501    0  0.00000000000E+00  0.00000000000E+00  0.32608115376E+03  0.32608115380E+03  0.50400001928E-02 0.  1.
       -1   -1    0    0    0  501  0.00000000000E+00  0.00000000000E+00 -0.60281610045E+03  0.60281610047E+03  0.50400001928E-02 0. -1.
    10030    2    1    2    0    0  0.00000000000E+00  0.00000000000E+00 -0.27673494668E+03  0.92889725427E+03  0.88671747376E+03 0.  0.
        4    1    3    3  502    0 -0.12150199552E+03  0.30969329181E+03  0.16864817118E+03  0.37298322811E+03  0.12699999809E+01 0.  1.
       -4    1    3    3    0  502  0.12150199552E+03 -0.30969329181E+03 -0.44538311787E+03  0.55591402616E+03  0.12699999809E+01 0. -1.
</event>
<event>
 5   0  0.8524692E-03  0.8909749E+03  0.7818609E-02  0.9436934E-01
       -1   -1    0    0    0  501  0.00000000000E+00  0.00000000000E+00  0.31369159456E+03  0.31369159460E+03  0.50400001928E-02 0. -1.
        1   -1    0    0  501    0  0.00000000000E+00  0.00000000000E+00 -0.63265659291E+03  0.63265659293E+03  0.50400001928E-02 0.  1.
    10030    2    1    2    0    0  0.00000000000E+00  0.00000000000E+00 -0.31896499836E+03  0.94634818753E+03  0.89097487162E+03 0.  0.
        5    1    3    3  502    0  0.17298276864E+03 -0.39498887064E+03 -0.27822354836E+03  0.51319555633E+03  0.46999998093E+01 0. -1.
       -5    1    3    3    0  502 -0.17298276864E+03  0.39498887064E+03 -0.40741450003E+02  0.43315263121E+03  0.46999998093E+01 0.  1.
</event>
<event>
 5   0  0.1440615E-02  0.7639441E+03  0.7818609E-02  0.9613725E-01
       -2   -1    0    0    0  501  0.00000000000E+00  0.00000000000E+00  0.13444678365E+03  0.13444678367E+03  0.25500000920E-02 0. -1.
        2   -1    0    0  501    0  0.00000000000E+00  0.00000000000E+00 -0.10852073889E+04  0.10852073889E+04  0.25500000920E-02 0.  1.
    10030    2    1    2    0    0  0.00000000000E+00  0.00000000000E+00 -0.95076060529E+03  0.12196541726E+04  0.76394408971E+03 0.  0.
        3    1    3    3  502    0 -0.30683197219E+03  0.10641012382E+03 -0.79641106786E+03  0.86008114316E+03  0.10100000352E+00 0.  1.
       -3    1    3    3    0  502  0.30683197219E+03 -0.10641012382E+03 -0.15434953743E+03  0.35957302946E+03  0.10100000352E+00 0. -1.
</event>
<event>
 5   0  0.5770125E-03  0.9230896E+03  0.7818609E-02  0.9397170E-01
        3   -1    0    0  501    0  0.00000000000E+00  0.00000000000E+00  0.50207542300E+03  0.50207543316E+03  0.10100000352E+00 0. -1.
       -3   -1    0    0    0  501  0.00000000000E+00  0.00000000000E+00 -0.42428607187E+03  0.42428608389E+03  0.10100000352E+00 0.  1.
    10030    2    1    2    0    0  0.00000000000E+00  0.00000000000E+00  0.77789351136E+02  0.92636151705E+03  0.92308963655E+03 0.  0.
        4    1    3    3  502    0  0.71834888797E+02 -0.19650698857E+03  0.45174897339E+03  0.49784937045E+03  0.12699999809E+01 0. -1.
       -4    1    3    3    0  502 -0.71834888797E+02  0.19650698857E+03 -0.37395962225E+03  0.42851214659E+03  0.12699999809E+01 0.  1.
</event>
<event>
 5   0  0.1440615E-02  0.9043665E+03  0.7818609E-02  0.9420139E-01
        2   -1    0    0  501    0  0.00000000000E+00  0.00000000000E+00  0.52963578429E+03  0.52963578430E+03  0.25500000920E-02 0. -1.
       -2   -1    0    0    0  501  0.00000000000E+00  0.00000000000E+00 -0.38605719356E+03  0.38605719356E+03  0.25500000920E-02 0.  1.
    10030    2    1    2    0    0  0.00000000000E+00  0.00000000000E+00  0.14357859074E+03  0.91569297787E+03  0.90436652857E+03 0.  0.
        3    1    3    3  502    0  0.24402004916E+03 -0.10091601577E+03 -0.29987724206E+03  0.39957001531E+03  0.10100000352E+00 0.  1.
       -3    1    3    3    0  502 -0.24402004916E+03  0.10091601577E+03  0.44345583280E+03  0.51612296255E+03  0.10100000352E+00 0. -1.
</event>
<event>
 5   0  0.8738044E-03  0.8886319E+03  0.7818609E-02  0.9439905E-01
       -1   -1    0    0    0  501  0.00000000000E+00  0.00000000000E+00  0.18058553738E+03  0.18058553745E+03  0.50400001928E-02 0. -1.
        1   -1    0    0  501    0  0.00000000000E+00  0.00000000000E+00 -0.10932030110E+04  0.10932030110E+04  0.50400001928E-02 0.  1.
    10030    2    1    2    0    0  0.00000000000E+00  0.00000000000E+00 -0.91261747360E+03  0.12737885484E+04  0.88863187711E+03 0.  0.
        3    1    3    3  502    0  0.42156347035E+02 -0.44231152050E+03 -0.45621487435E+03  0.63682702561E+03  0.10100000352E+00 0.  1.
       -3    1    3    3    0  502 -0.42156347035E+02  0.44231152050E+03 -0.45640259925E+03  0.63696152283E+03  0.10100000352E+00 0. -1.
</event>
<event>
 5   0  0.8612969E-03  0.8974375E+03  0.7818609E-02  0.9428790E-01
        1   -1    0    0  501    0  0.00000000000E+00  0.00000000000E+00  0.67909103536E+03  0.67909103538E+03  0.50400001928E-02 0. -1.
       -1   -1    0    0    0  501  0.00000000000E+00  0.00000000000E+00 -0.29649711369E+03  0.29649711374E+03  0.50400001928E-02 0.  1.
    10030    2    1    2    0    0  0.00000000000E+00  0.00000000000E+00  0.38259392167E+03  0.97558814911E+03  0.89743753420E+03 0.  0.
        4    1    3    3  502    0 -0.32204860335E+03 -0.31148172668E+03  0.21816240655E+03  0.49832982803E+03  0.12699999809E+01 0.  1.
       -4    1    3    3    0  502  0.32204860335E+03  0.31148172668E+03  0.16443151512E+03  0.47725832108E+03  0.12699999809E+01 0. -1.
</event>
<event>
 5   0  0.8524692E-03  0.8613953E+03  0.7818609E-02  0.9475169E-01
        1   -1    0    0  501    0  0.00000000000E+00  0.00000000000E+00  0.64942196436E+03  0.64942196438E+03  0.50400001928E-02 0.  1.
       -1   -1    0    0    0  501  0.00000000000E+00  0.00000000000E+00 -0.28563937413E+03  0.28563937417E+03  0.50400001928E-02 0. -1.
    10030    2    1    2    0    0  0.00000000000E+00  0.00000000000E+00  0.36378259024E+03  0.93506133855E+03  0.86139534123E+03 0.  0.
        5    1    3    3  502    0 -0.26559243340E+03 -0.33852161793E+03  0.20197096819E+03  0.47534260116E+03  0.46999998093E+01 0.  1.
       -5    1    3    3    0  502  0.26559243340E+03  0.33852161793E+03  0.16181162205E+03  0.45971873740E+03  0.46999998093E+01 0. -1.
</event>
<event>
 5   0  0.1454652E-02  0.9076770E+03  0.7818609E-02  0.9416035E-01
        2   -1    0    0  501    0  0.00000000000E+00  0.00000000000E+00  0.11864134431E+04  0.11864134431E+04  0.25500000920E-02 0. -1.
       -2   -1    0    0    0  501  0.00000000000E+00  0.00000000000E+00 -0.17360676401E+03  0.17360676403E+03  0.25500000920E-02 0.  1.
    10030    2    1    2    0    0  0.00000000000E+00  0.00000000000E+00  0.10128066791E+04  0.13600202072E+04  0.90767703211E+03 0.  0.
        4    1    3    3  502    0 -0.72469594104E+02 -0.84316691476E+02  0.11656897715E+04  0.11709805305E+04  0.12699999809E+01 0. -1.
       -4    1    3    3    0  502  0.72469594104E+02  0.84316691476E+02 -0.15288309236E+03  0.18903967668E+03  0.12699999809E+01 0.  1.
</event>
<event>
 5   0  0.1454652E-02  0.8954417E+03  0.7818609E-02  0.9431298E-01
       -2   -1    0    0    0  501  0.00000000000E+00  0.00000000000E+00  0.18565137643E+03  0.18565137645E+03  0.25500000920E-02 0. -1.
        2   -1    0    0  501    0  0.00000000000E+00  0.00000000000E+00 -0.10797331450E+04  0.10797331450E+04  0.25500000920E-02 0.  1.
    10030    2    1    2    0    0  0.00000000000E+00  0.00000000000E+00 -0.89408176853E+03  0.12653845214E+04  0.89544166655E+03 0.  0.
        4    1    3    3  502    0 -0.43822571924E+02  0.43738483483E+02  0.17956981244E+03  0.18994842244E+03  0.12699999809E+01 0. -1.
       -4    1    3    3    0  502  0.43822571924E+02 -0.43738483483E+02 -0.10736515810E+04  0.10754360990E+04  0.12699999809E+01 0.  1.
</event>
<event>
 5   0  0.1440615E-02  0.6938686E+03  0.7818609E-02  0.9727776E-01
       -2   -1    0    0    0  501  0.00000000000E+00  0.00000000000E+00  0.27442087772E+03  0.27442087773E+03  0.25500000920E-02 0.  1.
        2   -1    0    0  501    0  0.00000000000E+00  0.00000000000E+00 -0.43860877014E+03  0.43860877015E+03  0.25500000920E-02 0. -1.
    10030    2    1    2    0    0  0.00000000000E+00  0.00000000000E+00 -0.16418789242E+03  0.71302964788E+03  0.69386858608E+03 0.  0.
        3    1    3    3  502    0  0.30466708994E+03 -0.15990085352E+03 -0.36448007634E+02  0.34600402614E+03  0.10100000352E+00 0.  1.
       -3    1    3    3    0  502 -0.30466708994E+03  0.15990085352E+03 -0.12773988479E+03  0.36702562174E+03  0.10100000352E+00 0. -1.
</event>
<event>
 5   0  0.8291252E-03  0.8842525E+03  0.7818609E-02  0.9445484E-01
        1   -1    0    0  501    0  0.00000000000E+00  0.00000000000E+00  0.30981509693E+03  0.30981509697E+03  0.50400001928E-02 0.  1.
       -1   -1    0    0    0  501  0.00000000000E+00  0.00000000000E+00 -0.63094282853E+03  0.63094282855E+03  0.50400001928E-02 0. -1.
    10030    2    1    2    0    0  0.00000000000E+00  0.00000000000E+00 -0.32112773160E+03  0.94075792552E+03  0.88425248341E+03 0.  0.
        1    1    3    3  502    0 -0.12624596510E+03 -0.15294245297E+03  0.25984055471E+03  0.32687390768E+03  0.50400001928E-02 0.  1.
       -1    1    3    3    0  502  0.12624596510E+03  0.15294245297E+03 -0.58096828631E+03  0.61388401783E+03  0.50400001928E-02 0. -1.
</event>
<event>
 5   0  0.1454652E-02  0.8580536E+03  0.7818609E-02  0.9479591E-01
        2   -1    0    0  501    0  0.00000000000E+00  0.00000000000E+00  0.81623335178E+03  0.81623335178E+03  0.25500000920E-02 0. -1.
       -2   -1    0    0    0  501  0.00000000000E+00  0.00000000000E+00 -0.22550415612E+03  0.22550415614E+03  0.25500000920E-02 0.  1.
    10030    2    1    2    0    0  0.00000000000E+00  0.00000000000E+00  0.59072919566E+03  0.10417375079E+04  0.85805364215E+03 0.  0.
        4    1    3    3  502    0 -0.32179247531E+02 -0.22642816546E+03 -0.14532318564E+03  0.27097169459E+03  0.12699999809E+01 0.  1.
       -4    1    3    3    0  502  0.32179247531E+02  0.22642816546E+03  0.73605238129E+03  0.77076581333E+03  0.12699999809E+01 0. -1.
</event>
<event>
 5   0  0.8612969E-03  0.9084481E+03  0.7818609E-02  0.9415082E-01
        1   -1    0    0  501    0  0.00000000000E+00  0.00000000000E+00  0.44558237871E+03  0.44558237874E+03  0.50400001928E-02 0.  1.
       -1   -1    0    0    0  501  0.00000000000E+00  0.00000000000E+00 -0.46303328631E+03  0.46303328633E+03  0.50400001928E-02 0. -1.
    10030    2    1    2    0    0  0.00000000000E+00  0.00000000000E+00 -0.17450907594E+02  0.90861566507E+03  0.90844806821E+03 0.  0.
        4    1    3    3  502    0  0.14658534361E+03 -0.30873202481E+03  0.29052054193E+03  0.44856050237E+03  0.12699999809E+01 0.  1.
       -4    1    3    3    0  502 -0.14658534361E+03  0.30873202481E+03 -0.30797144953E+03  0.46005516270E+03  0.12699999809E+01 0. -1.
</event>
<event>
 5   0  0.1483326E-02  0.8979632E+03  0.7818609E-02  0.9428131E-01
       -2   -1    0    0    0  501  0.00000000000E+00  0.00000000000E+00  0.22202912183E+03  0.22202912185E+03  0.25500000920E-02 0. -1.
        2   -1    0    0  501    0  0.00000000000E+00  0.00000000000E+00 -0.90791914725E+03  0.90791914725E+03  0.25500000920E-02 0.  1.
    10030    2    1    2    0    0  0.00000000000E+00  0.00000000000E+00 -0.68589002541E+03  0.11299482691E+04  0.89796323081E+03 0.  0.
        1    1    3    3  502    0 -0.23988952976E+03  0.10676870858E+03  0.11533815201E+03  0.28679161940E+03  0.50400001928E-02 0. -1.
       -1    1    3    3    0  502  0.23988952976E+03 -0.10676870858E+03 -0.80122817742E+03  0.84315664970E+03  0.50400001928E-02 0.  1.
</event>
<event>
 5   0  0.1441195E-02  0.1031129E+04  0.7818609E-02  0.9275047E-01
       -2   -1    0    0    0  501  0.00000000000E+00  0.00000000000E+00  0.36161668341E+03  0.36161668342E+03  0.25500000920E-02 0.  1.
        2   -1    0    0  501    0  0.00000000000E+00  0.00000000000E+00 -0.73505106307E+03  0.73505106307E+03  0.25500000920E-02 0. -1.
    10030    2    1    2    0    0  0.00000000000E+00  0.00000000000E+00 -0.37343437965E+03  0.10966677465E+04  0.10311289494E+04 0.  0.
        5    1    3    3  502    0 -0.31837794340E+03 -0.44323835807E+02  0.24195896604E+03  0.40236221059E+03  0.46999998093E+01 0.  1.
       -5    1    3    3    0  502  0.31837794340E+03  0.44323835807E+02 -0.61539334570E+03  0.69430553591E+03  0.46999998093E+01 0. -1.
</event>
<event>
 5   0  0.8612969E-03  0.9658262E+03  0.7818609E-02  0.9346841E-01
       -1   -1    0    0    0  501  0.00000000000E+00  0.00000000000E+00  0.31558979768E+03  0.31558979773E+03  0.50400001928E-02 0. -1.
        1   -1    0    0  501    0  0.00000000000E+00  0.00000000000E+00 -0.73894999780E+03  0.73894999781E+03  0.50400001928E-02 0.  1.
    10030    2    1    2    0    0  0.00000000000E+00  0.00000000000E+00 -0.42336020011E+03  0.10545397955E+04  0.96582623765E+03 0.  0.
        4    1    3    3  502    0 -0.28511749238E+03  0.36344498574E+03 -0.57968263448E+02  0.46556006550E+03  0.12699999809E+01 0. -1.
       -4    1    3    3    0  502  0.28511749238E+03 -0.36344498574E+03 -0.36539193666E+03  0.58897973004E+03  0.12699999809E+01 0.  1.
</event>
<event>
 5   0  0.8291252E-03  0.9007325E+03  0.7818609E-02  0.9424666E-01
       -1   -1    0    0    0  501  0.00000000000E+00  0.00000000000E+00  0.19940828562E+03  0.19940828569E+03  0.50400001928E-02 0. -1.
        1   -1    0    0  501    0  0.00000000000E+00  0.00000000000E+00 -0.10171581890E+04  0.10171581891E+04  0.50400001928E-02 0.  1.
    10030    2    1    2    0    0  0.00000000000E+00  0.00000000000E+00 -0.81774990342E+03  0.12165664747E+04  0.90073252573E+03 0.  0.
        1    1    3    3  502    0  0.72836973413E+02  0.43342110039E+03 -0.54169659793E+03  0.69756310051E+03  0.50400001928E-02 0. -1.
       -1    1    3    3    0  502 -0.72836973413E+02 -0.43342110039E+03 -0.27605330549E+03  0.51900337423E+03  0.50400001928E-02 0.  1.
</event>
<event>
 5   0  0.8612969E-03  0.8968402E+03  0.7818609E-02  0.9429540E-01
       -1   -1    0    0    0  501  0.00000000000E+00  0.00000000000E+00  0.11852161245E+03  0.11852161256E+03  0.50400001928E-02 0.  1.
        1   -1    0    0  501    0  0.00000000000E+00  0.00000000000E+00 -0.16965730984E+04  0.16965730984E+04  0.50400001928E-02 0. -1.
    10030    2    1    2    0    0  0.00000000000E+00  0.00000000000E+00 -0.15780514859E+04  0.18150947110E+04  0.89684018501E+03 0.  0.
        4    1    3    3  502    0  0.14266681420E+02  0.20057908692E+03  0.22151491883E+02  0.20230622778E+03  0.12699999809E+01 0.  1.
       -4    1    3    3    0  502 -0.14266681420E+02 -0.20057908692E+03 -0.16002029778E+04  0.16127884832E+04  0.12699999809E+01 0. -1.
</event>
<event>
 5   0  0.1454652E-02  0.8918354E+03  0.7818609E-02  0.9435845E-01
        2   -1    0    0  501    0  0.00000000000E+00  0.00000000000E+00  0.99233978589E+03  0.99233978589E+03  0.25500000920E-02 0. -1.
       -2   -1    0    0    0  501  0.00000000000E+00  0.00000000000E+00 -0.20037754240E+03  0.20037754242E+03  0.25500000920E-02 0.  1.
    10030    2    1    2    0    0  0.00000000000E+00  0.00000000000E+00  0.79196224348E+03  0.11927173283E+04  0.89183542772E+03 0.  0.
        4    1    3    3  502    0 -0.22348801920E+03  0.66622043590E+02  0.90428099861E+03  0.93386890341E+03  0.12699999809E+01 0. -1.
       -4    1    3    3    0  502  0.22348801920E+03 -0.66622043590E+02 -0.11231875512E+03  0.25884842490E+03  0.12699999809E+01 0.  1.
</event>
<event>
 5   0  0.8291252E-03  0.9048102E+03  0.7818609E-02  0.9419588E-01
       -1   -1    0    0    0  501  0.00000000000E+00  0.00000000000E+00  0.38977979770E+03  0.38977979773E+03  0.50400001928E-02 0.  1.
        1   -1    0    0  501    0  0.00000000000E+00  0.00000000000E+00 -0.52509227553E+03  0.52509227555E+03  0.50400001928E-02 0. -1.
    10030    2    1    2    0    0  0.00000000000E+00  0.00000000000E+00 -0.13531247783E+03  0.91487207328E+03  0.90481017004E+03 0.  0.
        1    1    3    3  502    0  0.35246252225E+03 -0.28205622403E+03 -0.37579563573E+02  0.45298760108E+03  0.50400001928E-02 0.  1.
       -1    1    3    3    0  502 -0.35246252225E+03  0.28205622403E+03 -0.97732914255E+02  0.46188447220E+03  0.50400001928E-02 0. -1.
</event>
<event>
 5   0  0.1483326E-02  0.6912165E+03  0.7818609E-02  0.9732372E-01
       -2   -1    0    0    0  501  0.00000000000E+00  0.00000000000E+00  0.37471662475E+03  0.37471662476E+03  0.25500000920E-02 0.  1.
        2   -1    0    0  501    0  0.00000000000E+00  0.00000000000E+00 -0.31876101745E+03  0.31876101746E+03  0.25500000920E-02 0. -1.
    10030    2    1    2    0    0  0.00000000000E+00  0.00000000000E+00  0.55955607303E+02  0.69347764222E+03  0.69121647135E+03 0.  0.
        1    1    3    3  502    0  0.18758315747E+03  0.27912783041E+03  0.10789556265E+03  0.35318725789E+03  0.50400001928E-02 0.  1.
       -1    1    3    3    0  502 -0.18758315747E+03 -0.27912783041E+03 -0.51939955350E+02  0.34029038432E+03  0.50400001928E-02 0. -1.
</event>
<event>
 5   0  0.8524692E-03  0.8790338E+03  0.7818609E-02  0.9452176E-01
        1   -1    0    0  501    0  0.00000000000E+00  0.00000000000E+00  0.58726544892E+03  0.58726544895E+03  0.50400001928E-02 0.  1.
       -1   -1    0    0    0  501  0.00000000000E+00  0.00000000000E+00 -0.32894000923E+03  0.32894000927E+03  0.50400001928E-02 0. -1.
    10030    2    1    2    0    0  0.00000000000E+00  0.00000000000E+00  0.25832543970E+03  0.91620545821E+03  0.87903379279E+03 0.  0.
        5    1    3    3  502    0 -0.39254916232E+03 -0.11254174486E+03  0.29849032201E+03  0.50584488878E+03  0.46999998093E+01 0.  1.
       -5    1    3    3    0  502  0.39254916232E+03  0.11254174486E+03 -0.40164882313E+02  0.41036056943E+03  0.46999998093E+01 0. -1.
</event>
<event>
 5   0  0.8524692E-03  0.9061452E+03  0.7818609E-02  0.9417932E-01
       -1   -1    0    0    0  501  0.00000000000E+00  0.00000000000E+00  0.52820465734E+03  0.52820465737E+03  0.50400001928E-02 0. -1.
        1   -1    0    0  501    0  0.00000000000E+00  0.00000000000E+00 -0.38862731642E+03  0.38862731646E+03  0.50400001928E-02 0.  1.
    10030    2    1    2    0    0  0.00000000000E+00  0.00000000000E+00  0.13957734092E+03  0.91683197382E+03  0.90614515069E+03 0.  0.
        5    1    3    3  502    0 -0.22345218417E+03 -0.15401517524E+03  0.43683574381E+03  0.51429476945E+03  0.46999998093E+01 0. -1.
       -5    1    3    3    0  502  0.22345218417E+03  0.15401517524E+03 -0.29725840289E+03  0.40253720437E+03  0.46999998093E+01 0.  1.
</event>
<event>
 5   0  0.1440615E-02  0.8676296E+03  0.7818609E-02  0.9466976E-01
       -2   -1    0    0    0  501  0.00000000000E+00  0.00000000000E+00  0.22711383039E+03  0.22711383041E+03  0.25500000920E-02 0. -1.
        2   -1    0    0  501    0  0.00000000000E+00  0.00000000000E+00 -0.82863858689E+03  0.82863858689E+03  0.25500000920E-02 0.  1.
    10030    2    1    2    0    0  0.00000000000E+00  0.00000000000E+00 -0.60152475650E+03  0.10557524173E+04  0.86762960643E+03 0.  0.
        3    1    3    3  502    0 -0.62108271466E+02 -0.84019730418E+02 -0.81309944909E+03  0.81978501864E+03  0.10100000352E+00 0.  1.
       -3    1    3    3    0  502  0.62108271466E+02  0.84019730418E+02  0.21157469259E+03  0.23596739866E+03  0.10100000352E+00 0. -1.
</event>
<event>
 5   0  0.8291252E-03  0.9070485E+03  0.7818609E-02  0.9416813E-01
       -1   -1    0    0    0  501  0.00000000000E+00  0.00000000000E+00  0.11378864610E+04  0.11378864610E+04  0.50400001928E-02 0. -1.
        1   -1    0    0  501    0  0.00000000000E+00  0.00000000000E+00 -0.18075990947E+03  0.18075990954E+03  0.50400001928E-02 0.  1.
    10030    2    1    2    0    0  0.00000000000E+00  0.00000000000E+00  0.95712655155E+03  0.13186463706E+04  0.90704851852E+03 0.  0.
        1    1    3    3  502    0  0.71455181627E+02  0.34108949657E+03  0.56626250180E+02  0.35306432826E+03  0.50400001928E-02 0.  1.
       -1    1    3    3    0  502 -0.71455181627E+02 -0.34108949657E+03  0.90050030137E+03  0.96558204232E+03  0.50400001928E-02 0. -1.
</event>
<event>
 5   0  0.8524692E-03  0.9103977E+03  0.7818609E-02  0.9412676E-01
        1   -1    0    0  501    0  0.00000000000E+00  0.00000000000E+00  0.52143473455E+03  0.52143473458E+03  0.50400001928E-02 0.  1.
       -1   -1    0    0    0  501  0.00000000000E+00  0.00000000000E+00 -0.39737666204E+03  0.39737666208E+03  0.50400001928E-02 0. -1.
    10030    2    1    2    0    0  0.00000000000E+00  0.00000000000E+00  0.12405807251E+03  0.91881139665E+03  0.91039770280E+03 0.  0.
        5    1    3    3  502    0 -0.33525353561E+03  0.30353007167E+03  0.99922055441E+01  0.45237967651E+03  0.46999998093E+01 0. -1.
       -5    1    3    3    0  502  0.33525353561E+03 -0.30353007167E+03  0.11406586697E+03  0.46643172014E+03  0.46999998093E+01 0.  1.
</event>
<event>
 5   0  0.5770125E-03  0.8912267E+03  0.7818609E-02  0.9436615E-01
        3   -1    0    0  501    0  0.00000000000E+00  0.00000000000E+00  0.32674672881E+03  0.32674674442E+03  0.10100000352E+00 0. -1.
       -3   -1    0    0    0  501  0.00000000000E+00  0.00000000000E+00 -0.60772222801E+03  0.60772223640E+03  0.10100000352E+00 0.  1.
    10030    2    1    2    0    0  0.00000000000E+00  0.00000000000E+00 -0.28097549920E+03  0.93446898082E+03  0.89122670795E+03 0.  0.
        4    1    3    3  502    0 -0.13994435395E+03  0.16435266436E+03 -0.54924034822E+03  0.59013794446E+03  0.12699999809E+01 0.  1.
       -4    1    3    3    0  502  0.13994435395E+03 -0.16435266436E+03  0.26826484901E+03  0.34433103636E+03  0.12699999809E+01 0. -1.
</event>
<event>
 5   0  0.1441195E-02  0.9008690E+03  0.7818609E-02  0.9424496E-01
       -2   -1    0    0    0  501  0.00000000000E+00  0.00000000000E+00  0.33129101691E+03  0.33129101692E+03  0.25500000920E-02 0.  1.
        2   -1    0    0  501    0  0.00000000000E+00  0.00000000000E+00 -0.61242595961E+03  0.61242595961E+03  0.25500000920E-02 0. -1.
    10030    2    1    2    0    0  0.00000000000E+00  0.00000000000E+00 -0.28113494269E+03  0.94371697653E+03  0.90086895595E+03 0.  0.
        5    1    3    3  502    0  0.83423892630E+01 -0.34376756643E+03 -0.44530459605E+03  0.56264021226E+03  0.46999998093E+01 0. -1.
       -5    1    3    3    0  502 -0.83423892630E+01  0.34376756643E+03  0.16416965335E+03  0.38107676427E+03  0.46999998093E+01 0.  1.
</event>
<event>
 5   0  0.8291252E-03  0.8979328E+03  0.7818609E-02  0.9428169E-01
        1   -1    0    0  501    0  0.00000000000E+00  0.00000000000E+00  0.86126818988E+03  0.86126818989E+03  0.50400001928E-02 0.  1.
       -1   -1    0    0    0  501  0.00000000000E+00  0.00000000000E+00 -0.23403954185E+03  0.23403954190E+03  0.50400001928E-02 0. -1.
    10030    2    1    2    0    0  0.00000000000E+00  0.00000000000E+00  0.62722864803E+03  0.10953077318E+04  0.89793276498E+03 0.  0.
        1    1    3    3  502    0 -0.16075800246E+02  0.19755010495E+03 -0.17778359576E+03  0.26625454412E+03  0.50400001928E-02 0. -1.
       -1    1    3    3    0  502  0.16075800246E+02 -0.19755010495E+03  0.80501224379E+03  0.82905318768E+03  0.50400001928E-02 0.  1.
</event>
<event>
 5   0  0.8524692E-03  0.8900603E+03  0.7818609E-02  0.9438093E-01
        1   -1    0    0  501    0  0.00000000000E+00  0.00000000000E+00  0.46095799945E+03  0.46095799948E+03  0.50400001928E-02 0. -1.
       -1   -1    0    0    0  501  0.00000000000E+00  0.00000000000E+00 -0.42965267902E+03  0.42965267905E+03  0.50400001928E-02 0.  1.
    10030    2    1    2    0    0  0.00000000000E+00  0.00000000000E+00  0.31305320425E+02  0.89061067853E+03  0.89006031123E+03 0.  0.
        5    1    3    3  502    0 -0.33447578899E+03 -0.28269110690E+03 -0.63398938227E+02  0.44252664406E+03  0.46999998093E+01 0.  1.
       -5    1    3    3    0  502  0.33447578899E+03  0.28269110690E+03  0.94704258651E+02  0.44808403447E+03  0.46999998093E+01 0. -1.
</event>
<event>
 5   0  0.8738044E-03  0.8803514E+03  0.7818609E-02  0.9450482E-01
        1   -1    0    0  501    0  0.00000000000E+00  0.00000000000E+00  0.12237116853E+04  0.12237116853E+04  0.50400001928E-02 0. -1.
       -1   -1    0    0    0  501  0.00000000000E+00  0.00000000000E+00 -0.15833359251E+03  0.15833359259E+03  0.50400001928E-02 0.  1.
    10030    2    1    2    0    0  0.00000000000E+00  0.00000000000E+00  0.10653780927E+04  0.13820452779E+04  0.88035144660E+03 0.  0.
        3    1    3    3  502    0  0.17144358880E+03  0.39153215640E+03  0.36755804186E+03  0.56372799999E+03  0.10100000352E+00 0.  1.
       -3    1    3    3    0  502 -0.17144358880E+03 -0.39153215640E+03  0.69782005088E+03  0.81831727786E+03  0.10100000352E+00 0. -1.
</event>
<event>
 5   0  0.1454652E-02  0.8929853E+03  0.7818609E-02  0.9434393E-01
       -2   -1    0    0    0  501  0.00000000000E+00  0.00000000000E+00  0.14873869130E+03  0.14873869132E+03  0.25500000920E-02 0. -1.
        2   -1    0    0  501    0  0.00000000000E+00  0.00000000000E+00 -0.13403081610E+04  0.13403081610E+04  0.25500000920E-02 0.  1.
    10030    2    1    2    0    0  0.00000000000E+00  0.00000000000E+00 -0.11915694697E+04  0.14890468523E+04  0.89298528951E+03 0.  0.
        4    1    3    3  502    0  0.27489055241E+03  0.34858285081E+03 -0.51617613841E+03  0.68081880001E+03  0.12699999809E+01 0.  1.
       -4    1    3    3    0  502 -0.27489055241E+03 -0.34858285081E+03 -0.67539333132E+03  0.80822805233E+03  0.12699999809E+01 0. -1.
</event>
<event>
 5   0  0.8885324E-03  0.8995027E+03  0.7818609E-02  0.9426203E-01
       -1   -1    0    0    0  501  0.00000000000E+00  0.00000000000E+00  0.25114675527E+03  0.25114675532E+03  0.50400001928E-02 0.  1.
        1   -1    0    0  501    0  0.00000000000E+00  0.00000000000E+00 -0.80541073434E+03  0.80541073436E+03  0.50400001928E-02 0. -1.
    10030    2    1    2    0    0  0.00000000000E+00  0.00000000000E+00 -0.55426397907E+03  0.10565574897E+04  0.89950273512E+03 0.  0.
        2    1    3    3  502    0 -0.40262137583E+03  0.20039839009E+03 -0.28133529038E+03  0.53048377227E+03  0.25500000920E-02 0. -1.
       -2    1    3    3    0  502  0.40262137583E+03 -0.20039839009E+03 -0.27292868869E+03  0.52607371740E+03  0.25500000920E-02 0.  1.
</event>
<event>
 5   0  0.8524692E-03  0.8979054E+03  0.7818609E-02  0.9428204E-01
       -1   -1    0    0    0  501  0.00000000000E+00  0.00000000000E+00  0.98871860307E+03  0.98871860308E+03  0.50400001928E-02 0.  1.
        1   -1    0    0  501    0  0.00000000000E+00  0.00000000000E+00 -0.20385834979E+03  0.20385834985E+03  0.50400001928E-02 0. -1.
    10030    2    1    2    0    0  0.00000000000E+00  0.00000000000E+00  0.78486025328E+03  0.11925769529E+04  0.89790543572E+03 0.  0.
        5    1    3    3  502    0  0.32904853644E+03  0.16020971413E+03  0.47113515718E+02  0.36902827154E+03  0.46999998093E+01 0. -1.
       -5    1    3    3    0  502 -0.32904853644E+03 -0.16020971413E+03  0.73774673756E+03  0.82354868139E+03  0.46999998093E+01 0.  1.
</event>
<event>
 5   0  0.1483326E-02  0.8887251E+03  0.7818609E-02  0.9439786E-01
       -2   -1    0    0    0  501  0.00000000000E+00  0.00000000000E+00  0.16968607090E+03  0.16968607092E+03  0.25500000920E-02 0.  1.
        2   -1    0    0  501    0  0.00000000000E+00  0.00000000000E+00 -0.11636669694E+04  0.11636669694E+04  0.25500000920E-02 0. -1.
    10030    2    1    2    0    0  0.00000000000E+00  0.00000000000E+00 -0.99398089848E+03  0.13333530403E+04  0.88872510011E+03 0.  0.
        1    1    3    3  502    0  0.21239834751E+03  0.59555083812E+02 -0.10757212047E+04  0.10981056307E+04  0.50400001928E-02 0. -1.
       -1    1    3    3    0  502 -0.21239834751E+03 -0.59555083812E+02  0.81740306189E+02  0.23524740958E+03  0.50400001928E-02 0.  1.
</event>
<event>
 5   0  0.1454652E-02  0.8711950E+03  0.7818609E-02  0.9462323E-01
       -2   -1    0    0    0  501  0.00000000000E+00  0.00000000000E+00  0.34174137300E+03  0.34174137301E+03  0.25500000920E-02 0. -1.
        2   -1    0    0  501    0  0.00000000000E+00  0.00000000000E+00 -0.55523039612E+03  0.55523039612E+03  0.25500000920E-02 0.  1.
    10030    2    1    2    0    0  0.00000000000E+00  0.00000000000E+00 -0.21348902312E+03  0.89697176913E+03  0.87119503651E+03 0.  0.
        4    1    3    3  502    0  0.31424017899E+03 -0.21344200605E+03 -0.32621632095E+03  0.50072255890E+03  0.12699999809E+01 0.  1.
       -4    1    3    3    0  502 -0.31424017899E+03  0.21344200605E+03  0.11272729783E+03  0.39624921024E+03  0.12699999809E+01 0. -1.
</event>
<event>
 5   0  0.1454652E-02  0.8903498E+03  0.7818609E-02  0.9437726E-01
        2   -1    0    0  501    0  0.00000000000E+00  0.00000000000E+00  0.22357145251E+04  0.22357145251E+04  0.25500000920E-02 0. -1.
       -2   -1    0    0    0  501  0.00000000000E+00  0.00000000000E+00 -0.88643111080E+02  0.88643111117E+02  0.25500000920E-02 0.  1.
    10030    2    1    2    0    0  0.00000000000E+00  0.00000000000E+00  0.21470714140E+04  0.23243576362E+04  0.89034979875E+03 0.  0.
        4    1    3    3  502    0  0.24862491124E+03 -0.24662083589E+03  0.35600730179E+03  0.49937860888E+03  0.12699999809E+01 0.  1.
       -4    1    3    3    0  502 -0.24862491124E+03  0.24662083589E+03  0.17910641122E+04  0.18249790273E+04  0.12699999809E+01 0. -1.
</event>
<event>
 5   0  0.1454652E-02  0.9150428E+03  0.7818609E-02  0.9406970E-01
        2   -1    0    0  501    0  0.00000000000E+00  0.00000000000E+00  0.97358513539E+03  0.97358513539E+03  0.25500000920E-02 0.  1.
       -2   -1    0    0    0  501  0.00000000000E+00  0.00000000000E+00 -0.21500516057E+03  0.21500516058E+03  0.25500000920E-02 0. -1.
    10030    2    1    2    0    0  0.00000000000E+00  0.00000000000E+00  0.75857997482E+03  0.11885902960E+04  0.91504279325E+03 0.  0.
        4    1    3    3  502    0 -0.61247720979E+02 -0.19688069142E+03 -0.15123155212E+03  0.25570663901E+03  0.12699999809E+01 0. -1.
       -4    1    3    3    0  502  0.61247720979E+02  0.19688069142E+03  0.90981152694E+03  0.93288365696E+03  0.12699999809E+01 0.  1.
</event>
<event>
 5   0  0.1440615E-02  0.8973929E+03  0.7818609E-02  0.9428846E-01
        2   -1    0    0  501    0  0.00000000000E+00  0.00000000000E+00  0.11973523126E+04  0.11973523126E+04  0.25500000920E-02 0. -1.
       -2   -1    0    0    0  501  0.00000000000E+00  0.00000000000E+00 -0.16814475080E+03  0.16814475082E+03  0.25500000920E-02 0.  1.
    10030    2    1    2    0    0  0.00000000000E+00  0.00000000000E+00  0.10292075618E+04  0.13654970635E+04  0.89739290445E+03 0.  0.
        3    1    3    3  502    0  0.35683930462E+03  0.27059316148E+03  0.47228319388E+03  0.65085050033E+03  0.10100000352E+00 0. -1.
       -3    1    3    3    0  502 -0.35683930462E+03 -0.27059316148E+03  0.55692436796E+03  0.71464656312E+03  0.10100000352E+00 0.  1.
</event>
<event>
 5   0  0.8738044E-03  0.8921575E+03  0.7818609E-02  0.9435438E-01
        1   -1    0    0  501    0  0.00000000000E+00  0.00000000000E+00  0.70961305841E+03  0.70961305843E+03  0.50400001928E-02 0. -1.
       -1   -1    0    0    0  501  0.00000000000E+00  0.00000000000E+00 -0.28041513989E+03  0.28041513994E+03  0.50400001928E-02 0.  1.
    10030    2    1    2    0    0  0.00000000000E+00  0.00000000000E+00  0.42919791852E+03  0.99002819837E+03  0.89215748627E+03 0.  0.
        3    1    3    3  502    0 -0.42577023691E+03  0.96993156461E+02  0.11351092198E+03  0.45119032198E+03  0.10100000352E+00 0.  1.
       -3    1    3    3    0  502  0.42577023691E+03 -0.96993156461E+02  0.31568699654E+03  0.53883787639E+03  0.10100000352E+00 0. -1.
</event>
<event>
 5   0  0.8612969E-03  0.9171039E+03  0.7818609E-02  0.9404450E-01
       -1   -1    0    0    0  501  0.00000000000E+00  0.00000000000E+00  0.62981925394E+03  0.62981925396E+03  0.50400001928E-02 0. -1.
        1   -1    0    0  501    0  0.00000000000E+00  0.00000000000E+00 -0.33385750492E+03  0.33385750496E+03  0.50400001928E-02 0.  1.
    10030    2    1    2    0    0  0.00000000000E+00  0.00000000000E+00  0.29596174902E+03  0.96367675892E+03  0.91710388660E+03 0.  0.
        4    1    3    3  502    0 -0.36095501572E+03 -0.13796440145E+03 -0.11142746350E+03  0.40216960597E+03  0.12699999809E+01 0.  1.
       -4    1    3    3    0  502  0.36095501572E+03  0.13796440145E+03  0.40738921252E+03  0.56150715295E+03  0.12699999809E+01 0. -1.
</event>
<event>
 5   0  0.1440615E-02  0.9037687E+03  0.7818609E-02  0.9420883E-01
       -2   -1    0    0    0  501  0.00000000000E+00  0.00000000000E+00  0.23451526618E+03  0.23451526620E+03  0.25500000920E-02 0. -1.
        2   -1    0    0  501    0  0.00000000000E+00  0.00000000000E+00 -0.87072999894E+03  0.87072999895E+03  0.25500000920E-02 0.  1.
    10030    2    1    2    0    0  0.00000000000E+00  0.00000000000E+00 -0.63621473276E+03  0.11052452651E+04  0.90376872592E+03 0.  0.
        3    1    3    3  502    0 -0.26080932174E+02 -0.35998119730E+03  0.14414264207E+02  0.36121248406E+03  0.10100000352E+00 0. -1.
       -3    1    3    3    0  502  0.26080932174E+02  0.35998119730E+03 -0.65062899697E+03  0.74403278108E+03  0.10100000352E+00 0.  1.
</event>
<event>
 5   0  0.1535906E-02  0.9040476E+03  0.7818609E-02  0.9420536E-01
       -2   -1    0    0    0  501  0.00000000000E+00  0.00000000000E+00  0.15169113526E+04  0.15169113526E+04  0.25500000920E-02 0. -1.
        2   -1    0    0  501    0  0.00000000000E+00  0.00000000000E+00 -0.13469838214E+03  0.13469838216E+03  0.25500000920E-02 0.  1.
    10030    2    1    2    0    0  0.00000000000E+00  0.00000000000E+00  0.13822129704E+04  0.16516097347E+04  0.90404757632E+03 0.  0.
        2    1    3    3  502    0  0.24549878362E+03  0.35663349540E+03  0.45383086229E+03  0.62723165926E+03  0.25500000920E-02 0.  1.
       -2    1    3    3    0  502 -0.24549878362E+03 -0.35663349540E+03  0.92838210812E+03  0.10243780755E+04  0.25500000920E-02 0. -1.
</event>
<event>
 5   0  0.8291252E-03  0.9068448E+03  0.7818609E-02  0.9417065E-01
       -1   -1    0    0    0  501  0.00000000000E+00  0.00000000000E+00  0.25990897922E+03  0.25990897927E+03  0.50400001928E-02 0. -1.
        1   -1    0    0  501    0  0.00000000000E+00  0.00000000000E+00 -0.79101483288E+03  0.79101483289E+03  0.50400001928E-02 0.  1.
    10030    2    1    2    0    0  0.00000000000E+00  0.00000000000E+00 -0.53110585366E+03  0.10509238122E+04  0.90684476686E+03 0.  0.
        1    1    3    3  502    0 -0.40629837794E+03  0.14449264171E+03 -0.10316350281E+03  0.44339508766E+03  0.50400001928E-02 0. -1.
       -1    1    3    3    0  502  0.40629837794E+03 -0.14449264171E+03 -0.42794235084E+03  0.60752872450E+03  0.50400001928E-02 0.  1.
</event>
<event>
 5   0  0.1483326E-02  0.9013539E+03  0.7818609E-02  0.9423891E-01
        2   -1    0    0  501    0  0.00000000000E+00  0.00000000000E+00  0.63491840685E+03  0.63491840686E+03  0.25500000920E-02 0. -1.
       -2   -1    0    0    0  501  0.00000000000E+00  0.00000000000E+00 -0.31989892932E+03  0.31989892933E+03  0.25500000920E-02 0.  1.
    10030    2    1    2    0    0  0.00000000000E+00  0.00000000000E+00  0.31501947753E+03  0.95481733619E+03  0.90135391177E+03 0.  0.
        1    1    3    3  502    0 -0.23370226544E+03  0.23330321226E+03 -0.16737805359E+03  0.37021959776E+03  0.50400001928E-02 0.  1.
       -1    1    3    3    0  502  0.23370226544E+03 -0.23330321226E+03  0.48239753112E+03  0.58459773843E+03  0.50400001928E-02 0. -1.
</event>
<event>
 5   0  0.8885324E-03  0.8921015E+03  0.7818609E-02  0.9435509E-01
        1   -1    0    0  501    0  0.00000000000E+00  0.00000000000E+00  0.42920232503E+03  0.42920232506E+03  0.50400001928E-02 0.  1.
       -1   -1    0    0    0  501  0.00000000000E+00  0.00000000000E+00 -0.46356059096E+03  0.46356059099E+03  0.50400001928E-02 0. -1.
    10030    2    1    2    0    0  0.00000000000E+00  0.00000000000E+00 -0.34358265935E+02  0.89276291605E+03  0.89210152664E+03 0.  0.
        2    1    3    3  502    0 -0.19505506189E+03 -0.12628084903E+03  0.36384972007E+03  0.43171744093E+03  0.25500000920E-02 0.  1.
       -2    1    3    3    0  502  0.19505506189E+03  0.12628084903E+03 -0.39820798601E+03  0.46104547512E+03  0.25500000920E-02 0. -1.
</event>
<event>
 5   0  0.1441195E-02  0.8983868E+03  0.7818609E-02  0.9427600E-01
       -2   -1    0    0    0  501  0.00000000000E+00  0.00000000000E+00  0.60249597706E+03  0.60249597706E+03  0.25500000920E-02 0.  1.
        2   -1    0    0  501    0  0.00000000000E+00  0.00000000000E+00 -0.33489804565E+03  0.33489804566E+03  0.25500000920E-02 0. -1.
    10030    2    1    2    0    0  0.00000000000E+00  0.00000000000E+00  0.26759793141E+03  0.93739402273E+03  0.89838683258E+03 0.  0.
        5    1    3    3  502    0 -0.21642276805E+03  0.35283391948E+03  0.31579126467E+03  0.52065036455E+03  0.46999998093E+01 0.  1.
       -5    1    3    3    0  502  0.21642276805E+03 -0.35283391948E+03 -0.48193333262E+02  0.41674365818E+03  0.46999998093E+01 0. -1.
</event>
<event>
 5   0  0.8885324E-03  0.8614281E+03  0.7818609E-02  0.9475126E-01
        1   -1    0    0  501    0  0.00000000000E+00  0.00000000000E+00  0.17764548789E+03  0.17764548796E+03  0.50400001928E-02 0. -1.
       -1   -1    0    0    0  501  0.00000000000E+00  0.00000000000E+00 -0.10442967619E+04  0.10442967619E+04  0.50400001928E-02 0.  1.
    10030    2    1    2    0    0  0.00000000000E+00  0.00000000000E+00 -0.86665127400E+03  0.12219422499E+04  0.86142813472E+03 0.  0.
        2    1    3    3  502    0 -0.17566023626E+03  0.49855615214E+02 -0.98667539816E+03  0.10034293410E+04  0.25500000920E-02 0.  1.
       -2    1    3    3    0  502  0.17566023626E+03 -0.49855615214E+02  0.12002412416E+03  0.21851290890E+03  0.25500000920E-02 0. -1.
</event>
<event>
 5   0  0.8291252E-03  0.8987087E+03  0.7818609E-02  0.9427197E-01
        1   -1    0    0  501    0  0.00000000000E+00  0.00000000000E+00  0.81710790244E+03  0.81710790245E+03  0.50400001928E-02 0. -1.
       -1   -1    0    0    0  501  0.00000000000E+00  0.00000000000E+00 -0.24711462097E+03  0.24711462102E+03  0.50400001928E-02 0.  1.
    10030    2    1    2    0    0  0.00000000000E+00  0.00000000000E+00  0.56999328147E+03  0.10642225235E+04  0.89870865053E+03 0.  0.
        1    1    3    3  502    0  0.14112941807E+03 -0.42648658024E+03  0.29747228456E+03  0.53879316614E+03  0.50400001928E-02 0.  1.
       -1    1    3    3    0  502 -0.14112941807E+03  0.42648658024E+03  0.27252099691E+03  0.52542935733E+03  0.50400001928E-02 0. -1.
</event>
<event>
 5   0  0.8524692E-03  0.8805642E+03  0.7818609E-02  0.9450209E-01
        1   -1    0    0  501    0  0.00000000000E+00  0.00000000000E+00  0.20341171885E+03  0.20341171891E+03  0.50400001928E-02 0. -1.
       -1   -1    0    0    0  501  0.00000000000E+00  0.00000000000E+00 -0.95298500825E+03  0.95298500826E+03  0.50400001928E-02 0.  1.
    10030    2    1    2    0    0  0.00000000000E+00  0.00000000000E+00 -0.74957328939E+03  0.11563967272E+04  0.88056417963E+03 0.  0.
        5    1    3    3  502    0 -0.28597265051E+03  0.10349588814E+03 -0.79283300385E+03  0.84917490407E+03  0.46999998093E+01 0.  1.
       -5    1    3    3    0  502  0.28597265051E+03 -0.10349588814E+03  0.43259714459E+02  0.30722182311E+03  0.46999998093E+01 0. -1.
</event>
<event>
 5   0  0.1483326E-02  0.8826112E+03  0.7818609E-02  0.9447583E-01
       -2   -1    0    0    0  501  0.00000000000E+00  0.00000000000E+00  0.14488409082E+03  0.14488409084E+03  0.25500000920E-02 0. -1.
        2   -1    0    0  501    0  0.00000000000E+00  0.00000000000E+00 -0.13441823498E+04  0.13441823498E+04  0.25500000920E-02 0.  1.
    10030    2    1    2    0    0  0.00000000000E+00  0.00000000000E+00 -0.11992982590E+04  0.14890664406E+04  0.88261121149E+03 0.  0.
        1    1    3    3  502    0 -0.99283773036E+02 -0.29945710336E+03 -0.79046906262E+02  0.32523873963E+03  0.50400001928E-02 0. -1.
       -1    1    3    3    0  502  0.99283773036E+02  0.29945710336E+03 -0.11202513527E+04  0.11638277010E+04  0.50400001928E-02 0.  1.
</event>
<event>
 5   0  0.8738044E-03  0.9083073E+03  0.7818609E-02  0.9415256E-01
        1   -1    0    0  501    0  0.00000000000E+00  0.00000000000E+00  0.10548349501E+04  0.10548349501E+04  0.50400001928E-02 0.  1.
       -1   -1    0    0    0  501  0.00000000000E+00  0.00000000000E+00 -0.19553348555E+03  0.19553348562E+03  0.50400001928E-02 0. -1.
    10030    2    1    2    0    0  0.00000000000E+00  0.00000000000E+00  0.85930146458E+03  0.12503684358E+04  0.90830733683E+03 0.  0.
        3    1    3    3  502    0  0.10866299295E+02  0.34073670865E+03  0.16590688019E+02  0.34131340761E+03  0.10100000352E+00 0. -1.
       -3    1    3    3    0  502 -0.10866299295E+02 -0.34073670865E+03  0.84271077656E+03  0.90905502816E+03  0.10100000352E+00 0.  1.
</event>
<event>
 5   0  0.1535906E-02  0.8873957E+03  0.7818609E-02  0.9441476E-01
       -2   -1    0    0    0  501  0.00000000000E+00  0.00000000000E+00  0.87447935799E+03  0.87447935799E+03  0.25500000920E-02 0.  1.
        2   -1    0    0  501    0  0.00000000000E+00  0.00000000000E+00 -0.22512570244E+03  0.22512570245E+03  0.25500000920E-02 0. -1.
    10030    2    1    2    0    0  0.00000000000E+00  0.00000000000E+00  0.64935365555E+03  0.10996050604E+04  0.88739569470E+03 0.  0.
        2    1    3    3  502    0 -0.32026389209E+03  0.27000019818E+03  0.50594152534E+03  0.65684541155E+03  0.25500000920E-02 0.  1.
       -2    1    3    3    0  502  0.32026389209E+03 -0.27000019818E+03  0.14341213021E+03  0.44275964890E+03  0.25500000920E-02 0. -1.
</event>
<event>
 5   0  0.8612969E-03  0.9160862E+03  0.7818609E-02  0.9405693E-01
        1   -1    0    0  501    0  0.00000000000E+00  0.00000000000E+00  0.67169018071E+03  0.67169018072E+03  0.50400001928E-02 0. -1.
       -1   -1    0    0    0  501  0.00000000000E+00  0.00000000000E+00 -0.31235156828E+03  0.31235156832E+03  0.50400001928E-02 0.  1.
    10030    2    1    2    0    0  0.00000000000E+00  0.00000000000E+00  0.35933861243E+03  0.98404174904E+03  0.91608619980E+03 0.  0.
        4    1    3    3  502    0 -0.40106885188E+03  0.21349050335E+03  0.11733491403E+03  0.46925847240E+03  0.12699999809E+01 0. -1.
       -4    1    3    3    0  502  0.40106885188E+03 -0.21349050335E+03  0.24200369840E+03  0.51478327664E+03  0.12699999809E+01 0.  1.
</event>
<event>
 5   0  0.8524692E-03  0.8846372E+03  0.7818609E-02  0.9444992E-01
       -1   -1    0    0    0  501  0.00000000000E+00  0.00000000000E+00  0.19551980353E+03  0.19551980360E+03  0.50400001928E-02 0.  1.
        1   -1    0    0  501    0  0.00000000000E+00  0.00000000000E+00 -0.10006440641E+04  0.10006440641E+04  0.50400001928E-02 0. -1.
    10030    2    1    2    0    0  0.00000000000E+00  0.00000000000E+00 -0.80512426058E+03  0.11961638677E+04  0.88463717053E+03 0.  0.
        5    1    3    3  502    0  0.17292178698E+02  0.24595796659E+03 -0.89906028205E+03  0.93226917869E+03  0.46999998093E+01 0. -1.
       -5    1    3    3    0  502 -0.17292178698E+02 -0.24595796659E+03  0.93936021468E+02  0.26389468904E+03  0.46999998093E+01 0.  1.
</event>
<event>
 5   0  0.1441195E-02  0.8917027E+03  0.7818609E-02  0.9436013E-01
        2   -1    0    0  501    0  0.00000000000E+00  0.00000000000E+00  0.10937204237E+04  0.10937204237E+04  0.25500000920E-02 0.  1.
       -2   -1    0    0    0  501  0.00000000000E+00  0.00000000000E+00 -0.18174976083E+03  0.18174976085E+03  0.25500000920E-02 0. -1.
    10030    2    1    2    0    0  0.00000000000E+00  0.00000000000E+00  0.91197066287E+03  0.12754701846E+04  0.89170269807E+03 0.  0.
        5    1    3    3  502    0  0.39392326206E+03 -0.41710333650E+02  0.74858743910E+03  0.84694777425E+03  0.46999998093E+01 0.  1.
       -5    1    3    3    0  502 -0.39392326206E+03  0.41710333650E+02  0.16338322378E+03  0.42852241031E+03  0.46999998093E+01 0. -1.
</event>
<event>
 5   0  0.8524692E-03  0.8960928E+03  0.7818609E-02  0.9430479E-01
       -1   -1    0    0    0  501  0.00000000000E+00  0.00000000000E+00  0.23175029142E+03  0.23175029148E+03  0.50400001928E-02 0. -1.
        1   -1    0    0  501    0  0.00000000000E+00  0.00000000000E+00 -0.86621494392E+03  0.86621494393E+03  0.50400001928E-02 0.  1.
    10030    2    1    2    0    0  0.00000000000E+00  0.00000000000E+00 -0.63446465250E+03  0.10979652354E+04  0.89609277583E+03 0.  0.
        5    1    3    3  502    0 -0.95558324852E+02  0.26638984874E+03  0.10832750928E+03  0.30307075779E+03  0.46999998093E+01 0. -1.
       -5    1    3    3    0  502  0.95558324852E+02 -0.26638984874E+03 -0.74279216178E+03  0.79489447762E+03  0.46999998093E+01 0.  1.
</event>
<event>
 5   0  0.5770125E-03  0.7656848E+03  0.7818609E-02  0.9611060E-01
       -4   -1    0    0    0  501  0.00000000000E+00  0.00000000000E+00  0.37185871230E+03  0.37186088099E+03  0.12699999809E+01 0. -1.
        4   -1    0    0  501    0  0.00000000000E+00  0.00000000000E+00 -0.39414621443E+03  0.39414826049E+03  0.12699999809E+01 0.  1.
    10030    2    1    2    0    0  0.00000000000E+00  0.00000000000E+00 -0.22287502131E+02  0.76600914148E+03  0.76568483862E+03 0.  0.
        5    1    3    3  502    0 -0.28697269329E+02  0.16951099924E+02 -0.39266515050E+03  0.39410516804E+03  0.46999998093E+01 0.  1.
       -5    1    3    3    0  502  0.28697269329E+02 -0.16951099924E+02  0.37037764837E+03  0.37190397345E+03  0.46999998093E+01 0. -1.
</event>
<event>
 5   0  0.1483326E-02  0.8958516E+03  0.7818609E-02  0.9430782E-01
        2   -1    0    0  501    0  0.00000000000E+00  0.00000000000E+00  0.20488551235E+04  0.20488551235E+04  0.25500000920E-02 0. -1.
       -2   -1    0    0    0  501  0.00000000000E+00  0.00000000000E+00 -0.97926654306E+02  0.97926654339E+02  0.25500000920E-02 0.  1.
    10030    2    1    2    0    0  0.00000000000E+00  0.00000000000E+00  0.19509284692E+04  0.21467817778E+04  0.89585161145E+03 0.  0.
        1    1    3    3  502    0 -0.13826406596E+03  0.42509197464E+03  0.10439761487E+04  0.11356523843E+04  0.50400001928E-02 0.  1.
       -1    1    3    3    0  502  0.13826406596E+03 -0.42509197464E+03  0.90695232046E+03  0.10111293935E+04  0.50400001928E-02 0. -1.
</event>
<event>
 5   0  0.8612969E-03  0.8992491E+03  0.7818609E-02  0.9426521E-01
        1   -1    0    0  501    0  0.00000000000E+00  0.00000000000E+00  0.76680199907E+03  0.76680199909E+03  0.50400001928E-02 0.  1.
       -1   -1    0    0    0  501  0.00000000000E+00  0.00000000000E+00 -0.26364335601E+03  0.26364335606E+03  0.50400001928E-02 0. -1.
    10030    2    1    2    0    0  0.00000000000E+00  0.00000000000E+00  0.50315864306E+03  0.10304453552E+04  0.89924913670E+03 0.  0.
        4    1    3    3  502    0  0.15305525599E+03  0.25308297285E+03  0.63963661872E+03  0.70470810939E+03  0.12699999809E+01 0.  1.
       -4    1    3    3    0  502 -0.15305525599E+03 -0.25308297285E+03 -0.13647797566E+03  0.32573724576E+03  0.12699999809E+01 0. -1.
</event>
<event>
 5   0  0.1483326E-02  0.8965211E+03  0.7818609E-02  0.9429941E-01
        2   -1    0    0  501    0  0.00000000000E+00  0.00000000000E+00  0.12870922285E+04  0.12870922285E+04  0.25500000920E-02 0.  1.
       -2   -1    0    0    0  501  0.00000000000E+00  0.00000000000E+00 -0.15611743144E+03  0.15611743146E+03  0.25500000920E-02 0. -1.
    10030    2    1    2    0    0  0.00000000000E+00  0.00000000000E+00  0.11309747971E+04  0.14432096600E+04  0.89652112693E+03 0.  0.
        1    1    3    3  502    0  0.15573816912E+03 -0.41567246762E+03  0.66601294156E+03  0.80038191885E+03  0.50400001928E-02 0.  1.
       -1    1    3    3    0  502 -0.15573816912E+03  0.41567246762E+03  0.46496185554E+03  0.64282774115E+03  0.50400001928E-02 0. -1.
</event>
<event>
 5   0  0.1483326E-02  0.9035111E+03  0.7818609E-02  0.9421203E-01
        2   -1    0    0  501    0  0.00000000000E+00  0.00000000000E+00  0.65250431915E+03  0.65250431915E+03  0.25500000920E-02 0.  1.
       -2   -1    0    0    0  501  0.00000000000E+00  0.00000000000E+00 -0.31276889976E+03  0.31276889977E+03  0.25500000920E-02 0. -1.
    10030    2    1    2    0    0  0.00000000000E+00  0.00000000000E+00  0.33973541939E+03  0.96527321892E+03  0.90351105802E+03 0.  0.
        1    1    3    3  502    0  0.39533881334E+03 -0.21791122848E+03  0.15121033970E+03  0.47607000293E+03  0.50400001928E-02 0. -1.
       -1    1    3    3    0  502 -0.39533881334E+03  0.21791122848E+03  0.18852507969E+03  0.48920321599E+03  0.50400001928E-02 0.  1.
</event>
<event>
 5   0  0.8612969E-03  0.8901841E+03  0.7818609E-02  0.9437936E-01
       -1   -1    0    0    0  501  0.00000000000E+00  0.00000000000E+00  0.11029207840E+03  0.11029207851E+03  0.50400001928E-02 0. -1.
        1   -1    0    0  501    0  0.00000000000E+00  0.00000000000E+00 -0.17962026680E+04  0.17962026680E+04  0.50400001928E-02 0.  1.
    10030    2    1    2    0    0  0.00000000000E+00  0.00000000000E+00 -0.16859105896E+04  0.19064947465E+04  0.89018408341E+03 0.  0.
        4    1    3    3  502    0  0.36035495857E+03  0.11966464084E+03 -0.13403154146E+04  0.13930622190E+04  0.12699999809E+01 0.  1.
       -4    1    3    3    0  502 -0.36035495857E+03 -0.11966464084E+03 -0.34559517494E+03  0.51343252748E+03  0.12699999809E+01 0. -1.
</event>
<event>
 5   0  0.8738044E-03  0.9397802E+03  0.7818609E-02  0.9377176E-01
        1   -1    0    0  501    0  0.00000000000E+00  0.00000000000E+00  0.29447615696E+03  0.29447615701E+03  0.50400001928E-02 0.  1.
       -1   -1    0    0    0  501  0.00000000000E+00  0.00000000000E+00 -0.74979478608E+03  0.74979478610E+03  0.50400001928E-02 0. -1.
    10030    2    1    2    0    0  0.00000000000E+00  0.00000000000E+00 -0.45531862912E+03  0.10442709431E+04  0.93978015972E+03 0.  0.
        3    1    3    3  502    0 -0.49620847151E+02  0.21829509090E+03 -0.68673089081E+03  0.72229793144E+03  0.10100000352E+00 0. -1.
       -3    1    3    3    0  502  0.49620847151E+02 -0.21829509090E+03  0.23141226169E+03  0.32197301167E+03  0.10100000352E+00 0.  1.
</event>
<event>
 5   0  0.5770125E-03  0.8978313E+03  0.7818609E-02  0.9428296E-01
        3   -1    0    0  501    0  0.00000000000E+00  0.00000000000E+00  0.31364661760E+03  0.31364663387E+03  0.10100000352E+00 0.  1.
       -3   -1    0    0    0  501  0.00000000000E+00  0.00000000000E+00 -0.64252329938E+03  0.64252330731E+03  0.10100000352E+00 0. -1.
    10030    2    1    2    0    0  0.00000000000E+00  0.00000000000E+00 -0.32887668177E+03  0.95616994118E+03  0.89783132302E+03 0.  0.
        3    1    3    3  502    0  0.34351082358E+03 -0.28875013763E+03 -0.17743512409E+03  0.48255524177E+03  0.10100000352E+00 0.  1.
       -3    1    3    3    0  502 -0.34351082358E+03  0.28875013763E+03 -0.15144155768E+03  0.47361469941E+03  0.10100000352E+00 0. -1.
</event>
<event>
 5   0  0.1454652E-02  0.9170732E+03  0.7818609E-02  0.9404487E-01
       -2   -1    0    0    0  501  0.00000000000E+00  0.00000000000E+00  0.33907245831E+03  0.33907245832E+03  0.25500000920E-02 0. -1.
        2   -1    0    0  501    0  0.00000000000E+00  0.00000000000E+00 -0.62009107620E+03  0.62009107621E+03  0.25500000920E-02 0.  1.
    10030    2    1    2    0    0  0.00000000000E+00  0.00000000000E+00 -0.28101861789E+03  0.95916353453E+03  0.91707318267E+03 0.  0.
        4    1    3    3  502    0  0.26118465972E+03 -0.37658952988E+03 -0.12509901994E+03  0.47506681443E+03  0.12699999809E+01 0. -1.
       -4    1    3    3    0  502 -0.26118465972E+03  0.37658952988E+03 -0.15591959795E+03  0.48409672010E+03  0.12699999809E+01 0.  1.
</event>
<event>
 5   0  0.8612969E-03  0.9001320E+03  0.7818609E-02  0.9425416E-01
       -1   -1    0    0    0  501  0.00000000000E+00  0.00000000000E+00  0.21070415554E+03  0.21070415560E+03  0.50400001928E-02 0.  1.
        1   -1    0    0  501    0  0.00000000000E+00  0.00000000000E+00 -0.96134508794E+03  0.96134508795E+03  0.50400001928E-02 0. -1.
    10030    2    1    2    0    0  0.00000000000E+00  0.00000000000E+00 -0.75064093240E+03  0.11720492435E+04  0.90013200138E+03 0.  0.
        4    1    3    3  502    0 -0.98485000950E+02  0.12867478381E+03 -0.92204354886E+03  0.93617435037E+03  0.12699999809E+01 0. -1.
       -4    1    3    3    0  502  0.98485000950E+02 -0.12867478381E+03  0.17140261646E+03  0.23587489318E+03  0.12699999809E+01 0.  1.
</event>
<event>
 5   0  0.8291252E-03  0.8949659E+03  0.7818609E-02  0.9431896E-01
        1   -1    0    0  501    0  0.00000000000E+00  0.00000000000E+00  0.73922858765E+03  0.73922858767E+03  0.50400001928E-02 0.  1.
       -1   -1    0    0    0  501  0.00000000000E+00  0.00000000000E+00 -0.27087833338E+03  0.27087833343E+03  0.50400001928E-02 0. -1.
    10030    2    1    2    0    0  0.00000000000E+00  0.00000000000E+00  0.46835025427E+03  0.10101069211E+04  0.89496593867E+03 0.  0.
        1    1    3    3  502    0 -0.32291166044E+03  0.76544525157E+02 -0.10462794688E+03  0.34796265902E+03  0.50400001928E-02 0. -1.
       -1    1    3    3    0  502  0.32291166044E+03 -0.76544525157E+02  0.57297820115E+03  0.66214426207E+03  0.50400001928E-02 0.  1.
</event>
<event>
 5   0  0.8524692E-03  0.9069028E+03  0.7818609E-02  0.9416994E-01
       -1   -1    0    0    0  501  0.00000000000E+00  0.00000000000E+00  0.88265346155E+03  0.88265346156E+03  0.50400001928E-02 0. -1.
        1   -1    0    0  501    0  0.00000000000E+00  0.00000000000E+00 -0.23295456426E+03  0.23295456431E+03  0.50400001928E-02 0.  1.
    10030    2    1    2    0    0  0.00000000000E+00  0.00000000000E+00  0.64969889729E+03  0.11156080259E+04  0.90690275678E+03 0.  0.
        5    1    3    3  502    0  0.30043106076E+03  0.13699255002E+03 -0.57422699204E+02  0.33517941078E+03  0.46999998093E+01 0.  1.
       -5    1    3    3    0  502 -0.30043106076E+03 -0.13699255002E+03  0.70712159649E+03  0.78042861509E+03  0.46999998093E+01 0. -1.
</event>
<event>
 5   0  0.1454652E-02  0.8946618E+03  0.7818609E-02  0.9432279E-01
       -2   -1    0    0    0  501  0.00000000000E+00  0.00000000000E+00  0.27721405924E+03  0.27721405925E+03  0.25500000920E-02 0.  1.
        2   -1    0    0  501    0  0.00000000000E+00  0.00000000000E+00 -0.72184268616E+03  0.72184268616E+03  0.25500000920E-02 0. -1.
    10030    2    1    2    0    0  0.00000000000E+00  0.00000000000E+00 -0.44462862692E+03  0.99905674541E+03  0.89466181582E+03 0.  0.
        4    1    3    3  502    0  0.54903165904E+02 -0.17938115232E+03 -0.67579266360E+03  0.70134819634E+03  0.12699999809E+01 0. -1.
       -4    1    3    3    0  502 -0.54903165904E+02  0.17938115232E+03  0.23116403669E+03  0.29770854907E+03  0.12699999809E+01 0.  1.
</event>
<event>
 5   0  0.1535906E-02  0.8952895E+03  0.7818609E-02  0.9431489E-01
       -2   -1    0    0    0  501  0.00000000000E+00  0.00000000000E+00  0.68034119966E+03  0.68034119966E+03  0.25500000920E-02 0. -1.
        2   -1    0    0  501    0  0.00000000000E+00  0.00000000000E+00 -0.29453721944E+03  0.29453721945E+03  0.25500000920E-02 0.  1.
    10030    2    1    2    0    0  0.00000000000E+00  0.00000000000E+00  0.38580398022E+03  0.97487841911E+03  0.89528946207E+03 0.  0.
        2    1    3    3  502    0 -0.19281973045E+03 -0.15561539741E+03 -0.21305411898E+03  0.32678380924E+03  0.25500000920E-02 0.  1.
       -2    1    3    3    0  502  0.19281973045E+03  0.15561539741E+03  0.59885809920E+03  0.64809460987E+03  0.25500000920E-02 0. -1.
</event>
<event>
 5   0  0.8524692E-03  0.9173773E+03  0.7818609E-02  0.9404116E-01
        1   -1    0    0  501    0  0.00000000000E+00  0.00000000000E+00  0.40109186242E+03  0.40109186245E+03  0.50400001928E-02 0. -1.
       -1   -1    0    0    0  501  0.00000000000E+00  0.00000000000E+00 -0.52455628818E+03  0.52455628820E+03  0.50400001928E-02 0.  1.
    10030    2    1    2    0    0  0.00000000000E+00  0.00000000000E+00 -0.12346442576E+03  0.92564815065E+03  0.91737725848E+03 0.  0.
        5    1    3    3  502    0 -0.30634998046E+03 -0.24868724797E+03 -0.29767262588E+03  0.49429418369E+03  0.46999998093E+01 0.  1.
       -5    1    3    3    0  502  0.30634998046E+03  0.24868724797E+03  0.17420820012E+03  0.43135396697E+03  0.46999998093E+01 0. -1.
</event>
<event>
 5   0  0.8291252E-03  0.8745128E+03  0.7818609E-02  0.9458015E-01
       -1   -1    0    0    0  501  0.00000000000E+00  0.00000000000E+00  0.29374740395E+03  0.29374740399E+03  0.50400001928E-02 0.  1.
        1   -1    0    0  501    0  0.00000000000E+00  0.00000000000E+00 -0.65087611219E+03  0.65087611221E+03  0.50400001928E-02 0. -1.
    10030    2    1    2    0    0  0.00000000000E+00  0.00000000000E+00 -0.35712870824E+03  0.94462351620E+03  0.87451282044E+03 0.  0.
        1    1    3    3  502    0 -0.30959770743E+03 -0.22710263878E+03  0.47413075869E+02  0.38687769227E+03  0.50400001928E-02 0.  1.
       -1    1    3    3    0  502  0.30959770743E+03  0.22710263878E+03 -0.40454178411E+03  0.55774582392E+03  0.50400001928E-02 0. -1.
</event>
<event>
 5   0  0.1440615E-02  0.9056037E+03  0.7818609E-02  0.9418604E-01
       -2   -1    0    0    0  501  0.00000000000E+00  0.00000000000E+00  0.51554935147E+03  0.51554935148E+03  0.25500000920E-02 0.  1.
        2   -1    0    0  501    0  0.00000000000E+00  0.00000000000E+00 -0.39769133364E+03  0.39769133364E+03  0.25500000920E-02 0. -1.
    10030    2    1    2    0    0  0.00000000000E+00  0.00000000000E+00  0.11785801784E+03  0.91324068512E+03  0.90560368628E+03 0.  0.
        3    1    3    3  502    0  0.78772712170E+02 -0.32710005269E+03  0.36451902339E+03  0.49605817529E+03  0.10100000352E+00 0.  1.
       -3    1    3    3    0  502 -0.78772712170E+02  0.32710005269E+03 -0.24666100556E+03  0.41718250984E+03  0.10100000352E+00 0. -1.
</event>
<event>
 5   0  0.1454652E-02  0.7335906E+03  0.7818609E-02  0.9661452E-01
        2   -1    0    0  501    0  0.00000000000E+00  0.00000000000E+00  0.29967268480E+03  0.29967268481E+03  0.25500000920E-02 0.  1.
       -2   -1    0    0    0  501  0.00000000000E+00  0.00000000000E+00 -0.44895241592E+03  0.44895241593E+03  0.25500000920E-02 0. -1.
    10030    2    1    2    0    0  0.00000000000E+00  0.00000000000E+00 -0.14927973113E+03  0.74862510074E+03  0.73359055564E+03 0.  0.
        4    1    3    3  502    0 -0.23176844907E+03  0.28165783194E+03 -0.35255988752E+02  0.36645920089E+03  0.12699999809E+01 0. -1.
       -4    1    3    3    0  502  0.23176844907E+03 -0.28165783194E+03 -0.11402374238E+03  0.38216589984E+03  0.12699999809E+01 0.  1.
</event>
<event>
 5   0  0.1454652E-02  0.9007494E+03  0.7818609E-02  0.9424645E-01
        2   -1    0    0  501    0  0.00000000000E+00  0.00000000000E+00  0.70544105292E+03  0.70544105292E+03  0.25500000920E-02 0. -1.
       -2   -1    0    0    0  501  0.00000000000E+00  0.00000000000E+00 -0.28753270702E+03  0.28753270703E+03  0.25500000920E-02 0.  1.
    10030    2    1    2    0    0  0.00000000000E+00  0.00000000000E+00  0.41790834589E+03  0.99297375995E+03  0.90074941154E+03 0.  0.
        4    1    3    3  502    0  0.42633212871E+03 -0.11206736381E+03  0.10721410685E+03  0.45366800153E+03  0.12699999809E+01 0.  1.
       -4    1    3    3    0  502 -0.42633212871E+03  0.11206736381E+03  0.31069423904E+03  0.53930575843E+03  0.12699999809E+01 0. -1.
</event>
<event>
 5   0  0.8738044E-03  0.8993315E+03  0.7818609E-02  0.9426417E-01
        1   -1    0    0  501    0  0.00000000000E+00  0.00000000000E+00  0.11175564657E+04  0.11175564657E+04  0.50400001928E-02 0. -1.
       -1   -1    0    0    0  501  0.00000000000E+00  0.00000000000E+00 -0.18092983450E+03  0.18092983457E+03  0.50400001928E-02 0.  1.
    10030    2    1    2    0    0  0.00000000000E+00  0.00000000000E+00  0.93662663116E+03  0.12984863002E+04  0.89933154381E+03 0.  0.
        3    1    3    3  502    0  0.26727783820E+03 -0.16911617557E+03  0.68243405127E+01  0.31636103657E+03  0.10100000352E+00 0.  1.
       -3    1    3    3    0  502 -0.26727783820E+03  0.16911617557E+03  0.92980229065E+03  0.98212526366E+03  0.10100000352E+00 0. -1.
</event>
<event>
 5   0  0.8738044E-03  0.9133282E+03  0.7818609E-02  0.9409072E-01
        1   -1    0    0  501    0  0.00000000000E+00  0.00000000000E+00  0.15381577738E+04  0.15381577738E+04  0.50400001928E-02 0.  1.
       -1   -1    0    0    0  501  0.00000000000E+00  0.00000000000E+00 -0.13557914114E+03  0.13557914124E+03  0.50400001928E-02 0. -1.
    10030    2    1    2    0    0  0.00000000000E+00  0.00000000000E+00  0.14025786326E+04  0.16737369150E+04  0.91332822138E+03 0.  0.
        3    1    3    3  502    0 -0.20306649855E+03  0.34982934399E+03  0.31286455474E+03  0.51137150152E+03  0.10100000352E+00 0. -1.
       -3    1    3    3    0  502  0.20306649855E+03 -0.34982934399E+03  0.10897140779E+04  0.11623654135E+04  0.10100000352E+00 0.  1.
</event>
<event>
 5   0  0.8291252E-03  0.9006456E+03  0.7818609E-02  0.9424775E-01
       -1   -1    0    0    0  501  0.00000000000E+00  0.00000000000E+00  0.21445293465E+03  0.21445293471E+03  0.50400001928E-02 0. -1.
        1   -1    0    0  501    0  0.00000000000E+00  0.00000000000E+00 -0.94561833001E+03  0.94561833003E+03  0.50400001928E-02 0.  1.
    10030    2    1    2    0    0  0.00000000000E+00  0.00000000000E+00 -0.73116539537E+03  0.11600712647E+04  0.90064560393E+03 0.  0.
        1    1    3    3  502    0 -0.34644448996E+02  0.28276489096E+03  0.83637166774E+02  0.29690300958E+03  0.50400001928E-02 0. -1.
       -1    1    3    3    0  502  0.34644448996E+02 -0.28276489096E+03 -0.81480256214E+03  0.86316825515E+03  0.50400001928E-02 0.  1.
</event>
<event>
 5   0  0.5770125E-03  0.8968048E+03  0.7818609E-02  0.9429584E-01
       -4   -1    0    0    0  501  0.00000000000E+00  0.00000000000E+00  0.23041085260E+04  0.23041088760E+04  0.12699999809E+01 0.  1.
        4   -1    0    0  501    0  0.00000000000E+00  0.00000000000E+00 -0.87258580198E+02  0.87267821779E+02  0.12699999809E+01 0. -1.
    10030    2    1    2    0    0  0.00000000000E+00  0.00000000000E+00  0.22168499458E+04  0.23913766977E+04  0.89680478839E+03 0.  0.
        3    1    3    3  502    0  0.38900883288E+02  0.32669428291E+03  0.19208366412E+04  0.19488088274E+04  0.10100000352E+00 0.  1.
       -3    1    3    3    0  502 -0.38900883288E+02 -0.32669428291E+03  0.29601330452E+03  0.44256787035E+03  0.10100000352E+00 0. -1.
</event>
<event>
 5   0  0.1440615E-02  0.9035164E+03  0.7818609E-02  0.9421196E-01
        2   -1    0    0  501    0  0.00000000000E+00  0.00000000000E+00  0.61656940263E+03  0.61656940263E+03  0.25500000920E-02 0.  1.
       -2   -1    0    0    0  501  0.00000000000E+00  0.00000000000E+00 -0.33100163556E+03  0.33100163557E+03  0.25500000920E-02 0. -1.
    10030    2    1    2    0    0  0.00000000000E+00  0.00000000000E+00  0.28556776707E+03  0.94757103820E+03  0.90351642090E+03 0.  0.
        3    1    3    3  502    0  0.96095760653E+02 -0.13621940161E+03  0.58313201410E+03  0.60649243743E+03  0.10100000352E+00 0.  1.
       -3    1    3    3    0  502 -0.96095760653E+02  0.13621940161E+03 -0.29756424703E+03  0.34107860077E+03  0.10100000352E+00 0. -1.
</event>
<event>
 5   0  0.1440615E-02  0.8616406E+03  0.7818609E-02  0.9474845E-01
        2   -1    0    0  501    0  0.00000000000E+00  0.00000000000E+00  0.13113555750E+04  0.13113555750E+04  0.25500000920E-02 0. -1.
       -2   -1    0    0    0  501  0.00000000000E+00  0.00000000000E+00 -0.14153759529E+03  0.14153759531E+03  0.25500000920E-02 0.  1.
    10030    2    1    2    0    0  0.00000000000E+00  0.00000000000E+00  0.11698179797E+04  0.14528931703E+04  0.86164056235E+03 0.  0.
        3    1    3    3  502    0  0.21916084682E+02  0.35605463214E+03  0.99222481520E+03  0.10544028215E+04  0.10100000352E+00 0. -1.
       -3    1    3    3    0  502 -0.21916084682E+02 -0.35605463214E+03  0.17759316451E+03  0.39849034884E+03  0.10100000352E+00 0.  1.
</event>
<event>
 5   0  0.5770125E-03  0.8973742E+03  0.7818609E-02  0.9428870E-01
        3   -1    0    0  501    0  0.00000000000E+00  0.00000000000E+00  0.76082925873E+03  0.76082926543E+03  0.10100000352E+00 0.  1.
       -3   -1    0    0    0  501  0.00000000000E+00  0.00000000000E+00 -0.26460613613E+03  0.26460615540E+03  0.10100000352E+00 0. -1.
    10030    2    1    2    0    0  0.00000000000E+00  0.00000000000E+00  0.49622312260E+03  0.10254354208E+04  0.89737417775E+03 0.  0.
        5    1    3    3  502    0 -0.15031582902E+03  0.24799751544E+03  0.63931196023E+03  0.70202527633E+03  0.46999998093E+01 0.  1.
       -5    1    3    3    0  502  0.15031582902E+03 -0.24799751544E+03 -0.14308883763E+03  0.32341014450E+03  0.46999998093E+01 0. -1.
</event>
<event>
 5   0  0.8738044E-03  0.8795242E+03  0.7818609E-02  0.9451545E-01
        1   -1    0    0  501    0  0.00000000000E+00  0.00000000000E+00  0.15011186135E+04  0.15011186135E+04  0.50400001928E-02 0. -1.
       -1   -1    0    0    0  501  0.00000000000E+00  0.00000000000E+00 -0.12883107132E+03  0.12883107142E+03  0.50400001928E-02 0.  1.
    10030    2    1    2    0    0  0.00000000000E+00  0.00000000000E+00  0.13722875421E+04  0.16299496849E+04  0.87952423331E+03 0.  0.
        3    1    3    3  502    0  0.10662833163E+03  0.13772756615E+03 -0.62180366338E+02  0.18494564537E+03  0.10100000352E+00 0.  1.
       -3    1    3    3    0  502 -0.10662833163E+03 -0.13772756615E+03  0.14344679085E+04  0.14450040395E+04  0.10100000352E+00 0. -1.
</event>
<event>
 5   0  0.1454652E-02  0.9659065E+03  0.7818609E-02  0.9346749E-01
       -2   -1    0    0    0  501  0.00000000000E+00  0.00000000000E+00  0.38028687964E+03  0.38028687964E+03  0.25500000920E-02 0. -1.
        2   -1    0    0  501    0  0.00000000000E+00  0.00000000000E+00 -0.61333661025E+03  0.61333661026E+03  0.25500000920E-02 0.  1.
    10030    2    1    2    0    0  0.00000000000E+00  0.00000000000E+00 -0.23304973062E+03  0.99362348990E+03  0.96590654970E+03 0.  0.
        4    1    3    3  502    0 -0.27714912142E+03 -0.39351453641E+03 -0.15737490872E+03  0.50639293109E+03  0.12699999809E+01 0. -1.
       -4    1    3    3    0  502  0.27714912142E+03  0.39351453641E+03 -0.75674821901E+02  0.48723055881E+03  0.12699999809E+01 0.  1.
</event>
<event>
 5   0  0.1483326E-02  0.9153561E+03  0.7818609E-02  0.9406587E-01
       -2   -1    0    0    0  501  0.00000000000E+00  0.00000000000E+00  0.18602612772E+03  0.18602612774E+03  0.25500000920E-02 0.  1.
        2   -1    0    0  501    0  0.00000000000E+00  0.00000000000E+00 -0.11260203969E+04  0.11260203969E+04  0.25500000920E-02 0. -1.
    10030    2    1    2    0    0  0.00000000000E+00  0.00000000000E+00 -0.93999426918E+03  0.13120465246E+04  0.91535613657E+03 0.  0.
        1    1    3    3  502    0  0.10696672544E+03  0.18322664379E+03  0.11127983403E+03  0.23957688710E+03  0.50400001928E-02 0.  1.
       -1    1    3    3    0  502 -0.10696672544E+03 -0.18322664379E+03 -0.10512741032E+04  0.10724696375E+04  0.50400001928E-02 0. -1.
</event>
<event>
 5   0  0.1454652E-02  0.8977398E+03  0.7818609E-02  0.9428411E-01
       -2   -1    0    0    0  501  0.00000000000E+00  0.00000000000E+00  0.90030696418E+03  0.90030696418E+03  0.25500000920E-02 0. -1.
        2   -1    0    0  501    0  0.00000000000E+00  0.00000000000E+00 -0.22379497358E+03  0.22379497359E+03  0.25500000920E-02 0.  1.
    10030    2    1    2    0    0  0.00000000000E+00  0.00000000000E+00  0.67651199060E+03  0.11241019378E+04  0.89773976913E+03 0.  0.
        4    1    3    3  502    0  0.37679578094E+03 -0.18879758497E+03  0.14482881740E+03  0.44564177079E+03  0.12699999809E+01 0.  1.
       -4    1    3    3    0  502 -0.37679578094E+03  0.18879758497E+03  0.53168317320E+03  0.67846016698E+03  0.12699999809E+01 0. -1.
</event>
<event>
 5   0  0.5770125E-03  0.8911545E+03  0.7818609E-02  0.9436707E-01
        3   -1    0    0  501    0  0.00000000000E+00  0.00000000000E+00  0.41981570244E+03  0.41981571458E+03  0.10100000352E+00 0. -1.
       -3   -1    0    0    0  501  0.00000000000E+00  0.00000000000E+00 -0.47291956263E+03  0.47291957342E+03  0.10100000352E+00 0.  1.
    10030    2    1    2    0    0  0.00000000000E+00  0.00000000000E+00 -0.53103860199E+02  0.89273528800E+03  0.89115446163E+03 0.  0.
        5    1    3    3  502    0 -0.83908883341E+02  0.25069429003E+02  0.41108432895E+03  0.42033509546E+03  0.46999998093E+01 0. -1.
       -5    1    3    3    0  502  0.83908883341E+02 -0.25069429003E+02 -0.46418818914E+03  0.47240019254E+03  0.46999998093E+01 0.  1.
</event>
<event>
 5   0  0.8524692E-03  0.9078606E+03  0.7818609E-02  0.9415808E-01
       -1   -1    0    0    0  501  0.00000000000E+00  0.00000000000E+00  0.48185198423E+03  0.48185198426E+03  0.50400001928E-02 0.  1.
        1   -1    0    0  501    0  0.00000000000E+00  0.00000000000E+00 -0.42762655590E+03  0.42762655593E+03  0.50400001928E-02 0. -1.
    10030    2    1    2    0    0  0.00000000000E+00  0.00000000000E+00  0.54225428333E+02  0.90947854018E+03  0.90786057188E+03 0.  0.
        5    1    3    3  502    0  0.33802748586E+02 -0.45238385210E+03  0.42529716800E+02  0.45565847108E+03  0.46999998093E+01 0.  1.
       -5    1    3    3    0  502 -0.33802748586E+02  0.45238385210E+03  0.11695711533E+02  0.45382006911E+03  0.46999998093E+01 0. -1.
</event>
<event>
 5   0  0.1483326E-02  0.9126079E+03  0.7818609E-02  0.9409957E-01
        2   -1    0    0  501    0  0.00000000000E+00  0.00000000000E+00  0.22730448212E+04  0.22730448212E+04  0.25500000920E-02 0. -1.
       -2   -1    0    0    0  501  0.00000000000E+00  0.00000000000E+00 -0.91601044725E+02  0.91601044761E+02  0.25500000920E-02 0.  1.
    10030    2    1    2    0    0  0.00000000000E+00  0.00000000000E+00  0.21814437765E+04  0.23646458659E+04  0.91260786841E+03 0.  0.
        1    1    3    3  502    0  0.17004955170E+02  0.45250465377E+03  0.12364610027E+04  0.13167708386E+04  0.50400001928E-02 0. -1.
       -1    1    3    3    0  502 -0.17004955170E+02 -0.45250465377E+03  0.94498277372E+03  0.10478750273E+04  0.50400001928E-02 0.  1.
</event>
<event>
 5   0  0.1440615E-02  0.8867920E+03  0.7818609E-02  0.9442244E-01
       -2   -1    0    0    0  501  0.00000000000E+00  0.00000000000E+00  0.13577252390E+03  0.13577252393E+03  0.25500000920E-02 0.  1.
        2   -1    0    0  501    0  0.00000000000E+00  0.00000000000E+00 -0.14480102956E+04  0.14480102956E+04  0.25500000920E-02 0. -1.
    10030    2    1    2    0    0  0.00000000000E+00  0.00000000000E+00 -0.13122377717E+04  0.15837828195E+04  0.88679199927E+03 0.  0.
        3    1    3    3  502    0  0.35718205788E+03  0.16185559344E+03 -0.28653230685E+03  0.48567172933E+03  0.10100000352E+00 0.  1.
       -3    1    3    3    0  502 -0.35718205788E+03 -0.16185559344E+03 -0.10257054648E+04  0.10981110902E+04  0.10100000352E+00 0. -1.
</event>
<event>
 5   0  0.8612969E-03  0.9070922E+03  0.7818609E-02  0.9416759E-01
        1   -1    0    0  501    0  0.00000000000E+00  0.00000000000E+00  0.24384906914E+03  0.24384906919E+03  0.50400001928E-02 0. -1.
       -1   -1    0    0    0  501  0.00000000000E+00  0.00000000000E+00 -0.84357122556E+03  0.84357122558E+03  0.50400001928E-02 0.  1.
    10030    2    1    2    0    0  0.00000000000E+00  0.00000000000E+00 -0.59972215642E+03  0.10874202948E+04  0.90709218526E+03 0.  0.
        4    1    3    3  502    0  0.13221064182E+03 -0.42884588511E+03 -0.22112278595E+03  0.50028526497E+03  0.12699999809E+01 0.  1.
       -4    1    3    3    0  502 -0.13221064182E+03  0.42884588511E+03 -0.37859937048E+03  0.58713502979E+03  0.12699999809E+01 0. -1.
</event>
<event>
 5   0  0.1441195E-02  0.8587993E+03  0.7818609E-02  0.9478602E-01
        2   -1    0    0  501    0  0.00000000000E+00  0.00000000000E+00  0.13703302619E+04  0.13703302619E+04  0.25500000920E-02 0. -1.
       -2   -1    0    0    0  501  0.00000000000E+00  0.00000000000E+00 -0.13455445652E+03  0.13455445654E+03  0.25500000920E-02 0.  1.
    10030    2    1    2    0    0  0.00000000000E+00  0.00000000000E+00  0.12357758053E+04  0.15048847184E+04  0.85879926328E+03 0.  0.
        5    1    3    3  502    0 -0.36839709667E+02 -0.21367902637E+03  0.12672989565E+04  0.12857233861E+04  0.46999998093E+01 0. -1.
       -5    1    3    3    0  502  0.36839709667E+02  0.21367902637E+03 -0.31523151121E+02  0.21916133230E+03  0.46999998093E+01 0.  1.
</event>
<event>
 5   0  0.1535906E-02  0.8964943E+03  0.7818609E-02  0.9429974E-01
       -2   -1    0    0    0  501  0.00000000000E+00  0.00000000000E+00  0.40911488275E+03  0.40911488276E+03  0.25500000920E-02 0. -1.
        2   -1    0    0  501    0  0.00000000000E+00  0.00000000000E+00 -0.49112249563E+03  0.49112249564E+03  0.25500000920E-02 0.  1.
    10030    2    1    2    0    0  0.00000000000E+00  0.00000000000E+00 -0.82007612876E+02  0.90023737840E+03  0.89649433289E+03 0.  0.
        2    1    3    3  502    0 -0.86953470429E+02 -0.36451657791E+03 -0.28798249016E+03  0.47261734652E+03  0.25500000920E-02 0.  1.
       -2    1    3    3    0  502  0.86953470429E+02  0.36451657791E+03  0.20597487728E+03  0.42762003188E+03  0.25500000920E-02 0. -1.
</event>
<event>
 5   0  0.1535906E-02  0.7211055E+03  0.7818609E-02  0.9681804E-01
       -2   -1    0    0    0  501  0.00000000000E+00  0.00000000000E+00  0.29693445330E+03  0.29693445331E+03  0.25500000920E-02 0.  1.
        2   -1    0    0  501    0  0.00000000000E+00  0.00000000000E+00 -0.43780133890E+03  0.43780133891E+03  0.25500000920E-02 0. -1.
    10030    2    1    2    0    0  0.00000000000E+00  0.00000000000E+00 -0.14086688561E+03  0.73473579222E+03  0.72110554353E+03 0.  0.
        2    1    3    3  502    0  0.81822778929E+02  0.18250655710E+03 -0.37609498982E+03  0.42597071720E+03  0.25500000920E-02 0. -1.
       -2    1    3    3    0  502 -0.81822778929E+02 -0.18250655710E+03  0.23522810421E+03  0.30876507502E+03  0.25500000920E-02 0.  1.
</event>
<event>
 5   0  0.8738044E-03  0.8883143E+03  0.7818609E-02  0.9440308E-01
        1   -1    0    0  501    0  0.00000000000E+00  0.00000000000E+00  0.77313823093E+03  0.77313823094E+03  0.50400001928E-02 0.  1.
       -1   -1    0    0    0  501  0.00000000000E+00  0.00000000000E+00 -0.25516212443E+03  0.25516212448E+03  0.50400001928E-02 0. -1.
    10030    2    1    2    0    0  0.00000000000E+00  0.00000000000E+00  0.51797610650E+03  0.10283003554E+04  0.88831434417E+03 0.  0.
        3    1    3    3  502    0 -0.29527417376E+03 -0.25872680388E+03  0.49944626746E+03  0.63527394171E+03  0.10100000352E+00 0.  1.
       -3    1    3    3    0  502  0.29527417376E+03  0.25872680388E+03  0.18529839033E+02  0.39302641371E+03  0.10100000352E+00 0. -1.
</event>
<event>
 5   0  0.8885324E-03  0.7161281E+03  0.7818609E-02  0.9690042E-01
        1   -1    0    0  501    0  0.00000000000E+00  0.00000000000E+00  0.64286788343E+03  0.64286788345E+03  0.50400001928E-02 0. -1.
       -1   -1    0    0    0  501  0.00000000000E+00  0.00000000000E+00 -0.19943420901E+03  0.19943420907E+03  0.50400001928E-02 0.  1.
    10030    2    1    2    0    0  0.00000000000E+00  0.00000000000E+00  0.44343367442E+03  0.84230209253E+03  0.71612805521E+03 0.  0.
        2    1    3    3  502    0 -0.71660649106E+02 -0.19746180764E+03 -0.11934443755E+03  0.24159782467E+03  0.25500000920E-02 0.  1.
       -2    1    3    3    0  502  0.71660649106E+02  0.19746180764E+03  0.56277811197E+03  0.60070426786E+03  0.25500000920E-02 0. -1.
</event>
<event>
 5   0  0.1483326E-02  0.8365453E+03  0.7818609E-02  0.9508575E-01
        2   -1    0    0  501    0  0.00000000000E+00  0.00000000000E+00  0.17786700506E+03  0.17786700508E+03  0.25500000920E-02 0.  1.
       -2   -1    0    0    0  501  0.00000000000E+00  0.00000000000E+00 -0.98361147121E+03  0.98361147121E+03  0.25500000920E-02 0. -1.
    10030    2    1    2    0    0  0.00000000000E+00  0.00000000000E+00 -0.80574446615E+03  0.11614784763E+04  0.83654534016E+03 0.  0.
        1    1    3    3  502    0 -0.47151477313E+02  0.25717847268E+03  0.50417449500E+02  0.26628170772E+03  0.50400001928E-02 0.  1.
       -1    1    3    3    0  502  0.47151477313E+02 -0.25717847268E+03 -0.85616191565E+03  0.89519676857E+03  0.50400001928E-02 0. -1.
</event>
<event>
 5   0  0.5770125E-03  0.9135426E+03  0.7818609E-02  0.9408809E-01
       -4   -1    0    0    0  501  0.00000000000E+00  0.00000000000E+00  0.35400878133E+03  0.35401105937E+03  0.12699999809E+01 0.  1.
        4   -1    0    0  501    0  0.00000000000E+00  0.00000000000E+00 -0.58935905079E+03  0.58936041914E+03  0.12699999809E+01 0. -1.
    10030    2    1    2    0    0  0.00000000000E+00  0.00000000000E+00 -0.23535026947E+03  0.94337147851E+03  0.91354255354E+03 0.  0.
        1    1    3    3  502    0 -0.47027389890E+02 -0.36646885474E+03  0.15966257358E+03  0.40249612957E+03  0.50400001928E-02 0.  1.
       -1    1    3    3    0  502  0.47027389890E+02  0.36646885474E+03 -0.39501284305E+03  0.54087534894E+03  0.50400001928E-02 0. -1.
</event>
<event>
 5   0  0.8524692E-03  0.9119860E+03  0.7818609E-02  0.9410721E-01
       -1   -1    0    0    0  501  0.00000000000E+00  0.00000000000E+00  0.10553482484E+03  0.10553482496E+03  0.50400001928E-02 0.  1.
        1   -1    0    0  501    0  0.00000000000E+00  0.00000000000E+00 -0.19702465413E+04  0.19702465413E+04  0.50400001928E-02 0. -1.
    10030    2    1    2    0    0  0.00000000000E+00  0.00000000000E+00 -0.18647117164E+04  0.20757813662E+04  0.91198601689E+03 0.  0.
        5    1    3    3  502    0 -0.16730385344E+03 -0.29296782763E+03 -0.23419130841E+03  0.41071691752E+03  0.46999998093E+01 0.  1.
       -5    1    3    3    0  502  0.16730385344E+03  0.29296782763E+03 -0.16305204080E+04  0.16650644487E+04  0.46999998093E+01 0. -1.
</event>
<event>
 5   0  0.1441195E-02  0.8916014E+03  0.7818609E-02  0.9436141E-01
        2   -1    0    0  501    0  0.00000000000E+00  0.00000000000E+00  0.67435168172E+03  0.67435168173E+03  0.25500000920E-02 0.  1.
       -2   -1    0    0    0  501  0.00000000000E+00  0.00000000000E+00 -0.29471014849E+03  0.29471014850E+03  0.25500000920E-02 0. -1.
    10030    2    1    2    0    0  0.00000000000E+00  0.00000000000E+00  0.37964153323E+03  0.96906183023E+03  0.89160144518E+03 0.  0.
        5    1    3    3  502    0 -0.29298963461E+03  0.29090288866E+03  0.71451617336E+01  0.41296556752E+03  0.46999998093E+01 0. -1.
       -5    1    3    3    0  502  0.29298963461E+03 -0.29090288866E+03  0.37249637150E+03  0.55609626271E+03  0.46999998093E+01 0.  1.
</event>
<event>
 5   0  0.5770125E-03  0.9221347E+03  0.7818609E-02  0.9398327E-01
        4   -1    0    0  501    0  0.00000000000E+00  0.00000000000E+00  0.54890367505E+03  0.54890514425E+03  0.12699999809E+01 0.  1.
       -4   -1    0    0    0  501  0.00000000000E+00  0.00000000000E+00 -0.38728366709E+03  0.38728574941E+03  0.12699999809E+01 0. -1.
    10030    2    1    2    0    0  0.00000000000E+00  0.00000000000E+00  0.16162000796E+03  0.93619089366E+03  0.92213467693E+03 0.  0.
        3    1    3    3  502    0  0.42494119535E+03  0.17088685271E+03  0.13458669996E+03  0.47737922655E+03  0.10100000352E+00 0. -1.
       -3    1    3    3    0  502 -0.42494119535E+03 -0.17088685271E+03  0.27033307996E+02  0.45881166711E+03  0.10100000352E+00 0.  1.
</event>
<event>
 5   0  0.8738044E-03  0.9039433E+03  0.7818609E-02  0.9420665E-01
        1   -1    0    0  501    0  0.00000000000E+00  0.00000000000E+00  0.95183869385E+03  0.95183869386E+03  0.50400001928E-02 0.  1.
       -1   -1    0    0    0  501  0.00000000000E+00  0.00000000000E+00 -0.21461450861E+03  0.21461450867E+03  0.50400001928E-02 0. -1.
    10030    2    1    2    0    0  0.00000000000E+00  0.00000000000E+00  0.73722418523E+03  0.11664532025E+04  0.90394334690E+03 0.  0.
        3    1    3    3  502    0 -0.11631275967E+03  0.29624840407E+03 -0.45498638891E+02  0.32149947328E+03  0.10100000352E+00 0. -1.
       -3    1    3    3    0  502  0.11631275967E+03 -0.29624840407E+03  0.78272282413E+03  0.84495372926E+03  0.10100000352E+00 0.  1.
</event>
<event>
 5   0  0.8738044E-03  0.9651568E+03  0.7818609E-02  0.9347608E-01
       -1   -1    0    0    0  501  0.00000000000E+00  0.00000000000E+00  0.14432297220E+04  0.14432297220E+04  0.50400001928E-02 0.  1.
        1   -1    0    0  501    0  0.00000000000E+00  0.00000000000E+00 -0.16136164522E+03  0.16136164530E+03  0.50400001928E-02 0. -1.
    10030    2    1    2    0    0  0.00000000000E+00  0.00000000000E+00  0.12818680768E+04  0.16045913673E+04  0.96515682135E+03 0.  0.
        3    1    3    3  502    0  0.32622624461E+03 -0.29698814452E+03  0.96611010169E+03  0.10620707413E+04  0.10100000352E+00 0.  1.
       -3    1    3    3    0  502 -0.32622624461E+03  0.29698814452E+03  0.31575797510E+03  0.54252062606E+03  0.10100000352E+00 0. -1.
</event>
<event>
 5   0  0.1535906E-02  0.9065156E+03  0.7818609E-02  0.9417473E-01
        2   -1    0    0  501    0  0.00000000000E+00  0.00000000000E+00  0.10439196647E+04  0.10439196647E+04  0.25500000920E-02 0. -1.
       -2   -1    0    0    0  501  0.00000000000E+00  0.00000000000E+00 -0.19679927258E+03  0.19679927260E+03  0.25500000920E-02 0.  1.
    10030    2    1    2    0    0  0.00000000000E+00  0.00000000000E+00  0.84712039216E+03  0.12407189373E+04  0.90651559427E+03 0.  0.
        2    1    3    3  502    0 -0.40062685549E+03  0.55898422906E+02  0.14368140046E+03  0.42926781369E+03  0.25500000920E-02 0.  1.
       -2    1    3    3    0  502  0.40062685549E+03 -0.55898422906E+02  0.70343899170E+03  0.81145112365E+03  0.25500000920E-02 0. -1.
</event>
<event>
 5   0  0.1440615E-02  0.8707505E+03  0.7818609E-02  0.9462902E-01
       -2   -1    0    0    0  501  0.00000000000E+00  0.00000000000E+00  0.17752778577E+03  0.17752778579E+03  0.25500000920E-02 0. -1.
        2   -1    0    0  501    0  0.00000000000E+00  0.00000000000E+00 -0.10677292457E+04  0.10677292457E+04  0.25500000920E-02 0.  1.
    10030    2    1    2    0    0  0.00000000000E+00  0.00000000000E+00 -0.89020145989E+03  0.12452570315E+04  0.87075050113E+03 0.  0.
        3    1    3    3  502    0  0.34551530561E+03 -0.24912338769E+03 -0.31632606185E+03  0.53057089659E+03  0.10100000352E+00 0. -1.
       -3    1    3    3    0  502 -0.34551530561E+03  0.24912338769E+03 -0.57387539804E+03  0.71468613487E+03  0.10100000352E+00 0.  1.
</event>
<event>
 5   0  0.8291252E-03  0.9006822E+03  0.7818609E-02  0.9424729E-01
       -1   -1    0    0    0  501  0.00000000000E+00  0.00000000000E+00  0.25023411452E+03  0.25023411457E+03  0.50400001928E-02 0. -1.
        1   -1    0    0  501    0  0.00000000000E+00  0.00000000000E+00 -0.81046952883E+03  0.81046952885E+03  0.50400001928E-02 0.  1.
    10030    2    1    2    0    0  0.00000000000E+00  0.00000000000E+00 -0.56023541432E+03  0.10607036434E+04  0.90068224125E+03 0.  0.
        1    1    3    3  502    0 -0.37548593757E+03 -0.19904070466E+03 -0.10464837155E+03  0.43767359198E+03  0.50400001928E-02 0.  1.
       -1    1    3    3    0  502  0.37548593757E+03  0.19904070466E+03 -0.45558704277E+03  0.62303005143E+03  0.50400001928E-02 0. -1.
</event>
<event>
 5   0  0.1483326E-02  0.9728496E+03  0.7818609E-02  0.9338835E-01
        2   -1    0    0  501    0  0.00000000000E+00  0.00000000000E+00  0.64755042057E+03  0.64755042057E+03  0.25500000920E-02 0. -1.
       -2   -1    0    0    0  501  0.00000000000E+00  0.00000000000E+00 -0.36539100135E+03  0.36539100135E+03  0.25500000920E-02 0.  1.
    10030    2    1    2    0    0  0.00000000000E+00  0.00000000000E+00  0.28215941922E+03  0.10129414219E+04  0.97284962168E+03 0.  0.
        1    1    3    3  502    0 -0.21973599735E+03  0.39354365966E+03 -0.49346811433E+02  0.45342654136E+03  0.50400001928E-02 0.  1.
       -1    1    3    3    0  502  0.21973599735E+03 -0.39354365966E+03  0.33150623066E+03  0.55951488057E+03  0.50400001928E-02 0. -1.
</event>
<event>
 5   0  0.1483326E-02  0.9028801E+03  0.7818609E-02  0.9421988E-01
        2   -1    0    0  501    0  0.00000000000E+00  0.00000000000E+00  0.63873357778E+03  0.63873357779E+03  0.25500000920E-02 0.  1.
       -2   -1    0    0    0  501  0.00000000000E+00  0.00000000000E+00 -0.31906592337E+03  0.31906592338E+03  0.25500000920E-02 0. -1.
    10030    2    1    2    0    0  0.00000000000E+00  0.00000000000E+00  0.31966765441E+03  0.95779950117E+03  0.90288010010E+03 0.  0.
        1    1    3    3  502    0  0.19612244238E+03 -0.14303632575E+03 -0.24394247280E+03  0.34413853744E+03  0.50400001928E-02 0. -1.
       -1    1    3    3    0  502 -0.19612244238E+03  0.14303632575E+03  0.56361012721E+03  0.61366096373E+03  0.50400001928E-02 0.  1.
</event>
<event>
 5   0  0.1441195E-02  0.8980155E+03  0.7818609E-02  0.9428065E-01
        2   -1    0    0  501    0  0.00000000000E+00  0.00000000000E+00  0.13536436920E+04  0.13536436920E+04  0.25500000920E-02 0.  1.
       -2   -1    0    0    0  501  0.00000000000E+00  0.00000000000E+00 -0.14893725667E+03  0.14893725669E+03  0.25500000920E-02 0. -1.
    10030    2    1    2    0    0  0.00000000000E+00  0.00000000000E+00  0.12047064354E+04  0.15025809487E+04  0.89801554110E+03 0.  0.
        5    1    3    3  502    0 -0.33356720756E+02 -0.41796814697E+03  0.87098691153E+03  0.96666971234E+03  0.46999998093E+01 0.  1.
       -5    1    3    3    0  502  0.33356720756E+02  0.41796814697E+03  0.33371952383E+03  0.53591123639E+03  0.46999998093E+01 0. -1.
</event>
<event>
 5   0  0.1440615E-02  0.8924388E+03  0.7818609E-02  0.9435083E-01
       -2   -1    0    0    0  501  0.00000000000E+00  0.00000000000E+00  0.31505673124E+03  0.31505673125E+03  0.25500000920E-02 0. -1.
        2   -1    0    0  501    0  0.00000000000E+00  0.00000000000E+00 -0.63198696500E+03  0.63198696501E+03  0.25500000920E-02 0.  1.
    10030    2    1    2    0    0  0.00000000000E+00  0.00000000000E+00 -0.31693023377E+03  0.94704369626E+03  0.89243878756E+03 0.  0.
        3    1    3    3  502    0 -0.13390663839E+03 -0.39425556676E+03  0.11799210689E+02  0.41654252040E+03  0.10100000352E+00 0. -1.
       -3    1    3    3    0  502  0.13390663839E+03  0.39425556676E+03 -0.32872944445E+03  0.53050117585E+03  0.10100000352E+00 0.  1.
</event>
<event>
 5   0  0.8612969E-03  0.9025570E+03  0.7818609E-02  0.9422391E-01
        1   -1    0    0  501    0  0.00000000000E+00  0.00000000000E+00  0.95324635893E+03  0.95324635895E+03  0.50400001928E-02 0. -1.
       -1   -1    0    0    0  501  0.00000000000E+00  0.00000000000E+00 -0.21364078553E+03  0.21364078559E+03  0.50400001928E-02 0.  1.
    10030    2    1    2    0    0  0.00000000000E+00  0.00000000000E+00  0.73960557341E+03  0.11668871445E+04  0.90255703635E+03 0.  0.
        4    1    3    3  502    0  0.16824048477E+03  0.36195506990E+03  0.64202552287E+03  0.75598592465E+03  0.12699999809E+01 0. -1.
       -4    1    3    3    0  502 -0.16824048477E+03 -0.36195506990E+03  0.97580050535E+02  0.41090121989E+03  0.12699999809E+01 0.  1.
</event>
<event>
 5   0  0.8291252E-03  0.9114119E+03  0.7818609E-02  0.9411427E-01
        1   -1    0    0  501    0  0.00000000000E+00  0.00000000000E+00  0.38169134750E+03  0.38169134753E+03  0.50400001928E-02 0. -1.
       -1   -1    0    0    0  501  0.00000000000E+00  0.00000000000E+00 -0.54407293767E+03  0.54407293769E+03  0.50400001928E-02 0.  1.
    10030    2    1    2    0    0  0.00000000000E+00  0.00000000000E+00 -0.16238159017E+03  0.92576428523E+03  0.91141194362E+03 0.  0.
        1    1    3    3  502    0  0.90465817685E+02 -0.30374958488E+03 -0.41379192949E+03  0.52122129218E+03  0.50400001928E-02 0.  1.
       -1    1    3    3    0  502 -0.90465817685E+02  0.30374958488E+03  0.25141033932E+03  0.40454299305E+03  0.50400001928E-02 0. -1.
</event>
<event>
 5   0  0.8291252E-03  0.8976041E+03  0.7818609E-02  0.9428581E-01
       -1   -1    0    0    0  501  0.00000000000E+00  0.00000000000E+00  0.87943037635E+03  0.87943037637E+03  0.50400001928E-02 0.  1.
        1   -1    0    0  501    0  0.00000000000E+00  0.00000000000E+00 -0.22903835736E+03  0.22903835742E+03  0.50400001928E-02 0. -1.
    10030    2    1    2    0    0  0.00000000000E+00  0.00000000000E+00  0.65039201899E+03  0.11084687338E+04  0.89760411954E+03 0.  0.
        1    1    3    3  502    0 -0.37627702580E+02 -0.15945239072E+02 -0.22673586656E+03  0.23038933972E+03  0.50400001928E-02 0. -1.
       -1    1    3    3    0  502  0.37627702580E+02  0.15945239072E+02  0.87712788554E+03  0.87807939406E+03  0.50400001928E-02 0.  1.
</event>
<event>
 5   0  0.1441195E-02  0.7721308E+03  0.7818609E-02  0.9601256E-01
        2   -1    0    0  501    0  0.00000000000E+00  0.00000000000E+00  0.25904128693E+03  0.25904128694E+03  0.25500000920E-02 0. -1.
       -2   -1    0    0    0  501  0.00000000000E+00  0.00000000000E+00 -0.57537741303E+03  0.57537741303E+03  0.25500000920E-02 0.  1.
    10030    2    1    2    0    0  0.00000000000E+00  0.00000000000E+00 -0.31633612610E+03  0.83441869998E+03  0.77213083231E+03 0.  0.
        5    1    3    3  502    0  0.21278731004E+03 -0.28723280828E+03 -0.31567657314E+03  0.47692233570E+03  0.46999998093E+01 0.  1.
       -5    1    3    3    0  502 -0.21278731004E+03  0.28723280828E+03 -0.65955295971E+00  0.35749636428E+03  0.46999998093E+01 0. -1.
</event>
<event>
 5   0  0.1483326E-02  0.8804498E+03  0.7818609E-02  0.9450356E-01
       -2   -1    0    0    0  501  0.00000000000E+00  0.00000000000E+00  0.12886945015E+03  0.12886945018E+03  0.25500000920E-02 0. -1.
        2   -1    0    0  501    0  0.00000000000E+00  0.00000000000E+00 -0.15038318288E+04  0.15038318288E+04  0.25500000920E-02 0.  1.
    10030    2    1    2    0    0  0.00000000000E+00  0.00000000000E+00 -0.13749623787E+04  0.16327012790E+04  0.88044984167E+03 0.  0.
        1    1    3    3  502    0  0.24781599404E+03 -0.30588583089E+03 -0.32211808356E+03  0.50866390498E+03  0.50400001928E-02 0. -1.
       -1    1    3    3    0  502 -0.24781599404E+03  0.30588583089E+03 -0.10528442951E+04  0.11240373740E+04  0.50400001928E-02 0.  1.
</event>
<event>
 5   0  0.8738044E-03  0.8943054E+03  0.7818609E-02  0.9432728E-01
        1   -1    0    0  501    0  0.00000000000E+00  0.00000000000E+00  0.16792831847E+04  0.16792831848E+04  0.50400001928E-02 0.  1.
       -1   -1    0    0    0  501  0.00000000000E+00  0.00000000000E+00 -0.11906599043E+03  0.11906599053E+03  0.50400001928E-02 0. -1.
    10030    2    1    2    0    0  0.00000000000E+00  0.00000000000E+00  0.15602171943E+04  0.17983491753E+04  0.89430535211E+03 0.  0.
        3    1    3    3  502    0 -0.17429611198E+03  0.18341777755E+03  0.15214815305E+04  0.15423771502E+04  0.10100000352E+00 0.  1.
       -3    1    3    3    0  502  0.17429611198E+03 -0.18341777755E+03  0.38735663871E+02  0.25597202509E+03  0.10100000352E+00 0. -1.
</event>
<event>
 5   0  0.8738044E-03  0.8901721E+03  0.7818609E-02  0.9437951E-01
        1   -1    0    0  501    0  0.00000000000E+00  0.00000000000E+00  0.39786067659E+03  0.39786067663E+03  0.50400001928E-02 0.  1.
       -1   -1    0    0    0  501  0.00000000000E+00  0.00000000000E+00 -0.49791698056E+03  0.49791698059E+03  0.50400001928E-02 0. -1.
    10030    2    1    2    0    0  0.00000000000E+00  0.00000000000E+00 -0.10005630397E+03  0.89577765722E+03  0.89017208853E+03 0.  0.
        3    1    3    3  502    0  0.42033084940E+03 -0.13951202960E+03 -0.54780765797E+01  0.44291268765E+03  0.10100000352E+00 0. -1.
       -3    1    3    3    0  502 -0.42033084940E+03  0.13951202960E+03 -0.94578227390E+02  0.45286496956E+03  0.10100000352E+00 0.  1.
</event>
<event>
 5   0  0.1483326E-02  0.8862819E+03  0.7818609E-02  0.9442894E-01
       -2   -1    0    0    0  501  0.00000000000E+00  0.00000000000E+00  0.34622460799E+03  0.34622460800E+03  0.25500000920E-02 0.  1.
        2   -1    0    0  501    0  0.00000000000E+00  0.00000000000E+00 -0.56718649807E+03  0.56718649807E+03  0.25500000920E-02 0. -1.
    10030    2    1    2    0    0  0.00000000000E+00  0.00000000000E+00 -0.22096189007E+03  0.91341110608E+03  0.88628194828E+03 0.  0.
        1    1    3    3  502    0  0.14440682835E+03 -0.15809308257E+03 -0.51033529936E+03  0.55343371115E+03  0.50400001928E-02 0.  1.
       -1    1    3    3    0  502 -0.14440682835E+03  0.15809308257E+03  0.28937340929E+03  0.35997739493E+03  0.50400001928E-02 0. -1.
</event>
<event>
 5   0  0.8291252E-03  0.8996928E+03  0.7818609E-02  0.9425966E-01
       -1   -1    0    0    0  501  0.00000000000E+00  0.00000000000E+00  0.36813882136E+03  0.36813882140E+03  0.50400001928E-02 0. -1.
        1   -1    0    0  501    0  0.00000000000E+00  0.00000000000E+00 -0.54968875667E+03  0.54968875669E+03  0.50400001928E-02 0.  1.
    10030    2    1    2    0    0  0.00000000000E+00  0.00000000000E+00 -0.18154993530E+03  0.91782757809E+03  0.89969277206E+03 0.  0.
        1    1    3    3  502    0  0.35201979643E+02 -0.17640971935E+02 -0.54792740554E+03  0.54934035445E+03  0.50400001928E-02 0.  1.
       -1    1    3    3    0  502 -0.35201979643E+02  0.17640971935E+02  0.36637747024E+03  0.36848722364E+03  0.50400001928E-02 0. -1.
</event>
<event>
 5   0  0.8885324E-03  0.8872273E+03  0.7818609E-02  0.9441690E-01
       -1   -1    0    0    0  501  0.00000000000E+00  0.00000000000E+00  0.29736265690E+03  0.29736265695E+03  0.50400001928E-02 0. -1.
        1   -1    0    0  501    0  0.00000000000E+00  0.00000000000E+00 -0.66179480725E+03  0.66179480726E+03  0.50400001928E-02 0.  1.
    10030    2    1    2    0    0  0.00000000000E+00  0.00000000000E+00 -0.36443215034E+03  0.95915746421E+03  0.88722728145E+03 0.  0.
        2    1    3    3  502    0  0.99166949982E+02  0.18974037148E+02 -0.64920828686E+03  0.65701255528E+03  0.25500000920E-02 0.  1.
       -2    1    3    3    0  502 -0.99166949982E+02 -0.18974037148E+02  0.28477613652E+03  0.30214490893E+03  0.25500000920E-02 0. -1.
</event>
<event>
 5   0  0.8612969E-03  0.8594839E+03  0.7818609E-02  0.9477696E-01
       -1   -1    0    0    0  501  0.00000000000E+00  0.00000000000E+00  0.38048820033E+03  0.38048820037E+03  0.50400001928E-02 0.  1.
        1   -1    0    0  501    0  0.00000000000E+00  0.00000000000E+00 -0.48537158633E+03  0.48537158636E+03  0.50400001928E-02 0. -1.
    10030    2    1    2    0    0  0.00000000000E+00  0.00000000000E+00 -0.10488338600E+03  0.86585978673E+03  0.85948394145E+03 0.  0.
        4    1    3    3  502    0  0.35073279954E+03  0.16298333040E+03 -0.24118005459E+03  0.45579216129E+03  0.12699999809E+01 0. -1.
       -4    1    3    3    0  502 -0.35073279954E+03 -0.16298333040E+03  0.13629666859E+03  0.41006762544E+03  0.12699999809E+01 0.  1.
</event>
<event>
 5   0  0.8885324E-03  0.8553760E+03  0.7818609E-02  0.9483150E-01
        1   -1    0    0  501    0  0.00000000000E+00  0.00000000000E+00  0.10039910242E+04  0.10039910242E+04  0.50400001928E-02 0.  1.
       -1   -1    0    0    0  501  0.00000000000E+00  0.00000000000E+00 -0.18218988081E+03  0.18218988088E+03  0.50400001928E-02 0. -1.
    10030    2    1    2    0    0  0.00000000000E+00  0.00000000000E+00  0.82180114342E+03  0.11861809051E+04  0.85537595263E+03 0.  0.
        2    1    3    3  502    0  0.29124540593E+03 -0.26709913430E+03  0.18408895663E+03  0.43595249509E+03  0.25500000920E-02 0. -1.
       -2    1    3    3    0  502 -0.29124540593E+03  0.26709913430E+03  0.63771218678E+03  0.75022841002E+03  0.25500000920E-02 0.  1.
</event>
<event>
 5   0  0.8291252E-03  0.8772027E+03  0.7818609E-02  0.9454537E-01
       -1   -1    0    0    0  501  0.00000000000E+00  0.00000000000E+00  0.73086596820E+03  0.73086596822E+03  0.50400001928E-02 0.  1.
        1   -1    0    0  501    0  0.00000000000E+00  0.00000000000E+00 -0.26320989304E+03  0.26320989309E+03  0.50400001928E-02 0. -1.
    10030    2    1    2    0    0  0.00000000000E+00  0.00000000000E+00  0.46765607516E+03  0.99407586131E+03  0.87720272082E+03 0.  0.
        1    1    3    3  502    0 -0.24409675248E+03 -0.19254843346E+02 -0.17854638941E+03  0.30303924954E+03  0.50400001928E-02 0. -1.
       -1    1    3    3    0  502  0.24409675248E+03  0.19254843346E+02  0.64620246457E+03  0.69103661177E+03  0.50400001928E-02 0.  1.
</event>
<event>
 5   0  0.8738044E-03  0.9135882E+03  0.7818609E-02  0.9408753E-01
       -1   -1    0    0    0  501  0.00000000000E+00  0.00000000000E+00  0.77296882469E+03  0.77296882471E+03  0.50400001928E-02 0. -1.
        1   -1    0    0  501    0  0.00000000000E+00  0.00000000000E+00 -0.26994731784E+03  0.26994731789E+03  0.50400001928E-02 0.  1.
    10030    2    1    2    0    0  0.00000000000E+00  0.00000000000E+00  0.50302150685E+03  0.10429161426E+04  0.91358822461E+03 0.  0.
        3    1    3    3  502    0  0.12651366282E+03  0.42617195601E+03  0.13160556177E+03  0.46362514714E+03  0.10100000352E+00 0. -1.
       -3    1    3    3    0  502 -0.12651366282E+03 -0.42617195601E+03  0.37141594507E+03  0.57929099546E+03  0.10100000352E+00 0.  1.
</event>
<event>
 5   0  0.8612969E-03  0.9041192E+03  0.7818609E-02  0.9420447E-01
        1   -1    0    0  501    0  0.00000000000E+00  0.00000000000E+00  0.12361712959E+04  0.12361712959E+04  0.50400001928E-02 0. -1.
       -1   -1    0    0    0  501  0.00000000000E+00  0.00000000000E+00 -0.16531518397E+03  0.16531518405E+03  0.50400001928E-02 0.  1.
    10030    2    1    2    0    0  0.00000000000E+00  0.00000000000E+00  0.10708561119E+04  0.14014864799E+04  0.90411920732E+03 0.  0.
        4    1    3    3  502    0  0.10249945189E+03 -0.10290320574E+03  0.11990157443E+04  0.12077812614E+04  0.12699999809E+01 0. -1.
       -4    1    3    3    0  502 -0.10249945189E+03  0.10290320574E+03 -0.12815963244E+03  0.19370521850E+03  0.12699999809E+01 0.  1.
</event>
<event>
 5   0  0.1440615E-02  0.9048126E+03  0.7818609E-02  0.9419585E-01
        2   -1    0    0  501    0  0.00000000000E+00  0.00000000000E+00  0.14885616539E+04  0.14885616539E+04  0.25500000920E-02 0. -1.
       -2   -1    0    0    0  501  0.00000000000E+00  0.00000000000E+00 -0.13749612235E+03  0.13749612237E+03  0.25500000920E-02 0.  1.
    10030    2    1    2    0    0  0.00000000000E+00  0.00000000000E+00  0.13510655315E+04  0.16260577762E+04  0.90481258900E+03 0.  0.
        3    1    3    3  502    0 -0.31026550844E+03 -0.50937316672E+02  0.90951213803E+02  0.32730937880E+03  0.10100000352E+00 0.  1.
       -3    1    3    3    0  502  0.31026550844E+03  0.50937316672E+02  0.12601143177E+04  0.12987483974E+04  0.10100000352E+00 0. -1.
</event>
<event>
 5   0  0.8885324E-03  0.9290958E+03  0.7818609E-02  0.9389924E-01
        1   -1    0    0  501    0  0.00000000000E+00  0.00000000000E+00  0.13782572460E+04  0.13782572460E+04  0.50400001928E-02 0.  1.
       -1   -1    0    0    0  501  0.00000000000E+00  0.00000000000E+00 -0.15657800174E+03  0.15657800182E+03  0.50400001928E-02 0. -1.
    10030    2    1    2    0    0  0.00000000000E+00  0.00000000000E+00  0.12216792442E+04  0.15348352478E+04  0.92909583042E+03 0.  0.
        2    1    3    3  502    0  0.10542650237E+03  0.27283702656E+03  0.14642222275E+02  0.29286376550E+03  0.25500000920E-02 0. -1.
       -2    1    3    3    0  502 -0.10542650237E+03 -0.27283702656E+03  0.12070370219E+04  0.12419714823E+04  0.25500000920E-02 0.  1.
</event>
<event>
 5   0  0.8738044E-03  0.8747386E+03  0.7818609E-02  0.9457722E-01
        1   -1    0    0  501    0  0.00000000000E+00  0.00000000000E+00  0.49462408684E+03  0.49462408687E+03  0.50400001928E-02 0. -1.
       -1   -1    0    0    0  501  0.00000000000E+00  0.00000000000E+00 -0.38674196296E+03  0.38674196300E+03  0.50400001928E-02 0.  1.
    10030    2    1    2    0    0  0.00000000000E+00  0.00000000000E+00  0.10788212388E+03  0.88136604986E+03  0.87473856734E+03 0.  0.
        3    1    3    3  502    0  0.23804819051E+03  0.13136291947E+03 -0.29124577885E+03  0.39843101225E+03  0.10100000352E+00 0.  1.
       -3    1    3    3    0  502 -0.23804819051E+03 -0.13136291947E+03  0.39912790273E+03  0.48293503762E+03  0.10100000352E+00 0. -1.
</event>
<event>
 5   0  0.5770125E-03  0.8686432E+03  0.7818609E-02  0.9465651E-01
       -4   -1    0    0    0  501  0.00000000000E+00  0.00000000000E+00  0.57745367482E+03  0.57745507139E+03  0.12699999809E+01 0.  1.
        4   -1    0    0  501    0  0.00000000000E+00  0.00000000000E+00 -0.32666427567E+03  0.32666674440E+03  0.12699999809E+01 0. -1.
    10030    2    1    2    0    0  0.00000000000E+00  0.00000000000E+00  0.25078939915E+03  0.90412181579E+03  0.86864315749E+03 0.  0.
        3    1    3    3  502    0 -0.14361569615E+03 -0.14478865745E+03 -0.27373326126E+03  0.34134898862E+03  0.10100000352E+00 0. -1.
       -3    1    3    3    0  502  0.14361569615E+03  0.14478865745E+03  0.52452266042E+03  0.56277282717E+03  0.10100000352E+00 0.  1.
</event>
<event>
 5   0  0.1483326E-02  0.8988818E+03  0.7818609E-02  0.9426980E-01
       -2   -1    0    0    0  501  0.00000000000E+00  0.00000000000E+00  0.30170911609E+03  0.30170911610E+03  0.25500000920E-02 0. -1.
        2   -1    0    0  501    0  0.00000000000E+00  0.00000000000E+00 -0.66950955278E+03  0.66950955279E+03  0.25500000920E-02 0.  1.
    10030    2    1    2    0    0  0.00000000000E+00  0.00000000000E+00 -0.36780043669E+03  0.97121866889E+03  0.89888182848E+03 0.  0.
        1    1    3    3  502    0  0.44645764596E+03 -0.40373255218E+02 -0.21878976742E+03  0.49882200405E+03  0.50400001928E-02 0.  1.
       -1    1    3    3    0  502 -0.44645764596E+03  0.40373255218E+02 -0.14901066927E+03  0.47239666484E+03  0.50400001928E-02 0. -1.
</event>
<event>
 5   0  0.5770125E-03  0.9101673E+03  0.7818609E-02  0.9412960E-01
        3   -1    0    0  501    0  0.00000000000E+00  0.00000000000E+00  0.66905005551E+03  0.66905006314E+03  0.10100000352E+00 0.  1.
       -3   -1    0    0    0  501  0.00000000000E+00  0.00000000000E+00 -0.30954500778E+03  0.30954502425E+03  0.10100000352E+00 0. -1.
    10030    2    1    2    0    0  0.00000000000E+00  0.00000000000E+00  0.35950504774E+03  0.97859508739E+03  0.91016727348E+03 0.  0.
        3    1    3    3  502    0  0.12760653529E+03 -0.37101515317E+01 -0.28989869545E+03  0.31676246131E+03  0.10100000352E+00 0. -1.
       -3    1    3    3    0  502 -0.12760653529E+03  0.37101515317E+01  0.64940374319E+03  0.66183262608E+03  0.10100000352E+00 0.  1.
</event>
<event>
 5   0  0.8291252E-03  0.9412338E+03  0.7818609E-02  0.9375456E-01
        1   -1    0    0  501    0  0.00000000000E+00  0.00000000000E+00  0.47571213869E+03  0.47571213872E+03  0.50400001928E-02 0. -1.
       -1   -1    0    0    0  501  0.00000000000E+00  0.00000000000E+00 -0.46557626941E+03  0.46557626943E+03  0.50400001928E-02 0.  1.
    10030    2    1    2    0    0  0.00000000000E+00  0.00000000000E+00  0.10135869281E+02  0.94128840815E+03  0.94123383464E+03 0.  0.
        1    1    3    3  502    0 -0.19717269621E+03 -0.38562590215E+03 -0.17905106231E+03  0.46866159591E+03  0.50400001928E-02 0.  1.
       -1    1    3    3    0  502  0.19717269621E+03  0.38562590215E+03  0.18918693160E+03  0.47262681224E+03  0.50400001928E-02 0. -1.
</event>
<event>
 5   0  0.1535906E-02  0.9008421E+03  0.7818609E-02  0.9424529E-01
       -2   -1    0    0    0  501  0.00000000000E+00  0.00000000000E+00  0.20100740153E+03  0.20100740154E+03  0.25500000920E-02 0.  1.
        2   -1    0    0  501    0  0.00000000000E+00  0.00000000000E+00 -0.10093116234E+04  0.10093116235E+04  0.25500000920E-02 0. -1.
    10030    2    1    2    0    0  0.00000000000E+00  0.00000000000E+00 -0.80830422192E+03  0.12103190250E+04  0.90084206556E+03 0.  0.
        2    1    3    3  502    0  0.25191125170E+03 -0.20459696280E+03 -0.82380179424E+03  0.88542000887E+03  0.25500000920E-02 0. -1.
       -2    1    3    3    0  502 -0.25191125170E+03  0.20459696280E+03  0.15497572316E+02  0.32489901612E+03  0.25500000920E-02 0.  1.
</event>
<event>
 5   0  0.8524692E-03  0.9039588E+03  0.7818609E-02  0.9420646E-01
       -1   -1    0    0    0  501  0.00000000000E+00  0.00000000000E+00  0.52395625078E+03  0.52395625080E+03  0.50400001928E-02 0. -1.
        1   -1    0    0  501    0  0.00000000000E+00  0.00000000000E+00 -0.38989011083E+03  0.38989011087E+03  0.50400001928E-02 0.  1.
    10030    2    1    2    0    0  0.00000000000E+00  0.00000000000E+00  0.13406613995E+03  0.91384636167E+03  0.90395876170E+03 0.  0.
        5    1    3    3  502    0 -0.11353391155E+03 -0.22433009619E+03  0.44670639150E+03  0.51262328404E+03  0.46999998093E+01 0. -1.
       -5    1    3    3    0  502  0.11353391155E+03  0.22433009619E+03 -0.31264025156E+03  0.40122307763E+03  0.46999998093E+01 0.  1.
</event>
<event>
 5   0  0.8612969E-03  0.9148046E+03  0.7818609E-02  0.9407262E-01
       -1   -1    0    0    0  501  0.00000000000E+00  0.00000000000E+00  0.72170106071E+03  0.72170106073E+03  0.50400001928E-02 0.  1.
        1   -1    0    0  501    0  0.00000000000E+00  0.00000000000E+00 -0.28989407485E+03  0.28989407489E+03  0.50400001928E-02 0. -1.
    10030    2    1    2    0    0  0.00000000000E+00  0.00000000000E+00  0.43180698587E+03  0.10115951356E+04  0.91480459409E+03 0.  0.
        4    1    3    3  502    0 -0.29657474909E+03 -0.32010729679E+03  0.64323593608E+02  0.44109454865E+03  0.12699999809E+01 0. -1.
       -4    1    3    3    0  502  0.29657474909E+03  0.32010729679E+03  0.36748339226E+03  0.57050058698E+03  0.12699999809E+01 0.  1.
</event>
<event>
 5   0  0.8738044E-03  0.9106584E+03  0.7818609E-02  0.9412355E-01
        1   -1    0    0  501    0  0.00000000000E+00  0.00000000000E+00  0.21693972009E+03  0.21693972015E+03  0.50400001928E-02 0.  1.
       -1   -1    0    0    0  501  0.00000000000E+00  0.00000000000E+00 -0.95567878220E+03  0.95567878221E+03  0.50400001928E-02 0. -1.
    10030    2    1    2    0    0  0.00000000000E+00  0.00000000000E+00 -0.73873906211E+03  0.11726185024E+04  0.91065841576E+03 0.  0.
        3    1    3    3  502    0  0.40049213619E+03  0.21609432721E+03 -0.38906559354E+03  0.59871759260E+03  0.10100000352E+00 0. -1.
       -3    1    3    3    0  502 -0.40049213619E+03 -0.21609432721E+03 -0.34967346857E+03  0.57390090976E+03  0.10100000352E+00 0.  1.
</event>
<event>
 5   0  0.5770125E-03  0.8951075E+03  0.7818609E-02  0.9431718E-01
        3   -1    0    0  501    0  0.00000000000E+00  0.00000000000E+00  0.13460443966E+03  0.13460447755E+03  0.10100000352E+00 0. -1.
       -3   -1    0    0    0  501  0.00000000000E+00  0.00000000000E+00 -0.14880959225E+04  0.14880959259E+04  0.10100000352E+00 0.  1.
    10030    2    1    2    0    0  0.00000000000E+00  0.00000000000E+00 -0.13534914828E+04  0.16227004035E+04  0.89510748256E+03 0.  0.
        4    1    3    3  502    0 -0.38131416152E+03  0.23231453886E+03 -0.73209586138E+03  0.85751763707E+03  0.12699999809E+01 0.  1.
       -4    1    3    3    0  502  0.38131416152E+03 -0.23231453886E+03 -0.62139562147E+03  0.76518276642E+03  0.12699999809E+01 0. -1.
</event>
<event>
 5   0  0.1440615E-02  0.9218700E+03  0.7818609E-02  0.9398648E-01
       -2   -1    0    0    0  501  0.00000000000E+00  0.00000000000E+00  0.33580502444E+03  0.33580502445E+03  0.25500000920E-02 0.  1.
        2   -1    0    0  501    0  0.00000000000E+00  0.00000000000E+00 -0.63269173007E+03  0.63269173007E+03  0.25500000920E-02 0. -1.
    10030    2    1    2    0    0  0.00000000000E+00  0.00000000000E+00 -0.29688670562E+03  0.96849675452E+03  0.92186997323E+03 0.  0.
        3    1    3    3  502    0 -0.12967574419E+03  0.18740299840E+03 -0.56936410610E+03  0.61327903760E+03  0.10100000352E+00 0.  1.
       -3    1    3    3    0  502  0.12967574419E+03 -0.18740299840E+03  0.27247740048E+03  0.35521771692E+03  0.10100000352E+00 0. -1.
</event>
<event>
 5   0  0.1454652E-02  0.9239630E+03  0.7818609E-02  0.9396113E-01
       -2   -1    0    0    0  501  0.00000000000E+00  0.00000000000E+00  0.11402994682E+04  0.11402994682E+04  0.25500000920E-02 0. -1.
        2   -1    0    0  501    0  0.00000000000E+00  0.00000000000E+00 -0.18716740434E+03  0.18716740436E+03  0.25500000920E-02 0.  1.
    10030    2    1    2    0    0  0.00000000000E+00  0.00000000000E+00  0.95313206381E+03  0.13274668725E+04  0.92396296817E+03 0.  0.
        4    1    3    3  502    0 -0.13120877046E+03  0.37948369752E+03  0.14831108034E+03  0.42804369822E+03  0.12699999809E+01 0. -1.
       -4    1    3    3    0  502  0.13120877046E+03 -0.37948369752E+03  0.80482098346E+03  0.89942317429E+03  0.12699999809E+01 0.  1.
</event>
<event>
 5   0  0.8612969E-03  0.8958976E+03  0.7818609E-02  0.9430724E-01
        1   -1    0    0  501    0  0.00000000000E+00  0.00000000000E+00  0.21837098400E+03  0.21837098405E+03  0.50400001928E-02 0.  1.
       -1   -1    0    0    0  501  0.00000000000E+00  0.00000000000E+00 -0.91888649168E+03  0.91888649169E+03  0.50400001928E-02 0. -1.
    10030    2    1    2    0    0  0.00000000000E+00  0.00000000000E+00 -0.70051550768E+03  0.11372574757E+04  0.89589764462E+03 0.  0.
        4    1    3    3  502    0 -0.91043357108E+00  0.12066602716E+03  0.19734830259E+03  0.23132030701E+03  0.12699999809E+01 0.  1.
       -4    1    3    3    0  502  0.91043357108E+00 -0.12066602716E+03 -0.89786381027E+03  0.90593716874E+03  0.12699999809E+01 0. -1.
</event>
<event>
 5   0  0.8524692E-03  0.8898697E+03  0.7818609E-02  0.9438334E-01
        1   -1    0    0  501    0  0.00000000000E+00  0.00000000000E+00  0.42759933076E+03  0.42759933079E+03  0.50400001928E-02 0.  1.
       -1   -1    0    0    0  501  0.00000000000E+00  0.00000000000E+00 -0.46297317296E+03  0.46297317299E+03  0.50400001928E-02 0. -1.
    10030    2    1    2    0    0  0.00000000000E+00  0.00000000000E+00 -0.35373842199E+02  0.89057250378E+03  0.88986969596E+03 0.  0.
        5    1    3    3  502    0  0.31229710649E+03  0.31665346550E+03 -0.29780711706E+02  0.44576662136E+03  0.46999998093E+01 0.  1.
       -5    1    3    3    0  502 -0.31229710649E+03 -0.31665346550E+03 -0.55931304930E+01  0.44480588242E+03  0.46999998093E+01 0. -1.
</event>
<event>
 5   0  0.1440615E-02  0.9245458E+03  0.7818609E-02  0.9395408E-01
       -2   -1    0    0    0  501  0.00000000000E+00  0.00000000000E+00  0.19058178955E+03  0.19058178957E+03  0.25500000920E-02 0.  1.
        2   -1    0    0  501    0  0.00000000000E+00  0.00000000000E+00 -0.11212836187E+04  0.11212836187E+04  0.25500000920E-02 0. -1.
    10030    2    1    2    0    0  0.00000000000E+00  0.00000000000E+00 -0.93070182915E+03  0.13118654083E+04  0.92454580991E+03 0.  0.
        3    1    3    3  502    0 -0.44547627311E+03  0.12309320052E+03 -0.45150761938E+03  0.64611158980E+03  0.10100000352E+00 0.  1.
       -3    1    3    3    0  502  0.44547627311E+03 -0.12309320052E+03 -0.47919420978E+03  0.66575381847E+03  0.10100000352E+00 0. -1.
</event>
<event>
 5   0  0.8612969E-03  0.8986317E+03  0.7818609E-02  0.9427294E-01
       -1   -1    0    0    0  501  0.00000000000E+00  0.00000000000E+00  0.60235854491E+03  0.60235854493E+03  0.50400001928E-02 0. -1.
        1   -1    0    0  501    0  0.00000000000E+00  0.00000000000E+00 -0.33515707048E+03  0.33515707052E+03  0.50400001928E-02 0.  1.
    10030    2    1    2    0    0  0.00000000000E+00  0.00000000000E+00  0.26720147443E+03  0.93751561545E+03  0.89863168277E+03 0.  0.
        4    1    3    3  502    0 -0.86921320316E+02 -0.48551677982E+02 -0.32350225794E+03  0.33847881049E+03  0.12699999809E+01 0.  1.
       -4    1    3    3    0  502  0.86921320316E+02  0.48551677982E+02  0.59070373237E+03  0.59903680496E+03  0.12699999809E+01 0. -1.
</event>
<event>
 5   0  0.1440615E-02  0.8036361E+03  0.7818609E-02  0.9554769E-01
        2   -1    0    0  501    0  0.00000000000E+00  0.00000000000E+00  0.93625956034E+02  0.93625956069E+02  0.25500000920E-02 0. -1.
       -2   -1    0    0    0  501  0.00000000000E+00  0.00000000000E+00 -0.17244977291E+04  0.17244977291E+04  0.25500000920E-02 0.  1.
    10030    2    1    2    0    0  0.00000000000E+00  0.00000000000E+00 -0.16308717730E+04  0.18181236851E+04  0.80363610819E+03 0.  0.
        3    1    3    3  502    0  0.23054498873E+03  0.29886000989E+03 -0.50367611566E+03  0.62941078560E+03  0.10100000352E+00 0.  1.
       -3    1    3    3    0  502 -0.23054498873E+03 -0.29886000989E+03 -0.11271956574E+04  0.11887128995E+04  0.10100000352E+00 0. -1.
</event>
<event>
 5   0  0.8524692E-03  0.9191152E+03  0.7818609E-02  0.9401997E-01
        1   -1    0    0  501    0  0.00000000000E+00  0.00000000000E+00  0.23700565805E+03  0.23700565810E+03  0.50400001928E-02 0. -1.
       -1   -1    0    0    0  501  0.00000000000E+00  0.00000000000E+00 -0.89108920686E+03  0.89108920687E+03  0.50400001928E-02 0.  1.
    10030    2    1    2    0    0  0.00000000000E+00  0.00000000000E+00 -0.65408354881E+03  0.11280948650E+04  0.91911519167E+03 0.  0.
        5    1    3    3  502    0  0.11177837656E+03 -0.34783106753E+03 -0.66914636410E+03  0.76240396352E+03  0.46999998093E+01 0.  1.
       -5    1    3    3    0  502 -0.11177837656E+03  0.34783106753E+03  0.15062815289E+02  0.36569090146E+03  0.46999998093E+01 0. -1.
</event>
<event>
 5   0  0.8885324E-03  0.9099180E+03  0.7818609E-02  0.9413268E-01
        1   -1    0    0  501    0  0.00000000000E+00  0.00000000000E+00  0.12107516496E+04  0.12107516496E+04  0.50400001928E-02 0. -1.
       -1   -1    0    0    0  501  0.00000000000E+00  0.00000000000E+00 -0.17095799122E+03  0.17095799129E+03  0.50400001928E-02 0.  1.
    10030    2    1    2    0    0  0.00000000000E+00  0.00000000000E+00  0.10397936584E+04  0.13817096409E+04  0.90991795222E+03 0.  0.
        2    1    3    3  502    0 -0.49739327939E+01  0.23463789137E+03  0.11117375772E+04  0.11362394645E+04  0.25500000920E-02 0. -1.
       -2    1    3    3    0  502  0.49739327939E+01 -0.23463789137E+03 -0.71943918789E+02  0.24547017646E+03  0.25500000920E-02 0.  1.
</event>
<event>
 5   0  0.1441195E-02  0.9170466E+03  0.7818609E-02  0.9404520E-01
        2   -1    0    0  501    0  0.00000000000E+00  0.00000000000E+00  0.55939343455E+03  0.55939343455E+03  0.25500000920E-02 0. -1.
       -2   -1    0    0    0  501  0.00000000000E+00  0.00000000000E+00 -0.37584214400E+03  0.37584214401E+03  0.25500000920E-02 0.  1.
    10030    2    1    2    0    0  0.00000000000E+00  0.00000000000E+00  0.18355129055E+03  0.93523557856E+03  0.91704662430E+03 0.  0.
        5    1    3    3  502    0  0.12209454019E+03  0.43083895869E+03 -0.86262632363E+01  0.44791270074E+03  0.46999998093E+01 0. -1.
       -5    1    3    3    0  502 -0.12209454019E+03 -0.43083895869E+03  0.19217755379E+03  0.48732287782E+03  0.46999998093E+01 0.  1.
</event>
<event>
 5   0  0.8291252E-03  0.7146239E+03  0.7818609E-02  0.9692545E-01
        1   -1    0    0  501    0  0.00000000000E+00  0.00000000000E+00  0.25109807178E+04  0.25109807178E+04  0.50400001928E-02 0. -1.
       -1   -1    0    0    0  501  0.00000000000E+00  0.00000000000E+00 -0.50845401014E+02  0.50845401263E+02  0.50400001928E-02 0.  1.
    10030    2    1    2    0    0  0.00000000000E+00  0.00000000000E+00  0.24601353168E+04  0.25618261190E+04  0.71462387830E+03 0.  0.
        1    1    3    3  502    0 -0.28343158604E+03  0.10482132112E+03  0.19135533102E+04  0.19372679846E+04  0.50400001928E-02 0. -1.
       -1    1    3    3    0  502  0.28343158604E+03 -0.10482132112E+03  0.54658200661E+03  0.62455813445E+03  0.50400001928E-02 0.  1.
</event>
<event>
 5   0  0.8291252E-03  0.8649961E+03  0.7818609E-02  0.9470428E-01
        1   -1    0    0  501    0  0.00000000000E+00  0.00000000000E+00  0.32847913385E+03  0.32847913389E+03  0.50400001928E-02 0.  1.
       -1   -1    0    0    0  501  0.00000000000E+00  0.00000000000E+00 -0.56945649093E+03  0.56945649095E+03  0.50400001928E-02 0. -1.
    10030    2    1    2    0    0  0.00000000000E+00  0.00000000000E+00 -0.24097735708E+03  0.89793562484E+03  0.86499612700E+03 0.  0.
        1    1    3    3  502    0  0.23514533703E+02  0.42997415593E+03 -0.78656907959E+02  0.43774149592E+03  0.50400001928E-02 0. -1.
       -1    1    3    3    0  502 -0.23514533703E+02 -0.42997415593E+03 -0.16232044913E+03  0.46019412892E+03  0.50400001928E-02 0.  1.
</event>
<event>
 5   0  0.1440615E-02  0.1055462E+04  0.7818609E-02  0.9249723E-01
        2   -1    0    0  501    0  0.00000000000E+00  0.00000000000E+00  0.93463859316E+03  0.93463859316E+03  0.25500000920E-02 0. -1.
       -2   -1    0    0    0  501  0.00000000000E+00  0.00000000000E+00 -0.29797600016E+03  0.29797600017E+03  0.25500000920E-02 0.  1.
    10030    2    1    2    0    0  0.00000000000E+00  0.00000000000E+00  0.63666259300E+03  0.12326145933E+04  0.10554617371E+04 0.  0.
        3    1    3    3  502    0  0.12438886659E+03  0.24318356979E+02  0.91660018995E+03  0.92532150685E+03  0.10100000352E+00 0. -1.
       -3    1    3    3    0  502 -0.12438886659E+03 -0.24318356979E+02 -0.27993759695E+03  0.30729308649E+03  0.10100000352E+00 0.  1.
</event>
<event>
 5   0  0.8612969E-03  0.8769353E+03  0.7818609E-02  0.9454882E-01
        1   -1    0    0  501    0  0.00000000000E+00  0.00000000000E+00  0.41738015005E+03  0.41738015008E+03  0.50400001928E-02 0.  1.
       -1   -1    0    0    0  501  0.00000000000E+00  0.00000000000E+00 -0.46062051662E+03  0.46062051665E+03  0.50400001928E-02 0. -1.
    10030    2    1    2    0    0  0.00000000000E+00  0.00000000000E+00 -0.43240366569E+02  0.87800066673E+03  0.87693525501E+03 0.  0.
        4    1    3    3  502    0 -0.41944310421E+02 -0.32953503720E+03 -0.30814890148E+03  0.45311149214E+03  0.12699999809E+01 0. -1.
       -4    1    3    3    0  502  0.41944310421E+02  0.32953503720E+03  0.26490853492E+03  0.42488917460E+03  0.12699999809E+01 0.  1.
</event>
<event>
 5   0  0.8291252E-03  0.8927185E+03  0.7818609E-02  0.9434730E-01
        1   -1    0    0  501    0  0.00000000000E+00  0.00000000000E+00  0.15896768046E+04  0.15896768046E+04  0.50400001928E-02 0. -1.
       -1   -1    0    0    0  501  0.00000000000E+00  0.00000000000E+00 -0.12533150704E+03  0.12533150714E+03  0.50400001928E-02 0.  1.
    10030    2    1    2    0    0  0.00000000000E+00  0.00000000000E+00  0.14643452975E+04  0.17150083117E+04  0.89271852163E+03 0.  0.
        1    1    3    3  502    0 -0.14484730445E+03  0.39815801407E+03  0.46235417481E+03  0.62712194090E+03  0.50400001928E-02 0.  1.
       -1    1    3    3    0  502  0.14484730445E+03 -0.39815801407E+03  0.10019911227E+04  0.10878863708E+04  0.50400001928E-02 0. -1.
</event>
<event>
 5   0  0.1441195E-02  0.9041928E+03  0.7818609E-02  0.9420355E-01
        2   -1    0    0  501    0  0.00000000000E+00  0.00000000000E+00  0.82654833849E+03  0.82654833850E+03  0.25500000920E-02 0.  1.
       -2   -1    0    0    0  501  0.00000000000E+00  0.00000000000E+00 -0.24728278348E+03  0.24728278349E+03  0.25500000920E-02 0. -1.
    10030    2    1    2    0    0  0.00000000000E+00  0.00000000000E+00  0.57926555502E+03  0.10738311220E+04  0.90419284189E+03 0.  0.
        5    1    3    3  502    0 -0.58109606159E+02  0.33429288517E+03 -0.65144847635E+02  0.34553494841E+03  0.46999998093E+01 0. -1.
       -5    1    3    3    0  502  0.58109606159E+02 -0.33429288517E+03  0.64441040265E+03  0.72829617358E+03  0.46999998093E+01 0.  1.
</event>
<event>
 5   0  0.8524692E-03  0.8997355E+03  0.7818609E-02  0.9425912E-01
        1   -1    0    0  501    0  0.00000000000E+00  0.00000000000E+00  0.18802892843E+04  0.18802892843E+04  0.50400001928E-02 0. -1.
       -1   -1    0    0    0  501  0.00000000000E+00  0.00000000000E+00 -0.10763289923E+03  0.10763289935E+03  0.50400001928E-02 0.  1.
    10030    2    1    2    0    0  0.00000000000E+00  0.00000000000E+00  0.17726563851E+04  0.19879221837E+04  0.89973548822E+03 0.  0.
        5    1    3    3  502    0 -0.25313496353E+03  0.81074987456E+02  0.84481536801E+02  0.27894387143E+03  0.46999998093E+01 0.  1.
       -5    1    3    3    0  502  0.25313496353E+03 -0.81074987456E+02  0.16881748483E+04  0.17089783122E+04  0.46999998093E+01 0. -1.
</event>
<event>
 5   0  0.1440615E-02  0.1002252E+04  0.7818609E-02  0.9306078E-01
       -2   -1    0    0    0  501  0.00000000000E+00  0.00000000000E+00  0.54808809587E+03  0.54808809588E+03  0.25500000920E-02 0.  1.
        2   -1    0    0  501    0  0.00000000000E+00  0.00000000000E+00 -0.45818788184E+03  0.45818788185E+03  0.25500000920E-02 0. -1.
    10030    2    1    2    0    0  0.00000000000E+00  0.00000000000E+00  0.89900214032E+02  0.10062759777E+04  0.10022521114E+04 0.  0.
        3    1    3    3  502    0  0.13057682829E+03  0.29278739248E+03  0.43166209077E+03  0.53768665233E+03  0.10100000352E+00 0.  1.
       -3    1    3    3    0  502 -0.13057682829E+03 -0.29278739248E+03 -0.34176187674E+03  0.46858932540E+03  0.10100000352E+00 0. -1.
</event>
<event>
 5   0  0.8885324E-03  0.8929841E+03  0.7818609E-02  0.9434394E-01
       -1   -1    0    0    0  501  0.00000000000E+00  0.00000000000E+00  0.81041082985E+03  0.81041082987E+03  0.50400001928E-02 0.  1.
        1   -1    0    0  501    0  0.00000000000E+00  0.00000000000E+00 -0.24599268520E+03  0.24599268526E+03  0.50400001928E-02 0. -1.
    10030    2    1    2    0    0  0.00000000000E+00  0.00000000000E+00  0.56441814465E+03  0.10564035151E+04  0.89298406747E+03 0.  0.
        2    1    3    3  502    0  0.20915176329E+03  0.26919966617E+03 -0.58902870280E+02  0.34595154067E+03  0.25500000920E-02 0.  1.
       -2    1    3    3    0  502 -0.20915176329E+03 -0.26919966617E+03  0.62332101493E+03  0.71045197446E+03  0.25500000920E-02 0. -1.
</event>
<event>
 5   0  0.8612969E-03  0.9029047E+03  0.7818609E-02  0.9421958E-01
       -1   -1    0    0    0  501  0.00000000000E+00  0.00000000000E+00  0.19108144656E+03  0.19108144662E+03  0.50400001928E-02 0.  1.
        1   -1    0    0  501    0  0.00000000000E+00  0.00000000000E+00 -0.10666092476E+04  0.10666092477E+04  0.50400001928E-02 0. -1.
    10030    2    1    2    0    0  0.00000000000E+00  0.00000000000E+00 -0.87552780109E+03  0.12576906943E+04  0.90290473030E+03 0.  0.
        4    1    3    3  502    0 -0.41021703718E+03 -0.15060119590E+02 -0.69948365085E+03  0.81103872627E+03  0.12699999809E+01 0. -1.
       -4    1    3    3    0  502  0.41021703718E+03  0.15060119590E+02 -0.17604415023E+03  0.44665196801E+03  0.12699999809E+01 0.  1.
</event>
<event>
 5   0  0.8291252E-03  0.8941148E+03  0.7818609E-02  0.9432968E-01
        1   -1    0    0  501    0  0.00000000000E+00  0.00000000000E+00  0.11584065873E+04  0.11584065874E+04  0.50400001928E-02 0.  1.
       -1   -1    0    0    0  501  0.00000000000E+00  0.00000000000E+00 -0.17253037003E+03  0.17253037010E+03  0.50400001928E-02 0. -1.
    10030    2    1    2    0    0  0.00000000000E+00  0.00000000000E+00  0.98587621731E+03  0.13309369575E+04  0.89411479624E+03 0.  0.
        1    1    3    3  502    0  0.41922489024E+03  0.15209010830E+03  0.53952309014E+03  0.69997576705E+03  0.50400001928E-02 0. -1.
       -1    1    3    3    0  502 -0.41922489024E+03 -0.15209010830E+03  0.44635312717E+03  0.63096119041E+03  0.50400001928E-02 0.  1.
</event>
<event>
 5   0  0.8612969E-03  0.8302695E+03  0.7818609E-02  0.9517208E-01
        1   -1    0    0  501    0  0.00000000000E+00  0.00000000000E+00  0.57092971818E+03  0.57092971821E+03  0.50400001928E-02 0. -1.
       -1   -1    0    0    0  501  0.00000000000E+00  0.00000000000E+00 -0.30185300212E+03  0.30185300217E+03  0.50400001928E-02 0.  1.
    10030    2    1    2    0    0  0.00000000000E+00  0.00000000000E+00  0.26907671606E+03  0.87278272037E+03  0.83026947304E+03 0.  0.
        4    1    3    3  502    0 -0.97849547818E+02 -0.12369460029E+03 -0.26912998961E+03  0.31194142456E+03  0.12699999809E+01 0.  1.
       -4    1    3    3    0  502  0.97849547818E+02  0.12369460029E+03  0.53820670567E+03  0.56084129581E+03  0.12699999809E+01 0. -1.
</event>
<event>
 5   0  0.1535906E-02  0.9010709E+03  0.7818609E-02  0.9424244E-01
        2   -1    0    0  501    0  0.00000000000E+00  0.00000000000E+00  0.12508661098E+04  0.12508661098E+04  0.25500000920E-02 0.  1.
       -2   -1    0    0    0  501  0.00000000000E+00  0.00000000000E+00 -0.16227331442E+03  0.16227331444E+03  0.25500000920E-02 0. -1.
    10030    2    1    2    0    0  0.00000000000E+00  0.00000000000E+00  0.10885927954E+04  0.14131394243E+04  0.90107089522E+03 0.  0.
        2    1    3    3  502    0  0.42918399274E+03  0.45186180164E+02  0.74721563523E+03  0.86288579548E+03  0.25500000920E-02 0. -1.
       -2    1    3    3    0  502 -0.42918399274E+03 -0.45186180164E+02  0.34137716017E+03  0.55025362878E+03  0.25500000920E-02 0.  1.
</event>
<event>
 5   0  0.1483326E-02  0.9047080E+03  0.7818609E-02  0.9419715E-01
        2   -1    0    0  501    0  0.00000000000E+00  0.00000000000E+00  0.14846527557E+04  0.14846527557E+04  0.25500000920E-02 0.  1.
       -2   -1    0    0    0  501  0.00000000000E+00  0.00000000000E+00 -0.13782624822E+03  0.13782624825E+03  0.25500000920E-02 0. -1.
    10030    2    1    2    0    0  0.00000000000E+00  0.00000000000E+00  0.13468265075E+04  0.16224790040E+04  0.90470795123E+03 0.  0.
        1    1    3    3  502    0 -0.25133964437E+02  0.44859893360E+03  0.57934403619E+03  0.73315225683E+03  0.50400001928E-02 0.  1.
       -1    1    3    3    0  502  0.25133964437E+02 -0.44859893360E+03  0.76748247133E+03  0.88932674716E+03  0.50400001928E-02 0. -1.
</event>
<event>
 5   0  0.1440615E-02  0.7864461E+03  0.7818609E-02  0.9579846E-01
        2   -1    0    0  501    0  0.00000000000E+00  0.00000000000E+00  0.33428224504E+03  0.33428224505E+03  0.25500000920E-02 0.  1.
       -2   -1    0    0    0  501  0.00000000000E+00  0.00000000000E+00 -0.46255627092E+03  0.46255627092E+03  0.25500000920E-02 0. -1.
    10030    2    1    2    0    0  0.00000000000E+00  0.00000000000E+00 -0.12827402587E+03  0.79683851597E+03  0.78644605335E+03 0.  0.
        3    1    3    3  502    0 -0.27529638288E+03 -0.15542173158E+03 -0.30106530619E+03  0.43655966587E+03  0.10100000352E+00 0. -1.
       -3    1    3    3    0  502  0.27529638288E+03  0.15542173158E+03  0.17279128032E+03  0.36027885010E+03  0.10100000352E+00 0.  1.
</event>
<event>
 5   0  0.1483326E-02  0.8991430E+03  0.7818609E-02  0.9426653E-01
       -2   -1    0    0    0  501  0.00000000000E+00  0.00000000000E+00  0.92337107442E+02  0.92337107478E+02  0.25500000920E-02 0.  1.
        2   -1    0    0  501    0  0.00000000000E+00  0.00000000000E+00 -0.21888766065E+04  0.21888766065E+04  0.25500000920E-02 0. -1.
    10030    2    1    2    0    0  0.00000000000E+00  0.00000000000E+00 -0.20965394990E+04  0.22812137139E+04  0.89914300182E+03 0.  0.
        1    1    3    3  502    0  0.20279912414E+02 -0.30457988309E+03 -0.18856440677E+04  0.19101920663E+04  0.50400001928E-02 0. -1.
       -1    1    3    3    0  502 -0.20279912414E+02  0.30457988309E+03 -0.21089543127E+03  0.37102164760E+03  0.50400001928E-02 0.  1.
</event>
<event>
 5   0  0.1454652E-02  0.9036658E+03  0.7818609E-02  0.9421011E-01
        2   -1    0    0  501    0  0.00000000000E+00  0.00000000000E+00  0.11130603983E+04  0.11130603983E+04  0.25500000920E-02 0.  1.
       -2   -1    0    0    0  501  0.00000000000E+00  0.00000000000E+00 -0.18341590366E+03  0.18341590368E+03  0.25500000920E-02 0. -1.
    10030    2    1    2    0    0  0.00000000000E+00  0.00000000000E+00  0.92964449466E+03  0.12964763020E+04  0.90366582054E+03 0.  0.
        4    1    3    3  502    0 -0.35505025849E+03  0.26178092440E+03  0.32453503217E+03  0.54764453657E+03  0.12699999809E+01 0. -1.
       -4    1    3    3    0  502  0.35505025849E+03 -0.26178092440E+03  0.60510946249E+03  0.74883176543E+03  0.12699999809E+01 0.  1.
</event>
<event>
 5   0  0.8738044E-03  0.9130101E+03  0.7818609E-02  0.9409463E-01
        1   -1    0    0  501    0  0.00000000000E+00  0.00000000000E+00  0.81344750903E+03  0.81344750905E+03  0.50400001928E-02 0. -1.
       -1   -1    0    0    0  501  0.00000000000E+00  0.00000000000E+00 -0.25618966719E+03  0.25618966724E+03  0.50400001928E-02 0.  1.
    10030    2    1    2    0    0  0.00000000000E+00  0.00000000000E+00  0.55725784184E+03  0.10696371763E+04  0.91301006927E+03 0.  0.
        3    1    3    3  502    0 -0.83616835068E+01 -0.56714661656E+02  0.80921362552E+03  0.81124174728E+03  0.10100000352E+00 0. -1.
       -3    1    3    3    0  502  0.83616835068E+01  0.56714661656E+02 -0.25195578368E+03  0.25839542900E+03  0.10100000352E+00 0.  1.
</event>
<event>
 5   0  0.8291252E-03  0.8962937E+03  0.7818609E-02  0.9430226E-01
        1   -1    0    0  501    0  0.00000000000E+00  0.00000000000E+00  0.36088964780E+03  0.36088964783E+03  0.50400001928E-02 0.  1.
       -1   -1    0    0    0  501  0.00000000000E+00  0.00000000000E+00 -0.55650136264E+03  0.55650136266E+03  0.50400001928E-02 0. -1.
    10030    2    1    2    0    0  0.00000000000E+00  0.00000000000E+00 -0.19561171484E+03  0.91739101049E+03  0.89629365899E+03 0.  0.
        1    1    3    3  502    0  0.44041119763E+03  0.28839908453E+02 -0.17736460828E+03  0.47565950806E+03  0.50400001928E-02 0.  1.
       -1    1    3    3    0  502 -0.44041119763E+03 -0.28839908453E+02 -0.18247106554E+02  0.44173150243E+03  0.50400001928E-02 0. -1.
</event>
<event>
 5   0  0.8524692E-03  0.8961155E+03  0.7818609E-02  0.9430450E-01
       -1   -1    0    0    0  501  0.00000000000E+00  0.00000000000E+00  0.19472479221E+03  0.19472479228E+03  0.50400001928E-02 0. -1.
        1   -1    0    0  501    0  0.00000000000E+00  0.00000000000E+00 -0.10309715973E+04  0.10309715974E+04  0.50400001928E-02 0.  1.
    10030    2    1    2    0    0  0.00000000000E+00  0.00000000000E+00 -0.83624680513E+03  0.12256963896E+04  0.89611546158E+03 0.  0.
        5    1    3    3  502    0  0.48382249133E+02  0.22002928881E+03  0.11158331519E+03  0.25144911253E+03  0.46999998093E+01 0. -1.
       -5    1    3    3    0  502 -0.48382249133E+02 -0.22002928881E+03 -0.94783012031E+03  0.97424727710E+03  0.46999998093E+01 0.  1.
</event>
<event>
 5   0  0.8291252E-03  0.9067643E+03  0.7818609E-02  0.9417165E-01
        1   -1    0    0  501    0  0.00000000000E+00  0.00000000000E+00  0.21664351702E+04  0.21664351702E+04  0.50400001928E-02 0.  1.
       -1   -1    0    0    0  501  0.00000000000E+00  0.00000000000E+00 -0.94881842807E+02  0.94881842941E+02  0.50400001928E-02 0. -1.
    10030    2    1    2    0    0  0.00000000000E+00  0.00000000000E+00  0.20715533274E+04  0.22613170131E+04  0.90676427241E+03 0.  0.
        1    1    3    3  502    0  0.43544336366E+03  0.12610138623E+03  0.10194465746E+04  0.11156987949E+04  0.50400001928E-02 0.  1.
       -1    1    3    3    0  502 -0.43544336366E+03 -0.12610138623E+03  0.10521067528E+04  0.11456182182E+04  0.50400001928E-02 0. -1.
</event>
<event>
 5   0  0.8612969E-03  0.9375368E+03  0.7818609E-02  0.9379838E-01
       -1   -1    0    0    0  501  0.00000000000E+00  0.00000000000E+00  0.13652699291E+04  0.13652699291E+04  0.50400001928E-02 0. -1.
        1   -1    0    0  501    0  0.00000000000E+00  0.00000000000E+00 -0.16095265426E+03  0.16095265434E+03  0.50400001928E-02 0.  1.
    10030    2    1    2    0    0  0.00000000000E+00  0.00000000000E+00  0.12043172748E+04  0.15262225834E+04  0.93753681300E+03 0.  0.
        4    1    3    3  502    0 -0.98052831319E+02  0.74798090263E+02 -0.13406768353E+03  0.18216714496E+03  0.12699999809E+01 0.  1.
       -4    1    3    3    0  502  0.98052831319E+02 -0.74798090263E+02  0.13383849583E+04  0.13440554385E+04  0.12699999809E+01 0. -1.
</event>
<event>
 5   0  0.8738044E-03  0.8931776E+03  0.7818609E-02  0.9434150E-01
       -1   -1    0    0    0  501  0.00000000000E+00  0.00000000000E+00  0.19724545404E+03  0.19724545411E+03  0.50400001928E-02 0. -1.
        1   -1    0    0  501    0  0.00000000000E+00  0.00000000000E+00 -0.10111338314E+04  0.10111338315E+04  0.50400001928E-02 0.  1.
    10030    2    1    2    0    0  0.00000000000E+00  0.00000000000E+00 -0.81388837741E+03  0.12083792856E+04  0.89317758979E+03 0.  0.
        3    1    3    3  502    0  0.25266843588E+03 -0.29661695962E+03 -0.11171881250E+03  0.40534437518E+03  0.10100000352E+00 0.  1.
       -3    1    3    3    0  502 -0.25266843588E+03  0.29661695962E+03 -0.70216956491E+03  0.80303491039E+03  0.10100000352E+00 0. -1.
</event>
<event>
 5   0  0.1454652E-02  0.8984817E+03  0.7818609E-02  0.9427481E-01
       -2   -1    0    0    0  501  0.00000000000E+00  0.00000000000E+00  0.46375214695E+03  0.46375214696E+03  0.25500000920E-02 0.  1.
        2   -1    0    0  501    0  0.00000000000E+00  0.00000000000E+00 -0.43518361460E+03  0.43518361460E+03  0.25500000920E-02 0. -1.
    10030    2    1    2    0    0  0.00000000000E+00  0.00000000000E+00  0.28568532353E+02  0.89893576156E+03  0.89848168727E+03 0.  0.
        4    1    3    3  502    0 -0.61336023141E+02  0.31278703949E+03  0.33101633689E+03  0.45953375066E+03  0.12699999809E+01 0.  1.
       -4    1    3    3    0  502  0.61336023141E+02 -0.31278703949E+03 -0.30244780454E+03  0.43940201090E+03  0.12699999809E+01 0. -1.
</event>
<event>
 5   0  0.8885324E-03  0.9108478E+03  0.7818609E-02  0.9412122E-01
        1   -1    0    0  501    0  0.00000000000E+00  0.00000000000E+00  0.68521503324E+03  0.68521503326E+03  0.50400001928E-02 0.  1.
       -1   -1    0    0    0  501  0.00000000000E+00  0.00000000000E+00 -0.30269462744E+03  0.30269462748E+03  0.50400001928E-02 0. -1.
    10030    2    1    2    0    0  0.00000000000E+00  0.00000000000E+00  0.38252040580E+03  0.98790966074E+03  0.91084775727E+03 0.  0.
        2    1    3    3  502    0  0.37234591160E+03 -0.16852071919E+03 -0.26662201394E+02  0.40957488164E+03  0.25500000920E-02 0. -1.
       -2    1    3    3    0  502 -0.37234591160E+03  0.16852071919E+03  0.40918260719E+03  0.57833477910E+03  0.25500000920E-02 0.  1.
</event>
<event>
 5   0  0.8738044E-03  0.8969810E+03  0.7818609E-02  0.9429363E-01
        1   -1    0    0  501    0  0.00000000000E+00  0.00000000000E+00  0.13853209846E+04  0.13853209846E+04  0.50400001928E-02 0. -1.
       -1   -1    0    0    0  501  0.00000000000E+00  0.00000000000E+00 -0.14519648925E+03  0.14519648934E+03  0.50400001928E-02 0.  1.
    10030    2    1    2    0    0  0.00000000000E+00  0.00000000000E+00  0.12401244953E+04  0.15305174739E+04  0.89698103328E+03 0.  0.
        3    1    3    3  502    0 -0.31380626436E+03 -0.19831141744E+03  0.10495004978E+04  0.11132174518E+04  0.10100000352E+00 0. -1.
       -3    1    3    3    0  502  0.31380626436E+03  0.19831141744E+03  0.19062399748E+03  0.41730002211E+03  0.10100000352E+00 0.  1.
</event>
<event>
 5   0  0.1441195E-02  0.8748045E+03  0.7818609E-02  0.9457637E-01
        2   -1    0    0  501    0  0.00000000000E+00  0.00000000000E+00  0.63896138527E+03  0.63896138528E+03  0.25500000920E-02 0. -1.
       -2   -1    0    0    0  501  0.00000000000E+00  0.00000000000E+00 -0.29942453069E+03  0.29942453070E+03  0.25500000920E-02 0.  1.
    10030    2    1    2    0    0  0.00000000000E+00  0.00000000000E+00  0.33953685458E+03  0.93838591598E+03  0.87480446484E+03 0.  0.
        5    1    3    3  502    0  0.38224161985E+03 -0.15316850169E+03  0.32789109331E+03  0.52640659659E+03  0.46999998093E+01 0. -1.
       -5    1    3    3    0  502 -0.38224161985E+03  0.15316850169E+03  0.11645761265E+02  0.41197931940E+03  0.46999998093E+01 0.  1.
</event>
<event>
 5   0  0.8885324E-03  0.8975216E+03  0.7818609E-02  0.9428685E-01
        1   -1    0    0  501    0  0.00000000000E+00  0.00000000000E+00  0.33091885401E+03  0.33091885405E+03  0.50400001928E-02 0. -1.
       -1   -1    0    0    0  501  0.00000000000E+00  0.00000000000E+00 -0.60856686219E+03  0.60856686221E+03  0.50400001928E-02 0.  1.
    10030    2    1    2    0    0  0.00000000000E+00  0.00000000000E+00 -0.27764800818E+03  0.93948571626E+03  0.89752158448E+03 0.  0.
        2    1    3    3  502    0 -0.33392067496E+03 -0.24614305265E+03  0.40341992157E+02  0.41679358904E+03  0.25500000920E-02 0.  1.
       -2    1    3    3    0  502  0.33392067496E+03  0.24614305265E+03 -0.31799000034E+03  0.52269212722E+03  0.25500000920E-02 0. -1.
</event>
<event>
 5   0  0.8738044E-03  0.9180299E+03  0.7818609E-02  0.9403320E-01
        1   -1    0    0  501    0  0.00000000000E+00  0.00000000000E+00  0.12780198185E+04  0.12780198185E+04  0.50400001928E-02 0. -1.
       -1   -1    0    0    0  501  0.00000000000E+00  0.00000000000E+00 -0.16486030624E+03  0.16486030632E+03  0.50400001928E-02 0.  1.
    10030    2    1    2    0    0  0.00000000000E+00  0.00000000000E+00  0.11131595123E+04  0.14428801248E+04  0.91802993138E+03 0.  0.
        3    1    3    3  502    0  0.25419155608E+03 -0.20257331020E+03  0.47176164518E+02  0.32844313646E+03  0.10100000352E+00 0.  1.
       -3    1    3    3    0  502 -0.25419155608E+03  0.20257331020E+03  0.10659833478E+04  0.11144369884E+04  0.10100000352E+00 0. -1.
</event>
<event>
 5   0  0.8524692E-03  0.8965432E+03  0.7818609E-02  0.9429913E-01
       -1   -1    0    0    0  501  0.00000000000E+00  0.00000000000E+00  0.35260061580E+03  0.35260061584E+03  0.50400001928E-02 0.  1.
        1   -1    0    0  501    0  0.00000000000E+00  0.00000000000E+00 -0.56990101171E+03  0.56990101173E+03  0.50400001928E-02 0. -1.
    10030    2    1    2    0    0  0.00000000000E+00  0.00000000000E+00 -0.21730039590E+03  0.92250162757E+03  0.89654324536E+03 0.  0.
        5    1    3    3  502    0  0.35707649184E+03  0.22288176490E+03 -0.26720746485E+03  0.49859986103E+03  0.46999998093E+01 0.  1.
       -5    1    3    3    0  502 -0.35707649184E+03 -0.22288176490E+03  0.49907068946E+02  0.42390176654E+03  0.46999998093E+01 0. -1.
</event>
<event>
 5   0  0.1535906E-02  0.8577899E+03  0.7818609E-02  0.9479941E-01
       -2   -1    0    0    0  501  0.00000000000E+00  0.00000000000E+00  0.15554450419E+03  0.15554450421E+03  0.25500000920E-02 0.  1.
        2   -1    0    0  501    0  0.00000000000E+00  0.00000000000E+00 -0.11826254388E+04  0.11826254388E+04  0.25500000920E-02 0. -1.
    10030    2    1    2    0    0  0.00000000000E+00  0.00000000000E+00 -0.10270809346E+04  0.13381699430E+04  0.85778992191E+03 0.  0.
        2    1    3    3  502    0 -0.41017454473E+03 -0.11920480035E+03 -0.57391842294E+03  0.71542665436E+03  0.25500000920E-02 0.  1.
       -2    1    3    3    0  502  0.41017454473E+03  0.11920480035E+03 -0.45316251164E+03  0.62274328862E+03  0.25500000920E-02 0. -1.
</event>
<event>
 5   0  0.1535906E-02  0.8879070E+03  0.7818609E-02  0.9440826E-01
       -2   -1    0    0    0  501  0.00000000000E+00  0.00000000000E+00  0.20176041672E+03  0.20176041673E+03  0.25500000920E-02 0. -1.
        2   -1    0    0  501    0  0.00000000000E+00  0.00000000000E+00 -0.97687510946E+03  0.97687510947E+03  0.25500000920E-02 0.  1.
    10030    2    1    2    0    0  0.00000000000E+00  0.00000000000E+00 -0.77511469275E+03  0.11786355262E+04  0.88790704283E+03 0.  0.
        2    1    3    3  502    0  0.29164505322E+03  0.30900793542E+03 -0.55833738497E+03  0.70162908768E+03  0.25500000920E-02 0. -1.
       -2    1    3    3    0  502 -0.29164505322E+03 -0.30900793542E+03 -0.21677730778E+03  0.47700643852E+03  0.25500000920E-02 0.  1.
</event>
<event>
 5   0  0.1441195E-02  0.8935439E+03  0.7818609E-02  0.9433688E-01
        2   -1    0    0  501    0  0.00000000000E+00  0.00000000000E+00  0.42704112705E+03  0.42704112706E+03  0.25500000920E-02 0. -1.
       -2   -1    0    0    0  501  0.00000000000E+00  0.00000000000E+00 -0.46741439837E+03  0.46741439838E+03  0.25500000920E-02 0.  1.
    10030    2    1    2    0    0  0.00000000000E+00  0.00000000000E+00 -0.40373271314E+02  0.89445552544E+03  0.89354389145E+03 0.  0.
        5    1    3    3  502    0  0.59284881456E+02 -0.28061534180E+03  0.32268788034E+03  0.43175134666E+03  0.46999998093E+01 0. -1.
       -5    1    3    3    0  502 -0.59284881456E+02  0.28061534180E+03 -0.36306115166E+03  0.46270417878E+03  0.46999998093E+01 0.  1.
</event>
<event>
 5   0  0.1454652E-02  0.9101647E+03  0.7818609E-02  0.9412963E-01
        2   -1    0    0  501    0  0.00000000000E+00  0.00000000000E+00  0.45936346861E+03  0.45936346862E+03  0.25500000920E-02 0. -1.
       -2   -1    0    0    0  501  0.00000000000E+00  0.00000000000E+00 -0.45084116018E+03  0.45084116019E+03  0.25500000920E-02 0.  1.
    10030    2    1    2    0    0  0.00000000000E+00  0.00000000000E+00  0.85223084256E+01  0.91020462881E+03  0.91016473045E+03 0.  0.
        4    1    3    3  502    0 -0.38432211604E+03 -0.42798996636E+01  0.24794485421E+03  0.45738394162E+03  0.12699999809E+01 0. -1.
       -4    1    3    3    0  502  0.38432211604E+03  0.42798996636E+01 -0.23942254578E+03  0.45282068719E+03  0.12699999809E+01 0.  1.
</event>
<event>
 5   0  0.8291252E-03  0.9050682E+03  0.7818609E-02  0.9419268E-01
        1   -1    0    0  501    0  0.00000000000E+00  0.00000000000E+00  0.90831734026E+03  0.90831734028E+03  0.50400001928E-02 0.  1.
       -1   -1    0    0    0  501  0.00000000000E+00  0.00000000000E+00 -0.22545769059E+03  0.22545769064E+03  0.50400001928E-02 0. -1.
    10030    2    1    2    0    0  0.00000000000E+00  0.00000000000E+00  0.68285964968E+03  0.11337750309E+04  0.90506824029E+03 0.  0.
        1    1    3    3  502    0 -0.24615951793E+03 -0.12236287259E+03  0.79173853312E+03  0.83810326673E+03  0.50400001928E-02 0.  1.
       -1    1    3    3    0  502  0.24615951793E+03  0.12236287259E+03 -0.10887888344E+03  0.29567176419E+03  0.50400001928E-02 0. -1.
</event>
<event>
 5   0  0.1454652E-02  0.8868490E+03  0.7818609E-02  0.9442172E-01
        2   -1    0    0  501    0  0.00000000000E+00  0.00000000000E+00  0.14901404441E+03  0.14901404443E+03  0.25500000920E-02 0. -1.
       -2   -1    0    0    0  501  0.00000000000E+00  0.00000000000E+00 -0.13195083831E+04  0.13195083831E+04  0.25500000920E-02 0.  1.
    10030    2    1    2    0    0  0.00000000000E+00  0.00000000000E+00 -0.11704943387E+04  0.14685224275E+04  0.88684898559E+03 0.  0.
        4    1    3    3  502    0  0.97765027769E+02  0.29038823649E+02  0.12932629714E+03  0.16470627786E+03  0.12699999809E+01 0. -1.
       -4    1    3    3    0  502 -0.97765027769E+02 -0.29038823649E+02 -0.12998206358E+04  0.13038161497E+04  0.12699999809E+01 0.  1.
</event>
<event>
 5   0  0.8612969E-03  0.9048533E+03  0.7818609E-02  0.9419535E-01
        1   -1    0    0  501    0  0.00000000000E+00  0.00000000000E+00  0.96271396558E+03  0.96271396559E+03  0.50400001928E-02 0.  1.
       -1   -1    0    0    0  501  0.00000000000E+00  0.00000000000E+00 -0.21261755943E+03  0.21261755949E+03  0.50400001928E-02 0. -1.
    10030    2    1    2    0    0  0.00000000000E+00  0.00000000000E+00  0.75009640615E+03  0.11753315251E+04  0.90485334465E+03 0.  0.
        4    1    3    3  502    0  0.14552922775E+03 -0.71530526573E+02  0.92366737748E+03  0.93779443882E+03  0.12699999809E+01 0.  1.
       -4    1    3    3    0  502 -0.14552922775E+03  0.71530526573E+02 -0.17357097133E+03  0.23753708626E+03  0.12699999809E+01 0. -1.
</event>
<event>
 5   0  0.1483326E-02  0.8981209E+03  0.7818609E-02  0.9427933E-01
        2   -1    0    0  501    0  0.00000000000E+00  0.00000000000E+00  0.79882880263E+03  0.79882880263E+03  0.25500000920E-02 0.  1.
       -2   -1    0    0    0  501  0.00000000000E+00  0.00000000000E+00 -0.25243866222E+03  0.25243866223E+03  0.25500000920E-02 0. -1.
    10030    2    1    2    0    0  0.00000000000E+00  0.00000000000E+00  0.54639014041E+03  0.10512674649E+04  0.89812087001E+03 0.  0.
        1    1    3    3  502    0 -0.98793409123E+02  0.31191605281E+03  0.63321957888E+03  0.71275437339E+03  0.50400001928E-02 0.  1.
       -1    1    3    3    0  502  0.98793409123E+02 -0.31191605281E+03 -0.86829438466E+02  0.33851309147E+03  0.50400001928E-02 0. -1.
</event>
<event>
 5   0  0.8738044E-03  0.9058711E+03  0.7818609E-02  0.9418272E-01
        1   -1    0    0  501    0  0.00000000000E+00  0.00000000000E+00  0.74214716109E+03  0.74214716111E+03  0.50400001928E-02 0. -1.
       -1   -1    0    0    0  501  0.00000000000E+00  0.00000000000E+00 -0.27642847199E+03  0.27642847204E+03  0.50400001928E-02 0.  1.
    10030    2    1    2    0    0  0.00000000000E+00  0.00000000000E+00  0.46571868910E+03  0.10185756331E+04  0.90587108523E+03 0.  0.
        3    1    3    3  502    0  0.37025613072E+03  0.25147713405E+03  0.31092525136E+03  0.54498153494E+03  0.10100000352E+00 0. -1.
       -3    1    3    3    0  502 -0.37025613072E+03 -0.25147713405E+03  0.15479343774E+03  0.47359409821E+03  0.10100000352E+00 0.  1.
</event>
<event>
 5   0  0.1440615E-02  0.9056729E+03  0.7818609E-02  0.9418518E-01
       -2   -1    0    0    0  501  0.00000000000E+00  0.00000000000E+00  0.36525162871E+03  0.36525162872E+03  0.25500000920E-02 0. -1.
        2   -1    0    0  501    0  0.00000000000E+00  0.00000000000E+00 -0.56142355288E+03  0.56142355289E+03  0.25500000920E-02 0.  1.
    10030    2    1    2    0    0  0.00000000000E+00  0.00000000000E+00 -0.19617192417E+03  0.92667518160E+03  0.90567293675E+03 0.  0.
        3    1    3    3  502    0  0.34328469825E+03 -0.26094713406E+03 -0.23957894558E+03  0.49329085963E+03  0.10100000352E+00 0.  1.
       -3    1    3    3    0  502 -0.34328469825E+03  0.26094713406E+03  0.43407021406E+02  0.43338432198E+03  0.10100000352E+00 0. -1.
</event>
<event>
 5   0  0.8524692E-03  0.9008960E+03  0.7818609E-02  0.9424462E-01
       -1   -1    0    0    0  501  0.00000000000E+00  0.00000000000E+00  0.19114480158E+03  0.19114480165E+03  0.50400001928E-02 0.  1.
        1   -1    0    0  501    0  0.00000000000E+00  0.00000000000E+00 -0.10615166236E+04  0.10615166236E+04  0.50400001928E-02 0. -1.
    10030    2    1    2    0    0  0.00000000000E+00  0.00000000000E+00 -0.87037182198E+03  0.12526614252E+04  0.90089596389E+03 0.  0.
        5    1    3    3  502    0  0.10055737305E+03  0.16598066753E+03 -0.10003704538E+04  0.10190311585E+04  0.46999998093E+01 0. -1.
       -5    1    3    3    0  502 -0.10055737305E+03 -0.16598066753E+03  0.12999863177E+03  0.23363026672E+03  0.46999998093E+01 0.  1.
</event>
<event>
 5   0  0.1483326E-02  0.8905931E+03  0.7818609E-02  0.9437417E-01
        2   -1    0    0  501    0  0.00000000000E+00  0.00000000000E+00  0.42923777384E+03  0.42923777385E+03  0.25500000920E-02 0. -1.
       -2   -1    0    0    0  501  0.00000000000E+00  0.00000000000E+00 -0.46195613814E+03  0.46195613815E+03  0.25500000920E-02 0.  1.
    10030    2    1    2    0    0  0.00000000000E+00  0.00000000000E+00 -0.32718364300E+02  0.89119391199E+03  0.89059311552E+03 0.  0.
        1    1    3    3  502    0 -0.16622669921E+03  0.11421603393E+03  0.38091292814E+03  0.43101192186E+03  0.50400001928E-02 0. -1.
       -1    1    3    3    0  502  0.16622669921E+03 -0.11421603393E+03 -0.41363129244E+03  0.46018199014E+03  0.50400001928E-02 0.  1.
</event>
<event>
 5   0  0.1440615E-02  0.8766852E+03  0.7818609E-02  0.9455205E-01
        2   -1    0    0  501    0  0.00000000000E+00  0.00000000000E+00  0.52521312917E+03  0.52521312917E+03  0.25500000920E-02 0.  1.
       -2   -1    0    0    0  501  0.00000000000E+00  0.00000000000E+00 -0.36584047146E+03  0.36584047147E+03  0.25500000920E-02 0. -1.
    10030    2    1    2    0    0  0.00000000000E+00  0.00000000000E+00  0.15937265771E+03  0.89105360064E+03  0.87668516309E+03 0.  0.
        3    1    3    3  502    0  0.19401432590E+03  0.36426025263E+03 -0.70440691840E+02  0.41867528178E+03  0.10100000352E+00 0. -1.
       -3    1    3    3    0  502 -0.19401432590E+03 -0.36426025263E+03  0.22981334955E+03  0.47237831886E+03  0.10100000352E+00 0.  1.
</event>
<event>
 5   0  0.8524692E-03  0.8871405E+03  0.7818609E-02  0.9441801E-01
        1   -1    0    0  501    0  0.00000000000E+00  0.00000000000E+00  0.67535907499E+03  0.67535907501E+03  0.50400001928E-02 0. -1.
       -1   -1    0    0    0  501  0.00000000000E+00  0.00000000000E+00 -0.29133325942E+03  0.29133325947E+03  0.50400001928E-02 0.  1.
    10030    2    1    2    0    0  0.00000000000E+00  0.00000000000E+00  0.38402581557E+03  0.96669233447E+03  0.88714048634E+03 0.  0.
        5    1    3    3  502    0  0.29218121996E+02 -0.11718820485E+03  0.65706899442E+03  0.66809320265E+03  0.46999998093E+01 0. -1.
       -5    1    3    3    0  502 -0.29218121996E+02  0.11718820485E+03 -0.27304317885E+03  0.29859913182E+03  0.46999998093E+01 0.  1.
</event>
<event>
 5   0  0.8612969E-03  0.8654350E+03  0.7818609E-02  0.9469852E-01
        1   -1    0    0  501    0  0.00000000000E+00  0.00000000000E+00  0.38865911162E+03  0.38865911166E+03  0.50400001928E-02 0.  1.
       -1   -1    0    0    0  501  0.00000000000E+00  0.00000000000E+00 -0.48177032458E+03  0.48177032461E+03  0.50400001928E-02 0. -1.
    10030    2    1    2    0    0  0.00000000000E+00  0.00000000000E+00 -0.93111212956E+02  0.87042943626E+03  0.86543498053E+03 0.  0.
        4    1    3    3  502    0 -0.16421107928E+03 -0.28826483315E+03  0.23286221510E+03  0.40532495199E+03  0.12699999809E+01 0.  1.
       -4    1    3    3    0  502  0.16421107928E+03  0.28826483315E+03 -0.32597342805E+03  0.46510448427E+03  0.12699999809E+01 0. -1.
</event>
<event>
 5   0  0.8885324E-03  0.7090628E+03  0.7818609E-02  0.9701858E-01
       -1   -1    0    0    0  501  0.00000000000E+00  0.00000000000E+00  0.19129698194E+03  0.19129698201E+03  0.50400001928E-02 0.  1.
        1   -1    0    0  501    0  0.00000000000E+00  0.00000000000E+00 -0.65705443209E+03  0.65705443211E+03  0.50400001928E-02 0. -1.
    10030    2    1    2    0    0  0.00000000000E+00  0.00000000000E+00 -0.46575745015E+03  0.84835141412E+03  0.70906284592E+03 0.  0.
        2    1    3    3  502    0  0.18172597334E+03  0.81138108696E+02 -0.58391687394E+03  0.61690083299E+03  0.25500000920E-02 0. -1.
       -2    1    3    3    0  502 -0.18172597334E+03 -0.81138108696E+02  0.11815942379E+03  0.23145058113E+03  0.25500000920E-02 0.  1.
</event>
<event>
 5   0  0.1454652E-02  0.9114951E+03  0.7818609E-02  0.9411325E-01
       -2   -1    0    0    0  501  0.00000000000E+00  0.00000000000E+00  0.12282232769E+03  0.12282232772E+03  0.25500000920E-02 0.  1.
        2   -1    0    0  501    0  0.00000000000E+00  0.00000000000E+00 -0.16911079793E+04  0.16911079793E+04  0.25500000920E-02 0. -1.
    10030    2    1    2    0    0  0.00000000000E+00  0.00000000000E+00 -0.15682856516E+04  0.18139303070E+04  0.91149507605E+03 0.  0.
        4    1    3    3  502    0 -0.33055995462E+03 -0.14439429860E+02 -0.14078476629E+04  0.14462071205E+04  0.12699999809E+01 0. -1.
       -4    1    3    3    0  502  0.33055995462E+03  0.14439429860E+02 -0.16043798870E+03  0.36772318644E+03  0.12699999809E+01 0.  1.
</event>
<event>
 5   0  0.1483326E-02  0.8797081E+03  0.7818609E-02  0.9451309E-01
        2   -1    0    0  501    0  0.00000000000E+00  0.00000000000E+00  0.45399400756E+03  0.45399400757E+03  0.25500000920E-02 0.  1.
       -2   -1    0    0    0  501  0.00000000000E+00  0.00000000000E+00 -0.42615451458E+03  0.42615451459E+03  0.25500000920E-02 0. -1.
    10030    2    1    2    0    0  0.00000000000E+00  0.00000000000E+00  0.27839492980E+02  0.88014852216E+03  0.87970812415E+03 0.  0.
        1    1    3    3  502    0  0.21838063367E+03 -0.37869305864E+03  0.62658218564E+02  0.44161588084E+03  0.50400001928E-02 0. -1.
       -1    1    3    3    0  502 -0.21838063367E+03  0.37869305864E+03 -0.34818725584E+02  0.43853264132E+03  0.50400001928E-02 0.  1.
</event>
<event>
 5   0  0.8291252E-03  0.9258050E+03  0.7818609E-02  0.9393887E-01
       -1   -1    0    0    0  501  0.00000000000E+00  0.00000000000E+00  0.29070030343E+03  0.29070030347E+03  0.50400001928E-02 0.  1.
        1   -1    0    0  501    0  0.00000000000E+00  0.00000000000E+00 -0.73711213701E+03  0.73711213703E+03  0.50400001928E-02 0. -1.
    10030    2    1    2    0    0  0.00000000000E+00  0.00000000000E+00 -0.44641183358E+03  0.10278124405E+04  0.92580499442E+03 0.  0.
        1    1    3    3  502    0  0.17393714653E+03  0.29316586543E+03  0.12447508655E+03  0.36289723448E+03  0.50400001928E-02 0.  1.
       -1    1    3    3    0  502 -0.17393714653E+03 -0.29316586543E+03 -0.57088692013E+03  0.66491520602E+03  0.50400001928E-02 0. -1.
</event>
<event>
 5   0  0.1441195E-02  0.8615021E+03  0.7818609E-02  0.9475028E-01
        2   -1    0    0  501    0  0.00000000000E+00  0.00000000000E+00  0.10816978182E+04  0.10816978182E+04  0.25500000920E-02 0. -1.
       -2   -1    0    0    0  501  0.00000000000E+00  0.00000000000E+00 -0.17153263132E+03  0.17153263134E+03  0.25500000920E-02 0.  1.
    10030    2    1    2    0    0  0.00000000000E+00  0.00000000000E+00  0.91016518683E+03  0.12532304495E+04  0.86150211389E+03 0.  0.
        5    1    3    3  502    0 -0.88153011543E+02  0.39182860161E+03  0.68149254767E+03  0.79104664149E+03  0.46999998093E+01 0. -1.
       -5    1    3    3    0  502  0.88153011543E+02 -0.39182860161E+03  0.22867263916E+03  0.46218380801E+03  0.46999998093E+01 0.  1.
</event>
<event>
 5   0  0.8612969E-03  0.9052519E+03  0.7818609E-02  0.9419040E-01
       -1   -1    0    0    0  501  0.00000000000E+00  0.00000000000E+00  0.12749886309E+04  0.12749886309E+04  0.50400001928E-02 0.  1.
        1   -1    0    0  501    0  0.00000000000E+00  0.00000000000E+00 -0.16068398252E+03  0.16068398260E+03  0.50400001928E-02 0. -1.
    10030    2    1    2    0    0  0.00000000000E+00  0.00000000000E+00  0.11143046484E+04  0.14356726135E+04  0.90525190073E+03 0.  0.
        4    1    3    3  502    0 -0.42094716825E+03  0.69183706912E+02  0.79707339786E+03  0.90405227627E+03  0.12699999809E+01 0. -1.
       -4    1    3    3    0  502  0.42094716825E+03 -0.69183706912E+02  0.31723125054E+03  0.53162033725E+03  0.12699999809E+01 0.  1.
</event>
<event>
 5   0  0.8738044E-03  0.8949447E+03  0.7818609E-02  0.9431923E-01
       -1   -1    0    0    0  501  0.00000000000E+00  0.00000000000E+00  0.66380413258E+03  0.66380413260E+03  0.50400001928E-02 0. -1.
        1   -1    0    0  501    0  0.00000000000E+00  0.00000000000E+00 -0.30164247667E+03  0.30164247671E+03  0.50400001928E-02 0.  1.
    10030    2    1    2    0    0  0.00000000000E+00  0.00000000000E+00  0.36216165591E+03  0.96544660931E+03  0.89494474154E+03 0.  0.
        3    1    3    3  502    0 -0.29573581235E+03 -0.26909422778E+03 -0.35643848735E+02  0.40142479780E+03  0.10100000352E+00 0.  1.
       -3    1    3    3    0  502  0.29573581235E+03  0.26909422778E+03  0.39780550465E+03  0.56402181151E+03  0.10100000352E+00 0. -1.
</event>
<event>
 5   0  0.5770125E-03  0.9085644E+03  0.7818609E-02  0.9414938E-01
       -3   -1    0    0    0  501  0.00000000000E+00  0.00000000000E+00  0.66789329815E+03  0.66789330579E+03  0.10100000352E+00 0. -1.
        3   -1    0    0  501    0  0.00000000000E+00  0.00000000000E+00 -0.30898990939E+03  0.30898992589E+03  0.10100000352E+00 0.  1.
    10030    2    1    2    0    0  0.00000000000E+00  0.00000000000E+00  0.35890338876E+03  0.97688323168E+03  0.90856436529E+03 0.  0.
        4    1    3    3  502    0  0.42620921210E+03  0.89526535097E+02  0.31840322565E+03  0.53949190909E+03  0.12699999809E+01 0. -1.
       -4    1    3    3    0  502 -0.42620921210E+03 -0.89526535097E+02  0.40500163110E+02  0.43739132259E+03  0.12699999809E+01 0.  1.
</event>
<event>
 5   0  0.8885324E-03  0.9099423E+03  0.7818609E-02  0.9413238E-01
        1   -1    0    0  501    0  0.00000000000E+00  0.00000000000E+00  0.38417512870E+03  0.38417512873E+03  0.50400001928E-02 0.  1.
       -1   -1    0    0    0  501  0.00000000000E+00  0.00000000000E+00 -0.53881353980E+03  0.53881353983E+03  0.50400001928E-02 0. -1.
    10030    2    1    2    0    0  0.00000000000E+00  0.00000000000E+00 -0.15463841110E+03  0.92298866856E+03  0.90994233010E+03 0.  0.
        2    1    3    3  502    0  0.25687166637E+03  0.23760018826E+03  0.21764530135E+03  0.41207569651E+03  0.25500000920E-02 0.  1.
       -2    1    3    3    0  502 -0.25687166637E+03 -0.23760018826E+03 -0.37228371245E+03  0.51091297205E+03  0.25500000920E-02 0. -1.
</event>
<event>
 5   0  0.5770125E-03  0.8949577E+03  0.7818609E-02  0.9431907E-01
        3   -1    0    0  501    0  0.00000000000E+00  0.00000000000E+00  0.13383326484E+04  0.13383326522E+04  0.10100000352E+00 0. -1.
       -3   -1    0    0    0  501  0.00000000000E+00  0.00000000000E+00 -0.14961698073E+03  0.14961701482E+03  0.10100000352E+00 0.  1.
    10030    2    1    2    0    0  0.00000000000E+00  0.00000000000E+00  0.11887156677E+04  0.14879496670E+04  0.89495769344E+03 0.  0.
        1    1    3    3  502    0  0.47267689193E+02  0.26611270500E+03  0.14225593553E+01  0.27028176021E+03  0.50400001928E-02 0.  1.
       -1    1    3    3    0  502 -0.47267689193E+02 -0.26611270500E+03  0.11872931083E+04  0.12176679068E+04  0.50400001928E-02 0. -1.
</event>
<event>
 5   0  0.1454652E-02  0.9083297E+03  0.7818609E-02  0.9415228E-01
        2   -1    0    0  501    0  0.00000000000E+00  0.00000000000E+00  0.67930265557E+03  0.67930265558E+03  0.25500000920E-02 0. -1.
       -2   -1    0    0    0  501  0.00000000000E+00  0.00000000000E+00 -0.30364328579E+03  0.30364328580E+03  0.25500000920E-02 0.  1.
    10030    2    1    2    0    0  0.00000000000E+00  0.00000000000E+00  0.37565936978E+03  0.98294594138E+03  0.90832965468E+03 0.  0.
        4    1    3    3  502    0  0.42474290811E+03  0.16077727223E+03  0.18472933230E+03  0.49028808712E+03  0.12699999809E+01 0. -1.
       -4    1    3    3    0  502 -0.42474290811E+03 -0.16077727223E+03  0.19093003748E+03  0.49265785426E+03  0.12699999809E+01 0.  1.
</event>
<event>
 5   0  0.8291252E-03  0.8822861E+03  0.7818609E-02  0.9448000E-01
        1   -1    0    0  501    0  0.00000000000E+00  0.00000000000E+00  0.32515011000E+03  0.32515011004E+03  0.50400001928E-02 0. -1.
       -1   -1    0    0    0  501  0.00000000000E+00  0.00000000000E+00 -0.59851494678E+03  0.59851494680E+03  0.50400001928E-02 0.  1.
    10030    2    1    2    0    0  0.00000000000E+00  0.00000000000E+00 -0.27336483677E+03  0.92366505684E+03  0.88228612323E+03 0.  0.
        1    1    3    3  502    0 -0.41182249863E+03  0.97069249936E+02 -0.26738561511E+03  0.50051501161E+03  0.50400001928E-02 0. -1.
       -1    1    3    3    0  502  0.41182249863E+03 -0.97069249936E+02 -0.59792216651E+01  0.42315004523E+03  0.50400001928E-02 0.  1.
</event>
<event>
 5   0  0.8738044E-03  0.9314437E+03  0.7818609E-02  0.9387107E-01
       -1   -1    0    0    0  501  0.00000000000E+00  0.00000000000E+00  0.29531806836E+03  0.29531806841E+03  0.50400001928E-02 0.  1.
        1   -1    0    0  501    0  0.00000000000E+00  0.00000000000E+00 -0.73445171355E+03  0.73445171357E+03  0.50400001928E-02 0. -1.
    10030    2    1    2    0    0  0.00000000000E+00  0.00000000000E+00 -0.43913364519E+03  0.10297697820E+04  0.93144374255E+03 0.  0.
        3    1    3    3  502    0 -0.21001213798E+03  0.25439294437E+03 -0.58301969973E+03  0.66987524862E+03  0.10100000352E+00 0. -1.
       -3    1    3    3    0  502  0.21001213798E+03 -0.25439294437E+03  0.14388605454E+03  0.35989453335E+03  0.10100000352E+00 0.  1.
</event>
<event>
 5   0  0.1535906E-02  0.8443474E+03  0.7818609E-02  0.9497955E-01
        2   -1    0    0  501    0  0.00000000000E+00  0.00000000000E+00  0.73727822080E+03  0.73727822080E+03  0.25500000920E-02 0.  1.
       -2   -1    0    0    0  501  0.00000000000E+00  0.00000000000E+00 -0.24174134026E+03  0.24174134027E+03  0.25500000920E-02 0. -1.
    10030    2    1    2    0    0  0.00000000000E+00  0.00000000000E+00  0.49553688054E+03  0.97901956107E+03  0.84434738170E+03 0.  0.
        2    1    3    3  502    0  0.90356587473E+02  0.22552899283E+03 -0.15255753928E+03  0.28688227952E+03  0.25500000920E-02 0. -1.
       -2    1    3    3    0  502 -0.90356587473E+02 -0.22552899283E+03  0.64809441982E+03  0.69213728155E+03  0.25500000920E-02 0.  1.
</event>
<event>
 5   0  0.1454652E-02  0.9225517E+03  0.7818609E-02  0.9397822E-01
        2   -1    0    0  501    0  0.00000000000E+00  0.00000000000E+00  0.75002982522E+03  0.75002982522E+03  0.25500000920E-02 0.  1.
       -2   -1    0    0    0  501  0.00000000000E+00  0.00000000000E+00 -0.28368927637E+03  0.28368927638E+03  0.25500000920E-02 0. -1.
    10030    2    1    2    0    0  0.00000000000E+00  0.00000000000E+00  0.46634054885E+03  0.10337191016E+04  0.92255171861E+03 0.  0.
        4    1    3    3  502    0  0.15219752098E+03 -0.36304901135E+03 -0.36228137204E+02  0.39532614492E+03  0.12699999809E+01 0. -1.
       -4    1    3    3    0  502 -0.15219752098E+03  0.36304901135E+03  0.50256868606E+03  0.63839295668E+03  0.12699999809E+01 0.  1.
</event>
<event>
 5   0  0.8524692E-03  0.9029625E+03  0.7818609E-02  0.9421886E-01
       -1   -1    0    0    0  501  0.00000000000E+00  0.00000000000E+00  0.10152736884E+03  0.10152736896E+03  0.50400001928E-02 0. -1.
        1   -1    0    0  501    0  0.00000000000E+00  0.00000000000E+00 -0.20076884993E+04  0.20076884993E+04  0.50400001928E-02 0.  1.
    10030    2    1    2    0    0  0.00000000000E+00  0.00000000000E+00 -0.19061611305E+04  0.21092158683E+04  0.90296252617E+03 0.  0.
        5    1    3    3  502    0  0.38455959803E+03 -0.23623194596E+03 -0.92731965040E+03  0.10313270290E+04  0.46999998093E+01 0. -1.
       -5    1    3    3    0  502 -0.38455959803E+03  0.23623194596E+03 -0.97884148007E+03  0.10778888393E+04  0.46999998093E+01 0.  1.
</event>
<event>
 5   0  0.1454652E-02  0.8853091E+03  0.7818609E-02  0.9444134E-01
       -2   -1    0    0    0  501  0.00000000000E+00  0.00000000000E+00  0.29260387778E+03  0.29260387779E+03  0.25500000920E-02 0.  1.
        2   -1    0    0  501    0  0.00000000000E+00  0.00000000000E+00 -0.66965298170E+03  0.66965298170E+03  0.25500000920E-02 0. -1.
    10030    2    1    2    0    0  0.00000000000E+00  0.00000000000E+00 -0.37704910392E+03  0.96225685950E+03  0.88530911939E+03 0.  0.
        4    1    3    3  502    0 -0.22086424461E+03  0.89117342548E+02  0.21702563069E+03  0.32221833059E+03  0.12699999809E+01 0.  1.
       -4    1    3    3    0  502  0.22086424461E+03 -0.89117342548E+02 -0.59407473461E+03  0.64003852891E+03  0.12699999809E+01 0. -1.
</event>
<event>
 5   0  0.8885324E-03  0.8914928E+03  0.7818609E-02  0.9436279E-01
        1   -1    0    0  501    0  0.00000000000E+00  0.00000000000E+00  0.54204482133E+03  0.54204482135E+03  0.50400001928E-02 0. -1.
       -1   -1    0    0    0  501  0.00000000000E+00  0.00000000000E+00 -0.36655609615E+03  0.36655609619E+03  0.50400001928E-02 0.  1.
    10030    2    1    2    0    0  0.00000000000E+00  0.00000000000E+00  0.17548872518E+03  0.90860091754E+03  0.89149275639E+03 0.  0.
        2    1    3    3  502    0 -0.24179784933E+03  0.23197679200E+03  0.38734198624E+03  0.51216525290E+03  0.25500000920E-02 0. -1.
       -2    1    3    3    0  502  0.24179784933E+03 -0.23197679200E+03 -0.21185326107E+03  0.39643566464E+03  0.25500000920E-02 0.  1.
</event>
<event>
 5   0  0.1441195E-02  0.9029094E+03  0.7818609E-02  0.9421952E-01
        2   -1    0    0  501    0  0.00000000000E+00  0.00000000000E+00  0.24157928497E+03  0.24157928499E+03  0.25500000920E-02 0. -1.
       -2   -1    0    0    0  501  0.00000000000E+00  0.00000000000E+00 -0.84366238383E+03  0.84366238384E+03  0.25500000920E-02 0.  1.
    10030    2    1    2    0    0  0.00000000000E+00  0.00000000000E+00 -0.60208309886E+03  0.10852416688E+04  0.90290942061E+03 0.  0.
        5    1    3    3  502    0 -0.34735486808E+03 -0.12231313125E+03  0.12784957321E+02  0.36851248499E+03  0.46999998093E+01 0. -1.
       -5    1    3    3    0  502  0.34735486808E+03  0.12231313125E+03 -0.61486805618E+03  0.71672918384E+03  0.46999998093E+01 0.  1.
</event>
<event>
 5   0  0.8885324E-03  0.8973023E+03  0.7818609E-02  0.9428960E-01
       -1   -1    0    0    0  501  0.00000000000E+00  0.00000000000E+00  0.12706010588E+03  0.12706010598E+03  0.50400001928E-02 0. -1.
        1   -1    0    0  501    0  0.00000000000E+00  0.00000000000E+00 -0.15841940282E+04  0.15841940282E+04  0.50400001928E-02 0.  1.
    10030    2    1    2    0    0  0.00000000000E+00  0.00000000000E+00 -0.14571339224E+04  0.17112541342E+04  0.89730231482E+03 0.  0.
        2    1    3    3  502    0 -0.37293832644E+03 -0.91955884740E+02 -0.11707080126E+04  0.12321104378E+04  0.25500000920E-02 0.  1.
       -2    1    3    3    0  502  0.37293832644E+03  0.91955884740E+02 -0.28642590974E+03  0.47914369644E+03  0.25500000920E-02 0. -1.
</event>
<event>
 5   0  0.1440615E-02  0.8241591E+03  0.7818609E-02  0.9525691E-01
       -2   -1    0    0    0  501  0.00000000000E+00  0.00000000000E+00  0.25431782033E+03  0.25431782035E+03  0.25500000920E-02 0. -1.
        2   -1    0    0  501    0  0.00000000000E+00  0.00000000000E+00 -0.66770608191E+03  0.66770608192E+03  0.25500000920E-02 0.  1.
    10030    2    1    2    0    0  0.00000000000E+00  0.00000000000E+00 -0.41338826158E+03  0.92202390226E+03  0.82415909965E+03 0.  0.
        3    1    3    3  502    0  0.32442036122E+03 -0.10747423538E+03 -0.46427351561E+03  0.57649734565E+03  0.10100000352E+00 0.  1.
       -3    1    3    3    0  502 -0.32442036122E+03  0.10747423538E+03  0.50885254032E+02  0.34552655661E+03  0.10100000352E+00 0. -1.
</event>
<event>
 5   0  0.5770125E-03  0.7862264E+03  0.7818609E-02  0.9580171E-01
       -4   -1    0    0    0  501  0.00000000000E+00  0.00000000000E+00  0.46293412194E+03  0.46293586398E+03  0.12699999809E+01 0.  1.
        4   -1    0    0  501    0  0.00000000000E+00  0.00000000000E+00 -0.33381928574E+03  0.33382170155E+03  0.12699999809E+01 0. -1.
    10030    2    1    2    0    0  0.00000000000E+00  0.00000000000E+00  0.12911483620E+03  0.79675756553E+03  0.78622641606E+03 0.  0.
        4    1    3    3  502    0 -0.69208052329E+01  0.27638992979E+02  0.46188636662E+03  0.46276607487E+03  0.12699999809E+01 0.  1.
       -4    1    3    3    0  502  0.69208052329E+01 -0.27638992979E+02 -0.33277153042E+03  0.33399149066E+03  0.12699999809E+01 0. -1.
</event>
<event>
 5   0  0.1535906E-02  0.9127716E+03  0.7818609E-02  0.9409756E-01
        2   -1    0    0  501    0  0.00000000000E+00  0.00000000000E+00  0.23070709995E+04  0.23070709995E+04  0.25500000920E-02 0.  1.
       -2   -1    0    0    0  501  0.00000000000E+00  0.00000000000E+00 -0.90282445245E+02  0.90282445281E+02  0.25500000920E-02 0. -1.
    10030    2    1    2    0    0  0.00000000000E+00  0.00000000000E+00  0.22167885543E+04  0.23973534448E+04  0.91277162803E+03 0.  0.
        2    1    3    3  502    0 -0.33772600631E+03  0.42067551578E+02  0.30976421991E+03  0.46019822487E+03  0.25500000920E-02 0. -1.
       -2    1    3    3    0  502  0.33772600631E+03 -0.42067551578E+02  0.19070243344E+04  0.19371552199E+04  0.25500000920E-02 0.  1.
</event>
<event>
 5   0  0.8524692E-03  0.9021377E+03  0.7818609E-02  0.9422913E-01
       -1   -1    0    0    0  501  0.00000000000E+00  0.00000000000E+00  0.13747608960E+03  0.13747608969E+03  0.50400001928E-02 0. -1.
        1   -1    0    0  501    0  0.00000000000E+00  0.00000000000E+00 -0.14799891449E+04  0.14799891449E+04  0.50400001928E-02 0.  1.
    10030    2    1    2    0    0  0.00000000000E+00  0.00000000000E+00 -0.13425130553E+04  0.16174652346E+04  0.90213772866E+03 0.  0.
        5    1    3    3  502    0 -0.18530580882E+03  0.37759242697E+02 -0.14054303438E+04  0.14181045604E+04  0.46999998093E+01 0.  1.
       -5    1    3    3    0  502  0.18530580882E+03 -0.37759242697E+02  0.62917288507E+02  0.19936067411E+03  0.46999998093E+01 0. -1.
</event>
<event>
 5   0  0.1454652E-02  0.9028882E+03  0.7818609E-02  0.9421978E-01
        2   -1    0    0  501    0  0.00000000000E+00  0.00000000000E+00  0.27263444592E+03  0.27263444593E+03  0.25500000920E-02 0. -1.
       -2   -1    0    0    0  501  0.00000000000E+00  0.00000000000E+00 -0.74752756199E+03  0.74752756200E+03  0.25500000920E-02 0.  1.
    10030    2    1    2    0    0  0.00000000000E+00  0.00000000000E+00 -0.47489311607E+03  0.10201620079E+04  0.90288817177E+03 0.  0.
        4    1    3    3  502    0  0.22353193363E+03 -0.30604713456E+02  0.20436251481E+03  0.30441554526E+03  0.12699999809E+01 0. -1.
       -4    1    3    3    0  502 -0.22353193363E+03  0.30604713456E+02 -0.67925563088E+03  0.71574646267E+03  0.12699999809E+01 0.  1.
</event>
<event>
 5   0  0.1441195E-02  0.9178688E+03  0.7818609E-02  0.9403516E-01
        2   -1    0    0  501    0  0.00000000000E+00  0.00000000000E+00  0.62791948817E+03  0.62791948818E+03  0.25500000920E-02 0.  1.
       -2   -1    0    0    0  501  0.00000000000E+00  0.00000000000E+00 -0.33542644857E+03  0.33542644858E+03  0.25500000920E-02 0. -1.
    10030    2    1    2    0    0  0.00000000000E+00  0.00000000000E+00  0.29249303960E+03  0.96334593676E+03  0.91786884448E+03 0.  0.
        5    1    3    3  502    0 -0.36890347536E+03  0.21967773191E+03 -0.23801484256E+02  0.43004264984E+03  0.46999998093E+01 0.  1.
       -5    1    3    3    0  502  0.36890347536E+03 -0.21967773191E+03  0.31629452386E+03  0.53330328693E+03  0.46999998093E+01 0. -1.
</event>
<event>
 5   0  0.8612969E-03  0.9041087E+03  0.7818609E-02  0.9420460E-01
       -1   -1    0    0    0  501  0.00000000000E+00  0.00000000000E+00  0.33405626580E+03  0.33405626584E+03  0.50400001928E-02 0. -1.
        1   -1    0    0  501    0  0.00000000000E+00  0.00000000000E+00 -0.61173265801E+03  0.61173265803E+03  0.50400001928E-02 0.  1.
    10030    2    1    2    0    0  0.00000000000E+00  0.00000000000E+00 -0.27767639221E+03  0.94578892387E+03  0.90410868247E+03 0.  0.
        4    1    3    3  502    0  0.40469794211E+02 -0.20498464130E+03  0.28050999631E+03  0.34977704090E+03  0.12699999809E+01 0.  1.
       -4    1    3    3    0  502 -0.40469794211E+02  0.20498464130E+03 -0.55818638852E+03  0.59601188297E+03  0.12699999809E+01 0. -1.
</event>
<event>
 5   0  0.5770125E-03  0.8735308E+03  0.7818609E-02  0.9459288E-01
        4   -1    0    0  501    0  0.00000000000E+00  0.00000000000E+00  0.39213446642E+03  0.39213652298E+03  0.12699999809E+01 0. -1.
       -4   -1    0    0    0  501  0.00000000000E+00  0.00000000000E+00 -0.48647180715E+03  0.48647346490E+03  0.12699999809E+01 0.  1.
    10030    2    1    2    0    0  0.00000000000E+00  0.00000000000E+00 -0.94337340728E+02  0.87860998787E+03  0.87353075329E+03 0.  0.
        1    1    3    3  502    0  0.23531578848E+03 -0.25748880784E+03 -0.31154678094E+03  0.46769156846E+03  0.50400001928E-02 0.  1.
       -1    1    3    3    0  502 -0.23531578848E+03  0.25748880784E+03  0.21720944021E+03  0.41091841941E+03  0.50400001928E-02 0. -1.
</event>
<event>
 5   0  0.1441195E-02  0.9068742E+03  0.7818609E-02  0.9417029E-01
       -2   -1    0    0    0  501  0.00000000000E+00  0.00000000000E+00  0.44431437581E+03  0.44431437581E+03  0.25500000920E-02 0. -1.
        2   -1    0    0  501    0  0.00000000000E+00  0.00000000000E+00 -0.46274712855E+03  0.46274712855E+03  0.25500000920E-02 0.  1.
    10030    2    1    2    0    0  0.00000000000E+00  0.00000000000E+00 -0.18432752741E+02  0.90706150437E+03  0.90687419543E+03 0.  0.
        5    1    3    3  502    0  0.43825352144E+03  0.11224027073E+03  0.21106286129E+02  0.45291455346E+03  0.46999998093E+01 0.  1.
       -5    1    3    3    0  502 -0.43825352144E+03 -0.11224027073E+03 -0.39539038870E+02  0.45414695091E+03  0.46999998093E+01 0. -1.
</event>
<event>
 5   0  0.8738044E-03  0.8761180E+03  0.7818609E-02  0.9455938E-01
        1   -1    0    0  501    0  0.00000000000E+00  0.00000000000E+00  0.63952682564E+03  0.63952682566E+03  0.50400001928E-02 0.  1.
       -1   -1    0    0    0  501  0.00000000000E+00  0.00000000000E+00 -0.30005884953E+03  0.30005884957E+03  0.50400001928E-02 0. -1.
    10030    2    1    2    0    0  0.00000000000E+00  0.00000000000E+00  0.33946797612E+03  0.93958567523E+03  0.87611799108E+03 0.  0.
        3    1    3    3  502    0  0.43215749271E+03 -0.54005929760E+02  0.11921600282E+03  0.45154092227E+03  0.10100000352E+00 0.  1.
       -3    1    3    3    0  502 -0.43215749271E+03  0.54005929760E+02  0.22025197330E+03  0.48804475296E+03  0.10100000352E+00 0. -1.
</event>
<event>
 5   0  0.1483326E-02  0.8919958E+03  0.7818609E-02  0.9435643E-01
        2   -1    0    0  501    0  0.00000000000E+00  0.00000000000E+00  0.36389239781E+03  0.36389239782E+03  0.25500000920E-02 0. -1.
       -2   -1    0    0    0  501  0.00000000000E+00  0.00000000000E+00 -0.54662900246E+03  0.54662900246E+03  0.25500000920E-02 0.  1.
    10030    2    1    2    0    0  0.00000000000E+00  0.00000000000E+00 -0.18273660464E+03  0.91052140028E+03  0.89199582605E+03 0.  0.
        1    1    3    3  502    0  0.33135496561E+03  0.16944614771E+03 -0.34224913124E+03  0.50561109370E+03  0.50400001928E-02 0.  1.
       -1    1    3    3    0  502 -0.33135496561E+03 -0.16944614771E+03  0.15951252660E+03  0.40491030658E+03  0.50400001928E-02 0. -1.
</event>
<event>
 5   0  0.8291252E-03  0.9018387E+03  0.7818609E-02  0.9423286E-01
       -1   -1    0    0    0  501  0.00000000000E+00  0.00000000000E+00  0.15733877000E+04  0.15733877000E+04  0.50400001928E-02 0.  1.
        1   -1    0    0  501    0  0.00000000000E+00  0.00000000000E+00 -0.12922959335E+03  0.12922959345E+03  0.50400001928E-02 0. -1.
    10030    2    1    2    0    0  0.00000000000E+00  0.00000000000E+00  0.14441581066E+04  0.17026172934E+04  0.90183868343E+03 0.  0.
        1    1    3    3  502    0  0.16349221282E+02  0.41888971479E+03  0.40847430928E+03  0.58530944941E+03  0.50400001928E-02 0.  1.
       -1    1    3    3    0  502 -0.16349221282E+02 -0.41888971479E+03  0.10356837973E+04  0.11173078440E+04  0.50400001928E-02 0. -1.
</event>
<event>
 5   0  0.1483326E-02  0.8903196E+03  0.7818609E-02  0.9437764E-01
       -2   -1    0    0    0  501  0.00000000000E+00  0.00000000000E+00  0.50178024478E+03  0.50178024478E+03  0.25500000920E-02 0.  1.
        2   -1    0    0  501    0  0.00000000000E+00  0.00000000000E+00 -0.39492832689E+03  0.39492832690E+03  0.25500000920E-02 0. -1.
    10030    2    1    2    0    0  0.00000000000E+00  0.00000000000E+00  0.10685191789E+03  0.89670857168E+03  0.89031956632E+03 0.  0.
        1    1    3    3  502    0 -0.20048153544E+03 -0.37588205357E+03  0.18353138965E+03  0.46385766703E+03  0.50400001928E-02 0.  1.
       -1    1    3    3    0  502  0.20048153544E+03  0.37588205357E+03 -0.76679471763E+02  0.43285090466E+03  0.50400001928E-02 0. -1.
</event>
<event>
 5   0  0.1483326E-02  0.8276151E+03  0.7818609E-02  0.9520884E-01
        2   -1    0    0  501    0  0.00000000000E+00  0.00000000000E+00  0.18327119610E+04  0.18327119610E+04  0.25500000920E-02 0. -1.
       -2   -1    0    0    0  501  0.00000000000E+00  0.00000000000E+00 -0.93433499685E+02  0.93433499720E+02  0.25500000920E-02 0.  1.
    10030    2    1    2    0    0  0.00000000000E+00  0.00000000000E+00  0.17392784613E+04  0.19261454607E+04  0.82761510974E+03 0.  0.
        1    1    3    3  502    0  0.59385979017E+02  0.29436651490E+03  0.20702683243E+03  0.36474436112E+03  0.50400001928E-02 0.  1.
       -1    1    3    3    0  502 -0.59385979017E+02 -0.29436651490E+03  0.15322516289E+04  0.15614010996E+04  0.50400001928E-02 0. -1.
</event>
<event>
 5   0  0.1441195E-02  0.9191654E+03  0.7818609E-02  0.9401936E-01
        2   -1    0    0  501    0  0.00000000000E+00  0.00000000000E+00  0.96372379635E+03  0.96372379635E+03  0.25500000920E-02 0.  1.
       -2   -1    0    0    0  501  0.00000000000E+00  0.00000000000E+00 -0.21916680327E+03  0.21916680329E+03  0.25500000920E-02 0. -1.
    10030    2    1    2    0    0  0.00000000000E+00  0.00000000000E+00  0.74455699307E+03  0.11828905996E+04  0.91916541209E+03 0.  0.
        5    1    3    3  502    0  0.38866159385E+03  0.14858655061E+03  0.62333763485E+03  0.74947161025E+03  0.46999998093E+01 0.  1.
       -5    1    3    3    0  502 -0.38866159385E+03 -0.14858655061E+03  0.12121935822E+03  0.43341898938E+03  0.46999998093E+01 0. -1.
</event>
<event>
 5   0  0.1440615E-02  0.8994195E+03  0.7818609E-02  0.9426307E-01
        2   -1    0    0  501    0  0.00000000000E+00  0.00000000000E+00  0.20505890229E+04  0.20505890229E+04  0.25500000920E-02 0.  1.
       -2   -1    0    0    0  501  0.00000000000E+00  0.00000000000E+00 -0.98624765373E+02  0.98624765406E+02  0.25500000920E-02 0. -1.
    10030    2    1    2    0    0  0.00000000000E+00  0.00000000000E+00  0.19519642576E+04  0.21492137884E+04  0.89941950457E+03 0.  0.
        3    1    3    3  502    0 -0.68492403410E+02 -0.44427924280E+03  0.94541857068E+03  0.10468483839E+04  0.10100000352E+00 0. -1.
       -3    1    3    3    0  502  0.68492403410E+02  0.44427924280E+03  0.10065456869E+04  0.11023654044E+04  0.10100000352E+00 0.  1.
</event>
<event>
 5   0  0.8885324E-03  0.8984487E+03  0.7818609E-02  0.9427523E-01
        1   -1    0    0  501    0  0.00000000000E+00  0.00000000000E+00  0.14231633324E+04  0.14231633324E+04  0.50400001928E-02 0. -1.
       -1   -1    0    0    0  501  0.00000000000E+00  0.00000000000E+00 -0.14179855626E+03  0.14179855635E+03  0.50400001928E-02 0.  1.
    10030    2    1    2    0    0  0.00000000000E+00  0.00000000000E+00  0.12813647761E+04  0.15649618887E+04  0.89844867617E+03 0.  0.
        2    1    3    3  502    0  0.12249620306E+03  0.35617737048E+03  0.10671148574E+04  0.11316367606E+04  0.25500000920E-02 0. -1.
       -2    1    3    3    0  502 -0.12249620306E+03 -0.35617737048E+03  0.21424991872E+03  0.43332512815E+03  0.25500000920E-02 0.  1.
</event>
<event>
 5   0  0.8738044E-03  0.9066604E+03  0.7818609E-02  0.9417294E-01
       -1   -1    0    0    0  501  0.00000000000E+00  0.00000000000E+00  0.27455675837E+03  0.27455675841E+03  0.50400001928E-02 0.  1.
        1   -1    0    0  501    0  0.00000000000E+00  0.00000000000E+00 -0.74850932002E+03  0.74850932004E+03  0.50400001928E-02 0. -1.
    10030    2    1    2    0    0  0.00000000000E+00  0.00000000000E+00 -0.47395256166E+03  0.10230660784E+04  0.90666044922E+03 0.  0.
        3    1    3    3  502    0  0.26375788596E+03  0.31914753380E+03 -0.28651899863E+02  0.41502326718E+03  0.10100000352E+00 0.  1.
       -3    1    3    3    0  502 -0.26375788596E+03 -0.31914753380E+03 -0.44530066179E+03  0.60804281127E+03  0.10100000352E+00 0. -1.
</event>
<event>
 5   0  0.8524692E-03  0.8827394E+03  0.7818609E-02  0.9447419E-01
        1   -1    0    0  501    0  0.00000000000E+00  0.00000000000E+00  0.23841932374E+04  0.23841932374E+04  0.50400001928E-02 0. -1.
       -1   -1    0    0    0  501  0.00000000000E+00  0.00000000000E+00 -0.81707805742E+02  0.81707805898E+02  0.50400001928E-02 0.  1.
    10030    2    1    2    0    0  0.00000000000E+00  0.00000000000E+00  0.23024854316E+04  0.24659010433E+04  0.88273936831E+03 0.  0.
        5    1    3    3  502    0 -0.18163479150E+03  0.34706595918E+03  0.17192106508E+04  0.17632791411E+04  0.46999998093E+01 0. -1.
       -5    1    3    3    0  502  0.18163479150E+03 -0.34706595918E+03  0.58327478079E+03  0.70262190217E+03  0.46999998093E+01 0.  1.
</event>
<event>
 5   0  0.5770125E-03  0.9092586E+03  0.7818609E-02  0.9414081E-01
       -3   -1    0    0    0  501  0.00000000000E+00  0.00000000000E+00  0.81336102612E+03  0.81336103239E+03  0.10100000352E+00 0.  1.
        3   -1    0    0  501    0  0.00000000000E+00  0.00000000000E+00 -0.25411569687E+03  0.25411571694E+03  0.10100000352E+00 0. -1.
    10030    2    1    2    0    0  0.00000000000E+00  0.00000000000E+00  0.55924532925E+03  0.10674767493E+04  0.90925863872E+03 0.  0.
        3    1    3    3  502    0 -0.22225908325E+03  0.18300757491E+03  0.69269483374E+03  0.75014466301E+03  0.10100000352E+00 0.  1.
       -3    1    3    3    0  502  0.22225908325E+03 -0.18300757491E+03 -0.13344950449E+03  0.31733208632E+03  0.10100000352E+00 0. -1.
</event>
<event>
 5   0  0.8885324E-03  0.9103903E+03  0.7818609E-02  0.9412685E-01
       -1   -1    0    0    0  501  0.00000000000E+00  0.00000000000E+00  0.22732796193E+03  0.22732796198E+03  0.50400001928E-02 0. -1.
        1   -1    0    0  501    0  0.00000000000E+00  0.00000000000E+00 -0.91147006419E+03  0.91147006421E+03  0.50400001928E-02 0.  1.
    10030    2    1    2    0    0  0.00000000000E+00  0.00000000000E+00 -0.68414210227E+03  0.11387980262E+04  0.91039031649E+03 0.  0.
        2    1    3    3  502    0 -0.50414354539E+02  0.43287153362E+03 -0.50652030668E+03  0.66819323017E+03  0.25500000920E-02 0. -1.
       -2    1    3    3    0  502  0.50414354539E+02 -0.43287153362E+03 -0.17762179558E+03  0.47060479602E+03  0.25500000920E-02 0.  1.
</event>
<event>
 5   0  0.8291252E-03  0.8995522E+03  0.7818609E-02  0.9426141E-01
       -1   -1    0    0    0  501  0.00000000000E+00  0.00000000000E+00  0.28562827423E+03  0.28562827428E+03  0.50400001928E-02 0.  1.
        1   -1    0    0  501    0  0.00000000000E+00  0.00000000000E+00 -0.70825814493E+03  0.70825814495E+03  0.50400001928E-02 0. -1.
    10030    2    1    2    0    0  0.00000000000E+00  0.00000000000E+00 -0.42262987070E+03  0.99388641922E+03  0.89955222567E+03 0.  0.
        1    1    3    3  502    0 -0.28149757644E+03 -0.34865165637E+03 -0.16852802546E+03  0.47874895135E+03  0.50400001928E-02 0.  1.
       -1    1    3    3    0  502  0.28149757644E+03  0.34865165637E+03 -0.25410184524E+03  0.51513746787E+03  0.50400001928E-02 0. -1.
</event>
<event>
 5   0  0.1483326E-02  0.9029178E+03  0.7818609E-02  0.9421941E-01
        2   -1    0    0  501    0  0.00000000000E+00  0.00000000000E+00  0.21137016470E+04  0.21137016470E+04  0.25500000920E-02 0.  1.
       -2   -1    0    0    0  501  0.00000000000E+00  0.00000000000E+00 -0.96425685421E+02  0.96425685455E+02  0.25500000920E-02 0. -1.
    10030    2    1    2    0    0  0.00000000000E+00  0.00000000000E+00  0.20172759615E+04  0.22101273324E+04  0.90291778169E+03 0.  0.
        1    1    3    3  502    0 -0.17212587621E+03  0.21369554784E+03  0.13111626922E+03  0.30411277597E+03  0.50400001928E-02 0. -1.
       -1    1    3    3    0  502  0.17212587621E+03 -0.21369554784E+03  0.18861596923E+04  0.19060145564E+04  0.50400001928E-02 0.  1.
</event>
<event>
 5   0  0.8738044E-03  0.8961656E+03  0.7818609E-02  0.9430387E-01
        1   -1    0    0  501    0  0.00000000000E+00  0.00000000000E+00  0.56327979827E+03  0.56327979829E+03  0.50400001928E-02 0. -1.
       -1   -1    0    0    0  501  0.00000000000E+00  0.00000000000E+00 -0.35644484045E+03  0.35644484048E+03  0.50400001928E-02 0.  1.
    10030    2    1    2    0    0  0.00000000000E+00  0.00000000000E+00  0.20683495782E+03  0.91972463878E+03  0.89616556026E+03 0.  0.
        3    1    3    3  502    0  0.34792794164E+03  0.78583631317E+02  0.38174602093E+03  0.52245504532E+03  0.10100000352E+00 0.  1.
       -3    1    3    3    0  502 -0.34792794164E+03 -0.78583631317E+02 -0.17491106311E+03  0.39726959345E+03  0.10100000352E+00 0. -1.
</event>
<event>
 5   0  0.1535906E-02  0.8976272E+03  0.7818609E-02  0.9428552E-01
        2   -1    0    0  501    0  0.00000000000E+00  0.00000000000E+00  0.53349526506E+03  0.53349526507E+03  0.25500000920E-02 0. -1.
       -2   -1    0    0    0  501  0.00000000000E+00  0.00000000000E+00 -0.37757345092E+03  0.37757345093E+03  0.25500000920E-02 0.  1.
    10030    2    1    2    0    0  0.00000000000E+00  0.00000000000E+00  0.15592181414E+03  0.91106871600E+03  0.89762720165E+03 0.  0.
        2    1    3    3  502    0  0.40655975593E+02  0.33406818001E+03 -0.22343557883E+03  0.40395286252E+03  0.25500000920E-02 0.  1.
       -2    1    3    3    0  502 -0.40655975593E+02 -0.33406818001E+03  0.37935739296E+03  0.50711585348E+03  0.25500000920E-02 0. -1.
</event>
<event>
 5   0  0.8524692E-03  0.8980517E+03  0.7818609E-02  0.9428020E-01
       -1   -1    0    0    0  501  0.00000000000E+00  0.00000000000E+00  0.37342801772E+03  0.37342801776E+03  0.50400001928E-02 0. -1.
        1   -1    0    0  501    0  0.00000000000E+00  0.00000000000E+00 -0.53992792736E+03  0.53992792738E+03  0.50400001928E-02 0.  1.
    10030    2    1    2    0    0  0.00000000000E+00  0.00000000000E+00 -0.16649990963E+03  0.91335594514E+03  0.89805170375E+03 0.  0.
        5    1    3    3  502    0 -0.15702968744E+03 -0.41577531136E+03 -0.18328807574E+02  0.44484319424E+03  0.46999998093E+01 0. -1.
       -5    1    3    3    0  502  0.15702968744E+03  0.41577531136E+03 -0.14817110206E+03  0.46851275090E+03  0.46999998093E+01 0.  1.
</event>
<event>
 5   0  0.1454652E-02  0.9038350E+03  0.7818609E-02  0.9420800E-01
        2   -1    0    0  501    0  0.00000000000E+00  0.00000000000E+00  0.72989529233E+03  0.72989529234E+03  0.25500000920E-02 0.  1.
       -2   -1    0    0    0  501  0.00000000000E+00  0.00000000000E+00 -0.27980644788E+03  0.27980644789E+03  0.25500000920E-02 0. -1.
    10030    2    1    2    0    0  0.00000000000E+00  0.00000000000E+00  0.45008884445E+03  0.10097017402E+04  0.90383496078E+03 0.  0.
        4    1    3    3  502    0  0.31342197068E+03  0.52174860464E+02  0.58404552691E+03  0.66488069469E+03  0.12699999809E+01 0. -1.
       -4    1    3    3    0  502 -0.31342197068E+03 -0.52174860464E+02 -0.13395668246E+03  0.34482104554E+03  0.12699999809E+01 0.  1.
</event>
<event>
 5   0  0.1483326E-02  0.9394057E+03  0.7818609E-02  0.9377620E-01
        2   -1    0    0  501    0  0.00000000000E+00  0.00000000000E+00  0.59836449749E+03  0.59836449750E+03  0.25500000920E-02 0. -1.
       -2   -1    0    0    0  501  0.00000000000E+00  0.00000000000E+00 -0.36870630219E+03  0.36870630220E+03  0.25500000920E-02 0.  1.
    10030    2    1    2    0    0  0.00000000000E+00  0.00000000000E+00  0.22965819530E+03  0.96707079969E+03  0.93940568710E+03 0.  0.
        1    1    3    3  502    0  0.19695658834E+03  0.34976232814E+03 -0.13627047107E+03  0.42390473598E+03  0.50400001928E-02 0.  1.
       -1    1    3    3    0  502 -0.19695658834E+03 -0.34976232814E+03  0.36592866637E+03  0.54316606372E+03  0.50400001928E-02 0. -1.
</event>
<event>
 5   0  0.1483326E-02  0.8912859E+03  0.7818609E-02  0.9436540E-01
       -2   -1    0    0    0  501  0.00000000000E+00  0.00000000000E+00  0.36300739770E+03  0.36300739771E+03  0.25500000920E-02 0.  1.
        2   -1    0    0  501    0  0.00000000000E+00  0.00000000000E+00 -0.54708979543E+03  0.54708979543E+03  0.25500000920E-02 0. -1.
    10030    2    1    2    0    0  0.00000000000E+00  0.00000000000E+00 -0.18408239773E+03  0.91009719315E+03  0.89128590913E+03 0.  0.
        1    1    3    3  502    0 -0.31828322722E+03  0.31186631304E+03 -0.86190254744E+02  0.45386514515E+03  0.50400001928E-02 0.  1.
       -1    1    3    3    0  502  0.31828322722E+03 -0.31186631304E+03 -0.97892142981E+02  0.45623204800E+03  0.50400001928E-02 0. -1.
</event>
<event>
 5   0  0.8612969E-03  0.8565330E+03  0.7818609E-02  0.9481610E-01
       -1   -1    0    0    0  501  0.00000000000E+00  0.00000000000E+00  0.20958872154E+03  0.20958872160E+03  0.50400001928E-02 0. -1.
        1   -1    0    0  501    0  0.00000000000E+00  0.00000000000E+00 -0.87510523867E+03  0.87510523869E+03  0.50400001928E-02 0.  1.
    10030    2    1    2    0    0  0.00000000000E+00  0.00000000000E+00 -0.66551651714E+03  0.10846939603E+04  0.85653298413E+03 0.  0.
        4    1    3    3  502    0 -0.83622493940E+02  0.12443565243E+03  0.17526842449E+03  0.23064602015E+03  0.12699999809E+01 0. -1.
       -4    1    3    3    0  502  0.83622493940E+02 -0.12443565243E+03 -0.84078494163E+03  0.85404794014E+03  0.12699999809E+01 0.  1.
</event>
<event>
 5   0  0.1454652E-02  0.9027244E+03  0.7818609E-02  0.9422182E-01
       -2   -1    0    0    0  501  0.00000000000E+00  0.00000000000E+00  0.47095539583E+03  0.47095539583E+03  0.25500000920E-02 0.  1.
        2   -1    0    0  501    0  0.00000000000E+00  0.00000000000E+00 -0.43258409513E+03  0.43258409514E+03  0.25500000920E-02 0. -1.
    10030    2    1    2    0    0  0.00000000000E+00  0.00000000000E+00  0.38371300698E+02  0.90353949097E+03  0.90272435163E+03 0.  0.
        4    1    3    3  502    0  0.56490761468E+00  0.24972372111E+03  0.39550912411E+03  0.46775136147E+03  0.12699999809E+01 0.  1.
       -4    1    3    3    0  502 -0.56490761468E+00 -0.24972372111E+03 -0.35713782341E+03  0.43578812950E+03  0.12699999809E+01 0. -1.
</event>
<event>
 5   0  0.1454652E-02  0.8946567E+03  0.7818609E-02  0.9432286E-01
        2   -1    0    0  501    0  0.00000000000E+00  0.00000000000E+00  0.48813636103E+03  0.48813636104E+03  0.25500000920E-02 0. -1.
       -2   -1    0    0    0  501  0.00000000000E+00  0.00000000000E+00 -0.40993183737E+03  0.40993183737E+03  0.25500000920E-02 0.  1.
    10030    2    1    2    0    0  0.00000000000E+00  0.00000000000E+00  0.78204523666E+02  0.89806819841E+03  0.89465666123E+03 0.  0.
        4    1    3    3  502    0  0.39389258036E+03  0.21197114396E+03  0.43348253647E+02  0.44940384370E+03  0.12699999809E+01 0.  1.
       -4    1    3    3    0  502 -0.39389258036E+03 -0.21197114396E+03  0.34856270019E+02  0.44866435472E+03  0.12699999809E+01 0. -1.
</event>
<event>
 5   0  0.5770125E-03  0.8758662E+03  0.7818609E-02  0.9456263E-01
        4   -1    0    0  501    0  0.00000000000E+00  0.00000000000E+00  0.17716285117E+03  0.17716740314E+03  0.12699999809E+01 0.  1.
       -4   -1    0    0    0  501  0.00000000000E+00  0.00000000000E+00 -0.10825185404E+04  0.10825192853E+04  0.12699999809E+01 0. -1.
    10030    2    1    2    0    0  0.00000000000E+00  0.00000000000E+00 -0.90535568919E+03  0.12596866885E+04  0.87586621648E+03 0.  0.
        1    1    3    3  502    0 -0.27826419360E+03  0.31551047307E+03 -0.62768947647E+03  0.75562682519E+03  0.50400001928E-02 0. -1.
       -1    1    3    3    0  502  0.27826419360E+03 -0.31551047307E+03 -0.27766621272E+03  0.50405986328E+03  0.50400001928E-02 0.  1.
</event>
<event>
 5   0  0.1483326E-02  0.7570678E+03  0.7818609E-02  0.9624327E-01
       -2   -1    0    0    0  501  0.00000000000E+00  0.00000000000E+00  0.73348631697E+03  0.73348631698E+03  0.25500000920E-02 0. -1.
        2   -1    0    0  501    0  0.00000000000E+00  0.00000000000E+00 -0.19535187786E+03  0.19535187787E+03  0.25500000920E-02 0.  1.
    10030    2    1    2    0    0  0.00000000000E+00  0.00000000000E+00  0.53813443912E+03  0.92883819485E+03  0.75706784217E+03 0.  0.
        1    1    3    3  502    0  0.31968978458E+02 -0.37644282468E+03  0.24011904632E+03  0.44764759830E+03  0.50400001928E-02 0. -1.
       -1    1    3    3    0  502 -0.31968978458E+02  0.37644282468E+03  0.29801539280E+03  0.48119059655E+03  0.50400001928E-02 0.  1.
</event>
<event>
 5   0  0.8738044E-03  0.8893211E+03  0.7818609E-02  0.9439030E-01
       -1   -1    0    0    0  501  0.00000000000E+00  0.00000000000E+00  0.62473003664E+03  0.62473003666E+03  0.50400001928E-02 0.  1.
        1   -1    0    0  501    0  0.00000000000E+00  0.00000000000E+00 -0.31649349312E+03  0.31649349316E+03  0.50400001928E-02 0. -1.
    10030    2    1    2    0    0  0.00000000000E+00  0.00000000000E+00  0.30823654353E+03  0.94122352982E+03  0.88932107044E+03 0.  0.
        3    1    3    3  502    0  0.18226440214E+03 -0.19248718042E+03 -0.22372041334E+03  0.34687528084E+03  0.10100000352E+00 0. -1.
       -3    1    3    3    0  502 -0.18226440214E+03  0.19248718042E+03  0.53195695686E+03  0.59434824898E+03  0.10100000352E+00 0.  1.
</event>
<event>
 5   0  0.8524692E-03  0.9065892E+03  0.7818609E-02  0.9417382E-01
       -1   -1    0    0    0  501  0.00000000000E+00  0.00000000000E+00  0.32832108935E+03  0.32832108939E+03  0.50400001928E-02 0. -1.
        1   -1    0    0  501    0  0.00000000000E+00  0.00000000000E+00 -0.62583849482E+03  0.62583849484E+03  0.50400001928E-02 0.  1.
    10030    2    1    2    0    0  0.00000000000E+00  0.00000000000E+00 -0.29751740547E+03  0.95415958423E+03  0.90658916032E+03 0.  0.
        5    1    3    3  502    0 -0.29103706447E+02  0.45187626668E+03 -0.12732596438E+03  0.47039682963E+03  0.46999998093E+01 0. -1.
       -5    1    3    3    0  502  0.29103706447E+02 -0.45187626668E+03 -0.17019144108E+03  0.48376275460E+03  0.46999998093E+01 0.  1.
</event>
<event>
 5   0  0.8738044E-03  0.9403233E+03  0.7818609E-02  0.9376533E-01
       -1   -1    0    0    0  501  0.00000000000E+00  0.00000000000E+00  0.22491201926E+03  0.22491201932E+03  0.50400001928E-02 0. -1.
        1   -1    0    0  501    0  0.00000000000E+00  0.00000000000E+00 -0.98283763773E+03  0.98283763775E+03  0.50400001928E-02 0.  1.
    10030    2    1    2    0    0  0.00000000000E+00  0.00000000000E+00 -0.75792561847E+03  0.12077496571E+04  0.94032334386E+03 0.  0.
        3    1    3    3  502    0  0.23887045297E+03 -0.25026974842E+03  0.29948016397E+02  0.34726205402E+03  0.10100000352E+00 0. -1.
       -3    1    3    3    0  502 -0.23887045297E+03  0.25026974842E+03 -0.78787363487E+03  0.86048760305E+03  0.10100000352E+00 0.  1.
</event>
<event>
 5   0  0.8885324E-03  0.9251737E+03  0.7818609E-02  0.9394649E-01
        1   -1    0    0  501    0  0.00000000000E+00  0.00000000000E+00  0.37530484758E+03  0.37530484761E+03  0.50400001928E-02 0. -1.
       -1   -1    0    0    0  501  0.00000000000E+00  0.00000000000E+00 -0.57016747074E+03  0.57016747076E+03  0.50400001928E-02 0.  1.
    10030    2    1    2    0    0  0.00000000000E+00  0.00000000000E+00 -0.19486262316E+03  0.94547231837E+03  0.92517374741E+03 0.  0.
        2    1    3    3  502    0  0.34259932285E+03  0.11149387850E+03  0.19907482015E+03  0.41162600134E+03  0.25500000920E-02 0. -1.
       -2    1    3    3    0  502 -0.34259932285E+03 -0.11149387850E+03 -0.39393744331E+03  0.53384631703E+03  0.25500000920E-02 0.  1.
</event>
<event>
 5   0  0.1440615E-02  0.8734841E+03  0.7818609E-02  0.9459348E-01
        2   -1    0    0  501    0  0.00000000000E+00  0.00000000000E+00  0.15028402731E+04  0.15028402731E+04  0.25500000920E-02 0.  1.
       -2   -1    0    0    0  501  0.00000000000E+00  0.00000000000E+00 -0.12692209704E+03  0.12692209706E+03  0.25500000920E-02 0. -1.
    10030    2    1    2    0    0  0.00000000000E+00  0.00000000000E+00  0.13759181760E+04  0.16297623701E+04  0.87348414751E+03 0.  0.
        3    1    3    3  502    0 -0.12012359162E+03  0.31731875729E+03  0.17486676814E+03  0.38170573455E+03  0.10100000352E+00 0. -1.
       -3    1    3    3    0  502  0.12012359162E+03 -0.31731875729E+03  0.12010514079E+04  0.12480566356E+04  0.10100000352E+00 0.  1.
</event>
<event>
 5   0  0.1441195E-02  0.8817094E+03  0.7818609E-02  0.9448739E-01
       -2   -1    0    0    0  501  0.00000000000E+00  0.00000000000E+00  0.12033401777E+03  0.12033401779E+03  0.25500000920E-02 0. -1.
        2   -1    0    0  501    0  0.00000000000E+00  0.00000000000E+00 -0.16151116836E+04  0.16151116836E+04  0.25500000920E-02 0.  1.
    10030    2    1    2    0    0  0.00000000000E+00  0.00000000000E+00 -0.14947776658E+04  0.17354457014E+04  0.88170942616E+03 0.  0.
        5    1    3    3  502    0 -0.10117029747E+02  0.36531781858E+02 -0.16118485316E+04  0.16123010588E+04  0.46999998093E+01 0.  1.
       -5    1    3    3    0  502  0.10117029747E+02 -0.36531781858E+02  0.11707086580E+03  0.12314464257E+03  0.46999998093E+01 0. -1.
</event>
<event>
 5   0  0.1535906E-02  0.9032361E+03  0.7818609E-02  0.9421545E-01
        2   -1    0    0  501    0  0.00000000000E+00  0.00000000000E+00  0.19332307928E+04  0.19332307928E+04  0.25500000920E-02 0.  1.
       -2   -1    0    0    0  501  0.00000000000E+00  0.00000000000E+00 -0.10550155290E+03  0.10550155293E+03  0.25500000920E-02 0. -1.
    10030    2    1    2    0    0  0.00000000000E+00  0.00000000000E+00  0.18277292399E+04  0.20387323457E+04  0.90323607276E+03 0.  0.
        2    1    3    3  502    0  0.37171436599E+03  0.78671982461E+02  0.36283520524E+03  0.52536676416E+03  0.25500000920E-02 0. -1.
       -2    1    3    3    0  502 -0.37171436599E+03 -0.78671982461E+02  0.14648940347E+04  0.15133655816E+04  0.25500000920E-02 0.  1.
</event>
<event>
 5   0  0.8885324E-03  0.7355888E+03  0.7818609E-02  0.9658234E-01
        1   -1    0    0  501    0  0.00000000000E+00  0.00000000000E+00  0.44073354637E+03  0.44073354640E+03  0.50400001928E-02 0. -1.
       -1   -1    0    0    0  501  0.00000000000E+00  0.00000000000E+00 -0.30692630217E+03  0.30692630221E+03  0.50400001928E-02 0.  1.
    10030    2    1    2    0    0  0.00000000000E+00  0.00000000000E+00  0.13380724421E+03  0.74765984861E+03  0.73558879180E+03 0.  0.
        2    1    3    3  502    0 -0.30074056355E+03 -0.20767504815E+03  0.25009454917E+02  0.36633220583E+03  0.25500000920E-02 0.  1.
       -2    1    3    3    0  502  0.30074056355E+03  0.20767504815E+03  0.10879778929E+03  0.38132764278E+03  0.25500000920E-02 0. -1.
</event>
<event>
 5   0  0.1483326E-02  0.8953789E+03  0.7818609E-02  0.9431377E-01
        2   -1    0    0  501    0  0.00000000000E+00  0.00000000000E+00  0.46711998762E+03  0.46711998762E+03  0.25500000920E-02 0.  1.
       -2   -1    0    0    0  501  0.00000000000E+00  0.00000000000E+00 -0.42906715083E+03  0.42906715084E+03  0.25500000920E-02 0. -1.
    10030    2    1    2    0    0  0.00000000000E+00  0.00000000000E+00  0.38052836785E+02  0.89618713846E+03  0.89537889676E+03 0.  0.
        1    1    3    3  502    0  0.20623995288E+03  0.36768166419E+03 -0.13177848891E+03  0.44169026988E+03  0.50400001928E-02 0. -1.
       -1    1    3    3    0  502 -0.20623995288E+03 -0.36768166419E+03  0.16983132569E+03  0.45449686859E+03  0.50400001928E-02 0.  1.
</event>
<event>
 5   0  0.5770125E-03  0.8823624E+03  0.7818609E-02  0.9447902E-01
       -3   -1    0    0    0  501  0.00000000000E+00  0.00000000000E+00  0.44831221753E+03  0.44831222891E+03  0.10100000352E+00 0.  1.
        3   -1    0    0  501    0  0.00000000000E+00  0.00000000000E+00 -0.43416356101E+03  0.43416357276E+03  0.10100000352E+00 0. -1.
    10030    2    1    2    0    0  0.00000000000E+00  0.00000000000E+00  0.14148656516E+02  0.88247580167E+03  0.88236237230E+03 0.  0.
        2    1    3    3  502    0  0.17824848310E+03 -0.13026471233E+03 -0.37494260292E+03  0.43511305715E+03  0.25500000920E-02 0. -1.
       -2    1    3    3    0  502 -0.17824848310E+03  0.13026471233E+03  0.38909125944E+03  0.44736274452E+03  0.25500000920E-02 0.  1.
</event>
<event>
 5   0  0.5770125E-03  0.9058193E+03  0.7818609E-02  0.9418336E-01
       -4   -1    0    0    0  501  0.00000000000E+00  0.00000000000E+00  0.20672903783E+03  0.20673293880E+03  0.12699999809E+01 0. -1.
        4   -1    0    0  501    0  0.00000000000E+00  0.00000000000E+00 -0.99223765389E+03  0.99223846665E+03  0.12699999809E+01 0.  1.
    10030    2    1    2    0    0  0.00000000000E+00  0.00000000000E+00 -0.78550861606E+03  0.11989714054E+04  0.90581932259E+03 0.  0.
        4    1    3    3  502    0 -0.43412956385E+03 -0.11096537126E+03 -0.30551745621E+03  0.54233229737E+03  0.12699999809E+01 0. -1.
       -4    1    3    3    0  502  0.43412956385E+03  0.11096537126E+03 -0.47999115985E+03  0.65663910808E+03  0.12699999809E+01 0.  1.
</event>
<event>
 5   0  0.8291252E-03  0.7683303E+03  0.7818609E-02  0.9607024E-01
        1   -1    0    0  501    0  0.00000000000E+00  0.00000000000E+00  0.37050261922E+03  0.37050261925E+03  0.50400001928E-02 0.  1.
       -1   -1    0    0    0  501  0.00000000000E+00  0.00000000000E+00 -0.39833153141E+03  0.39833153144E+03  0.50400001928E-02 0. -1.
    10030    2    1    2    0    0  0.00000000000E+00  0.00000000000E+00 -0.27828912194E+02  0.76883415070E+03  0.76833033451E+03 0.  0.
        1    1    3    3  502    0 -0.22759487276E+03  0.25662149585E+03  0.15919857274E+03  0.37815103309E+03  0.50400001928E-02 0.  1.
       -1    1    3    3    0  502  0.22759487276E+03 -0.25662149585E+03 -0.18702748493E+03  0.39068311761E+03  0.50400001928E-02 0. -1.
</event>
<event>
 5   0  0.5770125E-03  0.8961263E+03  0.7818609E-02  0.9430437E-01
       -3   -1    0    0    0  501  0.00000000000E+00  0.00000000000E+00  0.58683711690E+03  0.58683712560E+03  0.10100000352E+00 0. -1.
        3   -1    0    0  501    0  0.00000000000E+00  0.00000000000E+00 -0.34210615646E+03  0.34210617137E+03  0.10100000352E+00 0.  1.
    10030    2    1    2    0    0  0.00000000000E+00  0.00000000000E+00  0.24473096044E+03  0.92894329696E+03  0.89612633371E+03 0.  0.
        5    1    3    3  502    0 -0.15700933466E+03 -0.50038398308E+02  0.55425556529E+03  0.57825348605E+03  0.46999998093E+01 0. -1.
       -5    1    3    3    0  502  0.15700933466E+03  0.50038398308E+02 -0.30952460484E+03  0.35068981091E+03  0.46999998093E+01 0.  1.
</event>
<event>
 5   0  0.8738044E-03  0.8975941E+03  0.7818609E-02  0.9428594E-01
       -1   -1    0    0    0  501  0.00000000000E+00  0.00000000000E+00  0.35569445750E+03  0.35569445753E+03  0.50400001928E-02 0.  1.
        1   -1    0    0  501    0  0.00000000000E+00  0.00000000000E+00 -0.56626916754E+03  0.56626916757E+03  0.50400001928E-02 0. -1.
    10030    2    1    2    0    0  0.00000000000E+00  0.00000000000E+00 -0.21057471005E+03  0.92196362510E+03  0.89759412737E+03 0.  0.
        3    1    3    3  502    0 -0.40497671144E+02  0.42602523196E+03 -0.24416634349E+03  0.49270150510E+03  0.10100000352E+00 0. -1.
       -3    1    3    3    0  502  0.40497671144E+02 -0.42602523196E+03  0.33591633442E+02  0.42926212000E+03  0.10100000352E+00 0.  1.
</event>
<event>
 5   0  0.8885324E-03  0.8629712E+03  0.7818609E-02  0.9473091E-01
        1   -1    0    0  501    0  0.00000000000E+00  0.00000000000E+00  0.37692443051E+03  0.37692443055E+03  0.50400001928E-02 0.  1.
       -1   -1    0    0    0  501  0.00000000000E+00  0.00000000000E+00 -0.49394475153E+03  0.49394475155E+03  0.50400001928E-02 0. -1.
    10030    2    1    2    0    0  0.00000000000E+00  0.00000000000E+00 -0.11702032101E+03  0.87086918210E+03  0.86297124911E+03 0.  0.
        2    1    3    3  502    0 -0.35110922911E+03 -0.23863543842E+02 -0.31046024688E+03  0.46928959544E+03  0.25500000920E-02 0. -1.
       -2    1    3    3    0  502  0.35110922911E+03  0.23863543842E+02  0.19343992587E+03  0.40157958666E+03  0.25500000920E-02 0.  1.
</event>
<event>
 5   0  0.8738044E-03  0.8838124E+03  0.7818609E-02  0.9446046E-01
        1   -1    0    0  501    0  0.00000000000E+00  0.00000000000E+00  0.40120682851E+03  0.40120682854E+03  0.50400001928E-02 0. -1.
       -1   -1    0    0    0  501  0.00000000000E+00  0.00000000000E+00 -0.48673421172E+03  0.48673421175E+03  0.50400001928E-02 0.  1.
    10030    2    1    2    0    0  0.00000000000E+00  0.00000000000E+00 -0.85527383213E+02  0.88794104029E+03  0.88381239964E+03 0.  0.
        3    1    3    3  502    0  0.38249601480E+03  0.15485263299E+03  0.11608416578E+03  0.42867013312E+03  0.10100000352E+00 0. -1.
       -3    1    3    3    0  502 -0.38249601480E+03 -0.15485263299E+03 -0.20161154899E+03  0.45927090717E+03  0.10100000352E+00 0.  1.
</event>
<event>
 5   0  0.8612969E-03  0.8871852E+03  0.7818609E-02  0.9441744E-01
       -1   -1    0    0    0  501  0.00000000000E+00  0.00000000000E+00  0.64761705460E+03  0.64761705462E+03  0.50400001928E-02 0.  1.
        1   -1    0    0  501    0  0.00000000000E+00  0.00000000000E+00 -0.30384373691E+03  0.30384373695E+03  0.50400001928E-02 0. -1.
    10030    2    1    2    0    0  0.00000000000E+00  0.00000000000E+00  0.34377331769E+03  0.95146079157E+03  0.88718518019E+03 0.  0.
        4    1    3    3  502    0  0.26872137367E+03  0.29681256782E+03 -0.32903061185E+02  0.40173760270E+03  0.12699999809E+01 0. -1.
       -4    1    3    3    0  502 -0.26872137367E+03 -0.29681256782E+03  0.37667637887E+03  0.54972318887E+03  0.12699999809E+01 0.  1.
</event>
<event>
 5   0  0.8885324E-03  0.9091545E+03  0.7818609E-02  0.9414210E-01
        1   -1    0    0  501    0  0.00000000000E+00  0.00000000000E+00  0.10352074083E+04  0.10352074084E+04  0.50400001928E-02 0. -1.
       -1   -1    0    0    0  501  0.00000000000E+00  0.00000000000E+00 -0.19961262204E+03  0.19961262211E+03  0.50400001928E-02 0.  1.
    10030    2    1    2    0    0  0.00000000000E+00  0.00000000000E+00  0.83559478630E+03  0.12348200305E+04  0.90915447573E+03 0.  0.
        2    1    3    3  502    0 -0.94116181264E+02  0.43991837211E+03  0.32920693337E+03  0.55746141990E+03  0.25500000920E-02 0.  1.
       -2    1    3    3    0  502  0.94116181264E+02 -0.43991837211E+03  0.50638785294E+03  0.67735861056E+03  0.25500000920E-02 0. -1.
</event>
<event>
 5   0  0.1535906E-02  0.9027904E+03  0.7818609E-02  0.9422100E-01
       -2   -1    0    0    0  501  0.00000000000E+00  0.00000000000E+00  0.10590385103E+03  0.10590385106E+03  0.25500000920E-02 0. -1.
        2   -1    0    0  501    0  0.00000000000E+00  0.00000000000E+00 -0.19239867435E+04  0.19239867435E+04  0.25500000920E-02 0.  1.
    10030    2    1    2    0    0  0.00000000000E+00  0.00000000000E+00 -0.18180828925E+04  0.20298905945E+04  0.90279035327E+03 0.  0.
        2    1    3    3  502    0 -0.36558910427E+02 -0.23102961618E+03 -0.40988090676E+02  0.23746844225E+03  0.25500000920E-02 0. -1.
       -2    1    3    3    0  502  0.36558910427E+02  0.23102961618E+03 -0.17770948018E+04  0.17924221523E+04  0.25500000920E-02 0.  1.
</event>
<event>
 5   0  0.8885324E-03  0.9053608E+03  0.7818609E-02  0.9418905E-01
       -1   -1    0    0    0  501  0.00000000000E+00  0.00000000000E+00  0.63587290056E+03  0.63587290058E+03  0.50400001928E-02 0.  1.
        1   -1    0    0  501    0  0.00000000000E+00  0.00000000000E+00 -0.32226495812E+03  0.32226495816E+03  0.50400001928E-02 0. -1.
    10030    2    1    2    0    0  0.00000000000E+00  0.00000000000E+00  0.31360794244E+03  0.95813785874E+03  0.90536082022E+03 0.  0.
        2    1    3    3  502    0  0.42418416296E+03  0.79449609223E+02  0.30142714206E+03  0.52640551525E+03  0.25500000920E-02 0.  1.
       -2    1    3    3    0  502 -0.42418416296E+03 -0.79449609223E+02  0.12180800381E+02  0.43173234349E+03  0.25500000920E-02 0. -1.
</event>
<event>
 5   0  0.8524692E-03  0.8917252E+03  0.7818609E-02  0.9435985E-01
       -1   -1    0    0    0  501  0.00000000000E+00  0.00000000000E+00  0.51972684561E+03  0.51972684564E+03  0.50400001928E-02 0. -1.
        1   -1    0    0  501    0  0.00000000000E+00  0.00000000000E+00 -0.38249599742E+03  0.38249599745E+03  0.50400001928E-02 0.  1.
    10030    2    1    2    0    0  0.00000000000E+00  0.00000000000E+00  0.13723084820E+03  0.90222284309E+03  0.89172515546E+03 0.  0.
        5    1    3    3  502    0  0.13916185472E+02  0.32835697754E+03  0.37342497326E+03  0.49747388431E+03  0.46999998093E+01 0. -1.
       -5    1    3    3    0  502 -0.13916185472E+02 -0.32835697754E+03 -0.23619412507E+03  0.40474895878E+03  0.46999998093E+01 0.  1.
</event>
<event>
 5   0  0.8524692E-03  0.8554208E+03  0.7818609E-02  0.9483090E-01
        1   -1    0    0  501    0  0.00000000000E+00  0.00000000000E+00  0.21140267079E+04  0.21140267079E+04  0.50400001928E-02 0. -1.
       -1   -1    0    0    0  501  0.00000000000E+00  0.00000000000E+00 -0.86534482423E+02  0.86534482569E+02  0.50400001928E-02 0.  1.
    10030    2    1    2    0    0  0.00000000000E+00  0.00000000000E+00  0.20274922255E+04  0.22005611905E+04  0.85542084886E+03 0.  0.
        5    1    3    3  502    0 -0.23153969937E+03  0.17439306685E+03  0.20477875257E+03  0.35493661639E+03  0.46999998093E+01 0.  1.
       -5    1    3    3    0  502  0.23153969937E+03 -0.17439306685E+03  0.18227134729E+04  0.18456245741E+04  0.46999998093E+01 0. -1.
</event>
<event>
 5   0  0.1440615E-02  0.8990192E+03  0.7818609E-02  0.9426808E-01
       -2   -1    0    0    0  501  0.00000000000E+00  0.00000000000E+00  0.15039046813E+03  0.15039046815E+03  0.25500000920E-02 0. -1.
        2   -1    0    0  501    0  0.00000000000E+00  0.00000000000E+00 -0.13435618976E+04  0.13435618976E+04  0.25500000920E-02 0.  1.
    10030    2    1    2    0    0  0.00000000000E+00  0.00000000000E+00 -0.11931714295E+04  0.14939523658E+04  0.89901924953E+03 0.  0.
        3    1    3    3  502    0 -0.40749174327E+03 -0.17491866030E+03 -0.71884451056E+03  0.84462032838E+03  0.10100000352E+00 0. -1.
       -3    1    3    3    0  502  0.40749174327E+03  0.17491866030E+03 -0.47432691892E+03  0.64933203738E+03  0.10100000352E+00 0.  1.
</event>
<event>
 5   0  0.1440615E-02  0.9374692E+03  0.7818609E-02  0.9379918E-01
       -2   -1    0    0    0  501  0.00000000000E+00  0.00000000000E+00  0.10071652208E+03  0.10071652211E+03  0.25500000920E-02 0. -1.
        2   -1    0    0  501    0  0.00000000000E+00  0.00000000000E+00 -0.21814904833E+04  0.21814904833E+04  0.25500000920E-02 0.  1.
    10030    2    1    2    0    0  0.00000000000E+00  0.00000000000E+00 -0.20807739612E+04  0.22822070054E+04  0.93746921968E+03 0.  0.
        3    1    3    3  502    0 -0.93484092410E+02 -0.23568940692E+03 -0.80641329892E+02  0.26606729667E+03  0.10100000352E+00 0. -1.
       -3    1    3    3    0  502  0.93484092410E+02  0.23568940692E+03 -0.20001326313E+04  0.20161397087E+04  0.10100000352E+00 0.  1.
</event>
<event>
 5   0  0.1454652E-02  0.8929284E+03  0.7818609E-02  0.9434465E-01
        2   -1    0    0  501    0  0.00000000000E+00  0.00000000000E+00  0.11385056392E+04  0.11385056392E+04  0.25500000920E-02 0. -1.
       -2   -1    0    0    0  501  0.00000000000E+00  0.00000000000E+00 -0.17508061571E+03  0.17508061573E+03  0.25500000920E-02 0.  1.
    10030    2    1    2    0    0  0.00000000000E+00  0.00000000000E+00  0.96342502344E+03  0.13135862549E+04  0.89292836960E+03 0.  0.
        4    1    3    3  502    0 -0.69567801387E+02 -0.96852307579E+02  0.11146419276E+04  0.11210032507E+04  0.12699999809E+01 0. -1.
       -4    1    3    3    0  502  0.69567801387E+02  0.96852307579E+02 -0.15121690418E+03  0.19258300414E+03  0.12699999809E+01 0.  1.
</event>
<event>
 5   0  0.1440615E-02  0.9125269E+03  0.7818609E-02  0.9410056E-01
        2   -1    0    0  501    0  0.00000000000E+00  0.00000000000E+00  0.30132145247E+03  0.30132145248E+03  0.25500000920E-02 0. -1.
       -2   -1    0    0    0  501  0.00000000000E+00  0.00000000000E+00 -0.69087789982E+03  0.69087789982E+03  0.25500000920E-02 0.  1.
    10030    2    1    2    0    0  0.00000000000E+00  0.00000000000E+00 -0.38955644735E+03  0.99219935230E+03  0.91252689222E+03 0.  0.
        3    1    3    3  502    0 -0.43324299116E+03  0.66760348884E+02 -0.57157761684E+02  0.44206724997E+03  0.10100000352E+00 0. -1.
       -3    1    3    3    0  502  0.43324299116E+03 -0.66760348884E+02 -0.33239868566E+03  0.55013210233E+03  0.10100000352E+00 0.  1.
</event>
<event>
 5   0  0.1483326E-02  0.9120214E+03  0.7818609E-02  0.9410678E-01
        2   -1    0    0  501    0  0.00000000000E+00  0.00000000000E+00  0.88090183212E+03  0.88090183212E+03  0.25500000920E-02 0.  1.
       -2   -1    0    0    0  501  0.00000000000E+00  0.00000000000E+00 -0.23606008745E+03  0.23606008747E+03  0.25500000920E-02 0. -1.
    10030    2    1    2    0    0  0.00000000000E+00  0.00000000000E+00  0.64484174466E+03  0.11169619196E+04  0.91202141102E+03 0.  0.
        1    1    3    3  502    0 -0.30961795806E+03  0.97490044573E+02 -0.69827198651E+02  0.33202925540E+03  0.50400001928E-02 0. -1.
       -1    1    3    3    0  502  0.30961795806E+03 -0.97490044573E+02  0.71466894331E+03  0.78493266419E+03  0.50400001928E-02 0.  1.
</event>
<event>
 5   0  0.1440615E-02  0.8989083E+03  0.7818609E-02  0.9426947E-01
       -2   -1    0    0    0  501  0.00000000000E+00  0.00000000000E+00  0.24479394205E+03  0.24479394206E+03  0.25500000920E-02 0. -1.
        2   -1    0    0  501    0  0.00000000000E+00  0.00000000000E+00 -0.82522077508E+03  0.82522077509E+03  0.25500000920E-02 0.  1.
    10030    2    1    2    0    0  0.00000000000E+00  0.00000000000E+00 -0.58042683304E+03  0.10700147171E+04  0.89890833037E+03 0.  0.
        3    1    3    3  502    0  0.42858913746E+03  0.11673191819E+03 -0.37176794095E+03  0.57924640835E+03  0.10100000352E+00 0.  1.
       -3    1    3    3    0  502 -0.42858913746E+03 -0.11673191819E+03 -0.20865889209E+03  0.49076830880E+03  0.10100000352E+00 0. -1.
</event>
<event>
 5   0  0.1441195E-02  0.8901578E+03  0.7818609E-02  0.9437969E-01
        2   -1    0    0  501    0  0.00000000000E+00  0.00000000000E+00  0.74431554379E+03  0.74431554380E+03  0.25500000920E-02 0. -1.
       -2   -1    0    0    0  501  0.00000000000E+00  0.00000000000E+00 -0.26614415657E+03  0.26614415658E+03  0.25500000920E-02 0.  1.
    10030    2    1    2    0    0  0.00000000000E+00  0.00000000000E+00  0.47817138723E+03  0.10104597004E+04  0.89015781214E+03 0.  0.
        5    1    3    3  502    0 -0.13371490252E+03  0.18986226822E+03 -0.19189018730E+03  0.30128274101E+03  0.46999998093E+01 0.  1.
       -5    1    3    3    0  502  0.13371490252E+03 -0.18986226822E+03  0.67006157452E+03  0.70917695937E+03  0.46999998093E+01 0. -1.
</event>
<event>
 5   0  0.8738044E-03  0.9014287E+03  0.7818609E-02  0.9423797E-01
        1   -1    0    0  501    0  0.00000000000E+00  0.00000000000E+00  0.64362230040E+03  0.64362230042E+03  0.50400001928E-02 0. -1.
       -1   -1    0    0    0  501  0.00000000000E+00  0.00000000000E+00 -0.31562520165E+03  0.31562520169E+03  0.50400001928E-02 0.  1.
    10030    2    1    2    0    0  0.00000000000E+00  0.00000000000E+00  0.32799709875E+03  0.95924750211E+03  0.90142868465E+03 0.  0.
        3    1    3    3  502    0 -0.38043002240E+03 -0.12401197093E+03 -0.56762527898E+02  0.40413854760E+03  0.10100000352E+00 0.  1.
       -3    1    3    3    0  502  0.38043002240E+03  0.12401197093E+03  0.38475962664E+03  0.55510895451E+03  0.10100000352E+00 0. -1.
</event>
<event>
 5   0  0.5770125E-03  0.9142561E+03  0.7818609E-02  0.9407934E-01
        3   -1    0    0  501    0  0.00000000000E+00  0.00000000000E+00  0.54504500670E+03  0.54504501606E+03  0.10100000352E+00 0. -1.
       -3   -1    0    0    0  501  0.00000000000E+00  0.00000000000E+00 -0.38339229335E+03  0.38339230665E+03  0.10100000352E+00 0.  1.
    10030    2    1    2    0    0  0.00000000000E+00  0.00000000000E+00  0.16165271335E+03  0.92843732271E+03  0.91425612520E+03 0.  0.
        5    1    3    3  502    0 -0.35175233129E+02  0.15456223182E+02  0.54337780565E+03  0.54475473521E+03  0.46999998093E+01 0. -1.
       -5    1    3    3    0  502  0.35175233129E+02 -0.15456223182E+02 -0.38172509230E+03  0.38368258750E+03  0.46999998093E+01 0.  1.
</event>
<event>
 5   0  0.8291252E-03  0.9027030E+03  0.7818609E-02  0.9422209E-01
       -1   -1    0    0    0  501  0.00000000000E+00  0.00000000000E+00  0.15499185249E+03  0.15499185257E+03  0.50400001928E-02 0. -1.
        1   -1    0    0  501    0  0.00000000000E+00  0.00000000000E+00 -0.13143798781E+04  0.13143798781E+04  0.50400001928E-02 0.  1.
    10030    2    1    2    0    0  0.00000000000E+00  0.00000000000E+00 -0.11593880256E+04  0.14693717307E+04  0.90270299047E+03 0.  0.
        1    1    3    3  502    0 -0.74137728447E+02  0.42846778829E+03 -0.77662527873E+03  0.89007183529E+03  0.50400001928E-02 0.  1.
       -1    1    3    3    0  502  0.74137728447E+02 -0.42846778829E+03 -0.38276274692E+03  0.57929989542E+03  0.50400001928E-02 0. -1.
</event>
<event>
 5   0  0.8738044E-03  0.8951246E+03  0.7818609E-02  0.9431697E-01
        1   -1    0    0  501    0  0.00000000000E+00  0.00000000000E+00  0.83067915204E+03  0.83067915206E+03  0.50400001928E-02 0. -1.
       -1   -1    0    0    0  501  0.00000000000E+00  0.00000000000E+00 -0.24114244228E+03  0.24114244233E+03  0.50400001928E-02 0.  1.
    10030    2    1    2    0    0  0.00000000000E+00  0.00000000000E+00  0.58953670976E+03  0.10718215944E+04  0.89512457125E+03 0.  0.
        3    1    3    3  502    0 -0.54117468862E+02 -0.14157130699E+03 -0.20947875955E+03  0.25855849687E+03  0.10100000352E+00 0.  1.
       -3    1    3    3    0  502  0.54117468862E+02  0.14157130699E+03  0.79901546931E+03  0.81326309752E+03  0.10100000352E+00 0. -1.
</event>
<event>
 5   0  0.8612969E-03  0.8960979E+03  0.7818609E-02  0.9430472E-01
        1   -1    0    0  501    0  0.00000000000E+00  0.00000000000E+00  0.41358687384E+03  0.41358687387E+03  0.50400001928E-02 0. -1.
       -1   -1    0    0    0  501  0.00000000000E+00  0.00000000000E+00 -0.48538258027E+03  0.48538258030E+03  0.50400001928E-02 0.  1.
    10030    2    1    2    0    0  0.00000000000E+00  0.00000000000E+00 -0.71795706436E+02  0.89896945417E+03  0.89609790540E+03 0.  0.
        4    1    3    3  502    0 -0.60008069300E+02 -0.59255726031E+02 -0.47734664067E+03  0.48474079435E+03  0.12699999809E+01 0.  1.
       -4    1    3    3    0  502  0.60008069300E+02  0.59255726031E+02  0.40555093424E+03  0.41422865981E+03  0.12699999809E+01 0. -1.
</event>
<event>
 5   0  0.8612969E-03  0.9304739E+03  0.7818609E-02  0.9388269E-01
        1   -1    0    0  501    0  0.00000000000E+00  0.00000000000E+00  0.53795631685E+03  0.53795631688E+03  0.50400001928E-02 0.  1.
       -1   -1    0    0    0  501  0.00000000000E+00  0.00000000000E+00 -0.40234753989E+03  0.40234753992E+03  0.50400001928E-02 0. -1.
    10030    2    1    2    0    0  0.00000000000E+00  0.00000000000E+00  0.13560877697E+03  0.94030385680E+03  0.93047385923E+03 0.  0.
        4    1    3    3  502    0  0.79960829171E+02  0.44399083296E+03  0.18268114534E+03  0.48671922884E+03  0.12699999809E+01 0.  1.
       -4    1    3    3    0  502 -0.79960829171E+02 -0.44399083296E+03 -0.47072368374E+02  0.45358462796E+03  0.12699999809E+01 0. -1.
</event>
<event>
 5   0  0.1454652E-02  0.8912758E+03  0.7818609E-02  0.9436553E-01
        2   -1    0    0  501    0  0.00000000000E+00  0.00000000000E+00  0.33733208639E+03  0.33733208640E+03  0.25500000920E-02 0. -1.
       -2   -1    0    0    0  501  0.00000000000E+00  0.00000000000E+00 -0.58871697918E+03  0.58871697918E+03  0.25500000920E-02 0.  1.
    10030    2    1    2    0    0  0.00000000000E+00  0.00000000000E+00 -0.25138489278E+03  0.92604906559E+03  0.89127577525E+03 0.  0.
        4    1    3    3  502    0  0.10952673829E+03  0.37655238381E+03 -0.34561961507E+03  0.52272587020E+03  0.12699999809E+01 0.  1.
       -4    1    3    3    0  502 -0.10952673829E+03 -0.37655238381E+03  0.94234722284E+02  0.40332319539E+03  0.12699999809E+01 0. -1.
</event>
<event>
 5   0  0.1441195E-02  0.9046732E+03  0.7818609E-02  0.9419758E-01
       -2   -1    0    0    0  501  0.00000000000E+00  0.00000000000E+00  0.18080431965E+03  0.18080431966E+03  0.25500000920E-02 0. -1.
        2   -1    0    0  501    0  0.00000000000E+00  0.00000000000E+00 -0.11316566895E+04  0.11316566895E+04  0.25500000920E-02 0.  1.
    10030    2    1    2    0    0  0.00000000000E+00  0.00000000000E+00 -0.95085236985E+03  0.13124610092E+04  0.90467324008E+03 0.  0.
        5    1    3    3  502    0 -0.87557473483E+02 -0.43119998869E+03 -0.32336230966E+03  0.54606319664E+03  0.46999998093E+01 0.  1.
       -5    1    3    3    0  502  0.87557473483E+02  0.43119998869E+03 -0.62749006019E+03  0.76639781253E+03  0.46999998093E+01 0. -1.
</event>
<event>
 5   0  0.8612969E-03  0.8978987E+03  0.7818609E-02  0.9428212E-01
       -1   -1    0    0    0  501  0.00000000000E+00  0.00000000000E+00  0.39773928765E+03  0.39773928768E+03  0.50400001928E-02 0.  1.
        1   -1    0    0  501    0  0.00000000000E+00  0.00000000000E+00 -0.50675281261E+03  0.50675281264E+03  0.50400001928E-02 0. -1.
    10030    2    1    2    0    0  0.00000000000E+00  0.00000000000E+00 -0.10901352496E+03  0.90449210032E+03  0.89789866406E+03 0.  0.
        4    1    3    3  502    0  0.41460098615E+03 -0.16482018564E+03 -0.10481564864E+03  0.45830950723E+03  0.12699999809E+01 0. -1.
       -4    1    3    3    0  502 -0.41460098615E+03  0.16482018564E+03 -0.41978763262E+01  0.44618259310E+03  0.12699999809E+01 0.  1.
</event>
<event>
 5   0  0.1440615E-02  0.9035925E+03  0.7818609E-02  0.9421102E-01
        2   -1    0    0  501    0  0.00000000000E+00  0.00000000000E+00  0.88385279670E+03  0.88385279670E+03  0.25500000920E-02 0. -1.
       -2   -1    0    0    0  501  0.00000000000E+00  0.00000000000E+00 -0.23094327926E+03  0.23094327928E+03  0.25500000920E-02 0.  1.
    10030    2    1    2    0    0  0.00000000000E+00  0.00000000000E+00  0.65290951743E+03  0.11147960760E+04  0.90359252601E+03 0.  0.
        3    1    3    3  502    0  0.34329082750E+03 -0.15773008118E+01 -0.35913051643E+02  0.34516783976E+03  0.10100000352E+00 0. -1.
       -3    1    3    3    0  502 -0.34329082750E+03  0.15773008118E+01  0.68882256908E+03  0.76962823622E+03  0.10100000352E+00 0.  1.
</event>
<event>
 5   0  0.1483326E-02  0.9081763E+03  0.7818609E-02  0.9415418E-01
       -2   -1    0    0    0  501  0.00000000000E+00  0.00000000000E+00  0.61956539807E+03  0.61956539808E+03  0.25500000920E-02 0.  1.
        2   -1    0    0  501    0  0.00000000000E+00  0.00000000000E+00 -0.33280759253E+03  0.33280759254E+03  0.25500000920E-02 0. -1.
    10030    2    1    2    0    0  0.00000000000E+00  0.00000000000E+00  0.28675780554E+03  0.95237299062E+03  0.90817634533E+03 0.  0.
        1    1    3    3  502    0  0.36745170131E+02 -0.42529610029E+03  0.30573277080E+03  0.52507095484E+03  0.50400001928E-02 0. -1.
       -1    1    3    3    0  502 -0.36745170131E+02  0.42529610029E+03 -0.18974965259E+02  0.42730203578E+03  0.50400001928E-02 0.  1.
</event>
<event>
 5   0  0.1535906E-02  0.7625595E+03  0.7818609E-02  0.9615850E-01
        2   -1    0    0  501    0  0.00000000000E+00  0.00000000000E+00  0.52267865068E+03  0.52267865069E+03  0.25500000920E-02 0.  1.
       -2   -1    0    0    0  501  0.00000000000E+00  0.00000000000E+00 -0.27813314605E+03  0.27813314607E+03  0.25500000920E-02 0. -1.
    10030    2    1    2    0    0  0.00000000000E+00  0.00000000000E+00  0.24454550463E+03  0.80081179676E+03  0.76255952554E+03 0.  0.
        2    1    3    3  502    0 -0.29215604225E+03 -0.88537719930E+02  0.36216128280E+03  0.47366114009E+03  0.25500000920E-02 0.  1.
       -2    1    3    3    0  502  0.29215604225E+03  0.88537719930E+02 -0.11761577817E+03  0.32715065666E+03  0.25500000920E-02 0. -1.
</event>
<event>
 5   0  0.5770125E-03  0.9028669E+03  0.7818609E-02  0.9422005E-01
       -4   -1    0    0    0  501  0.00000000000E+00  0.00000000000E+00  0.18421607479E+03  0.18422045247E+03  0.12699999809E+01 0.  1.
        4   -1    0    0  501    0  0.00000000000E+00  0.00000000000E+00 -0.11062490218E+04  0.11062497508E+04  0.12699999809E+01 0. -1.
    10030    2    1    2    0    0  0.00000000000E+00  0.00000000000E+00 -0.92203294701E+03  0.12904702033E+04  0.90286687287E+03 0.  0.
        1    1    3    3  502    0 -0.86095601672E+02  0.27522381089E+03 -0.95744269661E+03  0.99992855547E+03  0.50400001928E-02 0. -1.
       -1    1    3    3    0  502  0.86095601672E+02 -0.27522381089E+03  0.35409749607E+02  0.29054164779E+03  0.50400001928E-02 0.  1.
</event>
<event>
 5   0  0.8612969E-03  0.8971587E+03  0.7818609E-02  0.9429140E-01
        1   -1    0    0  501    0  0.00000000000E+00  0.00000000000E+00  0.16152745159E+03  0.16152745167E+03  0.50400001928E-02 0. -1.
       -1   -1    0    0    0  501  0.00000000000E+00  0.00000000000E+00 -0.12457536952E+04  0.12457536952E+04  0.50400001928E-02 0.  1.
    10030    2    1    2    0    0  0.00000000000E+00  0.00000000000E+00 -0.10842262436E+04  0.14072811469E+04  0.89715866993E+03 0.  0.
        4    1    3    3  502    0  0.17766332667E+02 -0.44706500003E+03 -0.49155047022E+03  0.66468506415E+03  0.12699999809E+01 0. -1.
       -4    1    3    3    0  502 -0.17766332667E+02  0.44706500003E+03 -0.59267577339E+03  0.74259608273E+03  0.12699999809E+01 0.  1.
</event>
<event>
 5   0  0.1441195E-02  0.8359959E+03  0.7818609E-02  0.9509328E-01
        2   -1    0    0  501    0  0.00000000000E+00  0.00000000000E+00  0.24657510383E+04  0.24657510383E+04  0.25500000920E-02 0.  1.
       -2   -1    0    0    0  501  0.00000000000E+00  0.00000000000E+00 -0.70859661338E+02  0.70859661384E+02  0.25500000920E-02 0. -1.
    10030    2    1    2    0    0  0.00000000000E+00  0.00000000000E+00  0.23948913770E+04  0.25366106997E+04  0.83599589372E+03 0.  0.
        5    1    3    3  502    0 -0.30258403805E+03 -0.24401509034E+03  0.16635715354E+04  0.17083889509E+04  0.46999998093E+01 0.  1.
       -5    1    3    3    0  502  0.30258403805E+03  0.24401509034E+03  0.73131984160E+03  0.82822174875E+03  0.46999998093E+01 0. -1.
</event>
<event>
 5   0  0.5770125E-03  0.8808321E+03  0.7818609E-02  0.9449865E-01
       -4   -1    0    0    0  501  0.00000000000E+00  0.00000000000E+00  0.52203996036E+03  0.52204150516E+03  0.12699999809E+01 0. -1.
        4   -1    0    0  501    0  0.00000000000E+00  0.00000000000E+00 -0.37155132100E+03  0.37155349149E+03  0.12699999809E+01 0.  1.
    10030    2    1    2    0    0  0.00000000000E+00  0.00000000000E+00  0.15048863936E+03  0.89359499665E+03  0.88083209947E+03 0.  0.
        4    1    3    3  502    0  0.35382111707E+01  0.21620895031E+03 -0.31398911389E+03  0.38124743366E+03  0.12699999809E+01 0.  1.
       -4    1    3    3    0  502 -0.35382111707E+01 -0.21620895031E+03  0.46447775325E+03  0.51234756298E+03  0.12699999809E+01 0. -1.
</event>
<event>
 5   0  0.8524692E-03  0.8989864E+03  0.7818609E-02  0.9426849E-01
        1   -1    0    0  501    0  0.00000000000E+00  0.00000000000E+00  0.43080244735E+03  0.43080244738E+03  0.50400001928E-02 0.  1.
       -1   -1    0    0    0  501  0.00000000000E+00  0.00000000000E+00 -0.46899486666E+03  0.46899486669E+03  0.50400001928E-02 0. -1.
    10030    2    1    2    0    0  0.00000000000E+00  0.00000000000E+00 -0.38192419311E+02  0.89979731407E+03  0.89898639896E+03 0.  0.
        5    1    3    3  502    0  0.20024903350E+03 -0.22020967799E+03 -0.35619381604E+03  0.46420696062E+03  0.46999998093E+01 0. -1.
       -5    1    3    3    0  502 -0.20024903350E+03  0.22020967799E+03  0.31800139673E+03  0.43559035345E+03  0.46999998093E+01 0.  1.
</event>
<event>
 5   0  0.8612969E-03  0.8723840E+03  0.7818609E-02  0.9460777E-01
       -1   -1    0    0    0  501  0.00000000000E+00  0.00000000000E+00  0.14814243121E+03  0.14814243130E+03  0.50400001928E-02 0.  1.
        1   -1    0    0  501    0  0.00000000000E+00  0.00000000000E+00 -0.12843277968E+04  0.12843277968E+04  0.50400001928E-02 0. -1.
    10030    2    1    2    0    0  0.00000000000E+00  0.00000000000E+00 -0.11361853655E+04  0.14324702281E+04  0.87238395756E+03 0.  0.
        4    1    3    3  502    0 -0.11496553507E+03 -0.14073731243E+03  0.83020312974E+02  0.19979502153E+03  0.12699999809E+01 0.  1.
       -4    1    3    3    0  502  0.11496553507E+03  0.14073731243E+03 -0.12192056785E+04  0.12326752065E+04  0.12699999809E+01 0. -1.
</event>
<event>
 5   0  0.8738044E-03  0.9435113E+03  0.7818609E-02  0.9372767E-01
       -1   -1    0    0    0  501  0.00000000000E+00  0.00000000000E+00  0.29038032966E+03  0.29038032970E+03  0.50400001928E-02 0. -1.
        1   -1    0    0  501    0  0.00000000000E+00  0.00000000000E+00 -0.76642027887E+03  0.76642027889E+03  0.50400001928E-02 0.  1.
    10030    2    1    2    0    0  0.00000000000E+00  0.00000000000E+00 -0.47603994921E+03  0.10568006086E+04  0.94351125753E+03 0.  0.
        3    1    3    3  502    0  0.20954024015E+03 -0.21765619377E+03  0.16779874149E+03  0.34559768341E+03  0.10100000352E+00 0. -1.
       -3    1    3    3    0  502 -0.20954024015E+03  0.21765619377E+03 -0.64383869071E+03  0.71120292518E+03  0.10100000352E+00 0.  1.
</event>
<event>
 5   0  0.5770125E-03  0.9360090E+03  0.7818609E-02  0.9381655E-01
       -3   -1    0    0    0  501  0.00000000000E+00  0.00000000000E+00  0.12166982494E+04  0.12166982536E+04  0.10100000352E+00 0. -1.
        3   -1    0    0  501    0  0.00000000000E+00  0.00000000000E+00 -0.18001848201E+03  0.18001851034E+03  0.10100000352E+00 0.  1.
    10030    2    1    2    0    0  0.00000000000E+00  0.00000000000E+00  0.10366797674E+04  0.13967167640E+04  0.93600896286E+03 0.  0.
        4    1    3    3  502    0 -0.14409488540E+02  0.25177800739E+03 -0.69949847843E+02  0.26171433373E+03  0.12699999809E+01 0.  1.
       -4    1    3    3    0  502  0.14409488540E+02 -0.25177800739E+03  0.11066296153E+04  0.11350024302E+04  0.12699999809E+01 0. -1.
</event>
<event>
 5   0  0.8524692E-03  0.9023674E+03  0.7818609E-02  0.9422627E-01
       -1   -1    0    0    0  501  0.00000000000E+00  0.00000000000E+00  0.48263878913E+03  0.48263878916E+03  0.50400001928E-02 0.  1.
        1   -1    0    0  501    0  0.00000000000E+00  0.00000000000E+00 -0.42177863874E+03  0.42177863877E+03  0.50400001928E-02 0. -1.
    10030    2    1    2    0    0  0.00000000000E+00  0.00000000000E+00  0.60860150387E+02  0.90441742793E+03  0.90236740081E+03 0.  0.
        5    1    3    3  502    0  0.96752767766E+02  0.20283038214E+03 -0.36166627406E+03  0.42582372619E+03  0.46999998093E+01 0. -1.
       -5    1    3    3    0  502 -0.96752767766E+02 -0.20283038214E+03  0.42252642445E+03  0.47859370174E+03  0.46999998093E+01 0.  1.
</event>
<event>
 5   0  0.8612969E-03  0.8887781E+03  0.7818609E-02  0.9439719E-01
       -1   -1    0    0    0  501  0.00000000000E+00  0.00000000000E+00  0.12526155551E+03  0.12526155561E+03  0.50400001928E-02 0. -1.
        1   -1    0    0  501    0  0.00000000000E+00  0.00000000000E+00 -0.15765541238E+04  0.15765541238E+04  0.50400001928E-02 0.  1.
    10030    2    1    2    0    0  0.00000000000E+00  0.00000000000E+00 -0.14512925683E+04  0.17018156794E+04  0.88877808701E+03 0.  0.
        4    1    3    3  502    0 -0.17141424801E+02  0.59693676367E+02 -0.15681997734E+04  0.15694296116E+04  0.12699999809E+01 0.  1.
       -4    1    3    3    0  502  0.17141424801E+02 -0.59693676367E+02  0.11690720514E+03  0.13238606783E+03  0.12699999809E+01 0. -1.
</event>
<event>
 5   0  0.8524692E-03  0.9120289E+03  0.7818609E-02  0.9410668E-01
       -1   -1    0    0    0  501  0.00000000000E+00  0.00000000000E+00  0.31221584671E+03  0.31221584675E+03  0.50400001928E-02 0. -1.
        1   -1    0    0  501    0  0.00000000000E+00  0.00000000000E+00 -0.66604298966E+03  0.66604298967E+03  0.50400001928E-02 0.  1.
    10030    2    1    2    0    0  0.00000000000E+00  0.00000000000E+00 -0.35382714295E+03  0.97825883642E+03  0.91202889425E+03 0.  0.
        5    1    3    3  502    0  0.11143834905E+03 -0.22891697417E+03  0.22885041185E+03  0.34236835091E+03  0.46999998093E+01 0. -1.
       -5    1    3    3    0  502 -0.11143834905E+03  0.22891697417E+03 -0.58267755480E+03  0.63589048551E+03  0.46999998093E+01 0.  1.
</event>
<event>
 5   0  0.1483326E-02  0.8297632E+03  0.7818609E-02  0.9517908E-01
        2   -1    0    0  501    0  0.00000000000E+00  0.00000000000E+00  0.11196511305E+04  0.11196511305E+04  0.25500000920E-02 0. -1.
       -2   -1    0    0    0  501  0.00000000000E+00  0.00000000000E+00 -0.15373246183E+03  0.15373246185E+03  0.25500000920E-02 0.  1.
    10030    2    1    2    0    0  0.00000000000E+00  0.00000000000E+00  0.96591866868E+03  0.12733835924E+04  0.82976315826E+03 0.  0.
        1    1    3    3  502    0  0.28892126446E+02  0.24471973532E+03 -0.29259949175E+02  0.24815045533E+03  0.50400001928E-02 0.  1.
       -1    1    3    3    0  502 -0.28892126446E+02 -0.24471973532E+03  0.99517861786E+03  0.10252331370E+04  0.50400001928E-02 0. -1.
</event>
<event>
 5   0  0.8291252E-03  0.9159627E+03  0.7818609E-02  0.9405844E-01
       -1   -1    0    0    0  501  0.00000000000E+00  0.00000000000E+00  0.28048450687E+03  0.28048450691E+03  0.50400001928E-02 0.  1.
        1   -1    0    0  501    0  0.00000000000E+00  0.00000000000E+00 -0.74780209854E+03  0.74780209855E+03  0.50400001928E-02 0. -1.
    10030    2    1    2    0    0  0.00000000000E+00  0.00000000000E+00 -0.46731759167E+03  0.10282866055E+04  0.91596266927E+03 0.  0.
        1    1    3    3  502    0 -0.22419356254E+03  0.36589220751E+03 -0.54013392062E+02  0.43250122260E+03  0.50400001928E-02 0.  1.
       -1    1    3    3    0  502  0.22419356254E+03 -0.36589220751E+03 -0.41330419961E+03  0.59578538287E+03  0.50400001928E-02 0. -1.
</event>
<event>
 5   0  0.1454652E-02  0.8953780E+03  0.7818609E-02  0.9431378E-01
        2   -1    0    0  501    0  0.00000000000E+00  0.00000000000E+00  0.20199701430E+04  0.20199701430E+04  0.25500000920E-02 0.  1.
       -2   -1    0    0    0  501  0.00000000000E+00  0.00000000000E+00 -0.99221989611E+02  0.99221989644E+02  0.25500000920E-02 0. -1.
    10030    2    1    2    0    0  0.00000000000E+00  0.00000000000E+00  0.19207481534E+04  0.21191921327E+04  0.89537803543E+03 0.  0.
        4    1    3    3  502    0 -0.16037555099E+03 -0.38800085511E+03  0.59249749711E+03  0.72616794057E+03  0.12699999809E+01 0. -1.
       -4    1    3    3    0  502  0.16037555099E+03  0.38800085511E+03  0.13282506563E+04  0.13930241921E+04  0.12699999809E+01 0.  1.
</event>
<event>
 5   0  0.1441195E-02  0.8683644E+03  0.7818609E-02  0.9466015E-01
       -2   -1    0    0    0  501  0.00000000000E+00  0.00000000000E+00  0.13609265296E+03  0.13609265298E+03  0.25500000920E-02 0.  1.
        2   -1    0    0  501    0  0.00000000000E+00  0.00000000000E+00 -0.13851901477E+04  0.13851901477E+04  0.25500000920E-02 0. -1.
    10030    2    1    2    0    0  0.00000000000E+00  0.00000000000E+00 -0.12490974947E+04  0.15212828007E+04  0.86836444440E+03 0.  0.
        5    1    3    3  502    0  0.28853157706E+03  0.30677738231E+03 -0.43973195267E+03  0.60889170913E+03  0.46999998093E+01 0. -1.
       -5    1    3    3    0  502 -0.28853157706E+03 -0.30677738231E+03 -0.80936554208E+03  0.91239109156E+03  0.46999998093E+01 0.  1.
</event>
<event>
 5   0  0.5770125E-03  0.9064866E+03  0.7818609E-02  0.9417509E-01
       -4   -1    0    0    0  501  0.00000000000E+00  0.00000000000E+00  0.20245685776E+03  0.20246084104E+03  0.12699999809E+01 0. -1.
        4   -1    0    0  501    0  0.00000000000E+00  0.00000000000E+00 -0.10146684652E+04  0.10146692600E+04  0.12699999809E+01 0.  1.
    10030    2    1    2    0    0  0.00000000000E+00  0.00000000000E+00 -0.81221160749E+03  0.12171301011E+04  0.90648661744E+03 0.  0.
        5    1    3    3  502    0 -0.40957911198E+03 -0.81263426764E+02 -0.16951562569E+03  0.45068440272E+03  0.46999998093E+01 0. -1.
       -5    1    3    3    0  502  0.40957911198E+03  0.81263426764E+02 -0.64269598180E+03  0.76644569835E+03  0.46999998093E+01 0.  1.
</event>
<event>
 5   0  0.8291252E-03  0.9060177E+03  0.7818609E-02  0.9418090E-01
        1   -1    0    0  501    0  0.00000000000E+00  0.00000000000E+00  0.16618705066E+04  0.16618705066E+04  0.50400001928E-02 0. -1.
       -1   -1    0    0    0  501  0.00000000000E+00  0.00000000000E+00 -0.12348556328E+03  0.12348556339E+03  0.50400001928E-02 0.  1.
    10030    2    1    2    0    0  0.00000000000E+00  0.00000000000E+00  0.15383849433E+04  0.17853560700E+04  0.90601769455E+03 0.  0.
        1    1    3    3  502    0 -0.13835677628E+02 -0.43230509277E+03  0.10345806811E+04  0.11213546740E+04  0.50400001928E-02 0. -1.
       -1    1    3    3    0  502  0.13835677628E+02  0.43230509277E+03  0.50380426226E+03  0.66400139601E+03  0.50400001928E-02 0.  1.
</event>
<event>
 5   0  0.1535906E-02  0.8984380E+03  0.7818609E-02  0.9427536E-01
        2   -1    0    0  501    0  0.00000000000E+00  0.00000000000E+00  0.33291157326E+03  0.33291157327E+03  0.25500000920E-02 0.  1.
       -2   -1    0    0    0  501  0.00000000000E+00  0.00000000000E+00 -0.60616014473E+03  0.60616014474E+03  0.25500000920E-02 0. -1.
    10030    2    1    2    0    0  0.00000000000E+00  0.00000000000E+00 -0.27324857147E+03  0.93907171801E+03  0.89843803891E+03 0.  0.
        2    1    3    3  502    0 -0.29833774994E+03  0.29483482877E+03 -0.30472310882E+03  0.51844880398E+03  0.25500000920E-02 0. -1.
       -2    1    3    3    0  502  0.29833774994E+03 -0.29483482877E+03  0.31474537351E+02  0.42062291403E+03  0.25500000920E-02 0.  1.
</event>
<event>
 5   0  0.8738044E-03  0.9140162E+03  0.7818609E-02  0.9408228E-01
       -1   -1    0    0    0  501  0.00000000000E+00  0.00000000000E+00  0.38757523572E+03  0.38757523575E+03  0.50400001928E-02 0. -1.
        1   -1    0    0  501    0  0.00000000000E+00  0.00000000000E+00 -0.53887961250E+03  0.53887961253E+03  0.50400001928E-02 0.  1.
    10030    2    1    2    0    0  0.00000000000E+00  0.00000000000E+00 -0.15130437679E+03  0.92645484828E+03  0.91401617680E+03 0.  0.
        3    1    3    3  502    0 -0.28051642486E+03 -0.25460410054E+03 -0.33475500717E+03  0.50554291376E+03  0.10100000352E+00 0.  1.
       -3    1    3    3    0  502  0.28051642486E+03  0.25460410054E+03  0.18345063038E+03  0.42091193451E+03  0.10100000352E+00 0. -1.
</event>
<event>
 5   0  0.8738044E-03  0.9098568E+03  0.7818609E-02  0.9413343E-01
        1   -1    0    0  501    0  0.00000000000E+00  0.00000000000E+00  0.16649062789E+03  0.16649062796E+03  0.50400001928E-02 0.  1.
       -1   -1    0    0    0  501  0.00000000000E+00  0.00000000000E+00 -0.12430719466E+04  0.12430719466E+04  0.50400001928E-02 0. -1.
    10030    2    1    2    0    0  0.00000000000E+00  0.00000000000E+00 -0.10765813187E+04  0.14095625746E+04  0.90985675568E+03 0.  0.
        3    1    3    3  502    0  0.27780951238E+02 -0.40144785315E+03 -0.86702949986E+03  0.95586208413E+03  0.10100000352E+00 0. -1.
       -3    1    3    3    0  502 -0.27780951238E+02  0.40144785315E+03 -0.20955181889E+03  0.45370049047E+03  0.10100000352E+00 0.  1.
</event>
<event>
 5   0  0.1535906E-02  0.8999778E+03  0.7818609E-02  0.9425609E-01
        2   -1    0    0  501    0  0.00000000000E+00  0.00000000000E+00  0.33418442041E+03  0.33418442042E+03  0.25500000920E-02 0. -1.
       -2   -1    0    0    0  501  0.00000000000E+00  0.00000000000E+00 -0.60592299075E+03  0.60592299076E+03  0.25500000920E-02 0.  1.
    10030    2    1    2    0    0  0.00000000000E+00  0.00000000000E+00 -0.27173857035E+03  0.94010741117E+03  0.89997782969E+03 0.  0.
        2    1    3    3  502    0 -0.73020597830E+02 -0.33263026382E+03 -0.44311913622E+03  0.55886444601E+03  0.25500000920E-02 0.  1.
       -2    1    3    3    0  502  0.73020597830E+02  0.33263026382E+03  0.17138056588E+03  0.38124296516E+03  0.25500000920E-02 0. -1.
</event>
<event>
 5   0  0.8738044E-03  0.8988143E+03  0.7818609E-02  0.9427065E-01
       -1   -1    0    0    0  501  0.00000000000E+00  0.00000000000E+00  0.28668724283E+03  0.28668724287E+03  0.50400001928E-02 0. -1.
        1   -1    0    0  501    0  0.00000000000E+00  0.00000000000E+00 -0.70448473208E+03  0.70448473210E+03  0.50400001928E-02 0.  1.
    10030    2    1    2    0    0  0.00000000000E+00  0.00000000000E+00 -0.41779748925E+03  0.99117197497E+03  0.89881429780E+03 0.  0.
        3    1    3    3  502    0  0.87435369594E+02 -0.42835105616E+03 -0.94099860066E+02  0.44719611474E+03  0.10100000352E+00 0. -1.
       -3    1    3    3    0  502 -0.87435369594E+02  0.42835105616E+03 -0.32369762919E+03  0.54397586023E+03  0.10100000352E+00 0.  1.
</event>
<event>
 5   0  0.1440615E-02  0.8966508E+03  0.7818609E-02  0.9429778E-01
       -2   -1    0    0    0  501  0.00000000000E+00  0.00000000000E+00  0.24280670931E+03  0.24280670932E+03  0.25500000920E-02 0. -1.
        2   -1    0    0  501    0  0.00000000000E+00  0.00000000000E+00 -0.82780113524E+03  0.82780113524E+03  0.25500000920E-02 0.  1.
    10030    2    1    2    0    0  0.00000000000E+00  0.00000000000E+00 -0.58499442593E+03  0.10706078446E+04  0.89665081190E+03 0.  0.
        3    1    3    3  502    0  0.18374811853E+03 -0.60918315857E+01  0.19572658978E+03  0.26853191546E+03  0.10100000352E+00 0. -1.
       -3    1    3    3    0  502 -0.18374811853E+03  0.60918315857E+01 -0.78072101571E+03  0.80207592910E+03  0.10100000352E+00 0.  1.
</event>
<event>
 5   0  0.1440615E-02  0.8660118E+03  0.7818609E-02  0.9469095E-01
       -2   -1    0    0    0  501  0.00000000000E+00  0.00000000000E+00  0.18452493184E+03  0.18452493186E+03  0.25500000920E-02 0. -1.
        2   -1    0    0  501    0  0.00000000000E+00  0.00000000000E+00 -0.10160909389E+04  0.10160909389E+04  0.25500000920E-02 0.  1.
    10030    2    1    2    0    0  0.00000000000E+00  0.00000000000E+00 -0.83156600702E+03  0.12006158707E+04  0.86601180420E+03 0.  0.
        3    1    3    3  502    0  0.24186441482E+03  0.16580658721E+03  0.25911091511E+02  0.29438344788E+03  0.10100000352E+00 0. -1.
       -3    1    3    3    0  502 -0.24186441482E+03 -0.16580658721E+03 -0.85747709853E+03  0.90623242285E+03  0.10100000352E+00 0.  1.
</event>
<event>
 5   0  0.1535906E-02  0.9235259E+03  0.7818609E-02  0.9396641E-01
       -2   -1    0    0    0  501  0.00000000000E+00  0.00000000000E+00  0.17339445985E+03  0.17339445986E+03  0.25500000920E-02 0. -1.
        2   -1    0    0  501    0  0.00000000000E+00  0.00000000000E+00 -0.12297107688E+04  0.12297107688E+04  0.25500000920E-02 0.  1.
    10030    2    1    2    0    0  0.00000000000E+00  0.00000000000E+00 -0.10563163089E+04  0.14031052286E+04  0.92352592716E+03 0.  0.
        2    1    3    3  502    0  0.33447484686E+02  0.39024464590E+03 -0.15658210187E+03  0.42181461866E+03  0.25500000920E-02 0. -1.
       -2    1    3    3    0  502 -0.33447484686E+02 -0.39024464590E+03 -0.89973420706E+03  0.98129060998E+03  0.25500000920E-02 0.  1.
</event>
<event>
 5   0  0.8612969E-03  0.8755764E+03  0.7818609E-02  0.9456638E-01
        1   -1    0    0  501    0  0.00000000000E+00  0.00000000000E+00  0.47123015513E+03  0.47123015516E+03  0.50400001928E-02 0.  1.
       -1   -1    0    0    0  501  0.00000000000E+00  0.00000000000E+00 -0.40671948618E+03  0.40671948621E+03  0.50400001928E-02 0. -1.
    10030    2    1    2    0    0  0.00000000000E+00  0.00000000000E+00  0.64510668949E+02  0.87794964137E+03  0.87557635097E+03 0.  0.
        4    1    3    3  502    0  0.58793306667E+02  0.34570058102E+03 -0.23054538057E+03  0.41966454464E+03  0.12699999809E+01 0. -1.
       -4    1    3    3    0  502 -0.58793306667E+02 -0.34570058102E+03  0.29505604952E+03  0.45828509673E+03  0.12699999809E+01 0.  1.
</event>
<event>
 5   0  0.1483326E-02  0.9052317E+03  0.7818609E-02  0.9419065E-01
       -2   -1    0    0    0  501  0.00000000000E+00  0.00000000000E+00  0.30254925201E+03  0.30254925202E+03  0.25500000920E-02 0.  1.
        2   -1    0    0  501    0  0.00000000000E+00  0.00000000000E+00 -0.67711655826E+03  0.67711655827E+03  0.25500000920E-02 0. -1.
    10030    2    1    2    0    0  0.00000000000E+00  0.00000000000E+00 -0.37456730625E+03  0.97966581029E+03  0.90523170124E+03 0.  0.
        1    1    3    3  502    0  0.17227805573E+03  0.34584400625E+03  0.67840339167E+02  0.39228830825E+03  0.50400001928E-02 0.  1.
       -1    1    3    3    0  502 -0.17227805573E+03 -0.34584400625E+03 -0.44240764541E+03  0.58737750203E+03  0.50400001928E-02 0. -1.
</event>
<event>
 5   0  0.1535906E-02  0.8990711E+03  0.7818609E-02  0.9426743E-01
        2   -1    0    0  501    0  0.00000000000E+00  0.00000000000E+00  0.10822999099E+04  0.10822999099E+04  0.25500000920E-02 0. -1.
       -2   -1    0    0    0  501  0.00000000000E+00  0.00000000000E+00 -0.18671555191E+03  0.18671555193E+03  0.25500000920E-02 0.  1.
    10030    2    1    2    0    0  0.00000000000E+00  0.00000000000E+00  0.89558435800E+03  0.12690154618E+04  0.89907113183E+03 0.  0.
        2    1    3    3  502    0 -0.12132578510E+03 -0.17341275038E+03  0.10075804911E+04  0.10295680522E+04  0.25500000920E-02 0. -1.
       -2    1    3    3    0  502  0.12132578510E+03  0.17341275038E+03 -0.11199613311E+03  0.23944740960E+03  0.25500000920E-02 0.  1.
</event>
<event>
 5   0  0.1483326E-02  0.9062126E+03  0.7818609E-02  0.9417849E-01
       -2   -1    0    0    0  501  0.00000000000E+00  0.00000000000E+00  0.38090054786E+03  0.38090054787E+03  0.25500000920E-02 0. -1.
        2   -1    0    0  501    0  0.00000000000E+00  0.00000000000E+00 -0.53899976841E+03  0.53899976841E+03  0.25500000920E-02 0.  1.
    10030    2    1    2    0    0  0.00000000000E+00  0.00000000000E+00 -0.15809922054E+03  0.91990031628E+03  0.90621257349E+03 0.  0.
        1    1    3    3  502    0  0.31621709497E+03  0.23417366906E+03 -0.30710889976E+03  0.49914570495E+03  0.50400001928E-02 0.  1.
       -1    1    3    3    0  502 -0.31621709497E+03 -0.23417366906E+03  0.14900967922E+03  0.42075461133E+03  0.50400001928E-02 0. -1.
</event>
<event>
 5   0  0.1440615E-02  0.8765226E+03  0.7818609E-02  0.9455415E-01
       -2   -1    0    0    0  501  0.00000000000E+00  0.00000000000E+00  0.11065373270E+03  0.11065373272E+03  0.25500000920E-02 0. -1.
        2   -1    0    0  501    0  0.00000000000E+00  0.00000000000E+00 -0.17358018212E+04  0.17358018212E+04  0.25500000920E-02 0.  1.
    10030    2    1    2    0    0  0.00000000000E+00  0.00000000000E+00 -0.16251480885E+04  0.18464555539E+04  0.87652256277E+03 0.  0.
        3    1    3    3  502    0 -0.49532885217E+02 -0.28832987424E+03 -0.14999916065E+04  0.15282547081E+04  0.10100000352E+00 0.  1.
       -3    1    3    3    0  502  0.49532885217E+02  0.28832987424E+03 -0.12515648203E+03  0.31820084584E+03  0.10100000352E+00 0. -1.
</event>
<event>
 5   0  0.5770125E-03  0.9034245E+03  0.7818609E-02  0.9421311E-01
       -4   -1    0    0    0  501  0.00000000000E+00  0.00000000000E+00  0.31021850250E+03  0.31022110211E+03  0.12699999809E+01 0.  1.
        4   -1    0    0  501    0  0.00000000000E+00  0.00000000000E+00 -0.65773676499E+03  0.65773799108E+03  0.12699999809E+01 0. -1.
    10030    2    1    2    0    0  0.00000000000E+00  0.00000000000E+00 -0.34751826248E+03  0.96795909319E+03  0.90342452000E+03 0.  0.
        5    1    3    3  502    0 -0.23695586017E+03 -0.46425241991E+01  0.23822367290E+03  0.33606880401E+03  0.46999998093E+01 0.  1.
       -5    1    3    3    0  502  0.23695586017E+03  0.46425241991E+01 -0.58574193539E+03  0.63189028918E+03  0.46999998093E+01 0. -1.
</event>
<event>
 5   0  0.1440615E-02  0.9003580E+03  0.7818609E-02  0.9425134E-01
        2   -1    0    0  501    0  0.00000000000E+00  0.00000000000E+00  0.16620229052E+04  0.16620229052E+04  0.25500000920E-02 0. -1.
       -2   -1    0    0    0  501  0.00000000000E+00  0.00000000000E+00 -0.12193641625E+03  0.12193641628E+03  0.25500000920E-02 0.  1.
    10030    2    1    2    0    0  0.00000000000E+00  0.00000000000E+00  0.15400864889E+04  0.17839593214E+04  0.90035796616E+03 0.  0.
        3    1    3    3  502    0  0.20436897869E+03  0.33430885775E+03  0.33085366954E+03  0.51282867770E+03  0.10100000352E+00 0.  1.
       -3    1    3    3    0  502 -0.20436897869E+03 -0.33430885775E+03  0.12092328194E+04  0.12711306437E+04  0.10100000352E+00 0. -1.
</event>
<event>
 5   0  0.1454652E-02  0.8964098E+03  0.7818609E-02  0.9430081E-01
       -2   -1    0    0    0  501  0.00000000000E+00  0.00000000000E+00  0.86205182110E+03  0.86205182110E+03  0.25500000920E-02 0. -1.
        2   -1    0    0  501    0  0.00000000000E+00  0.00000000000E+00 -0.23303427949E+03  0.23303427951E+03  0.25500000920E-02 0.  1.
    10030    2    1    2    0    0  0.00000000000E+00  0.00000000000E+00  0.62901754161E+03  0.10950861006E+04  0.89640978358E+03 0.  0.
        4    1    3    3  502    0 -0.24191766107E+03  0.29069969536E+03  0.20666567707E+02  0.37876006593E+03  0.12699999809E+01 0.  1.
       -4    1    3    3    0  502  0.24191766107E+03 -0.29069969536E+03  0.60835097390E+03  0.71632603468E+03  0.12699999809E+01 0. -1.
</event>
<event>
 5   0  0.8291252E-03  0.8958436E+03  0.7818609E-02  0.9430792E-01
        1   -1    0    0  501    0  0.00000000000E+00  0.00000000000E+00  0.66523958280E+03  0.66523958282E+03  0.50400001928E-02 0.  1.
       -1   -1    0    0    0  501  0.00000000000E+00  0.00000000000E+00 -0.30159652474E+03  0.30159652478E+03  0.50400001928E-02 0. -1.
    10030    2    1    2    0    0  0.00000000000E+00  0.00000000000E+00  0.36364305806E+03  0.96683610760E+03  0.89584361653E+03 0.  0.
        1    1    3    3  502    0  0.17518634368E+03 -0.82576096013E+01  0.62664330111E+03  0.65072288263E+03  0.50400001928E-02 0.  1.
       -1    1    3    3    0  502 -0.17518634368E+03  0.82576096013E+01 -0.26300024305E+03  0.31611322497E+03  0.50400001928E-02 0. -1.
</event>
<event>
 5   0  0.8885324E-03  0.8946943E+03  0.7818609E-02  0.9432238E-01
       -1   -1    0    0    0  501  0.00000000000E+00  0.00000000000E+00  0.18606359499E+03  0.18606359506E+03  0.50400001928E-02 0. -1.
        1   -1    0    0  501    0  0.00000000000E+00  0.00000000000E+00 -0.10755434278E+04  0.10755434278E+04  0.50400001928E-02 0.  1.
    10030    2    1    2    0    0  0.00000000000E+00  0.00000000000E+00 -0.88947983284E+03  0.12616070229E+04  0.89469430936E+03 0.  0.
        2    1    3    3  502    0 -0.14897606186E+03  0.27360576029E+03 -0.89743530993E+03  0.94997058617E+03  0.25500000920E-02 0.  1.
       -2    1    3    3    0  502  0.14897606186E+03 -0.27360576029E+03  0.79554770899E+01  0.31163643673E+03  0.25500000920E-02 0. -1.
</event>
<event>
 5   0  0.8524692E-03  0.8848919E+03  0.7818609E-02  0.9444667E-01
        1   -1    0    0  501    0  0.00000000000E+00  0.00000000000E+00  0.21906571035E+04  0.21906571035E+04  0.50400001928E-02 0. -1.
       -1   -1    0    0    0  501  0.00000000000E+00  0.00000000000E+00 -0.89360598019E+02  0.89360598161E+02  0.50400001928E-02 0.  1.
    10030    2    1    2    0    0  0.00000000000E+00  0.00000000000E+00  0.21012965055E+04  0.22800177017E+04  0.88489192333E+03 0.  0.
        5    1    3    3  502    0 -0.35301880473E+03  0.43692740373E+02  0.17284719466E+04  0.17647007373E+04  0.46999998093E+01 0. -1.
       -5    1    3    3    0  502  0.35301880473E+03 -0.43692740373E+02  0.37282455888E+03  0.51531696436E+03  0.46999998093E+01 0.  1.
</event>
<event>
 5   0  0.8524692E-03  0.9098102E+03  0.7818609E-02  0.9413401E-01
       -1   -1    0    0    0  501  0.00000000000E+00  0.00000000000E+00  0.14366292672E+03  0.14366292681E+03  0.50400001928E-02 0. -1.
        1   -1    0    0  501    0  0.00000000000E+00  0.00000000000E+00 -0.14404456844E+04  0.14404456844E+04  0.50400001928E-02 0.  1.
    10030    2    1    2    0    0  0.00000000000E+00  0.00000000000E+00 -0.12967827577E+04  0.15841086112E+04  0.90981018433E+03 0.  0.
        5    1    3    3  502    0 -0.46667916469E+02 -0.39491511379E+03 -0.26383658871E+03  0.47725012003E+03  0.46999998093E+01 0. -1.
       -5    1    3    3    0  502  0.46667916469E+02  0.39491511379E+03 -0.10329461690E+04  0.11068584912E+04  0.46999998093E+01 0.  1.
</event>
<event>
 5   0  0.8291252E-03  0.9379387E+03  0.7818609E-02  0.9379361E-01
       -1   -1    0    0    0  501  0.00000000000E+00  0.00000000000E+00  0.14464286631E+03  0.14464286640E+03  0.50400001928E-02 0. -1.
        1   -1    0    0  501    0  0.00000000000E+00  0.00000000000E+00 -0.15205191024E+04  0.15205191024E+04  0.50400001928E-02 0.  1.
    10030    2    1    2    0    0  0.00000000000E+00  0.00000000000E+00 -0.13758762361E+04  0.16651619688E+04  0.93793867886E+03 0.  0.
        1    1    3    3  502    0  0.42374413559E+03  0.15284853476E+03 -0.45639053671E+03  0.64125976721E+03  0.50400001928E-02 0. -1.
       -1    1    3    3    0  502 -0.42374413559E+03 -0.15284853476E+03 -0.91948569935E+03  0.10239022016E+04  0.50400001928E-02 0.  1.
</event>
<event>
 5   0  0.1454652E-02  0.8846374E+03  0.7818609E-02  0.9444992E-01
        2   -1    0    0  501    0  0.00000000000E+00  0.00000000000E+00  0.81746584823E+03  0.81746584823E+03  0.25500000920E-02 0. -1.
       -2   -1    0    0    0  501  0.00000000000E+00  0.00000000000E+00 -0.23933209667E+03  0.23933209668E+03  0.25500000920E-02 0.  1.
    10030    2    1    2    0    0  0.00000000000E+00  0.00000000000E+00  0.57813375156E+03  0.10567979449E+04  0.88463736168E+03 0.  0.
        4    1    3    3  502    0  0.31507263353E+03  0.29420754623E+03  0.40742000684E+03  0.59314544552E+03  0.12699999809E+01 0. -1.
       -4    1    3    3    0  502 -0.31507263353E+03 -0.29420754623E+03  0.17071374472E+03  0.46365249939E+03  0.12699999809E+01 0.  1.
</event>
<event>
 5   0  0.8291252E-03  0.8977927E+03  0.7818609E-02  0.9428345E-01
        1   -1    0    0  501    0  0.00000000000E+00  0.00000000000E+00  0.77936558610E+03  0.77936558612E+03  0.50400001928E-02 0. -1.
       -1   -1    0    0    0  501  0.00000000000E+00  0.00000000000E+00 -0.25855381241E+03  0.25855381246E+03  0.50400001928E-02 0.  1.
    10030    2    1    2    0    0  0.00000000000E+00  0.00000000000E+00  0.52081177370E+03  0.10379193986E+04  0.89779272347E+03 0.  0.
        1    1    3    3  502    0  0.29644493498E+01  0.40250825646E+03  0.49013209442E+03  0.63423272896E+03  0.50400001928E-02 0. -1.
       -1    1    3    3    0  502 -0.29644493498E+01 -0.40250825646E+03  0.30679679274E+02  0.40368666962E+03  0.50400001928E-02 0.  1.
</event>
<event>
 5   0  0.1441195E-02  0.9245453E+03  0.7818609E-02  0.9395408E-01
        2   -1    0    0  501    0  0.00000000000E+00  0.00000000000E+00  0.66863044536E+03  0.66863044536E+03  0.25500000920E-02 0. -1.
       -2   -1    0    0    0  501  0.00000000000E+00  0.00000000000E+00 -0.31960256946E+03  0.31960256947E+03  0.25500000920E-02 0.  1.
    10030    2    1    2    0    0  0.00000000000E+00  0.00000000000E+00  0.34902787589E+03  0.98823301484E+03  0.92454531174E+03 0.  0.
        5    1    3    3  502    0 -0.39280267045E+03  0.11665441202E+03 -0.54166921185E+02  0.41335013621E+03  0.46999998093E+01 0. -1.
       -5    1    3    3    0  502  0.39280267045E+03 -0.11665441202E+03  0.40319479708E+03  0.57488287863E+03  0.46999998093E+01 0.  1.
</event>
<event>
 5   0  0.1441195E-02  0.9004088E+03  0.7818609E-02  0.9425071E-01
       -2   -1    0    0    0  501  0.00000000000E+00  0.00000000000E+00  0.63606356862E+03  0.63606356863E+03  0.25500000920E-02 0. -1.
        2   -1    0    0  501    0  0.00000000000E+00  0.00000000000E+00 -0.31865369674E+03  0.31865369675E+03  0.25500000920E-02 0.  1.
    10030    2    1    2    0    0  0.00000000000E+00  0.00000000000E+00  0.31740987189E+03  0.95471726538E+03  0.90040881273E+03 0.  0.
        5    1    3    3  502    0  0.29101764565E+03 -0.10458045105E+02  0.52272105083E+03  0.59838117264E+03  0.46999998093E+01 0. -1.
       -5    1    3    3    0  502 -0.29101764565E+03  0.10458045105E+02 -0.20531117895E+03  0.35633609273E+03  0.46999998093E+01 0.  1.
</event>
<event>
 5   0  0.1441195E-02  0.9332896E+03  0.7818609E-02  0.9384899E-01
       -2   -1    0    0    0  501  0.00000000000E+00  0.00000000000E+00  0.21257495936E+03  0.21257495938E+03  0.25500000920E-02 0.  1.
        2   -1    0    0  501    0  0.00000000000E+00  0.00000000000E+00 -0.10243793211E+04  0.10243793211E+04  0.25500000920E-02 0. -1.
    10030    2    1    2    0    0  0.00000000000E+00  0.00000000000E+00 -0.81180436174E+03  0.12369542805E+04  0.93328964972E+03 0.  0.
        5    1    3    3  502    0  0.84040502325E+02 -0.55278468189E+02 -0.10098069116E+04  0.10148155517E+04  0.46999998093E+01 0. -1.
       -5    1    3    3    0  502 -0.84040502325E+02  0.55278468189E+02  0.19800254991E+03  0.22213872883E+03  0.46999998093E+01 0.  1.
</event>
<event>
 5   0  0.1535906E-02  0.8897658E+03  0.7818609E-02  0.9438466E-01
        2   -1    0    0  501    0  0.00000000000E+00  0.00000000000E+00  0.14894074262E+04  0.14894074262E+04  0.25500000920E-02 0. -1.
       -2   -1    0    0    0  501  0.00000000000E+00  0.00000000000E+00 -0.13288558500E+03  0.13288558503E+03  0.25500000920E-02 0.  1.
    10030    2    1    2    0    0  0.00000000000E+00  0.00000000000E+00  0.13565218412E+04  0.16222930112E+04  0.88976576054E+03 0.  0.
        2    1    3    3  502    0 -0.34078539559E+03  0.98049632828E+01  0.11993811514E+04  0.12468945302E+04  0.25500000920E-02 0. -1.
       -2    1    3    3    0  502  0.34078539559E+03 -0.98049632828E+01  0.15714068980E+03  0.37539848102E+03  0.25500000920E-02 0.  1.
</event>
<event>
 5   0  0.8612969E-03  0.9132297E+03  0.7818609E-02  0.9409193E-01
        1   -1    0    0  501    0  0.00000000000E+00  0.00000000000E+00  0.19035694497E+04  0.19035694497E+04  0.50400001928E-02 0.  1.
       -1   -1    0    0    0  501  0.00000000000E+00  0.00000000000E+00 -0.10952956747E+03  0.10952956758E+03  0.50400001928E-02 0. -1.
    10030    2    1    2    0    0  0.00000000000E+00  0.00000000000E+00  0.17940398822E+04  0.20130990173E+04  0.91322973800E+03 0.  0.
        4    1    3    3  502    0  0.35635890021E+03 -0.85902836847E+02  0.29686116204E+03  0.47169812971E+03  0.12699999809E+01 0. -1.
       -4    1    3    3    0  502 -0.35635890021E+03  0.85902836847E+02  0.14971787202E+04  0.15414008876E+04  0.12699999809E+01 0.  1.
</event>
<event>
 5   0  0.1483326E-02  0.8849636E+03  0.7818609E-02  0.9444575E-01
        2   -1    0    0  501    0  0.00000000000E+00  0.00000000000E+00  0.86994565042E+03  0.86994565042E+03  0.25500000920E-02 0.  1.
       -2   -1    0    0    0  501  0.00000000000E+00  0.00000000000E+00 -0.22506018320E+03  0.22506018321E+03  0.25500000920E-02 0. -1.
    10030    2    1    2    0    0  0.00000000000E+00  0.00000000000E+00  0.64488546722E+03  0.10950058336E+04  0.88496356414E+03 0.  0.
        1    1    3    3  502    0 -0.14033796311E+03 -0.67740665363E+02  0.83486907116E+03  0.84928788267E+03  0.50400001928E-02 0.  1.
       -1    1    3    3    0  502  0.14033796311E+03  0.67740665363E+02 -0.18998360394E+03  0.24571795097E+03  0.50400001928E-02 0. -1.
</event>
<event>
 5   0  0.1441195E-02  0.9133723E+03  0.7818609E-02  0.9409018E-01
        2   -1    0    0  501    0  0.00000000000E+00  0.00000000000E+00  0.12289431078E+04  0.12289431078E+04  0.25500000920E-02 0.  1.
       -2   -1    0    0    0  501  0.00000000000E+00  0.00000000000E+00 -0.16970860940E+03  0.16970860942E+03  0.25500000920E-02 0. -1.
    10030    2    1    2    0    0  0.00000000000E+00  0.00000000000E+00  0.10592344984E+04  0.13986517172E+04  0.91337226995E+03 0.  0.
        5    1    3    3  502    0 -0.15468938989E+03 -0.39313153632E+03  0.26412706211E+03  0.49826339132E+03  0.46999998093E+01 0. -1.
       -5    1    3    3    0  502  0.15468938989E+03  0.39313153632E+03  0.79510743631E+03  0.90038832593E+03  0.46999998093E+01 0.  1.
</event>
<event>
 5   0  0.1454652E-02  0.8793918E+03  0.7818609E-02  0.9451716E-01
        2   -1    0    0  501    0  0.00000000000E+00  0.00000000000E+00  0.99680551942E+03  0.99680551943E+03  0.25500000920E-02 0. -1.
       -2   -1    0    0    0  501  0.00000000000E+00  0.00000000000E+00 -0.19395205945E+03  0.19395205946E+03  0.25500000920E-02 0.  1.
    10030    2    1    2    0    0  0.00000000000E+00  0.00000000000E+00  0.80285345998E+03  0.11907575789E+04  0.87939179748E+03 0.  0.
        4    1    3    3  502    0 -0.10703837204E+03 -0.42587010553E+03  0.43195523428E+03  0.61596225306E+03  0.12699999809E+01 0.  1.
       -4    1    3    3    0  502  0.10703837204E+03  0.42587010553E+03  0.37089822570E+03  0.57479532583E+03  0.12699999809E+01 0. -1.
</event>
<event>
 5   0  0.1440615E-02  0.8886451E+03  0.7818609E-02  0.9439888E-01
        2   -1    0    0  501    0  0.00000000000E+00  0.00000000000E+00  0.93907183572E+03  0.93907183573E+03  0.25500000920E-02 0. -1.
       -2   -1    0    0    0  501  0.00000000000E+00  0.00000000000E+00 -0.21023157166E+03  0.21023157168E+03  0.25500000920E-02 0.  1.
    10030    2    1    2    0    0  0.00000000000E+00  0.00000000000E+00  0.72884026406E+03  0.11493034074E+04  0.88864514388E+03 0.  0.
        3    1    3    3  502    0 -0.39068309459E+03  0.21086791116E+03  0.38769924077E+03  0.58941434310E+03  0.10100000352E+00 0. -1.
       -3    1    3    3    0  502  0.39068309459E+03 -0.21086791116E+03  0.34114102329E+03  0.55988906431E+03  0.10100000352E+00 0.  1.
</event>
<event>
 5   0  0.1441195E-02  0.9093332E+03  0.7818609E-02  0.9413989E-01
        2   -1    0    0  501    0  0.00000000000E+00  0.00000000000E+00  0.12342806055E+04  0.12342806055E+04  0.25500000920E-02 0.  1.
       -2   -1    0    0    0  501  0.00000000000E+00  0.00000000000E+00 -0.16748355058E+03  0.16748355060E+03  0.25500000920E-02 0. -1.
    10030    2    1    2    0    0  0.00000000000E+00  0.00000000000E+00  0.10667970549E+04  0.14017641561E+04  0.90933315838E+03 0.  0.
        5    1    3    3  502    0 -0.33380901441E+02  0.39077303615E+03  0.17890781228E+03  0.43110085323E+03  0.46999998093E+01 0. -1.
       -5    1    3    3    0  502  0.33380901441E+02 -0.39077303615E+03  0.88788924259E+03  0.97066330283E+03  0.46999998093E+01 0.  1.
</event>
<event>
 5   0  0.8612969E-03  0.9060018E+03  0.7818609E-02  0.9418110E-01
        1   -1    0    0  501    0  0.00000000000E+00  0.00000000000E+00  0.69112686484E+03  0.69112686486E+03  0.50400001928E-02 0. -1.
       -1   -1    0    0    0  501  0.00000000000E+00  0.00000000000E+00 -0.29692060191E+03  0.29692060196E+03  0.50400001928E-02 0.  1.
    10030    2    1    2    0    0  0.00000000000E+00  0.00000000000E+00  0.39420626293E+03  0.98804746682E+03  0.90600177646E+03 0.  0.
        4    1    3    3  502    0 -0.11292385738E+02  0.29065442546E+03 -0.18162157353E+03  0.34292203471E+03  0.12699999809E+01 0.  1.
       -4    1    3    3    0  502  0.11292385738E+02 -0.29065442546E+03  0.57582783646E+03  0.64512543211E+03  0.12699999809E+01 0. -1.
</event>
<event>
 5   0  0.8738044E-03  0.8916746E+03  0.7818609E-02  0.9436049E-01
        1   -1    0    0  501    0  0.00000000000E+00  0.00000000000E+00  0.65957578911E+03  0.65957578913E+03  0.50400001928E-02 0.  1.
       -1   -1    0    0    0  501  0.00000000000E+00  0.00000000000E+00 -0.30136170814E+03  0.30136170818E+03  0.50400001928E-02 0. -1.
    10030    2    1    2    0    0  0.00000000000E+00  0.00000000000E+00  0.35821408097E+03  0.96093749731E+03  0.89167457401E+03 0.  0.
        3    1    3    3  502    0  0.33195918680E+02  0.40565316573E+02  0.65624357813E+03  0.65833362208E+03  0.10100000352E+00 0.  1.
       -3    1    3    3    0  502 -0.33195918680E+02 -0.40565316573E+02 -0.29802949716E+03  0.30260387523E+03  0.10100000352E+00 0. -1.
</event>
<event>
 5   0  0.8524692E-03  0.9670701E+03  0.7818609E-02  0.9345418E-01
        1   -1    0    0  501    0  0.00000000000E+00  0.00000000000E+00  0.92654873598E+03  0.92654873599E+03  0.50400001928E-02 0.  1.
       -1   -1    0    0    0  501  0.00000000000E+00  0.00000000000E+00 -0.25234092537E+03  0.25234092542E+03  0.50400001928E-02 0. -1.
    10030    2    1    2    0    0  0.00000000000E+00  0.00000000000E+00  0.67420781060E+03  0.11788896614E+04  0.96707014322E+03 0.  0.
        5    1    3    3  502    0 -0.48144931807E+03 -0.43621422653E+02  0.32568130076E+03  0.58291223529E+03  0.46999998093E+01 0. -1.
       -5    1    3    3    0  502  0.48144931807E+03  0.43621422653E+02  0.34852650985E+03  0.59597742613E+03  0.46999998093E+01 0.  1.
</event>
<event>
 5   0  0.1483326E-02  0.9045421E+03  0.7818609E-02  0.9419921E-01
        2   -1    0    0  501    0  0.00000000000E+00  0.00000000000E+00  0.12192895327E+04  0.12192895327E+04  0.25500000920E-02 0.  1.
       -2   -1    0    0    0  501  0.00000000000E+00  0.00000000000E+00 -0.16776090001E+03  0.16776090003E+03  0.25500000920E-02 0. -1.
    10030    2    1    2    0    0  0.00000000000E+00  0.00000000000E+00  0.10515286327E+04  0.13870504328E+04  0.90454211489E+03 0.  0.
        1    1    3    3  502    0  0.25745062558E+03  0.99257782474E+02  0.10752714428E+04  0.11101088269E+04  0.50400001928E-02 0. -1.
       -1    1    3    3    0  502 -0.25745062558E+03 -0.99257782474E+02 -0.23742810033E+02  0.27694160584E+03  0.50400001928E-02 0.  1.
</event>
<event>
 5   0  0.1441195E-02  0.9025741E+03  0.7818609E-02  0.9422369E-01
       -2   -1    0    0    0  501  0.00000000000E+00  0.00000000000E+00  0.33313959302E+03  0.33313959303E+03  0.25500000920E-02 0. -1.
        2   -1    0    0  501    0  0.00000000000E+00  0.00000000000E+00 -0.61133536750E+03  0.61133536751E+03  0.25500000920E-02 0.  1.
    10030    2    1    2    0    0  0.00000000000E+00  0.00000000000E+00 -0.27819577448E+03  0.94447496054E+03  0.90257413111E+03 0.  0.
        5    1    3    3  502    0 -0.17004546204E+03 -0.18955023171E+03  0.25074680319E+03  0.35740844815E+03  0.46999998093E+01 0. -1.
       -5    1    3    3    0  502  0.17004546204E+03  0.18955023171E+03 -0.52894257767E+03  0.58706651239E+03  0.46999998093E+01 0.  1.
</event>
<event>
 5   0  0.8524692E-03  0.8103485E+03  0.7818609E-02  0.9545158E-01
       -1   -1    0    0    0  501  0.00000000000E+00  0.00000000000E+00  0.48655755262E+03  0.48655755264E+03  0.50400001928E-02 0. -1.
        1   -1    0    0  501    0  0.00000000000E+00  0.00000000000E+00 -0.33740337584E+03  0.33740337588E+03  0.50400001928E-02 0.  1.
    10030    2    1    2    0    0  0.00000000000E+00  0.00000000000E+00  0.14915417677E+03  0.82396092853E+03  0.81034847028E+03 0.  0.
        5    1    3    3  502    0  0.13167817378E+03  0.37471202491E+03 -0.67402549597E+01  0.39726032283E+03  0.46999998093E+01 0.  1.
       -5    1    3    3    0  502 -0.13167817378E+03 -0.37471202491E+03  0.15589443173E+03  0.42670060570E+03  0.46999998093E+01 0. -1.
</event>
<event>
 5   0  0.8291252E-03  0.8924545E+03  0.7818609E-02  0.9435063E-01
       -1   -1    0    0    0  501  0.00000000000E+00  0.00000000000E+00  0.90689834687E+02  0.90689834827E+02  0.50400001928E-02 0.  1.
        1   -1    0    0  501    0  0.00000000000E+00  0.00000000000E+00 -0.21956017144E+04  0.21956017144E+04  0.50400001928E-02 0. -1.
    10030    2    1    2    0    0  0.00000000000E+00  0.00000000000E+00 -0.21049118797E+04  0.22862915492E+04  0.89245449561E+03 0.  0.
        1    1    3    3  502    0 -0.24310357266E+03  0.21848022072E+03 -0.27421696527E+03  0.42664727581E+03  0.50400001928E-02 0.  1.
       -1    1    3    3    0  502  0.24310357266E+03 -0.21848022072E+03 -0.18306949144E+04  0.18596442734E+04  0.50400001928E-02 0. -1.
</event>
<event>
 5   0  0.1454652E-02  0.8994078E+03  0.7818609E-02  0.9426322E-01
        2   -1    0    0  501    0  0.00000000000E+00  0.00000000000E+00  0.11355415276E+04  0.11355415276E+04  0.25500000920E-02 0. -1.
       -2   -1    0    0    0  501  0.00000000000E+00  0.00000000000E+00 -0.17809439264E+03  0.17809439265E+03  0.25500000920E-02 0.  1.
    10030    2    1    2    0    0  0.00000000000E+00  0.00000000000E+00  0.95744713499E+03  0.13136359203E+04  0.89940775778E+03 0.  0.
        4    1    3    3  502    0  0.23584858278E+03  0.28785178797E+02 -0.78931443757E+02  0.25036957928E+03  0.12699999809E+01 0.  1.
       -4    1    3    3    0  502 -0.23584858278E+03 -0.28785178797E+02  0.10363785788E+04  0.10632663410E+04  0.12699999809E+01 0. -1.
</event>
<event>
 5   0  0.8612969E-03  0.9151974E+03  0.7818609E-02  0.9406781E-01
       -1   -1    0    0    0  501  0.00000000000E+00  0.00000000000E+00  0.47865302662E+03  0.47865302665E+03  0.50400001928E-02 0.  1.
        1   -1    0    0  501    0  0.00000000000E+00  0.00000000000E+00 -0.43747051628E+03  0.43747051631E+03  0.50400001928E-02 0. -1.
    10030    2    1    2    0    0  0.00000000000E+00  0.00000000000E+00  0.41182510342E+02  0.91612354296E+03  0.91519743597E+03 0.  0.
        4    1    3    3  502    0 -0.22902917036E+03 -0.84900782435E+02 -0.36675311110E+03  0.44064947650E+03  0.12699999809E+01 0. -1.
       -4    1    3    3    0  502  0.22902917036E+03  0.84900782435E+02  0.40793562144E+03  0.47547406646E+03  0.12699999809E+01 0.  1.
</event>
<event>
 5   0  0.1454652E-02  0.8950442E+03  0.7818609E-02  0.9431798E-01
        2   -1    0    0  501    0  0.00000000000E+00  0.00000000000E+00  0.55597419998E+03  0.55597419998E+03  0.25500000920E-02 0. -1.
       -2   -1    0    0    0  501  0.00000000000E+00  0.00000000000E+00 -0.36022536802E+03  0.36022536803E+03  0.25500000920E-02 0.  1.
    10030    2    1    2    0    0  0.00000000000E+00  0.00000000000E+00  0.19574883196E+03  0.91619956801E+03  0.89504415713E+03 0.  0.
        4    1    3    3  502    0 -0.81773660361E+02 -0.14073043930E+03  0.52459984969E+03  0.54927097436E+03  0.12699999809E+01 0. -1.
       -4    1    3    3    0  502  0.81773660361E+02  0.14073043930E+03 -0.32885101773E+03  0.36692859365E+03  0.12699999809E+01 0.  1.
</event>
<event>
 5   0  0.1483326E-02  0.9058965E+03  0.7818609E-02  0.9418240E-01
       -2   -1    0    0    0  501  0.00000000000E+00  0.00000000000E+00  0.27691383422E+03  0.27691383423E+03  0.25500000920E-02 0.  1.
        2   -1    0    0  501    0  0.00000000000E+00  0.00000000000E+00 -0.74088787860E+03  0.74088787860E+03  0.25500000920E-02 0. -1.
    10030    2    1    2    0    0  0.00000000000E+00  0.00000000000E+00 -0.46397404438E+03  0.10178017128E+04  0.90589646914E+03 0.  0.
        1    1    3    3  502    0 -0.31425745242E+03 -0.26670426107E+03 -0.20975095304E+02  0.41270917596E+03  0.50400001928E-02 0.  1.
       -1    1    3    3    0  502  0.31425745242E+03  0.26670426107E+03 -0.44299894907E+03  0.60509253687E+03  0.50400001928E-02 0. -1.
</event>
<event>
 5   0  0.5770125E-03  0.9039304E+03  0.7818609E-02  0.9420681E-01
       -4   -1    0    0    0  501  0.00000000000E+00  0.00000000000E+00  0.30128895959E+03  0.30129163624E+03  0.12699999809E+01 0. -1.
        4   -1    0    0  501    0  0.00000000000E+00  0.00000000000E+00 -0.67798922436E+03  0.67799041383E+03  0.12699999809E+01 0.  1.
    10030    2    1    2    0    0  0.00000000000E+00  0.00000000000E+00 -0.37670026477E+03  0.97928205008E+03  0.90393044208E+03 0.  0.
        2    1    3    3  502    0 -0.13478145974E+03 -0.80742188625E+02 -0.64745351549E+03  0.66624424774E+03  0.25500000920E-02 0.  1.
       -2    1    3    3    0  502  0.13478145974E+03  0.80742188625E+02  0.27075325072E+03  0.31303780234E+03  0.25500000920E-02 0. -1.
</event>
<event>
 5   0  0.8291252E-03  0.8944622E+03  0.7818609E-02  0.9432531E-01
       -1   -1    0    0    0  501  0.00000000000E+00  0.00000000000E+00  0.10051646665E+03  0.10051646677E+03  0.50400001928E-02 0.  1.
        1   -1    0    0  501    0  0.00000000000E+00  0.00000000000E+00 -0.19898794338E+04  0.19898794338E+04  0.50400001928E-02 0. -1.
    10030    2    1    2    0    0  0.00000000000E+00  0.00000000000E+00 -0.18893629672E+04  0.20903959006E+04  0.89446218451E+03 0.  0.
        1    1    3    3  502    0 -0.73650005274E+02 -0.64086894929E+02 -0.19646717695E+04  0.19670959853E+04  0.50400001928E-02 0. -1.
       -1    1    3    3    0  502  0.73650005274E+02  0.64086894929E+02  0.75308802348E+02  0.12329991531E+03  0.50400001928E-02 0.  1.
</event>
<event>
 5   0  0.8524692E-03  0.8861294E+03  0.7818609E-02  0.9443088E-01
       -1   -1    0    0    0  501  0.00000000000E+00  0.00000000000E+00  0.19994580047E+03  0.19994580053E+03  0.50400001928E-02 0. -1.
        1   -1    0    0  501    0  0.00000000000E+00  0.00000000000E+00 -0.98179770386E+03  0.98179770387E+03  0.50400001928E-02 0.  1.
    10030    2    1    2    0    0  0.00000000000E+00  0.00000000000E+00 -0.78185190339E+03  0.11817435044E+04  0.88612939876E+03 0.  0.
        5    1    3    3  502    0  0.22335359320E+03 -0.37759454344E+03 -0.47334825423E+03  0.64540307298E+03  0.46999998093E+01 0. -1.
       -5    1    3    3    0  502 -0.22335359320E+03  0.37759454344E+03 -0.30850364917E+03  0.53634043142E+03  0.46999998093E+01 0.  1.
</event>
<event>
 5   0  0.1454652E-02  0.8961304E+03  0.7818609E-02  0.9430432E-01
        2   -1    0    0  501    0  0.00000000000E+00  0.00000000000E+00  0.12581088366E+04  0.12581088366E+04  0.25500000920E-02 0. -1.
       -2   -1    0    0    0  501  0.00000000000E+00  0.00000000000E+00 -0.15957477446E+03  0.15957477448E+03  0.25500000920E-02 0.  1.
    10030    2    1    2    0    0  0.00000000000E+00  0.00000000000E+00  0.10985340622E+04  0.14176836111E+04  0.89613042325E+03 0.  0.
        4    1    3    3  502    0 -0.28798572719E+03  0.14385209653E+03  0.56219935593E+02  0.32678968588E+03  0.12699999809E+01 0.  1.
       -4    1    3    3    0  502  0.28798572719E+03 -0.14385209653E+03  0.10423141266E+04  0.10908939252E+04  0.12699999809E+01 0. -1.
</event>
<event>
 5   0  0.5770125E-03  0.8987779E+03  0.7818609E-02  0.9427110E-01
        3   -1    0    0  501    0  0.00000000000E+00  0.00000000000E+00  0.18685391575E+03  0.18685394305E+03  0.10100000352E+00 0. -1.
       -3   -1    0    0    0  501  0.00000000000E+00  0.00000000000E+00 -0.10807930633E+04  0.10807930680E+04  0.10100000352E+00 0.  1.
    10030    2    1    2    0    0  0.00000000000E+00  0.00000000000E+00 -0.89393914751E+03  0.12676470110E+04  0.89877791758E+03 0.  0.
        5    1    3    3  502    0 -0.62973324479E+02 -0.12349010812E+03  0.15590997046E+03  0.20867547841E+03  0.46999998093E+01 0. -1.
       -5    1    3    3    0  502  0.62973324479E+02  0.12349010812E+03 -0.10498491180E+04  0.10589715326E+04  0.46999998093E+01 0.  1.
</event>
<event>
 5   0  0.8612969E-03  0.9023763E+03  0.7818609E-02  0.9422616E-01
       -1   -1    0    0    0  501  0.00000000000E+00  0.00000000000E+00  0.15370231382E+03  0.15370231390E+03  0.50400001928E-02 0.  1.
        1   -1    0    0  501    0  0.00000000000E+00  0.00000000000E+00 -0.13244482082E+04  0.13244482083E+04  0.50400001928E-02 0. -1.
    10030    2    1    2    0    0  0.00000000000E+00  0.00000000000E+00 -0.11707458944E+04  0.14781505222E+04  0.90237631664E+03 0.  0.
        4    1    3    3  502    0  0.89423248597E+02 -0.41533292949E+03 -0.83418183592E+03  0.93614043176E+03  0.12699999809E+01 0. -1.
       -4    1    3    3    0  502 -0.89423248597E+02  0.41533292949E+03 -0.33656405850E+03  0.54201009039E+03  0.12699999809E+01 0.  1.
</event>
<event>
 5   0  0.1454652E-02  0.9015953E+03  0.7818609E-02  0.9423589E-01
       -2   -1    0    0    0  501  0.00000000000E+00  0.00000000000E+00  0.14447091629E+03  0.14447091632E+03  0.25500000920E-02 0.  1.
        2   -1    0    0  501    0  0.00000000000E+00  0.00000000000E+00 -0.14066396990E+04  0.14066396990E+04  0.25500000920E-02 0. -1.
    10030    2    1    2    0    0  0.00000000000E+00  0.00000000000E+00 -0.12621687827E+04  0.15511106153E+04  0.90159531107E+03 0.  0.
        4    1    3    3  502    0  0.57912916915E+02 -0.32540061920E+03 -0.11584878106E+04  0.12047136959E+04  0.12699999809E+01 0. -1.
       -4    1    3    3    0  502 -0.57912916915E+02  0.32540061920E+03 -0.10368097216E+03  0.34639691945E+03  0.12699999809E+01 0.  1.
</event>
<event>
 5   0  0.5770125E-03  0.9057495E+03  0.7818609E-02  0.9418423E-01
       -4   -1    0    0    0  501  0.00000000000E+00  0.00000000000E+00  0.30580743826E+03  0.30581007537E+03  0.12699999809E+01 0.  1.
        4   -1    0    0  501    0  0.00000000000E+00  0.00000000000E+00 -0.67066275484E+03  0.67066395731E+03  0.12699999809E+01 0. -1.
    10030    2    1    2    0    0  0.00000000000E+00  0.00000000000E+00 -0.36485531658E+03  0.97647403267E+03  0.90574948769E+03 0.  0.
        5    1    3    3  502    0  0.43517339069E+02 -0.44983085951E+03 -0.15133315430E+03  0.47661868884E+03  0.46999998093E+01 0. -1.
       -5    1    3    3    0  502 -0.43517339069E+02  0.44983085951E+03 -0.21352216229E+03  0.49985534383E+03  0.46999998093E+01 0.  1.
</event>
<event>
 5   0  0.1483326E-02  0.8875511E+03  0.7818609E-02  0.9441278E-01
        2   -1    0    0  501    0  0.00000000000E+00  0.00000000000E+00  0.20332849085E+03  0.20332849087E+03  0.25500000920E-02 0. -1.
       -2   -1    0    0    0  501  0.00000000000E+00  0.00000000000E+00 -0.96856450892E+03  0.96856450893E+03  0.25500000920E-02 0.  1.
    10030    2    1    2    0    0  0.00000000000E+00  0.00000000000E+00 -0.76523601807E+03  0.11718929998E+04  0.88755114760E+03 0.  0.
        1    1    3    3  502    0 -0.17956342030E+03 -0.17571874728E+03  0.10038480701E+03  0.27054982824E+03  0.50400001928E-02 0. -1.
       -1    1    3    3    0  502  0.17956342030E+03  0.17571874728E+03 -0.86562082509E+03  0.90134317155E+03  0.50400001928E-02 0.  1.
</event>
<event>
 5   0  0.8291252E-03  0.8947062E+03  0.7818609E-02  0.9432223E-01
       -1   -1    0    0    0  501  0.00000000000E+00  0.00000000000E+00  0.39682572903E+03  0.39682572906E+03  0.50400001928E-02 0.  1.
        1   -1    0    0  501    0  0.00000000000E+00  0.00000000000E+00 -0.50431402566E+03  0.50431402568E+03  0.50400001928E-02 0. -1.
    10030    2    1    2    0    0  0.00000000000E+00  0.00000000000E+00 -0.10748829663E+03  0.90113975474E+03  0.89470616610E+03 0.  0.
        1    1    3    3  502    0  0.38865786635E+03  0.85507022008E+02  0.15207397205E+03  0.42601981279E+03  0.50400001928E-02 0.  1.
       -1    1    3    3    0  502 -0.38865786635E+03 -0.85507022008E+02 -0.25956226868E+03  0.47511994195E+03  0.50400001928E-02 0. -1.
</event>
<event>
 5   0  0.8291252E-03  0.8913333E+03  0.7818609E-02  0.9436481E-01
        1   -1    0    0  501    0  0.00000000000E+00  0.00000000000E+00  0.51211468447E+03  0.51211468450E+03  0.50400001928E-02 0.  1.
       -1   -1    0    0    0  501  0.00000000000E+00  0.00000000000E+00 -0.38784040308E+03  0.38784040311E+03  0.50400001928E-02 0. -1.
    10030    2    1    2    0    0  0.00000000000E+00  0.00000000000E+00  0.12427428139E+03  0.89995508761E+03  0.89133330618E+03 0.  0.
        1    1    3    3  502    0  0.16119096518E+03  0.15218345780E+02  0.48136986657E+03  0.50786915024E+03  0.50400001928E-02 0.  1.
       -1    1    3    3    0  502 -0.16119096518E+03 -0.15218345780E+02 -0.35709558517E+03  0.39208593737E+03  0.50400001928E-02 0. -1.
</event>
<event>
 5   0  0.8738044E-03  0.9543640E+03  0.7818609E-02  0.9360064E-01
        1   -1    0    0  501    0  0.00000000000E+00  0.00000000000E+00  0.99755528179E+03  0.99755528180E+03  0.50400001928E-02 0.  1.
       -1   -1    0    0    0  501  0.00000000000E+00  0.00000000000E+00 -0.22826071145E+03  0.22826071151E+03  0.50400001928E-02 0. -1.
    10030    2    1    2    0    0  0.00000000000E+00  0.00000000000E+00  0.76929457034E+03  0.12258159933E+04  0.95436403616E+03 0.  0.
        3    1    3    3  502    0 -0.38544831998E+03  0.79700258355E+02  0.73115876757E+03  0.83037081606E+03  0.10100000352E+00 0.  1.
       -3    1    3    3    0  502  0.38544831998E+03 -0.79700258355E+02  0.38135802765E+02  0.39544517725E+03  0.10100000352E+00 0. -1.
</event>
<event>
 5   0  0.1440615E-02  0.8799748E+03  0.7818609E-02  0.9450966E-01
        2   -1    0    0  501    0  0.00000000000E+00  0.00000000000E+00  0.37418628927E+03  0.37418628928E+03  0.25500000920E-02 0. -1.
       -2   -1    0    0    0  501  0.00000000000E+00  0.00000000000E+00 -0.51735974843E+03  0.51735974844E+03  0.25500000920E-02 0.  1.
    10030    2    1    2    0    0  0.00000000000E+00  0.00000000000E+00 -0.14317345916E+03  0.89154603772E+03  0.87997482803E+03 0.  0.
        3    1    3    3  502    0 -0.26284864645E+03 -0.33893407779E+03 -0.17097454653E+03  0.46173371741E+03  0.10100000352E+00 0. -1.
       -3    1    3    3    0  502  0.26284864645E+03  0.33893407779E+03  0.27801087367E+02  0.42981232031E+03  0.10100000352E+00 0.  1.
</event>
<event>
 5   0  0.1535906E-02  0.9224496E+03  0.7818609E-02  0.9397945E-01
       -2   -1    0    0    0  501  0.00000000000E+00  0.00000000000E+00  0.27073932088E+03  0.27073932089E+03  0.25500000920E-02 0. -1.
        2   -1    0    0  501    0  0.00000000000E+00  0.00000000000E+00 -0.78573107144E+03  0.78573107144E+03  0.25500000920E-02 0.  1.
    10030    2    1    2    0    0  0.00000000000E+00  0.00000000000E+00 -0.51499175056E+03  0.10564703923E+04  0.92244955783E+03 0.  0.
        2    1    3    3  502    0 -0.17721325543E+03 -0.40119514900E+03 -0.94051558173E+02  0.44856190329E+03  0.25500000920E-02 0. -1.
       -2    1    3    3    0  502  0.17721325543E+03  0.40119514900E+03 -0.42094019239E+03  0.60790848905E+03  0.25500000920E-02 0.  1.
</event>
<event>
 5   0  0.8885324E-03  0.8972836E+03  0.7818609E-02  0.9428983E-01
        1   -1    0    0  501    0  0.00000000000E+00  0.00000000000E+00  0.22216767694E+03  0.22216767700E+03  0.50400001928E-02 0.  1.
       -1   -1    0    0    0  501  0.00000000000E+00  0.00000000000E+00 -0.90598003833E+03  0.90598003835E+03  0.50400001928E-02 0. -1.
    10030    2    1    2    0    0  0.00000000000E+00  0.00000000000E+00 -0.68381236139E+03  0.11281477153E+04  0.89728363522E+03 0.  0.
        2    1    3    3  502    0 -0.26341098012E+03  0.24041565160E+03  0.33247549562E+00  0.35663025745E+03  0.25500000920E-02 0.  1.
       -2    1    3    3    0  502  0.26341098012E+03 -0.24041565160E+03 -0.68414483689E+03  0.77151745789E+03  0.25500000920E-02 0. -1.
</event>
<event>
 5   0  0.1483326E-02  0.8508590E+03  0.7818609E-02  0.9489185E-01
       -2   -1    0    0    0  501  0.00000000000E+00  0.00000000000E+00  0.21588554382E+03  0.21588554384E+03  0.25500000920E-02 0. -1.
        2   -1    0    0  501    0  0.00000000000E+00  0.00000000000E+00 -0.83836204652E+03  0.83836204652E+03  0.25500000920E-02 0.  1.
    10030    2    1    2    0    0  0.00000000000E+00  0.00000000000E+00 -0.62247650269E+03  0.10542475904E+04  0.85085896914E+03 0.  0.
        1    1    3    3  502    0  0.29936217406E+03 -0.72973361399E+02  0.52219530214E+02  0.31252152261E+03  0.50400001928E-02 0. -1.
       -1    1    3    3    0  502 -0.29936217406E+03  0.72973361399E+02 -0.67469603291E+03  0.74172606775E+03  0.50400001928E-02 0.  1.
</event>
<event>
 5   0  0.1441195E-02  0.8978424E+03  0.7818609E-02  0.9428283E-01
        2   -1    0    0  501    0  0.00000000000E+00  0.00000000000E+00  0.11122919081E+04  0.11122919081E+04  0.25500000920E-02 0.  1.
       -2   -1    0    0    0  501  0.00000000000E+00  0.00000000000E+00 -0.18118465335E+03  0.18118465337E+03  0.25500000920E-02 0. -1.
    10030    2    1    2    0    0  0.00000000000E+00  0.00000000000E+00  0.93110725478E+03  0.12934765615E+04  0.89784235545E+03 0.  0.
        5    1    3    3  502    0  0.62448205942E+02  0.19640639259E+03  0.10400693813E+04  0.10603026254E+04  0.46999998093E+01 0.  1.
       -5    1    3    3    0  502 -0.62448205942E+02 -0.19640639259E+03 -0.10896212651E+03  0.23317393613E+03  0.46999998093E+01 0. -1.
</event>
<event>
 5   0  0.8612969E-03  0.9013724E+03  0.7818609E-02  0.9423867E-01
        1   -1    0    0  501    0  0.00000000000E+00  0.00000000000E+00  0.77977203347E+03  0.77977203349E+03  0.50400001928E-02 0. -1.
       -1   -1    0    0    0  501  0.00000000000E+00  0.00000000000E+00 -0.26048391549E+03  0.26048391554E+03  0.50400001928E-02 0.  1.
    10030    2    1    2    0    0  0.00000000000E+00  0.00000000000E+00  0.51928811798E+03  0.10402559490E+04  0.90137244800E+03 0.  0.
        4    1    3    3  502    0 -0.41090757197E+03  0.88696621271E+02  0.72112848598E+02  0.42651377370E+03  0.12699999809E+01 0.  1.
       -4    1    3    3    0  502  0.41090757197E+03 -0.88696621271E+02  0.44717526939E+03  0.61374217533E+03  0.12699999809E+01 0. -1.
</event>
<event>
 5   0  0.1483326E-02  0.9371746E+03  0.7818609E-02  0.9380268E-01
       -2   -1    0    0    0  501  0.00000000000E+00  0.00000000000E+00  0.29241413386E+03  0.29241413388E+03  0.25500000920E-02 0. -1.
        2   -1    0    0  501    0  0.00000000000E+00  0.00000000000E+00 -0.75090092863E+03  0.75090092863E+03  0.25500000920E-02 0.  1.
    10030    2    1    2    0    0  0.00000000000E+00  0.00000000000E+00 -0.45848679476E+03  0.10433150625E+04  0.93717457215E+03 0.  0.
        1    1    3    3  502    0  0.32748491627E+03 -0.21190923354E+01  0.14386041194E+03  0.35769635040E+03  0.50400001928E-02 0. -1.
       -1    1    3    3    0  502 -0.32748491627E+03  0.21190923354E+01 -0.60234720671E+03  0.68561871211E+03  0.50400001928E-02 0.  1.
</event>
<event>
 5   0  0.8291252E-03  0.8935205E+03  0.7818609E-02  0.9433718E-01
       -1   -1    0    0    0  501  0.00000000000E+00  0.00000000000E+00  0.10140824961E+03  0.10140824974E+03  0.50400001928E-02 0.  1.
        1   -1    0    0  501    0  0.00000000000E+00  0.00000000000E+00 -0.19682297705E+04  0.19682297706E+04  0.50400001928E-02 0. -1.
    10030    2    1    2    0    0  0.00000000000E+00  0.00000000000E+00 -0.18668215209E+04  0.20696380203E+04  0.89352053363E+03 0.  0.
        1    1    3    3  502    0  0.47603226572E+01  0.28944275082E+03 -0.17216076246E+04  0.17457756384E+04  0.50400001928E-02 0. -1.
       -1    1    3    3    0  502 -0.47603226572E+01 -0.28944275082E+03 -0.14521389637E+03  0.32386238188E+03  0.50400001928E-02 0.  1.
</event>
<event>
 5   0  0.1483326E-02  0.9123160E+03  0.7818609E-02  0.9410315E-01
        2   -1    0    0  501    0  0.00000000000E+00  0.00000000000E+00  0.11506307673E+04  0.11506307673E+04  0.25500000920E-02 0.  1.
       -2   -1    0    0    0  501  0.00000000000E+00  0.00000000000E+00 -0.18084003996E+03  0.18084003998E+03  0.25500000920E-02 0. -1.
    10030    2    1    2    0    0  0.00000000000E+00  0.00000000000E+00  0.96979072735E+03  0.13314708073E+04  0.91231598463E+03 0.  0.
        1    1    3    3  502    0  0.15296252308E+03 -0.14780441928E+03  0.10738233006E+04  0.10946872434E+04  0.50400001928E-02 0.  1.
       -1    1    3    3    0  502 -0.15296252308E+03  0.14780441928E+03 -0.10403257325E+03  0.23678356393E+03  0.50400001928E-02 0. -1.
</event>
<event>
 5   0  0.8612969E-03  0.8897956E+03  0.7818609E-02  0.9438428E-01
       -1   -1    0    0    0  501  0.00000000000E+00  0.00000000000E+00  0.29872454302E+03  0.29872454306E+03  0.50400001928E-02 0. -1.
        1   -1    0    0  501    0  0.00000000000E+00  0.00000000000E+00 -0.66259725907E+03  0.66259725909E+03  0.50400001928E-02 0.  1.
    10030    2    1    2    0    0  0.00000000000E+00  0.00000000000E+00 -0.36387271605E+03  0.96132180215E+03  0.88979562474E+03 0.  0.
        4    1    3    3  502    0  0.14939839565E+03 -0.73178221812E+02  0.26385503039E+03  0.31192310388E+03  0.12699999809E+01 0. -1.
       -4    1    3    3    0  502 -0.14939839565E+03  0.73178221812E+02 -0.62772774644E+03  0.64939869828E+03  0.12699999809E+01 0.  1.
</event>
<event>
 5   0  0.1535906E-02  0.9075315E+03  0.7818609E-02  0.9416215E-01
        2   -1    0    0  501    0  0.00000000000E+00  0.00000000000E+00  0.19097706681E+04  0.19097706681E+04  0.25500000920E-02 0. -1.
       -2   -1    0    0    0  501  0.00000000000E+00  0.00000000000E+00 -0.10781574483E+03  0.10781574486E+03  0.25500000920E-02 0.  1.
    10030    2    1    2    0    0  0.00000000000E+00  0.00000000000E+00  0.18019549233E+04  0.20175864130E+04  0.90753148062E+03 0.  0.
        2    1    3    3  502    0 -0.12083283401E+03 -0.36335751878E+03  0.35972126462E+03  0.52538428645E+03  0.25500000920E-02 0.  1.
       -2    1    3    3    0  502  0.12083283401E+03  0.36335751878E+03  0.14422336587E+04  0.14922021265E+04  0.25500000920E-02 0. -1.
</event>
<event>
 5   0  0.1535906E-02  0.9025141E+03  0.7818609E-02  0.9422444E-01
       -2   -1    0    0    0  501  0.00000000000E+00  0.00000000000E+00  0.23027039268E+03  0.23027039269E+03  0.25500000920E-02 0. -1.
        2   -1    0    0  501    0  0.00000000000E+00  0.00000000000E+00 -0.88432089386E+03  0.88432089386E+03  0.25500000920E-02 0.  1.
    10030    2    1    2    0    0  0.00000000000E+00  0.00000000000E+00 -0.65405050118E+03  0.11145912866E+04  0.90251408740E+03 0.  0.
        2    1    3    3  502    0 -0.32095337021E+03 -0.17931013195E+03 -0.38701892544E+01  0.36766583693E+03  0.25500000920E-02 0. -1.
       -2    1    3    3    0  502  0.32095337021E+03  0.17931013195E+03 -0.65018031193E+03  0.74692544963E+03  0.25500000920E-02 0.  1.
</event>
<event>
 5   0  0.8612969E-03  0.8886633E+03  0.7818609E-02  0.9439865E-01
       -1   -1    0    0    0  501  0.00000000000E+00  0.00000000000E+00  0.60423413534E+03  0.60423413536E+03  0.50400001928E-02 0. -1.
        1   -1    0    0  501    0  0.00000000000E+00  0.00000000000E+00 -0.32674525259E+03  0.32674525263E+03  0.50400001928E-02 0.  1.
    10030    2    1    2    0    0  0.00000000000E+00  0.00000000000E+00  0.27748888275E+03  0.93097938799E+03  0.88866334504E+03 0.  0.
        4    1    3    3  502    0  0.33991351046E+03 -0.10713741362E+03 -0.13923848823E+03  0.38263375373E+03  0.12699999809E+01 0.  1.
       -4    1    3    3    0  502 -0.33991351046E+03  0.10713741362E+03  0.41672737098E+03  0.54834563426E+03  0.12699999809E+01 0. -1.
</event>
<event>
 5   0  0.8524692E-03  0.9070352E+03  0.7818609E-02  0.9416830E-01
        1   -1    0    0  501    0  0.00000000000E+00  0.00000000000E+00  0.12057021324E+04  0.12057021324E+04  0.50400001928E-02 0. -1.
       -1   -1    0    0    0  501  0.00000000000E+00  0.00000000000E+00 -0.17058790729E+03  0.17058790736E+03  0.50400001928E-02 0.  1.
    10030    2    1    2    0    0  0.00000000000E+00  0.00000000000E+00  0.10351142251E+04  0.13762900397E+04  0.90703517821E+03 0.  0.
        5    1    3    3  502    0 -0.40766470688E+03 -0.78828515356E+02  0.24086770220E+03  0.48004561036E+03  0.46999998093E+01 0.  1.
       -5    1    3    3    0  502  0.40766470688E+03  0.78828515356E+02  0.79424652287E+03  0.89624442936E+03  0.46999998093E+01 0. -1.
</event>
<event>
 5   0  0.5770125E-03  0.8865937E+03  0.7818609E-02  0.9442497E-01
       -4   -1    0    0    0  501  0.00000000000E+00  0.00000000000E+00  0.32571641140E+03  0.32571888732E+03  0.12699999809E+01 0.  1.
        4   -1    0    0  501    0  0.00000000000E+00  0.00000000000E+00 -0.60331719152E+03  0.60331852821E+03  0.12699999809E+01 0. -1.
    10030    2    1    2    0    0  0.00000000000E+00  0.00000000000E+00 -0.27760078012E+03  0.92903741553E+03  0.88659366472E+03 0.  0.
        3    1    3    3  502    0  0.35191992242E+03 -0.19664373734E+03  0.54405538385E+02  0.40678786123E+03  0.10100000352E+00 0.  1.
       -3    1    3    3    0  502 -0.35191992242E+03  0.19664373734E+03 -0.33200631851E+03  0.52224955430E+03  0.10100000352E+00 0. -1.
</event>
<event>
 5   0  0.1440615E-02  0.9164734E+03  0.7818609E-02  0.9405220E-01
        2   -1    0    0  501    0  0.00000000000E+00  0.00000000000E+00  0.22653484983E+04  0.22653484983E+04  0.25500000920E-02 0.  1.
       -2   -1    0    0    0  501  0.00000000000E+00  0.00000000000E+00 -0.92692530166E+02  0.92692530201E+02  0.25500000920E-02 0. -1.
    10030    2    1    2    0    0  0.00000000000E+00  0.00000000000E+00  0.21726559682E+04  0.23580410285E+04  0.91647342365E+03 0.  0.
        3    1    3    3  502    0  0.42563324158E+03 -0.32524286856E+02  0.65764482003E+03  0.78403967061E+03  0.10100000352E+00 0. -1.
       -3    1    3    3    0  502 -0.42563324158E+03  0.32524286856E+02  0.15150111481E+04  0.15740013579E+04  0.10100000352E+00 0.  1.
</event>
<event>
 5   0  0.8885324E-03  0.8718556E+03  0.7818609E-02  0.9461464E-01
        1   -1    0    0  501    0  0.00000000000E+00  0.00000000000E+00  0.14570425310E+04  0.14570425310E+04  0.50400001928E-02 0.  1.
       -1   -1    0    0    0  501  0.00000000000E+00  0.00000000000E+00 -0.13042382940E+03  0.13042382950E+03  0.50400001928E-02 0. -1.
    10030    2    1    2    0    0  0.00000000000E+00  0.00000000000E+00  0.13266187016E+04  0.15874663605E+04  0.87185564535E+03 0.  0.
        2    1    3    3  502    0 -0.21437979142E+02 -0.36923263823E+03  0.24318100657E+03  0.44263905166E+03  0.25500000920E-02 0. -1.
       -2    1    3    3    0  502  0.21437979142E+02  0.36923263823E+03  0.10834376950E+04  0.11448273089E+04  0.25500000920E-02 0.  1.
</event>
<event>
 5   0  0.8291252E-03  0.9130880E+03  0.7818609E-02  0.9409367E-01
        1   -1    0    0  501    0  0.00000000000E+00  0.00000000000E+00  0.27135874179E+03  0.27135874184E+03  0.50400001928E-02 0.  1.
       -1   -1    0    0    0  501  0.00000000000E+00  0.00000000000E+00 -0.76810655633E+03  0.76810655635E+03  0.50400001928E-02 0. -1.
    10030    2    1    2    0    0  0.00000000000E+00  0.00000000000E+00 -0.49674781454E+03  0.10394652982E+04  0.91308801048E+03 0.  0.
        1    1    3    3  502    0 -0.30927165817E+03  0.15385204653E+03 -0.58820877087E+03  0.68213559423E+03  0.50400001928E-02 0. -1.
       -1    1    3    3    0  502  0.30927165817E+03 -0.15385204653E+03  0.91460956326E+02  0.35732970395E+03  0.50400001928E-02 0.  1.
</event>
<event>
 5   0  0.1483326E-02  0.9011907E+03  0.7818609E-02  0.9424094E-01
        2   -1    0    0  501    0  0.00000000000E+00  0.00000000000E+00  0.50214778404E+03  0.50214778404E+03  0.25500000920E-02 0.  1.
       -2   -1    0    0    0  501  0.00000000000E+00  0.00000000000E+00 -0.40433548062E+03  0.40433548062E+03  0.25500000920E-02 0. -1.
    10030    2    1    2    0    0  0.00000000000E+00  0.00000000000E+00  0.97812303420E+02  0.90648326467E+03  0.90119069149E+03 0.  0.
        1    1    3    3  502    0 -0.41182481395E+02 -0.20350943373E+03  0.45115982888E+03  0.49664602848E+03  0.50400001928E-02 0.  1.
       -1    1    3    3    0  502  0.41182481395E+02  0.20350943373E+03 -0.35334752546E+03  0.40983723618E+03  0.50400001928E-02 0. -1.
</event>
<event>
 5   0  0.8524692E-03  0.8947740E+03  0.7818609E-02  0.9432138E-01
        1   -1    0    0  501    0  0.00000000000E+00  0.00000000000E+00  0.29511806026E+03  0.29511806031E+03  0.50400001928E-02 0.  1.
       -1   -1    0    0    0  501  0.00000000000E+00  0.00000000000E+00 -0.67822051719E+03  0.67822051721E+03  0.50400001928E-02 0. -1.
    10030    2    1    2    0    0  0.00000000000E+00  0.00000000000E+00 -0.38310245693E+03  0.97333857752E+03  0.89477399045E+03 0.  0.
        5    1    3    3  502    0  0.39943488367E+02 -0.29133303379E+03  0.17518972211E+03  0.34232140975E+03  0.46999998093E+01 0.  1.
       -5    1    3    3    0  502 -0.39943488367E+02  0.29133303379E+03 -0.55829217904E+03  0.63101716777E+03  0.46999998093E+01 0. -1.
</event>
<event>
 5   0  0.8524692E-03  0.8139625E+03  0.7818609E-02  0.9540024E-01
       -1   -1    0    0    0  501  0.00000000000E+00  0.00000000000E+00  0.35776578046E+03  0.35776578050E+03  0.50400001928E-02 0.  1.
        1   -1    0    0  501    0  0.00000000000E+00  0.00000000000E+00 -0.46296692782E+03  0.46296692785E+03  0.50400001928E-02 0. -1.
    10030    2    1    2    0    0  0.00000000000E+00  0.00000000000E+00 -0.10520114736E+03  0.82073270835E+03  0.81396246667E+03 0.  0.
        5    1    3    3  502    0 -0.28608466727E+03  0.15119269884E+03 -0.30144871885E+03  0.44226359687E+03  0.46999998093E+01 0. -1.
       -5    1    3    3    0  502  0.28608466727E+03 -0.15119269884E+03  0.19624757148E+03  0.37846911147E+03  0.46999998093E+01 0.  1.
</event>
<event>
 5   0  0.1535906E-02  0.8991023E+03  0.7818609E-02  0.9426704E-01
       -2   -1    0    0    0  501  0.00000000000E+00  0.00000000000E+00  0.13786821469E+03  0.13786821472E+03  0.25500000920E-02 0.  1.
        2   -1    0    0  501    0  0.00000000000E+00  0.00000000000E+00 -0.14658653076E+04  0.14658653076E+04  0.25500000920E-02 0. -1.
    10030    2    1    2    0    0  0.00000000000E+00  0.00000000000E+00 -0.13279970930E+04  0.16037335224E+04  0.89910229221E+03 0.  0.
        2    1    3    3  502    0  0.31679875407E+02 -0.37357995899E+03 -0.22154386690E+03  0.43548511482E+03  0.25500000920E-02 0.  1.
       -2    1    3    3    0  502 -0.31679875407E+02  0.37357995899E+03 -0.11064532261E+04  0.11682484075E+04  0.25500000920E-02 0. -1.
</event>
<event>
 5   0  0.1535906E-02  0.8865618E+03  0.7818609E-02  0.9442538E-01
       -2   -1    0    0    0  501  0.00000000000E+00  0.00000000000E+00  0.12122455075E+04  0.12122455075E+04  0.25500000920E-02 0. -1.
        2   -1    0    0  501    0  0.00000000000E+00  0.00000000000E+00 -0.16209418787E+03  0.16209418789E+03  0.25500000920E-02 0.  1.
    10030    2    1    2    0    0  0.00000000000E+00  0.00000000000E+00  0.10501513196E+04  0.13743396954E+04  0.88656178814E+03 0.  0.
        2    1    3    3  502    0 -0.14461514302E+03  0.41902561233E+03  0.52723908440E+03  0.68882294932E+03  0.25500000920E-02 0. -1.
       -2    1    3    3    0  502  0.14461514302E+03 -0.41902561233E+03  0.52291223518E+03  0.68551674603E+03  0.25500000920E-02 0.  1.
</event>
<event>
 5   0  0.8291252E-03  0.8928837E+03  0.7818609E-02  0.9434521E-01
        1   -1    0    0  501    0  0.00000000000E+00  0.00000000000E+00  0.46523794358E+03  0.46523794361E+03  0.50400001928E-02 0. -1.
       -1   -1    0    0    0  501  0.00000000000E+00  0.00000000000E+00 -0.42840510397E+03  0.42840510400E+03  0.50400001928E-02 0.  1.
    10030    2    1    2    0    0  0.00000000000E+00  0.00000000000E+00  0.36832839616E+02  0.89364304761E+03  0.89288366457E+03 0.  0.
        1    1    3    3  502    0  0.10059304479E+01  0.69603670303E+02  0.45977290321E+03  0.46501269377E+03  0.50400001928E-02 0. -1.
       -1    1    3    3    0  502 -0.10059304479E+01 -0.69603670303E+02 -0.42294006359E+03  0.42863035384E+03  0.50400001928E-02 0.  1.
</event>
<event>
 5   0  0.1441195E-02  0.8797145E+03  0.7818609E-02  0.9451301E-01
       -2   -1    0    0    0  501  0.00000000000E+00  0.00000000000E+00  0.12078114695E+03  0.12078114698E+03  0.25500000920E-02 0. -1.
        2   -1    0    0  501    0  0.00000000000E+00  0.00000000000E+00 -0.16018593675E+04  0.16018593675E+04  0.25500000920E-02 0.  1.
    10030    2    1    2    0    0  0.00000000000E+00  0.00000000000E+00 -0.14810782205E+04  0.17226405145E+04  0.87971452571E+03 0.  0.
        5    1    3    3  502    0  0.60363874718E+02  0.25139084641E+03 -0.14373082373E+04  0.14603828998E+04  0.46999998093E+01 0.  1.
       -5    1    3    3    0  502 -0.60363874718E+02 -0.25139084641E+03 -0.43769983266E+02  0.26225761469E+03  0.46999998093E+01 0. -1.
</event>
<event>
 5   0  0.8612969E-03  0.8981802E+03  0.7818609E-02  0.9427859E-01
       -1   -1    0    0    0  501  0.00000000000E+00  0.00000000000E+00  0.25334018829E+03  0.25334018834E+03  0.50400001928E-02 0. -1.
        1   -1    0    0  501    0  0.00000000000E+00  0.00000000000E+00 -0.79609123984E+03  0.79609123986E+03  0.50400001928E-02 0.  1.
    10030    2    1    2    0    0  0.00000000000E+00  0.00000000000E+00 -0.54275105155E+03  0.10494314282E+04  0.89818017042E+03 0.  0.
        4    1    3    3  502    0 -0.34553948306E+03 -0.19594029518E+03 -0.51615453703E+03  0.65131194725E+03  0.12699999809E+01 0.  1.
       -4    1    3    3    0  502  0.34553948306E+03  0.19594029518E+03 -0.26596514522E+02  0.39811948095E+03  0.12699999809E+01 0. -1.
</event>
<event>
 5   0  0.1535906E-02  0.9037780E+03  0.7818609E-02  0.9420871E-01
       -2   -1    0    0    0  501  0.00000000000E+00  0.00000000000E+00  0.60137914913E+03  0.60137914914E+03  0.25500000920E-02 0. -1.
        2   -1    0    0  501    0  0.00000000000E+00  0.00000000000E+00 -0.33955893495E+03  0.33955893496E+03  0.25500000920E-02 0.  1.
    10030    2    1    2    0    0  0.00000000000E+00  0.00000000000E+00  0.26182021418E+03  0.94093808410E+03  0.90377798908E+03 0.  0.
        2    1    3    3  502    0 -0.13233240175E+03  0.42781046012E+03  0.67838651517E+02  0.45291912853E+03  0.25500000920E-02 0.  1.
       -2    1    3    3    0  502  0.13233240175E+03 -0.42781046012E+03  0.19398156267E+03  0.48801895557E+03  0.25500000920E-02 0. -1.
</event>
<event>
 5   0  0.8738044E-03  0.8913634E+03  0.7818609E-02  0.9436442E-01
       -1   -1    0    0    0  501  0.00000000000E+00  0.00000000000E+00  0.24098454121E+03  0.24098454127E+03  0.50400001928E-02 0. -1.
        1   -1    0    0  501    0  0.00000000000E+00  0.00000000000E+00 -0.82425272530E+03  0.82425272532E+03  0.50400001928E-02 0.  1.
    10030    2    1    2    0    0  0.00000000000E+00  0.00000000000E+00 -0.58326818409E+03  0.10652372666E+04  0.89136337122E+03 0.  0.
        3    1    3    3  502    0  0.44458236525E+03 -0.29406272004E+02 -0.27887729059E+03  0.52563367637E+03  0.10100000352E+00 0. -1.
       -3    1    3    3    0  502 -0.44458236525E+03  0.29406272004E+02 -0.30439089349E+03  0.53960359021E+03  0.10100000352E+00 0.  1.
</event>
<event>
 5   0  0.8524692E-03  0.9022627E+03  0.7818609E-02  0.9422757E-01
        1   -1    0    0  501    0  0.00000000000E+00  0.00000000000E+00  0.65237176024E+03  0.65237176026E+03  0.50400001928E-02 0. -1.
       -1   -1    0    0    0  501  0.00000000000E+00  0.00000000000E+00 -0.31196858562E+03  0.31196858566E+03  0.50400001928E-02 0.  1.
    10030    2    1    2    0    0  0.00000000000E+00  0.00000000000E+00  0.34040317462E+03  0.96434034592E+03  0.90226270093E+03 0.  0.
        5    1    3    3  502    0 -0.28885009946E+03  0.25508637170E+03  0.42084417329E+03  0.57064467506E+03  0.46999998093E+01 0. -1.
       -5    1    3    3    0  502  0.28885009946E+03 -0.25508637170E+03 -0.80440998667E+02  0.39369567086E+03  0.46999998093E+01 0.  1.
</event>
<event>
 5   0  0.8885324E-03  0.9072601E+03  0.7818609E-02  0.9416551E-01
       -1   -1    0    0    0  501  0.00000000000E+00  0.00000000000E+00  0.52179346431E+03  0.52179346433E+03  0.50400001928E-02 0.  1.
        1   -1    0    0  501    0  0.00000000000E+00  0.00000000000E+00 -0.39437098276E+03  0.39437098279E+03  0.50400001928E-02 0. -1.
    10030    2    1    2    0    0  0.00000000000E+00  0.00000000000E+00  0.12742248155E+03  0.91616444713E+03  0.90726005389E+03 0.  0.
        2    1    3    3  502    0  0.13960654617E+03  0.11446868622E+03  0.48395324290E+03  0.51653055009E+03  0.25500000920E-02 0.  1.
       -2    1    3    3    0  502 -0.13960654617E+03 -0.11446868622E+03 -0.35653076136E+03  0.39963389703E+03  0.25500000920E-02 0. -1.
</event>
<event>
 5   0  0.8524692E-03  0.9031233E+03  0.7818609E-02  0.9421686E-01
        1   -1    0    0  501    0  0.00000000000E+00  0.00000000000E+00  0.91583250602E+03  0.91583250603E+03  0.50400001928E-02 0.  1.
       -1   -1    0    0    0  501  0.00000000000E+00  0.00000000000E+00 -0.22264759192E+03  0.22264759198E+03  0.50400001928E-02 0. -1.
    10030    2    1    2    0    0  0.00000000000E+00  0.00000000000E+00  0.69318491409E+03  0.11384800980E+04  0.90312325208E+03 0.  0.
        5    1    3    3  502    0 -0.27090084716E+03  0.28367083300E+03  0.62855477581E+03  0.74091808365E+03  0.46999998093E+01 0.  1.
       -5    1    3    3    0  502  0.27090084716E+03 -0.28367083300E+03  0.64630138276E+02  0.39756201436E+03  0.46999998093E+01 0. -1.
</event>
<event>
 5   0  0.1535906E-02  0.9011971E+03  0.7818609E-02  0.9424086E-01
        2   -1    0    0  501    0  0.00000000000E+00  0.00000000000E+00  0.80014963660E+03  0.80014963660E+03  0.25500000920E-02 0.  1.
       -2   -1    0    0    0  501  0.00000000000E+00  0.00000000000E+00 -0.25375135107E+03  0.25375135108E+03  0.25500000920E-02 0. -1.
    10030    2    1    2    0    0  0.00000000000E+00  0.00000000000E+00  0.54639828553E+03  0.10539009877E+04  0.90119709576E+03 0.  0.
        2    1    3    3  502    0  0.13788934659E+03  0.36116687897E+03  0.24931585045E+01  0.38660212392E+03  0.25500000920E-02 0. -1.
       -2    1    3    3    0  502 -0.13788934659E+03 -0.36116687897E+03  0.54390512703E+03  0.66729886376E+03  0.25500000920E-02 0.  1.
</event>
<event>
 5   0  0.1535906E-02  0.9030108E+03  0.7818609E-02  0.9421826E-01
       -2   -1    0    0    0  501  0.00000000000E+00  0.00000000000E+00  0.14681669911E+03  0.14681669913E+03  0.25500000920E-02 0.  1.
        2   -1    0    0  501    0  0.00000000000E+00  0.00000000000E+00 -0.13885145954E+04  0.13885145954E+04  0.25500000920E-02 0. -1.
    10030    2    1    2    0    0  0.00000000000E+00  0.00000000000E+00 -0.12416978963E+04  0.15353312945E+04  0.90301080741E+03 0.  0.
        2    1    3    3  502    0  0.92167999059E+02  0.21984833395E+03 -0.12727932706E+04  0.12949250710E+04  0.25500000920E-02 0. -1.
       -2    1    3    3    0  502 -0.92167999059E+02 -0.21984833395E+03  0.31095374273E+02  0.24040622350E+03  0.25500000920E-02 0.  1.
</event>
<event>
 5   0  0.8885324E-03  0.9704911E+03  0.7818609E-02  0.9341515E-01
       -1   -1    0    0    0  501  0.00000000000E+00  0.00000000000E+00  0.37524244201E+03  0.37524244205E+03  0.50400001928E-02 0. -1.
        1   -1    0    0  501    0  0.00000000000E+00  0.00000000000E+00 -0.62749634140E+03  0.62749634142E+03  0.50400001928E-02 0.  1.
    10030    2    1    2    0    0  0.00000000000E+00  0.00000000000E+00 -0.25225389939E+03  0.10027387835E+04  0.97049113242E+03 0.  0.
        2    1    3    3  502    0 -0.26667003061E+03  0.51346960589E+02 -0.54162581433E+03  0.60589432936E+03  0.25500000920E-02 0.  1.
       -2    1    3    3    0  502  0.26667003061E+03 -0.51346960589E+02  0.28937191495E+03  0.39684445411E+03  0.25500000920E-02 0. -1.
</event>
<event>
 5   0  0.1454652E-02  0.9026593E+03  0.7818609E-02  0.9422263E-01
        2   -1    0    0  501    0  0.00000000000E+00  0.00000000000E+00  0.27610403791E+03  0.27610403792E+03  0.25500000920E-02 0. -1.
       -2   -1    0    0    0  501  0.00000000000E+00  0.00000000000E+00 -0.73775983623E+03  0.73775983623E+03  0.25500000920E-02 0.  1.
    10030    2    1    2    0    0  0.00000000000E+00  0.00000000000E+00 -0.46165579832E+03  0.10138638742E+04  0.90265933729E+03 0.  0.
        4    1    3    3  502    0 -0.44136149587E+01  0.38572436377E+03 -0.49398710854E+03  0.62675963583E+03  0.12699999809E+01 0.  1.
       -4    1    3    3    0  502  0.44136149587E+01 -0.38572436377E+03  0.32331310222E+02  0.38710423832E+03  0.12699999809E+01 0. -1.
</event>
<event>
 5   0  0.8524692E-03  0.7837810E+03  0.7818609E-02  0.9583795E-01
       -1   -1    0    0    0  501  0.00000000000E+00  0.00000000000E+00  0.30080928708E+03  0.30080928712E+03  0.50400001928E-02 0. -1.
        1   -1    0    0  501    0  0.00000000000E+00  0.00000000000E+00 -0.51054988591E+03  0.51054988594E+03  0.50400001928E-02 0.  1.
    10030    2    1    2    0    0  0.00000000000E+00  0.00000000000E+00 -0.20974059883E+03  0.81135917306E+03  0.78378095723E+03 0.  0.
        5    1    3    3  502    0 -0.37948574952E+03  0.60072596979E+02 -0.18463947628E+03  0.42630033685E+03  0.46999998093E+01 0. -1.
       -5    1    3    3    0  502  0.37948574952E+03 -0.60072596979E+02 -0.25101122552E+02  0.38505883622E+03  0.46999998093E+01 0.  1.
</event>
<event>
 5   0  0.8524692E-03  0.8977685E+03  0.7818609E-02  0.9428375E-01
       -1   -1    0    0    0  501  0.00000000000E+00  0.00000000000E+00  0.17966767751E+03  0.17966767758E+03  0.50400001928E-02 0.  1.
        1   -1    0    0  501    0  0.00000000000E+00  0.00000000000E+00 -0.11214988398E+04  0.11214988398E+04  0.50400001928E-02 0. -1.
    10030    2    1    2    0    0  0.00000000000E+00  0.00000000000E+00 -0.94183116230E+03  0.13011665174E+04  0.89776854909E+03 0.  0.
        5    1    3    3  502    0  0.25535296010E+03 -0.21245711324E+03 -0.90844128103E+03  0.96728010952E+03  0.46999998093E+01 0. -1.
       -5    1    3    3    0  502 -0.25535296010E+03  0.21245711324E+03 -0.33389881267E+02  0.33388640788E+03  0.46999998093E+01 0.  1.
</event>
<event>
 5   0  0.8738044E-03  0.9043863E+03  0.7818609E-02  0.9420115E-01
        1   -1    0    0  501    0  0.00000000000E+00  0.00000000000E+00  0.19000021757E+03  0.19000021764E+03  0.50400001928E-02 0.  1.
       -1   -1    0    0    0  501  0.00000000000E+00  0.00000000000E+00 -0.10762020833E+04  0.10762020834E+04  0.50400001928E-02 0. -1.
    10030    2    1    2    0    0  0.00000000000E+00  0.00000000000E+00 -0.88620186578E+03  0.12662023010E+04  0.90438626711E+03 0.  0.
        3    1    3    3  502    0 -0.20345886826E+03 -0.36416724788E+03 -0.68747327000E+03  0.80413481623E+03  0.10100000352E+00 0. -1.
       -3    1    3    3    0  502  0.20345886826E+03  0.36416724788E+03 -0.19872859578E+03  0.46206748477E+03  0.10100000352E+00 0.  1.
</event>
<event>
 5   0  0.1535906E-02  0.8964014E+03  0.7818609E-02  0.9430091E-01
        2   -1    0    0  501    0  0.00000000000E+00  0.00000000000E+00  0.23871499578E+04  0.23871499578E+04  0.25500000920E-02 0. -1.
       -2   -1    0    0    0  501  0.00000000000E+00  0.00000000000E+00 -0.84152183227E+02  0.84152183266E+02  0.25500000920E-02 0.  1.
    10030    2    1    2    0    0  0.00000000000E+00  0.00000000000E+00  0.23029977746E+04  0.24713021410E+04  0.89640142946E+03 0.  0.
        2    1    3    3  502    0 -0.15650086096E+03 -0.11367827851E+03  0.22661539429E+04  0.22743941970E+04  0.25500000920E-02 0. -1.
       -2    1    3    3    0  502  0.15650086096E+03  0.11367827851E+03  0.36843831649E+02  0.19690794403E+03  0.25500000920E-02 0.  1.
</event>
<event>
 5   0  0.8291252E-03  0.8746220E+03  0.7818609E-02  0.9457873E-01
        1   -1    0    0  501    0  0.00000000000E+00  0.00000000000E+00  0.11861029111E+04  0.11861029111E+04  0.50400001928E-02 0.  1.
       -1   -1    0    0    0  501  0.00000000000E+00  0.00000000000E+00 -0.16123467451E+03  0.16123467459E+03  0.50400001928E-02 0. -1.
    10030    2    1    2    0    0  0.00000000000E+00  0.00000000000E+00  0.10248682366E+04  0.13473375857E+04  0.87462201404E+03 0.  0.
        1    1    3    3  502    0 -0.43646107542E+03  0.19154863610E+02  0.48257352756E+03  0.65095498207E+03  0.50400001928E-02 0. -1.
       -1    1    3    3    0  502  0.43646107542E+03 -0.19154863610E+02  0.54229470899E+03  0.69638260359E+03  0.50400001928E-02 0.  1.
</event>
<event>
 5   0  0.1535906E-02  0.8709399E+03  0.7818609E-02  0.9462655E-01
       -2   -1    0    0    0  501  0.00000000000E+00  0.00000000000E+00  0.12489128807E+03  0.12489128810E+03  0.25500000920E-02 0.  1.
        2   -1    0    0  501    0  0.00000000000E+00  0.00000000000E+00 -0.15183930294E+04  0.15183930294E+04  0.25500000920E-02 0. -1.
    10030    2    1    2    0    0  0.00000000000E+00  0.00000000000E+00 -0.13935017413E+04  0.16432843175E+04  0.87093986307E+03 0.  0.
        2    1    3    3  502    0  0.21242442503E+03 -0.22542690619E+03 -0.11921725428E+03  0.33189483291E+03  0.25500000920E-02 0.  1.
       -2    1    3    3    0  502 -0.21242442503E+03  0.22542690619E+03 -0.12742844870E+04  0.13113894846E+04  0.25500000920E-02 0. -1.
</event>
<event>
 5   0  0.1535906E-02  0.9026356E+03  0.7818609E-02  0.9422293E-01
       -2   -1    0    0    0  501  0.00000000000E+00  0.00000000000E+00  0.53450637815E+03  0.53450637816E+03  0.25500000920E-02 0. -1.
        2   -1    0    0  501    0  0.00000000000E+00  0.00000000000E+00 -0.38107641953E+03  0.38107641954E+03  0.25500000920E-02 0.  1.
    10030    2    1    2    0    0  0.00000000000E+00  0.00000000000E+00  0.15342995862E+03  0.91558279770E+03  0.90263564479E+03 0.  0.
        2    1    3    3  502    0 -0.16872996565E+03  0.31768174938E+03  0.35319813902E+03  0.50412341804E+03  0.25500000920E-02 0. -1.
       -2    1    3    3    0  502  0.16872996565E+03 -0.31768174938E+03 -0.19976818040E+03  0.41145937966E+03  0.25500000920E-02 0.  1.
</event>
<event>
 5   0  0.8738044E-03  0.9119852E+03  0.7818609E-02  0.9410722E-01
        1   -1    0    0  501    0  0.00000000000E+00  0.00000000000E+00  0.13394052651E+04  0.13394052651E+04  0.50400001928E-02 0. -1.
       -1   -1    0    0    0  501  0.00000000000E+00  0.00000000000E+00 -0.15523999966E+03  0.15523999974E+03  0.50400001928E-02 0.  1.
    10030    2    1    2    0    0  0.00000000000E+00  0.00000000000E+00  0.11841652655E+04  0.14946452649E+04  0.91198524763E+03 0.  0.
        3    1    3    3  502    0  0.23695782846E+03 -0.37098527508E+03  0.39712904233E+03  0.59286640423E+03  0.10100000352E+00 0.  1.
       -3    1    3    3    0  502 -0.23695782846E+03  0.37098527508E+03  0.78703622313E+03  0.90177886065E+03  0.10100000352E+00 0. -1.
</event>
<event>
 5   0  0.8291252E-03  0.8441628E+03  0.7818609E-02  0.9498205E-01
       -1   -1    0    0    0  501  0.00000000000E+00  0.00000000000E+00  0.49020809502E+03  0.49020809504E+03  0.50400001928E-02 0. -1.
        1   -1    0    0  501    0  0.00000000000E+00  0.00000000000E+00 -0.36342259286E+03  0.36342259290E+03  0.50400001928E-02 0.  1.
    10030    2    1    2    0    0  0.00000000000E+00  0.00000000000E+00  0.12678550215E+03  0.85363068794E+03  0.84416277330E+03 0.  0.
        1    1    3    3  502    0  0.35092610804E+03  0.44149380462E+02 -0.16952603065E+03  0.39222108076E+03  0.50400001928E-02 0.  1.
       -1    1    3    3    0  502 -0.35092610804E+03 -0.44149380462E+02  0.29631153281E+03  0.46140960718E+03  0.50400001928E-02 0. -1.
</event>
<event>
 5   0  0.8738044E-03  0.8984651E+03  0.7818609E-02  0.9427502E-01
       -1   -1    0    0    0  501  0.00000000000E+00  0.00000000000E+00  0.26661444470E+03  0.26661444475E+03  0.50400001928E-02 0.  1.
        1   -1    0    0  501    0  0.00000000000E+00  0.00000000000E+00 -0.75693531492E+03  0.75693531493E+03  0.50400001928E-02 0. -1.
    10030    2    1    2    0    0  0.00000000000E+00  0.00000000000E+00 -0.49032087021E+03  0.10235497597E+04  0.89846511050E+03 0.  0.
        3    1    3    3  502    0 -0.29860770492E+03  0.14515270292E+03 -0.58990216727E+03  0.67691982225E+03  0.10100000352E+00 0. -1.
       -3    1    3    3    0  502  0.29860770492E+03 -0.14515270292E+03  0.99581297056E+02  0.34662993744E+03  0.10100000352E+00 0.  1.
</event>
<event>
 5   0  0.8524692E-03  0.8828580E+03  0.7818609E-02  0.9447267E-01
       -1   -1    0    0    0  501  0.00000000000E+00  0.00000000000E+00  0.31499756611E+03  0.31499756615E+03  0.50400001928E-02 0. -1.
        1   -1    0    0  501    0  0.00000000000E+00  0.00000000000E+00 -0.61860660093E+03  0.61860660095E+03  0.50400001928E-02 0.  1.
    10030    2    1    2    0    0  0.00000000000E+00  0.00000000000E+00 -0.30360903482E+03  0.93360416710E+03  0.88285802641E+03 0.  0.
        5    1    3    3  502    0 -0.10304775956E+03  0.29610085459E+03 -0.48037772112E+03  0.57365442715E+03  0.46999998093E+01 0.  1.
       -5    1    3    3    0  502  0.10304775956E+03 -0.29610085459E+03  0.17676868630E+03  0.35994973995E+03  0.46999998093E+01 0. -1.
</event>
<event>
 5   0  0.8612969E-03  0.8717095E+03  0.7818609E-02  0.9461654E-01
       -1   -1    0    0    0  501  0.00000000000E+00  0.00000000000E+00  0.23264274316E+03  0.23264274321E+03  0.50400001928E-02 0.  1.
        1   -1    0    0  501    0  0.00000000000E+00  0.00000000000E+00 -0.81657111694E+03  0.81657111696E+03  0.50400001928E-02 0. -1.
    10030    2    1    2    0    0  0.00000000000E+00  0.00000000000E+00 -0.58392837378E+03  0.10492138602E+04  0.87170945771E+03 0.  0.
        4    1    3    3  502    0  0.11933775514E+03  0.20554579108E+03 -0.73170395132E+03  0.76933923422E+03  0.12699999809E+01 0. -1.
       -4    1    3    3    0  502 -0.11933775514E+03 -0.20554579108E+03  0.14777557753E+03  0.27987462595E+03  0.12699999809E+01 0.  1.
</event>
<event>
 5   0  0.8612969E-03  0.9236217E+03  0.7818609E-02  0.9396526E-01
       -1   -1    0    0    0  501  0.00000000000E+00  0.00000000000E+00  0.11621209992E+04  0.11621209992E+04  0.50400001928E-02 0.  1.
        1   -1    0    0  501    0  0.00000000000E+00  0.00000000000E+00 -0.18351724062E+03  0.18351724069E+03  0.50400001928E-02 0. -1.
    10030    2    1    2    0    0  0.00000000000E+00  0.00000000000E+00  0.97860375856E+03  0.13456382399E+04  0.92362165218E+03 0.  0.
        4    1    3    3  502    0  0.23495390736E+03 -0.44353486126E+02  0.10649161743E+04  0.10914296320E+04  0.12699999809E+01 0.  1.
       -4    1    3    3    0  502 -0.23495390736E+03  0.44353486126E+02 -0.86312415773E+02  0.25420860790E+03  0.12699999809E+01 0. -1.
</event>
<event>
 5   0  0.1483326E-02  0.9007497E+03  0.7818609E-02  0.9424645E-01
       -2   -1    0    0    0  501  0.00000000000E+00  0.00000000000E+00  0.60783716900E+02  0.60783716954E+02  0.25500000920E-02 0. -1.
        2   -1    0    0  501    0  0.00000000000E+00  0.00000000000E+00 -0.33370369005E+04  0.33370369005E+04  0.25500000920E-02 0.  1.
    10030    2    1    2    0    0  0.00000000000E+00  0.00000000000E+00 -0.32762531836E+04  0.33978206174E+04  0.90074970183E+03 0.  0.
        1    1    3    3  502    0  0.26159845527E+03 -0.30178351368E+03 -0.85290361903E+03  0.94178109150E+03  0.50400001928E-02 0.  1.
       -1    1    3    3    0  502 -0.26159845527E+03  0.30178351368E+03 -0.24233495645E+04  0.24560395259E+04  0.50400001928E-02 0. -1.
</event>
<event>
 5   0  0.1440615E-02  0.8945933E+03  0.7818609E-02  0.9432365E-01
       -2   -1    0    0    0  501  0.00000000000E+00  0.00000000000E+00  0.91095697396E+03  0.91095697397E+03  0.25500000920E-02 0. -1.
        2   -1    0    0  501    0  0.00000000000E+00  0.00000000000E+00 -0.21963089239E+03  0.21963089240E+03  0.25500000920E-02 0.  1.
    10030    2    1    2    0    0  0.00000000000E+00  0.00000000000E+00  0.69132608158E+03  0.11305878664E+04  0.89459330006E+03 0.  0.
        3    1    3    3  502    0 -0.29561114726E+03  0.30966208499E+03  0.50945927814E+03  0.66545121801E+03  0.10100000352E+00 0. -1.
       -3    1    3    3    0  502  0.29561114726E+03 -0.30966208499E+03  0.18186680343E+03  0.46513664837E+03  0.10100000352E+00 0.  1.
</event>
<event>
 5   0  0.8524692E-03  0.8344156E+03  0.7818609E-02  0.9511496E-01
       -1   -1    0    0    0  501  0.00000000000E+00  0.00000000000E+00  0.40525056716E+03  0.40525056719E+03  0.50400001928E-02 0. -1.
        1   -1    0    0  501    0  0.00000000000E+00  0.00000000000E+00 -0.42951784004E+03  0.42951784006E+03  0.50400001928E-02 0.  1.
    10030    2    1    2    0    0  0.00000000000E+00  0.00000000000E+00 -0.24267272879E+02  0.83476840725E+03  0.83441559981E+03 0.  0.
        5    1    3    3  502    0 -0.24806199790E+03  0.18142990002E+03 -0.29436760403E+03  0.42558893280E+03  0.46999998093E+01 0.  1.
       -5    1    3    3    0  502  0.24806199790E+03 -0.18142990002E+03  0.27010033115E+03  0.40917947445E+03  0.46999998093E+01 0. -1.
</event>
<event>
 5   0  0.1535906E-02  0.8910620E+03  0.7818609E-02  0.9436824E-01
       -2   -1    0    0    0  501  0.00000000000E+00  0.00000000000E+00  0.17565621300E+03  0.17565621302E+03  0.25500000920E-02 0.  1.
        2   -1    0    0  501    0  0.00000000000E+00  0.00000000000E+00 -0.11300361731E+04  0.11300361731E+04  0.25500000920E-02 0. -1.
    10030    2    1    2    0    0  0.00000000000E+00  0.00000000000E+00 -0.95437996013E+03  0.13056923861E+04  0.89106200624E+03 0.  0.
        2    1    3    3  502    0 -0.43215478590E+03  0.80907346434E+02 -0.58279603313E+03  0.73003765240E+03  0.25500000920E-02 0.  1.
       -2    1    3    3    0  502  0.43215478590E+03 -0.80907346434E+02 -0.37158392699E+03  0.57565473375E+03  0.25500000920E-02 0. -1.
</event>
<event>
 5   0  0.1454652E-02  0.8993843E+03  0.7818609E-02  0.9426351E-01
        2   -1    0    0  501    0  0.00000000000E+00  0.00000000000E+00  0.34400297305E+03  0.34400297306E+03  0.25500000920E-02 0. -1.
       -2   -1    0    0    0  501  0.00000000000E+00  0.00000000000E+00 -0.58785259156E+03  0.58785259157E+03  0.25500000920E-02 0.  1.
    10030    2    1    2    0    0  0.00000000000E+00  0.00000000000E+00 -0.24384961851E+03  0.93185556463E+03  0.89938432101E+03 0.  0.
        4    1    3    3  502    0  0.33332219000E+03  0.30173669346E+03 -0.13075979235E+03  0.46823973638E+03  0.12699999809E+01 0. -1.
       -4    1    3    3    0  502 -0.33332219000E+03 -0.30173669346E+03 -0.11308982616E+03  0.46361582825E+03  0.12699999809E+01 0.  1.
</event>
<event>
 5   0  0.8612969E-03  0.9030334E+03  0.7818609E-02  0.9421797E-01
       -1   -1    0    0    0  501  0.00000000000E+00  0.00000000000E+00  0.18039081954E+03  0.18039081961E+03  0.50400001928E-02 0. -1.
        1   -1    0    0  501    0  0.00000000000E+00  0.00000000000E+00 -0.11301425119E+04  0.11301425119E+04  0.50400001928E-02 0.  1.
    10030    2    1    2    0    0  0.00000000000E+00  0.00000000000E+00 -0.94975169234E+03  0.13105333315E+04  0.90303340794E+03 0.  0.
        4    1    3    3  502    0  0.56063064730E+02 -0.10918590981E+02 -0.11248759706E+04  0.11263258165E+04  0.12699999809E+01 0.  1.
       -4    1    3    3    0  502 -0.56063064730E+02  0.10918590981E+02  0.17512427823E+03  0.18420751500E+03  0.12699999809E+01 0. -1.
</event>
<event>
 5   0  0.1441195E-02  0.8911118E+03  0.7818609E-02  0.9436761E-01
       -2   -1    0    0    0  501  0.00000000000E+00  0.00000000000E+00  0.18185135020E+03  0.18185135021E+03  0.25500000920E-02 0.  1.
        2   -1    0    0  501    0  0.00000000000E+00  0.00000000000E+00 -0.10916611740E+04  0.10916611740E+04  0.25500000920E-02 0. -1.
    10030    2    1    2    0    0  0.00000000000E+00  0.00000000000E+00 -0.90980982385E+03  0.12735125243E+04  0.89111179651E+03 0.  0.
        5    1    3    3  502    0 -0.37434608883E+03  0.20271537635E+02 -0.11086772497E+03  0.39097272526E+03  0.46999998093E+01 0.  1.
       -5    1    3    3    0  502  0.37434608883E+03 -0.20271537635E+02 -0.79894209888E+03  0.88253979900E+03  0.46999998093E+01 0. -1.
</event>
<event>
 5   0  0.1440615E-02  0.8667874E+03  0.7818609E-02  0.9468078E-01
        2   -1    0    0  501    0  0.00000000000E+00  0.00000000000E+00  0.14502022781E+03  0.14502022783E+03  0.25500000920E-02 0. -1.
       -2   -1    0    0    0  501  0.00000000000E+00  0.00000000000E+00 -0.12951991707E+04  0.12951991707E+04  0.25500000920E-02 0.  1.
    10030    2    1    2    0    0  0.00000000000E+00  0.00000000000E+00 -0.11501789429E+04  0.14402193985E+04  0.86678735295E+03 0.  0.
        3    1    3    3  502    0 -0.40706246967E+03 -0.68392335705E+02 -0.35558294525E+03  0.54480878017E+03  0.10100000352E+00 0. -1.
       -3    1    3    3    0  502  0.40706246967E+03  0.68392335705E+02 -0.79459599765E+03  0.89541061836E+03  0.10100000352E+00 0.  1.
</event>
<event>
 5   0  0.8612969E-03  0.9053897E+03  0.7818609E-02  0.9418869E-01
       -1   -1    0    0    0  501  0.00000000000E+00  0.00000000000E+00  0.42712882780E+03  0.42712882783E+03  0.50400001928E-02 0. -1.
        1   -1    0    0  501    0  0.00000000000E+00  0.00000000000E+00 -0.47979118156E+03  0.47979118159E+03  0.50400001928E-02 0.  1.
    10030    2    1    2    0    0  0.00000000000E+00  0.00000000000E+00 -0.52662353761E+02  0.90692000942E+03  0.90538973928E+03 0.  0.
        4    1    3    3  502    0  0.22542158864E+02 -0.34864049777E+03 -0.31469390413E+03  0.47020443619E+03  0.12699999809E+01 0.  1.
       -4    1    3    3    0  502 -0.22542158864E+02  0.34864049777E+03  0.26203155037E+03  0.43671557323E+03  0.12699999809E+01 0. -1.
</event>
<event>
 5   0  0.5770125E-03  0.9174109E+03  0.7818609E-02  0.9404075E-01
       -3   -1    0    0    0  501  0.00000000000E+00  0.00000000000E+00  0.39919195668E+03  0.39919196946E+03  0.10100000352E+00 0. -1.
        3   -1    0    0  501    0  0.00000000000E+00  0.00000000000E+00 -0.52709147585E+03  0.52709148553E+03  0.10100000352E+00 0.  1.
    10030    2    1    2    0    0  0.00000000000E+00  0.00000000000E+00 -0.12789951917E+03  0.92628345499E+03  0.91741089594E+03 0.  0.
        1    1    3    3  502    0 -0.50586307884E+02 -0.19239612450E+03 -0.48126957274E+03  0.52076448126E+03  0.50400001928E-02 0.  1.
       -1    1    3    3    0  502  0.50586307884E+02  0.19239612450E+03  0.35337005357E+03  0.40551897373E+03  0.50400001928E-02 0. -1.
</event>
<event>
 5   0  0.8291252E-03  0.8869226E+03  0.7818609E-02  0.9442078E-01
        1   -1    0    0  501    0  0.00000000000E+00  0.00000000000E+00  0.15629616664E+03  0.15629616672E+03  0.50400001928E-02 0. -1.
       -1   -1    0    0    0  501  0.00000000000E+00  0.00000000000E+00 -0.12582389498E+04  0.12582389499E+04  0.50400001928E-02 0.  1.
    10030    2    1    2    0    0  0.00000000000E+00  0.00000000000E+00 -0.11019427832E+04  0.14145351166E+04  0.88692260009E+03 0.  0.
        1    1    3    3  502    0 -0.20804126886E+03 -0.37018308007E+03 -0.34709330615E+03  0.54844365756E+03  0.50400001928E-02 0. -1.
       -1    1    3    3    0  502  0.20804126886E+03  0.37018308007E+03 -0.75484947706E+03  0.86609145901E+03  0.50400001928E-02 0.  1.
</event>
<event>
 5   0  0.1454652E-02  0.1008090E+04  0.7818609E-02  0.9299716E-01
       -2   -1    0    0    0  501  0.00000000000E+00  0.00000000000E+00  0.62771886004E+03  0.62771886005E+03  0.25500000920E-02 0. -1.
        2   -1    0    0  501    0  0.00000000000E+00  0.00000000000E+00 -0.40473722640E+03  0.40473722640E+03  0.25500000920E-02 0.  1.
    10030    2    1    2    0    0  0.00000000000E+00  0.00000000000E+00  0.22298163365E+03  0.10324560865E+04  0.10080896595E+04 0.  0.
        4    1    3    3  502    0 -0.29485670299E+02  0.45080690746E+03  0.34041833906E+03  0.56566998421E+03  0.12699999809E+01 0. -1.
       -4    1    3    3    0  502  0.29485670299E+02 -0.45080690746E+03 -0.11743670541E+03  0.46678610224E+03  0.12699999809E+01 0.  1.
</event>
<event>
 5   0  0.1440615E-02  0.8860162E+03  0.7818609E-02  0.9443233E-01
       -2   -1    0    0    0  501  0.00000000000E+00  0.00000000000E+00  0.29868038346E+03  0.29868038347E+03  0.25500000920E-02 0. -1.
        2   -1    0    0  501    0  0.00000000000E+00  0.00000000000E+00 -0.65707753532E+03  0.65707753532E+03  0.25500000920E-02 0.  1.
    10030    2    1    2    0    0  0.00000000000E+00  0.00000000000E+00 -0.35839715186E+03  0.95575791879E+03  0.88601618544E+03 0.  0.
        3    1    3    3  502    0 -0.11387459475E+03  0.25238156082E+03  0.19384350958E+03  0.33799288747E+03  0.10100000352E+00 0. -1.
       -3    1    3    3    0  502  0.11387459475E+03 -0.25238156082E+03 -0.55224066144E+03  0.61776503132E+03  0.10100000352E+00 0.  1.
</event>
<event>
 5   0  0.1535906E-02  0.8865102E+03  0.7818609E-02  0.9442603E-01
       -2   -1    0    0    0  501  0.00000000000E+00  0.00000000000E+00  0.16380288105E+03  0.16380288107E+03  0.25500000920E-02 0.  1.
        2   -1    0    0  501    0  0.00000000000E+00  0.00000000000E+00 -0.11994604746E+04  0.11994604746E+04  0.25500000920E-02 0. -1.
    10030    2    1    2    0    0  0.00000000000E+00  0.00000000000E+00 -0.10356575936E+04  0.13632633557E+04  0.88651019500E+03 0.  0.
        2    1    3    3  502    0 -0.25325364866E+03  0.78350636659E+02 -0.10641193909E+04  0.10966432013E+04  0.25500000920E-02 0. -1.
       -2    1    3    3    0  502  0.25325364866E+03 -0.78350636659E+02  0.28461797325E+02  0.26662015441E+03  0.25500000920E-02 0.  1.
</event>
<event>
 5   0  0.1535906E-02  0.8872866E+03  0.7818609E-02  0.9441615E-01
        2   -1    0    0  501    0  0.00000000000E+00  0.00000000000E+00  0.81182330325E+03  0.81182330326E+03  0.25500000920E-02 0.  1.
       -2   -1    0    0    0  501  0.00000000000E+00  0.00000000000E+00 -0.24244113634E+03  0.24244113635E+03  0.25500000920E-02 0. -1.
    10030    2    1    2    0    0  0.00000000000E+00  0.00000000000E+00  0.56938216691E+03  0.10542644396E+04  0.88728656962E+03 0.  0.
        2    1    3    3  502    0  0.23074227129E+03  0.28637324080E+03 -0.10132512977E+02  0.36790528215E+03  0.25500000920E-02 0. -1.
       -2    1    3    3    0  502 -0.23074227129E+03 -0.28637324080E+03  0.57951467989E+03  0.68635915746E+03  0.25500000920E-02 0.  1.
</event>
<event>
 5   0  0.1454652E-02  0.9059016E+03  0.7818609E-02  0.9418234E-01
       -2   -1    0    0    0  501  0.00000000000E+00  0.00000000000E+00  0.24003281406E+03  0.24003281407E+03  0.25500000920E-02 0.  1.
        2   -1    0    0  501    0  0.00000000000E+00  0.00000000000E+00 -0.85473486794E+03  0.85473486795E+03  0.25500000920E-02 0. -1.
    10030    2    1    2    0    0  0.00000000000E+00  0.00000000000E+00 -0.61470205388E+03  0.10947676820E+04  0.90590157443E+03 0.  0.
        4    1    3    3  502    0  0.23695009183E+02 -0.28320333425E+03 -0.73358326328E+03  0.78670934853E+03  0.12699999809E+01 0. -1.
       -4    1    3    3    0  502 -0.23695009183E+02  0.28320333425E+03  0.11888120940E+03  0.30805833350E+03  0.12699999809E+01 0.  1.
</event>
<event>
 5   0  0.1441195E-02  0.9027031E+03  0.7818609E-02  0.9422209E-01
       -2   -1    0    0    0  501  0.00000000000E+00  0.00000000000E+00  0.28594532993E+03  0.28594532994E+03  0.25500000920E-02 0. -1.
        2   -1    0    0  501    0  0.00000000000E+00  0.00000000000E+00 -0.71243765468E+03  0.71243765469E+03  0.25500000920E-02 0.  1.
    10030    2    1    2    0    0  0.00000000000E+00  0.00000000000E+00 -0.42649232476E+03  0.99838298463E+03  0.90270309677E+03 0.  0.
        5    1    3    3  502    0 -0.16665528936E+03  0.37159858210E+03 -0.42837989456E+03  0.59109298401E+03  0.46999998093E+01 0.  1.
       -5    1    3    3    0  502  0.16665528936E+03 -0.37159858210E+03  0.18875698041E+01  0.40729000062E+03  0.46999998093E+01 0. -1.
</event>
<event>
 5   0  0.1441195E-02  0.9289901E+03  0.7818609E-02  0.9390051E-01
       -2   -1    0    0    0  501  0.00000000000E+00  0.00000000000E+00  0.35010970832E+03  0.35010970833E+03  0.25500000920E-02 0.  1.
        2   -1    0    0  501    0  0.00000000000E+00  0.00000000000E+00 -0.61625151942E+03  0.61625151943E+03  0.25500000920E-02 0. -1.
    10030    2    1    2    0    0  0.00000000000E+00  0.00000000000E+00 -0.26614181110E+03  0.96636122776E+03  0.92899007471E+03 0.  0.
        5    1    3    3  502    0  0.72543398586E+02  0.28511934617E+03 -0.50694264594E+03  0.58614718502E+03  0.46999998093E+01 0. -1.
       -5    1    3    3    0  502 -0.72543398586E+02 -0.28511934617E+03  0.24080083484E+03  0.38021404274E+03  0.46999998093E+01 0.  1.
</event>
<event>
 5   0  0.1440615E-02  0.8937808E+03  0.7818609E-02  0.9433389E-01
        2   -1    0    0  501    0  0.00000000000E+00  0.00000000000E+00  0.56677475242E+03  0.56677475243E+03  0.25500000920E-02 0.  1.
       -2   -1    0    0    0  501  0.00000000000E+00  0.00000000000E+00 -0.35236402283E+03  0.35236402284E+03  0.25500000920E-02 0. -1.
    10030    2    1    2    0    0  0.00000000000E+00  0.00000000000E+00  0.21441072959E+03  0.91913877527E+03  0.89378080492E+03 0.  0.
        3    1    3    3  502    0  0.36650666633E+03 -0.10193781013E+03 -0.13395285248E+03  0.40331356348E+03  0.10100000352E+00 0.  1.
       -3    1    3    3    0  502 -0.36650666633E+03  0.10193781013E+03  0.34836358207E+03  0.51582521179E+03  0.10100000352E+00 0. -1.
</event>
<event>
 5   0  0.8612969E-03  0.8995239E+03  0.7818609E-02  0.9426177E-01
        1   -1    0    0  501    0  0.00000000000E+00  0.00000000000E+00  0.67642612621E+03  0.67642612623E+03  0.50400001928E-02 0.  1.
       -1   -1    0    0    0  501  0.00000000000E+00  0.00000000000E+00 -0.29905083738E+03  0.29905083742E+03  0.50400001928E-02 0. -1.
    10030    2    1    2    0    0  0.00000000000E+00  0.00000000000E+00  0.37737528883E+03  0.97547696366E+03  0.89952387295E+03 0.  0.
        4    1    3    3  502    0  0.43142644338E+03  0.63204760923E+02  0.30827389999E+03  0.53400189903E+03  0.12699999809E+01 0.  1.
       -4    1    3    3    0  502 -0.43142644338E+03 -0.63204760923E+02  0.69101388840E+02  0.44147506463E+03  0.12699999809E+01 0. -1.
</event>
<event>
 5   0  0.8291252E-03  0.9103668E+03  0.7818609E-02  0.9412714E-01
       -1   -1    0    0    0  501  0.00000000000E+00  0.00000000000E+00  0.18905926258E+03  0.18905926265E+03  0.50400001928E-02 0. -1.
        1   -1    0    0  501    0  0.00000000000E+00  0.00000000000E+00 -0.10959098706E+04  0.10959098706E+04  0.50400001928E-02 0.  1.
    10030    2    1    2    0    0  0.00000000000E+00  0.00000000000E+00 -0.90685060797E+03  0.12849691332E+04  0.91036676572E+03 0.  0.
        1    1    3    3  502    0 -0.21411902934E+03  0.38854063466E+03 -0.30961215890E+03  0.54099027022E+03  0.50400001928E-02 0. -1.
       -1    1    3    3    0  502  0.21411902934E+03 -0.38854063466E+03 -0.59723844907E+03  0.74397886299E+03  0.50400001928E-02 0.  1.
</event>
<event>
 5   0  0.1535906E-02  0.8897497E+03  0.7818609E-02  0.9438486E-01
       -2   -1    0    0    0  501  0.00000000000E+00  0.00000000000E+00  0.23430001801E+03  0.23430001803E+03  0.25500000920E-02 0. -1.
        2   -1    0    0  501    0  0.00000000000E+00  0.00000000000E+00 -0.84470172095E+03  0.84470172096E+03  0.25500000920E-02 0.  1.
    10030    2    1    2    0    0  0.00000000000E+00  0.00000000000E+00 -0.61040170294E+03  0.10790017390E+04  0.88974969165E+03 0.  0.
        2    1    3    3  502    0 -0.33298143675E+03 -0.29407116587E+03 -0.33387660387E+03  0.55572301953E+03  0.25500000920E-02 0.  1.
       -2    1    3    3    0  502  0.33298143675E+03  0.29407116587E+03 -0.27652509907E+03  0.52327871946E+03  0.25500000920E-02 0. -1.
</event>
<event>
 5   0  0.1454652E-02  0.8926901E+03  0.7818609E-02  0.9434766E-01
       -2   -1    0    0    0  501  0.00000000000E+00  0.00000000000E+00  0.95331763593E+02  0.95331763627E+02  0.25500000920E-02 0.  1.
        2   -1    0    0  501    0  0.00000000000E+00  0.00000000000E+00 -0.20897956610E+04  0.20897956610E+04  0.25500000920E-02 0. -1.
    10030    2    1    2    0    0  0.00000000000E+00  0.00000000000E+00 -0.19944638974E+04  0.21851274246E+04  0.89269010513E+03 0.  0.
        4    1    3    3  502    0 -0.21179557293E+03 -0.14065952886E+03 -0.18952106311E+04  0.19121891687E+04  0.12699999809E+01 0. -1.
       -4    1    3    3    0  502  0.21179557293E+03  0.14065952886E+03 -0.99253266298E+02  0.27293825592E+03  0.12699999809E+01 0.  1.
</event>
<event>
 5   0  0.8524692E-03  0.8980657E+03  0.7818609E-02  0.9428003E-01
        1   -1    0    0  501    0  0.00000000000E+00  0.00000000000E+00  0.10520581353E+04  0.10520581353E+04  0.50400001928E-02 0. -1.
       -1   -1    0    0    0  501  0.00000000000E+00  0.00000000000E+00 -0.19165339262E+03  0.19165339268E+03  0.50400001928E-02 0.  1.
    10030    2    1    2    0    0  0.00000000000E+00  0.00000000000E+00  0.86040474266E+03  0.12437115280E+04  0.89806572344E+03 0.  0.
        5    1    3    3  502    0 -0.79245371021E+02 -0.23701570575E+03 -0.86400118661E+02  0.26446803986E+03  0.46999998093E+01 0.  1.
       -5    1    3    3    0  502  0.79245371021E+02  0.23701570575E+03  0.94680486132E+03  0.97924348811E+03  0.46999998093E+01 0. -1.
</event>
<event>
 5   0  0.5770125E-03  0.9051005E+03  0.7818609E-02  0.9419228E-01
        3   -1    0    0  501    0  0.00000000000E+00  0.00000000000E+00  0.83240315244E+03  0.83240315857E+03  0.10100000352E+00 0. -1.
       -3   -1    0    0    0  501  0.00000000000E+00  0.00000000000E+00 -0.24603670911E+03  0.24603672984E+03  0.10100000352E+00 0.  1.
    10030    2    1    2    0    0  0.00000000000E+00  0.00000000000E+00  0.58636644333E+03  0.10784398884E+04  0.90510053975E+03 0.  0.
        2    1    3    3  502    0  0.29412984383E+03  0.26816302373E+03  0.54978224988E+03  0.67873727953E+03  0.25500000920E-02 0. -1.
       -2    1    3    3    0  502 -0.29412984383E+03 -0.26816302373E+03  0.36584193451E+02  0.39970260888E+03  0.25500000920E-02 0.  1.
</event>
<event>
 5   0  0.1483326E-02  0.8918186E+03  0.7818609E-02  0.9435867E-01
       -2   -1    0    0    0  501  0.00000000000E+00  0.00000000000E+00  0.19126689884E+03  0.19126689885E+03  0.25500000920E-02 0. -1.
        2   -1    0    0  501    0  0.00000000000E+00  0.00000000000E+00 -0.10395687804E+04  0.10395687805E+04  0.25500000920E-02 0.  1.
    10030    2    1    2    0    0  0.00000000000E+00  0.00000000000E+00 -0.84830188161E+03  0.12308356793E+04  0.89181858419E+03 0.  0.
        1    1    3    3  502    0 -0.34754958668E+02  0.23820372241E+03  0.93882445275E+02  0.25838505003E+03  0.50400001928E-02 0. -1.
       -1    1    3    3    0  502  0.34754958668E+02 -0.23820372241E+03 -0.94218432689E+03  0.97245062928E+03  0.50400001928E-02 0.  1.
</event>
<event>
 5   0  0.8524692E-03  0.8990603E+03  0.7818609E-02  0.9426757E-01
        1   -1    0    0  501    0  0.00000000000E+00  0.00000000000E+00  0.53941276709E+03  0.53941276711E+03  0.50400001928E-02 0.  1.
       -1   -1    0    0    0  501  0.00000000000E+00  0.00000000000E+00 -0.37462471836E+03  0.37462471839E+03  0.50400001928E-02 0. -1.
    10030    2    1    2    0    0  0.00000000000E+00  0.00000000000E+00  0.16478804873E+03  0.91403748550E+03  0.89906030048E+03 0.  0.
        5    1    3    3  502    0 -0.11239011442E+03 -0.24027289770E+03 -0.28654617266E+03  0.39050403615E+03  0.46999998093E+01 0. -1.
       -5    1    3    3    0  502  0.11239011442E+03  0.24027289770E+03  0.45133422139E+03  0.52353344935E+03  0.46999998093E+01 0.  1.
</event>
<event>
 5   0  0.8612969E-03  0.9040149E+03  0.7818609E-02  0.9420576E-01
       -1   -1    0    0    0  501  0.00000000000E+00  0.00000000000E+00  0.28245978066E+03  0.28245978071E+03  0.50400001928E-02 0.  1.
        1   -1    0    0  501    0  0.00000000000E+00  0.00000000000E+00 -0.72332687007E+03  0.72332687009E+03  0.50400001928E-02 0. -1.
    10030    2    1    2    0    0  0.00000000000E+00  0.00000000000E+00 -0.44086708941E+03  0.10057866508E+04  0.90401493151E+03 0.  0.
        4    1    3    3  502    0 -0.21206110823E+03  0.39913028817E+03 -0.21392371670E+03  0.50003986843E+03  0.12699999809E+01 0. -1.
       -4    1    3    3    0  502  0.21206110823E+03 -0.39913028817E+03 -0.22694337271E+03  0.50574678236E+03  0.12699999809E+01 0.  1.
</event>
<event>
 5   0  0.8612969E-03  0.8992054E+03  0.7818609E-02  0.9426575E-01
        1   -1    0    0  501    0  0.00000000000E+00  0.00000000000E+00  0.55662955889E+03  0.55662955891E+03  0.50400001928E-02 0. -1.
       -1   -1    0    0    0  501  0.00000000000E+00  0.00000000000E+00 -0.36315461105E+03  0.36315461108E+03  0.50400001928E-02 0.  1.
    10030    2    1    2    0    0  0.00000000000E+00  0.00000000000E+00  0.19347494784E+03  0.91978416999E+03  0.89920540697E+03 0.  0.
        4    1    3    3  502    0  0.26589376078E+03 -0.36171037502E+03  0.12194056435E+03  0.46519350979E+03  0.12699999809E+01 0.  1.
       -4    1    3    3    0  502 -0.26589376078E+03  0.36171037502E+03  0.71534383488E+02  0.45459066020E+03  0.12699999809E+01 0. -1.
</event>
<event>
 5   0  0.8291252E-03  0.8879949E+03  0.7818609E-02  0.9440714E-01
        1   -1    0    0  501    0  0.00000000000E+00  0.00000000000E+00  0.33555493599E+03  0.33555493603E+03  0.50400001928E-02 0.  1.
       -1   -1    0    0    0  501  0.00000000000E+00  0.00000000000E+00 -0.58748566931E+03  0.58748566933E+03  0.50400001928E-02 0. -1.
    10030    2    1    2    0    0  0.00000000000E+00  0.00000000000E+00 -0.25193073332E+03  0.92304060536E+03  0.88799485626E+03 0.  0.
        1    1    3    3  502    0  0.40482450409E+03  0.97129856598E+02 -0.28638240464E+03  0.50530383916E+03  0.50400001928E-02 0. -1.
       -1    1    3    3    0  502 -0.40482450409E+03 -0.97129856598E+02  0.34451671319E+02  0.41773676620E+03  0.50400001928E-02 0.  1.
</event>
<event>
 5   0  0.8291252E-03  0.9078367E+03  0.7818609E-02  0.9415838E-01
        1   -1    0    0  501    0  0.00000000000E+00  0.00000000000E+00  0.41415791587E+03  0.41415791590E+03  0.50400001928E-02 0.  1.
       -1   -1    0    0    0  501  0.00000000000E+00  0.00000000000E+00 -0.49749589503E+03  0.49749589505E+03  0.50400001928E-02 0. -1.
    10030    2    1    2    0    0  0.00000000000E+00  0.00000000000E+00 -0.83337979156E+02  0.91165381095E+03  0.90783668810E+03 0.  0.
        1    1    3    3  502    0  0.22625757930E+03  0.53289166172E+02  0.34985446230E+03  0.42003615587E+03  0.50400001928E-02 0.  1.
       -1    1    3    3    0  502 -0.22625757930E+03 -0.53289166172E+02 -0.43319244146E+03  0.49161765508E+03  0.50400001928E-02 0. -1.
</event>
<event>
 5   0  0.5770125E-03  0.8968562E+03  0.7818609E-02  0.9429520E-01
       -4   -1    0    0    0  501  0.00000000000E+00  0.00000000000E+00  0.23035904302E+03  0.23036254383E+03  0.12699999809E+01 0. -1.
        4   -1    0    0  501    0  0.00000000000E+00  0.00000000000E+00 -0.87292135468E+03  0.87292227853E+03  0.12699999809E+01 0.  1.
    10030    2    1    2    0    0  0.00000000000E+00  0.00000000000E+00 -0.64256231166E+03  0.11032848224E+04  0.89685621752E+03 0.  0.
        1    1    3    3  502    0 -0.11062622749E+03  0.42386888309E+03 -0.43917716801E+03  0.62030603511E+03  0.50400001928E-02 0.  1.
       -1    1    3    3    0  502  0.11062622749E+03 -0.42386888309E+03 -0.20338514365E+03  0.48297878726E+03  0.50400001928E-02 0. -1.
</event>
<event>
 5   0  0.8524692E-03  0.9155605E+03  0.7818609E-02  0.9406336E-01
        1   -1    0    0  501    0  0.00000000000E+00  0.00000000000E+00  0.24502457763E+03  0.24502457768E+03  0.50400001928E-02 0. -1.
       -1   -1    0    0    0  501  0.00000000000E+00  0.00000000000E+00 -0.85527239446E+03  0.85527239447E+03  0.50400001928E-02 0.  1.
    10030    2    1    2    0    0  0.00000000000E+00  0.00000000000E+00 -0.61024781683E+03  0.11002969721E+04  0.91556049990E+03 0.  0.
        5    1    3    3  502    0 -0.33577901367E+03 -0.29939382091E+03 -0.20345877581E+03  0.49376286765E+03  0.46999998093E+01 0. -1.
       -5    1    3    3    0  502  0.33577901367E+03  0.29939382091E+03 -0.40678904102E+03  0.60653410449E+03  0.46999998093E+01 0.  1.
</event>
<event>
 5   0  0.1440615E-02  0.9289884E+03  0.7818609E-02  0.9390053E-01
        2   -1    0    0  501    0  0.00000000000E+00  0.00000000000E+00  0.94840813376E+03  0.94840813377E+03  0.25500000920E-02 0.  1.
       -2   -1    0    0    0  501  0.00000000000E+00  0.00000000000E+00 -0.22749158878E+03  0.22749158879E+03  0.25500000920E-02 0. -1.
    10030    2    1    2    0    0  0.00000000000E+00  0.00000000000E+00  0.72091654499E+03  0.11758997226E+04  0.92898842440E+03 0.  0.
        3    1    3    3  502    0  0.12880885174E+03 -0.33146650632E+03  0.73869955769E+03  0.81984072346E+03  0.10100000352E+00 0.  1.
       -3    1    3    3    0  502 -0.12880885174E+03  0.33146650632E+03 -0.17783012706E+02  0.35605899910E+03  0.10100000352E+00 0. -1.
</event>
<event>
 5   0  0.8738044E-03  0.8986757E+03  0.7818609E-02  0.9427238E-01
       -1   -1    0    0    0  501  0.00000000000E+00  0.00000000000E+00  0.69390472862E+03  0.69390472864E+03  0.50400001928E-02 0. -1.
        1   -1    0    0  501    0  0.00000000000E+00  0.00000000000E+00 -0.29096862073E+03  0.29096862078E+03  0.50400001928E-02 0.  1.
    10030    2    1    2    0    0  0.00000000000E+00  0.00000000000E+00  0.40293610788E+03  0.98487334942E+03  0.89867569643E+03 0.  0.
        3    1    3    3  502    0  0.59063353478E+02  0.99634382414E+02 -0.27432751805E+03  0.29777690851E+03  0.10100000352E+00 0.  1.
       -3    1    3    3    0  502 -0.59063353478E+02 -0.99634382414E+02  0.67726362594E+03  0.68709644090E+03  0.10100000352E+00 0. -1.
</event>
<event>
 5   0  0.8885324E-03  0.8522079E+03  0.7818609E-02  0.9487378E-01
        1   -1    0    0  501    0  0.00000000000E+00  0.00000000000E+00  0.31972253731E+03  0.31972253735E+03  0.50400001928E-02 0. -1.
       -1   -1    0    0    0  501  0.00000000000E+00  0.00000000000E+00 -0.56788163247E+03  0.56788163250E+03  0.50400001928E-02 0.  1.
    10030    2    1    2    0    0  0.00000000000E+00  0.00000000000E+00 -0.24815909517E+03  0.88760416984E+03  0.85220785364E+03 0.  0.
        2    1    3    3  502    0  0.22759331951E+03  0.26365717237E+03  0.13157585124E+03  0.37232516469E+03  0.25500000920E-02 0. -1.
       -2    1    3    3    0  502 -0.22759331951E+03 -0.26365717237E+03 -0.37973494641E+03  0.51527900515E+03  0.25500000920E-02 0.  1.
</event>
<event>
 5   0  0.1441195E-02  0.9117493E+03  0.7818609E-02  0.9411012E-01
        2   -1    0    0  501    0  0.00000000000E+00  0.00000000000E+00  0.76456300404E+03  0.76456300404E+03  0.25500000920E-02 0. -1.
       -2   -1    0    0    0  501  0.00000000000E+00  0.00000000000E+00 -0.27181759984E+03  0.27181759985E+03  0.25500000920E-02 0.  1.
    10030    2    1    2    0    0  0.00000000000E+00  0.00000000000E+00  0.49274540420E+03  0.10363806039E+04  0.91174926530E+03 0.  0.
        5    1    3    3  502    0  0.22749939184E+03 -0.85852164724E+02  0.68466106608E+03  0.72657376286E+03  0.46999998093E+01 0. -1.
       -5    1    3    3    0  502 -0.22749939184E+03  0.85852164724E+02 -0.19191566189E+03  0.30980684103E+03  0.46999998093E+01 0.  1.
</event>
<event>
 5   0  0.1440615E-02  0.8986344E+03  0.7818609E-02  0.9427290E-01
        2   -1    0    0  501    0  0.00000000000E+00  0.00000000000E+00  0.65001270970E+03  0.65001270971E+03  0.25500000920E-02 0. -1.
       -2   -1    0    0    0  501  0.00000000000E+00  0.00000000000E+00 -0.31058770964E+03  0.31058770965E+03  0.25500000920E-02 0.  1.
    10030    2    1    2    0    0  0.00000000000E+00  0.00000000000E+00  0.33942500006E+03  0.96060041936E+03  0.89863442790E+03 0.  0.
        3    1    3    3  502    0 -0.41859615464E+03  0.11455361686E+03  0.45324093632E+02  0.43634797522E+03  0.10100000352E+00 0.  1.
       -3    1    3    3    0  502  0.41859615464E+03 -0.11455361686E+03  0.29410090643E+03  0.52425244414E+03  0.10100000352E+00 0. -1.
</event>
<event>
 5   0  0.8291252E-03  0.8838655E+03  0.7818609E-02  0.9445978E-01
       -1   -1    0    0    0  501  0.00000000000E+00  0.00000000000E+00  0.68785159633E+03  0.68785159635E+03  0.50400001928E-02 0.  1.
        1   -1    0    0  501    0  0.00000000000E+00  0.00000000000E+00 -0.28393415493E+03  0.28393415497E+03  0.50400001928E-02 0. -1.
    10030    2    1    2    0    0  0.00000000000E+00  0.00000000000E+00  0.40391744141E+03  0.97178575133E+03  0.88386551409E+03 0.  0.
        1    1    3    3  502    0 -0.15543374939E+03 -0.15263530687E+03  0.62471605018E+03  0.66160965132E+03  0.50400001928E-02 0.  1.
       -1    1    3    3    0  502  0.15543374939E+03  0.15263530687E+03 -0.22079860877E+03  0.31017610000E+03  0.50400001928E-02 0. -1.
</event>
<event>
 5   0  0.1454652E-02  0.7976410E+03  0.7818609E-02  0.9563438E-01
       -2   -1    0    0    0  501  0.00000000000E+00  0.00000000000E+00  0.12362311064E+03  0.12362311067E+03  0.25500000920E-02 0.  1.
        2   -1    0    0  501    0  0.00000000000E+00  0.00000000000E+00 -0.12866348550E+04  0.12866348550E+04  0.25500000920E-02 0. -1.
    10030    2    1    2    0    0  0.00000000000E+00  0.00000000000E+00 -0.11630117443E+04  0.14102579656E+04  0.79764102966E+03 0.  0.
        4    1    3    3  502    0 -0.16327425849E+01 -0.21228944201E+03  0.15416971099E+02  0.21285856557E+03  0.12699999809E+01 0.  1.
       -4    1    3    3    0  502  0.16327425849E+01  0.21228944201E+03 -0.11784287154E+04  0.11973994001E+04  0.12699999809E+01 0. -1.
</event>
<event>
 5   0  0.1483326E-02  0.9013673E+03  0.7818609E-02  0.9423874E-01
       -2   -1    0    0    0  501  0.00000000000E+00  0.00000000000E+00  0.17912567130E+03  0.17912567132E+03  0.25500000920E-02 0. -1.
        2   -1    0    0  501    0  0.00000000000E+00  0.00000000000E+00 -0.11339286528E+04  0.11339286528E+04  0.25500000920E-02 0.  1.
    10030    2    1    2    0    0  0.00000000000E+00  0.00000000000E+00 -0.95480298150E+03  0.13130543241E+04  0.90136725290E+03 0.  0.
        1    1    3    3  502    0  0.30731021862E+03  0.32655075069E+03 -0.54320934394E+03  0.70438012082E+03  0.50400001928E-02 0.  1.
       -1    1    3    3    0  502 -0.30731021862E+03 -0.32655075069E+03 -0.41159363756E+03  0.60867420329E+03  0.50400001928E-02 0. -1.
</event>
<event>
 5   0  0.1440615E-02  0.9005494E+03  0.7818609E-02  0.9424895E-01
       -2   -1    0    0    0  501  0.00000000000E+00  0.00000000000E+00  0.19101168651E+03  0.19101168652E+03  0.25500000920E-02 0.  1.
        2   -1    0    0  501    0  0.00000000000E+00  0.00000000000E+00 -0.10614391546E+04  0.10614391546E+04  0.25500000920E-02 0. -1.
    10030    2    1    2    0    0  0.00000000000E+00  0.00000000000E+00 -0.87042746812E+03  0.12524508412E+04  0.90054935026E+03 0.  0.
        3    1    3    3  502    0  0.64685030623E+02  0.28200733106E+03 -0.91504714213E+03  0.95969972934E+03  0.10100000352E+00 0. -1.
       -3    1    3    3    0  502 -0.64685030623E+02 -0.28200733106E+03  0.44619674013E+02  0.29275111182E+03  0.10100000352E+00 0.  1.
</event>
<event>
 5   0  0.8524692E-03  0.9059276E+03  0.7818609E-02  0.9418202E-01
        1   -1    0    0  501    0  0.00000000000E+00  0.00000000000E+00  0.69544003777E+03  0.69544003779E+03  0.50400001928E-02 0.  1.
       -1   -1    0    0    0  501  0.00000000000E+00  0.00000000000E+00 -0.29503074528E+03  0.29503074532E+03  0.50400001928E-02 0. -1.
    10030    2    1    2    0    0  0.00000000000E+00  0.00000000000E+00  0.40040929249E+03  0.99047078311E+03  0.90592757474E+03 0.  0.
        5    1    3    3  502    0 -0.34865924246E+03  0.78724239395E+02  0.50436314465E+03  0.61819498938E+03  0.46999998093E+01 0.  1.
       -5    1    3    3    0  502  0.34865924246E+03 -0.78724239395E+02 -0.10395385215E+03  0.37227579373E+03  0.46999998093E+01 0. -1.
</event>
<event>
 5   0  0.8885324E-03  0.1000499E+04  0.7818609E-02  0.9307998E-01
        1   -1    0    0  501    0  0.00000000000E+00  0.00000000000E+00  0.19412758320E+04  0.19412758320E+04  0.50400001928E-02 0. -1.
       -1   -1    0    0    0  501  0.00000000000E+00  0.00000000000E+00 -0.12890982503E+03  0.12890982512E+03  0.50400001928E-02 0.  1.
    10030    2    1    2    0    0  0.00000000000E+00  0.00000000000E+00  0.18123660070E+04  0.20701856571E+04  0.10004989314E+04 0.  0.
        2    1    3    3  502    0  0.42680887769E+03 -0.25886366128E+03  0.97397153242E+03  0.10944390157E+04  0.25500000920E-02 0. -1.
       -2    1    3    3    0  502 -0.42680887769E+03  0.25886366128E+03  0.83839447453E+03  0.97574664136E+03  0.25500000920E-02 0.  1.
</event>
<event>
 5   0  0.8291252E-03  0.8598088E+03  0.7818609E-02  0.9477266E-01
       -1   -1    0    0    0  501  0.00000000000E+00  0.00000000000E+00  0.19367712549E+03  0.19367712555E+03  0.50400001928E-02 0.  1.
        1   -1    0    0  501    0  0.00000000000E+00  0.00000000000E+00 -0.95425722403E+03  0.95425722404E+03  0.50400001928E-02 0. -1.
    10030    2    1    2    0    0  0.00000000000E+00  0.00000000000E+00 -0.76058009854E+03  0.11479343496E+04  0.85980880706E+03 0.  0.
        1    1    3    3  502    0  0.27999178550E+03 -0.29369378241E+03 -0.19069416630E+03  0.44834774769E+03  0.50400001928E-02 0.  1.
       -1    1    3    3    0  502 -0.27999178550E+03  0.29369378241E+03 -0.56988593224E+03  0.69958660191E+03  0.50400001928E-02 0. -1.
</event>
<event>
 5   0  0.1535906E-02  0.9178362E+03  0.7818609E-02  0.9403556E-01
        2   -1    0    0  501    0  0.00000000000E+00  0.00000000000E+00  0.76058935436E+03  0.76058935436E+03  0.25500000920E-02 0.  1.
       -2   -1    0    0    0  501  0.00000000000E+00  0.00000000000E+00 -0.27689822519E+03  0.27689822520E+03  0.25500000920E-02 0. -1.
    10030    2    1    2    0    0  0.00000000000E+00  0.00000000000E+00  0.48369112917E+03  0.10374875796E+04  0.91783624319E+03 0.  0.
        2    1    3    3  502    0  0.86458126523E+02 -0.29148185053E+03 -0.14672490082E+03  0.33758683825E+03  0.25500000920E-02 0. -1.
       -2    1    3    3    0  502 -0.86458126523E+02  0.29148185053E+03  0.63041602998E+03  0.69990074132E+03  0.25500000920E-02 0.  1.
</event>
<event>
 5   0  0.1454652E-02  0.8914847E+03  0.7818609E-02  0.9436289E-01
        2   -1    0    0  501    0  0.00000000000E+00  0.00000000000E+00  0.94344845269E+03  0.94344845269E+03  0.25500000920E-02 0. -1.
       -2   -1    0    0    0  501  0.00000000000E+00  0.00000000000E+00 -0.21059574425E+03  0.21059574426E+03  0.25500000920E-02 0.  1.
    10030    2    1    2    0    0  0.00000000000E+00  0.00000000000E+00  0.73285270844E+03  0.11540441970E+04  0.89148466967E+03 0.  0.
        4    1    3    3  502    0  0.48023288901E+01  0.81790659855E+02 -0.20076202986E+03  0.21684044810E+03  0.12699999809E+01 0.  1.
       -4    1    3    3    0  502 -0.48023288901E+01 -0.81790659855E+02  0.93361473829E+03  0.93720374885E+03  0.12699999809E+01 0. -1.
</event>
<event>
 5   0  0.8885324E-03  0.9026891E+03  0.7818609E-02  0.9422226E-01
        1   -1    0    0  501    0  0.00000000000E+00  0.00000000000E+00  0.45244240006E+03  0.45244240009E+03  0.50400001928E-02 0.  1.
       -1   -1    0    0    0  501  0.00000000000E+00  0.00000000000E+00 -0.45024932957E+03  0.45024932959E+03  0.50400001928E-02 0. -1.
    10030    2    1    2    0    0  0.00000000000E+00  0.00000000000E+00  0.21930704928E+01  0.90269172968E+03  0.90268906567E+03 0.  0.
        2    1    3    3  502    0  0.28505482405E+03 -0.29085787879E+03 -0.19347363820E+03  0.45087316071E+03  0.25500000920E-02 0. -1.
       -2    1    3    3    0  502 -0.28505482405E+03  0.29085787879E+03  0.19566670869E+03  0.45181856897E+03  0.25500000920E-02 0.  1.
</event>
<event>
 5   0  0.5770125E-03  0.8844736E+03  0.7818609E-02  0.9445201E-01
        3   -1    0    0  501    0  0.00000000000E+00  0.00000000000E+00  0.84899537786E+03  0.84899538387E+03  0.10100000352E+00 0. -1.
       -3   -1    0    0    0  501  0.00000000000E+00  0.00000000000E+00 -0.23035856075E+03  0.23035858289E+03  0.10100000352E+00 0.  1.
    10030    2    1    2    0    0  0.00000000000E+00  0.00000000000E+00  0.61863681711E+03  0.10793539668E+04  0.88447355759E+03 0.  0.
        3    1    3    3  502    0  0.34286988171E+03 -0.50300046495E+02  0.64459642268E+03  0.73184315860E+03  0.10100000352E+00 0. -1.
       -3    1    3    3    0  502 -0.34286988171E+03  0.50300046495E+02 -0.25959605572E+02  0.34751080815E+03  0.10100000352E+00 0.  1.
</event>
<event>
 5   0  0.8524692E-03  0.8924966E+03  0.7818609E-02  0.9435010E-01
        1   -1    0    0  501    0  0.00000000000E+00  0.00000000000E+00  0.34230144978E+03  0.34230144982E+03  0.50400001928E-02 0. -1.
       -1   -1    0    0    0  501  0.00000000000E+00  0.00000000000E+00 -0.58176072167E+03  0.58176072169E+03  0.50400001928E-02 0.  1.
    10030    2    1    2    0    0  0.00000000000E+00  0.00000000000E+00 -0.23945927188E+03  0.92406217151E+03  0.89249658483E+03 0.  0.
        5    1    3    3  502    0 -0.32632360553E+03 -0.10837895670E+03  0.17472711925E+03  0.38572626301E+03  0.46999998093E+01 0. -1.
       -5    1    3    3    0  502  0.32632360553E+03  0.10837895670E+03 -0.41418639113E+03  0.53833590850E+03  0.46999998093E+01 0.  1.
</event>
<event>
 5   0  0.8885324E-03  0.9211082E+03  0.7818609E-02  0.9399573E-01
        1   -1    0    0  501    0  0.00000000000E+00  0.00000000000E+00  0.40150922690E+03  0.40150922693E+03  0.50400001928E-02 0. -1.
       -1   -1    0    0    0  501  0.00000000000E+00  0.00000000000E+00 -0.52828192749E+03  0.52828192751E+03  0.50400001928E-02 0.  1.
    10030    2    1    2    0    0  0.00000000000E+00  0.00000000000E+00 -0.12677270059E+03  0.92979115445E+03  0.92110817675E+03 0.  0.
        2    1    3    3  502    0 -0.18273470200E+03 -0.28843602947E+03 -0.37536738199E+03  0.50743274025E+03  0.25500000920E-02 0. -1.
       -2    1    3    3    0  502  0.18273470200E+03  0.28843602947E+03  0.24859468140E+03  0.42235841419E+03  0.25500000920E-02 0.  1.
</event>
<event>
 5   0  0.5770125E-03  0.8880464E+03  0.7818609E-02  0.9440649E-01
       -3   -1    0    0    0  501  0.00000000000E+00  0.00000000000E+00  0.19835293207E+03  0.19835295779E+03  0.10100000352E+00 0. -1.
        3   -1    0    0  501    0  0.00000000000E+00  0.00000000000E+00 -0.99396852935E+03  0.99396853448E+03  0.10100000352E+00 0.  1.
    10030    2    1    2    0    0  0.00000000000E+00  0.00000000000E+00 -0.79561559728E+03  0.11923214923E+04  0.88804637396E+03 0.  0.
        2    1    3    3  502    0 -0.21058257299E+03  0.38162578163E+03 -0.28409267374E+03  0.52028060172E+03  0.25500000920E-02 0.  1.
       -2    1    3    3    0  502  0.21058257299E+03 -0.38162578163E+03 -0.51152292354E+03  0.67204089055E+03  0.25500000920E-02 0. -1.
</event>
<event>
 5   0  0.1535906E-02  0.7904402E+03  0.7818609E-02  0.9573958E-01
       -2   -1    0    0    0  501  0.00000000000E+00  0.00000000000E+00  0.31678647790E+03  0.31678647791E+03  0.25500000920E-02 0. -1.
        2   -1    0    0  501    0  0.00000000000E+00  0.00000000000E+00 -0.49307324796E+03  0.49307324796E+03  0.25500000920E-02 0.  1.
    10030    2    1    2    0    0  0.00000000000E+00  0.00000000000E+00 -0.17628677006E+03  0.80985972587E+03  0.79044022563E+03 0.  0.
        2    1    3    3  502    0  0.26730456198E+03  0.96323902584E+02 -0.36960865859E+03  0.46619800898E+03  0.25500000920E-02 0.  1.
       -2    1    3    3    0  502 -0.26730456198E+03 -0.96323902584E+02  0.19332188854E+03  0.34366171689E+03  0.25500000920E-02 0. -1.
</event>
<event>
 5   0  0.1440615E-02  0.9050935E+03  0.7818609E-02  0.9419237E-01
       -2   -1    0    0    0  501  0.00000000000E+00  0.00000000000E+00  0.34830852797E+03  0.34830852798E+03  0.25500000920E-02 0. -1.
        2   -1    0    0  501    0  0.00000000000E+00  0.00000000000E+00 -0.58798038469E+03  0.58798038469E+03  0.25500000920E-02 0.  1.
    10030    2    1    2    0    0  0.00000000000E+00  0.00000000000E+00 -0.23967185672E+03  0.93628891267E+03  0.90509354715E+03 0.  0.
        3    1    3    3  502    0 -0.30296649439E+03  0.29665145180E+03  0.43753065697E+02  0.42626883716E+03  0.10100000352E+00 0.  1.
       -3    1    3    3    0  502  0.30296649439E+03 -0.29665145180E+03 -0.28342492242E+03  0.51002007551E+03  0.10100000352E+00 0. -1.
</event>
<event>
 5   0  0.1535906E-02  0.9060685E+03  0.7818609E-02  0.9418027E-01
       -2   -1    0    0    0  501  0.00000000000E+00  0.00000000000E+00  0.17639542644E+03  0.17639542646E+03  0.25500000920E-02 0.  1.
        2   -1    0    0  501    0  0.00000000000E+00  0.00000000000E+00 -0.11635223134E+04  0.11635223134E+04  0.25500000920E-02 0. -1.
    10030    2    1    2    0    0  0.00000000000E+00  0.00000000000E+00 -0.98712688693E+03  0.13399177398E+04  0.90606846242E+03 0.  0.
        2    1    3    3  502    0 -0.25028161619E+03  0.46816687446E+02 -0.10476938805E+04  0.10781906867E+04  0.25500000920E-02 0. -1.
       -2    1    3    3    0  502  0.25028161619E+03 -0.46816687446E+02  0.60566993568E+02  0.26172705313E+03  0.25500000920E-02 0.  1.
</event>
<event>
 5   0  0.8738044E-03  0.9235105E+03  0.7818609E-02  0.9396660E-01
       -1   -1    0    0    0  501  0.00000000000E+00  0.00000000000E+00  0.62153387360E+03  0.62153387362E+03  0.50400001928E-02 0. -1.
        1   -1    0    0  501    0  0.00000000000E+00  0.00000000000E+00 -0.34305113848E+03  0.34305113852E+03  0.50400001928E-02 0.  1.
    10030    2    1    2    0    0  0.00000000000E+00  0.00000000000E+00  0.27848273512E+03  0.96458501214E+03  0.92351048282E+03 0.  0.
        3    1    3    3  502    0 -0.88557441770E+02 -0.27658676160E+03  0.51420005141E+03  0.59054581555E+03  0.10100000352E+00 0. -1.
       -3    1    3    3    0  502  0.88557441770E+02  0.27658676160E+03 -0.23571731629E+03  0.37403919659E+03  0.10100000352E+00 0.  1.
</event>
<event>
 5   0  0.8524692E-03  0.8891925E+03  0.7818609E-02  0.9439193E-01
        1   -1    0    0  501    0  0.00000000000E+00  0.00000000000E+00  0.32377014353E+03  0.32377014357E+03  0.50400001928E-02 0.  1.
       -1   -1    0    0    0  501  0.00000000000E+00  0.00000000000E+00 -0.61051279574E+03  0.61051279576E+03  0.50400001928E-02 0. -1.
    10030    2    1    2    0    0  0.00000000000E+00  0.00000000000E+00 -0.28674265221E+03  0.93428293932E+03  0.88919247754E+03 0.  0.
        5    1    3    3  502    0  0.36518588411E+03 -0.25013335536E+03 -0.18690038260E+03  0.48050105976E+03  0.46999998093E+01 0. -1.
       -5    1    3    3    0  502 -0.36518588411E+03  0.25013335536E+03 -0.99842269611E+02  0.45378187956E+03  0.46999998093E+01 0.  1.
</event>
<event>
 5   0  0.1441195E-02  0.8992841E+03  0.7818609E-02  0.9426477E-01
       -2   -1    0    0    0  501  0.00000000000E+00  0.00000000000E+00  0.88607413032E+03  0.88607413032E+03  0.25500000920E-02 0.  1.
        2   -1    0    0  501    0  0.00000000000E+00  0.00000000000E+00 -0.22817276319E+03  0.22817276321E+03  0.25500000920E-02 0. -1.
    10030    2    1    2    0    0  0.00000000000E+00  0.00000000000E+00  0.65790136712E+03  0.11142468935E+04  0.89928412133E+03 0.  0.
        5    1    3    3  502    0 -0.29810519758E+03 -0.12511332905E+03  0.71610948585E+03  0.78571937716E+03  0.46999998093E+01 0. -1.
       -5    1    3    3    0  502  0.29810519758E+03  0.12511332905E+03 -0.58208118721E+02  0.32852751637E+03  0.46999998093E+01 0.  1.
</event>
<event>
 5   0  0.8524692E-03  0.8798796E+03  0.7818609E-02  0.9451088E-01
       -1   -1    0    0    0  501  0.00000000000E+00  0.00000000000E+00  0.24240878319E+03  0.24240878324E+03  0.50400001928E-02 0. -1.
        1   -1    0    0  501    0  0.00000000000E+00  0.00000000000E+00 -0.79843236752E+03  0.79843236754E+03  0.50400001928E-02 0.  1.
    10030    2    1    2    0    0  0.00000000000E+00  0.00000000000E+00 -0.55602358433E+03  0.10408411508E+04  0.87987957973E+03 0.  0.
        5    1    3    3  502    0  0.12019636033E+03  0.22761311662E+03 -0.70002329965E+03  0.74586165335E+03  0.46999998093E+01 0.  1.
       -5    1    3    3    0  502 -0.12019636033E+03 -0.22761311662E+03  0.14399971532E+03  0.29497949743E+03  0.46999998093E+01 0. -1.
</event>
<event>
 5   0  0.8885324E-03  0.8863981E+03  0.7818609E-02  0.9442746E-01
        1   -1    0    0  501    0  0.00000000000E+00  0.00000000000E+00  0.56700878507E+03  0.56700878509E+03  0.50400001928E-02 0.  1.
       -1   -1    0    0    0  501  0.00000000000E+00  0.00000000000E+00 -0.34642391102E+03  0.34642391106E+03  0.50400001928E-02 0. -1.
    10030    2    1    2    0    0  0.00000000000E+00  0.00000000000E+00  0.22058487404E+03  0.91343269615E+03  0.88639810680E+03 0.  0.
        2    1    3    3  502    0 -0.55855614365E+01 -0.35860625195E+03  0.37860993479E+03  0.52151234421E+03  0.25500000920E-02 0.  1.
       -2    1    3    3    0  502  0.55855614365E+01  0.35860625195E+03 -0.15802506074E+03  0.39192035194E+03  0.25500000920E-02 0. -1.
</event>
<event>
 5   0  0.1441195E-02  0.9047782E+03  0.7818609E-02  0.9419628E-01
        2   -1    0    0  501    0  0.00000000000E+00  0.00000000000E+00  0.53971997000E+03  0.53971997000E+03  0.25500000920E-02 0.  1.
       -2   -1    0    0    0  501  0.00000000000E+00  0.00000000000E+00 -0.37918907201E+03  0.37918907202E+03  0.25500000920E-02 0. -1.
    10030    2    1    2    0    0  0.00000000000E+00  0.00000000000E+00  0.16053089799E+03  0.91890904203E+03  0.90477823709E+03 0.  0.
        5    1    3    3  502    0 -0.21092017653E+03 -0.21242826249E+03  0.42470931271E+03  0.51962792254E+03  0.46999998093E+01 0.  1.
       -5    1    3    3    0  502  0.21092017653E+03  0.21242826249E+03 -0.26417841473E+03  0.39928111949E+03  0.46999998093E+01 0. -1.
</event>
<event>
 5   0  0.8291252E-03  0.9270371E+03  0.7818609E-02  0.9392401E-01
        1   -1    0    0  501    0  0.00000000000E+00  0.00000000000E+00  0.66626419322E+03  0.66626419324E+03  0.50400001928E-02 0. -1.
       -1   -1    0    0    0  501  0.00000000000E+00  0.00000000000E+00 -0.32246886417E+03  0.32246886421E+03  0.50400001928E-02 0.  1.
    10030    2    1    2    0    0  0.00000000000E+00  0.00000000000E+00  0.34379532905E+03  0.98873305745E+03  0.92703712473E+03 0.  0.
        1    1    3    3  502    0 -0.18692441809E+03 -0.27804132444E+03 -0.16973492605E+03  0.37557643872E+03  0.50400001928E-02 0.  1.
       -1    1    3    3    0  502  0.18692441809E+03  0.27804132444E+03  0.51353025510E+03  0.61315661874E+03  0.50400001928E-02 0. -1.
</event>
<event>
 5   0  0.1440615E-02  0.9059951E+03  0.7818609E-02  0.9418118E-01
       -2   -1    0    0    0  501  0.00000000000E+00  0.00000000000E+00  0.10979871878E+03  0.10979871881E+03  0.25500000920E-02 0.  1.
        2   -1    0    0  501    0  0.00000000000E+00  0.00000000000E+00 -0.18689361616E+04  0.18689361616E+04  0.25500000920E-02 0. -1.
    10030    2    1    2    0    0  0.00000000000E+00  0.00000000000E+00 -0.17591374428E+04  0.19787348804E+04  0.90599513477E+03 0.  0.
        3    1    3    3  502    0  0.30019088197E+03 -0.35348986570E+02 -0.16164784316E+04  0.16444958639E+04  0.10100000352E+00 0. -1.
       -3    1    3    3    0  502 -0.30019088197E+03  0.35348986570E+02 -0.14265901127E+03  0.33423901653E+03  0.10100000352E+00 0.  1.
</event>
<event>
 5   0  0.1483326E-02  0.9155901E+03  0.7818609E-02  0.9406300E-01
       -2   -1    0    0    0  501  0.00000000000E+00  0.00000000000E+00  0.19645398134E+03  0.19645398135E+03  0.25500000920E-02 0. -1.
        2   -1    0    0  501    0  0.00000000000E+00  0.00000000000E+00 -0.10667958356E+04  0.10667958356E+04  0.25500000920E-02 0.  1.
    10030    2    1    2    0    0  0.00000000000E+00  0.00000000000E+00 -0.87034185426E+03  0.12632498170E+04  0.91559005933E+03 0.  0.
        1    1    3    3  502    0  0.14139086954E+03  0.63655501525E+02 -0.10294612082E+04  0.10410733788E+04  0.50400001928E-02 0.  1.
       -1    1    3    3    0  502 -0.14139086954E+03 -0.63655501525E+02  0.15911935391E+03  0.22217643817E+03  0.50400001928E-02 0. -1.
</event>
<event>
 5   0  0.1440615E-02  0.8994041E+03  0.7818609E-02  0.9426327E-01
       -2   -1    0    0    0  501  0.00000000000E+00  0.00000000000E+00  0.23236534496E+03  0.23236534497E+03  0.25500000920E-02 0.  1.
        2   -1    0    0  501    0  0.00000000000E+00  0.00000000000E+00 -0.87031874988E+03  0.87031874988E+03  0.25500000920E-02 0. -1.
    10030    2    1    2    0    0  0.00000000000E+00  0.00000000000E+00 -0.63795340492E+03  0.11026840949E+04  0.89940406170E+03 0.  0.
        3    1    3    3  502    0  0.37309593306E+03 -0.15489714181E+03 -0.56121410143E+03  0.69148751084E+03  0.10100000352E+00 0. -1.
       -3    1    3    3    0  502 -0.37309593306E+03  0.15489714181E+03 -0.76739303493E+02  0.41119658402E+03  0.10100000352E+00 0.  1.
</event>
<event>
 5   0  0.5770125E-03  0.8901700E+03  0.7818609E-02  0.9437954E-01
       -4   -1    0    0    0  501  0.00000000000E+00  0.00000000000E+00  0.11140121904E+04  0.11140129143E+04  0.12699999809E+01 0. -1.
        4   -1    0    0  501    0  0.00000000000E+00  0.00000000000E+00 -0.17782323462E+03  0.17782776968E+03  0.12699999809E+01 0.  1.
    10030    2    1    2    0    0  0.00000000000E+00  0.00000000000E+00  0.93618895574E+03  0.12918406840E+04  0.89016997920E+03 0.  0.
        1    1    3    3  502    0  0.39911515748E+03 -0.17656127276E+02  0.18335753502E+03  0.43957324013E+03  0.50400001928E-02 0. -1.
       -1    1    3    3    0  502 -0.39911515748E+03  0.17656127276E+02  0.75283142072E+03  0.85226744383E+03  0.50400001928E-02 0.  1.
</event>
<event>
 5   0  0.1454652E-02  0.8948942E+03  0.7818609E-02  0.9431986E-01
        2   -1    0    0  501    0  0.00000000000E+00  0.00000000000E+00  0.84401963947E+03  0.84401963948E+03  0.25500000920E-02 0.  1.
       -2   -1    0    0    0  501  0.00000000000E+00  0.00000000000E+00 -0.23720884408E+03  0.23720884409E+03  0.25500000920E-02 0. -1.
    10030    2    1    2    0    0  0.00000000000E+00  0.00000000000E+00  0.60681079539E+03  0.10812284836E+04  0.89489423524E+03 0.  0.
        4    1    3    3  502    0  0.38585306474E+02  0.42210756253E+03  0.47658031687E+03  0.63780406988E+03  0.12699999809E+01 0.  1.
       -4    1    3    3    0  502 -0.38585306474E+02 -0.42210756253E+03  0.13023047852E+03  0.44342441369E+03  0.12699999809E+01 0. -1.
</event>
<event>
 5   0  0.8524692E-03  0.9019748E+03  0.7818609E-02  0.9423116E-01
        1   -1    0    0  501    0  0.00000000000E+00  0.00000000000E+00  0.69532704698E+03  0.69532704700E+03  0.50400001928E-02 0. -1.
       -1   -1    0    0    0  501  0.00000000000E+00  0.00000000000E+00 -0.29250929470E+03  0.29250929474E+03  0.50400001928E-02 0.  1.
    10030    2    1    2    0    0  0.00000000000E+00  0.00000000000E+00  0.40281775229E+03  0.98783634174E+03  0.90197477598E+03 0.  0.
        5    1    3    3  502    0 -0.16103100917E+03  0.20137118376E+03 -0.20379205258E+03  0.32868621854E+03  0.46999998093E+01 0.  1.
       -5    1    3    3    0  502  0.16103100917E+03 -0.20137118376E+03  0.60660980486E+03  0.65915012320E+03  0.46999998093E+01 0. -1.
</event>
<event>
 5   0  0.5770125E-03  0.9021319E+03  0.7818609E-02  0.9422920E-01
        4   -1    0    0  501    0  0.00000000000E+00  0.00000000000E+00  0.79422056312E+03  0.79422157851E+03  0.12699999809E+01 0.  1.
       -4   -1    0    0    0  501  0.00000000000E+00  0.00000000000E+00 -0.25617355931E+03  0.25617670735E+03  0.12699999809E+01 0. -1.
    10030    2    1    2    0    0  0.00000000000E+00  0.00000000000E+00  0.53804700381E+03  0.10503982859E+04  0.90213190866E+03 0.  0.
        4    1    3    3  502    0  0.34520700306E+03  0.62897037641E+02  0.59904047598E+03  0.69424420564E+03  0.12699999809E+01 0.  1.
       -4    1    3    3    0  502 -0.34520700306E+03 -0.62897037641E+02 -0.60993472167E+02  0.35615408022E+03  0.12699999809E+01 0. -1.
</event>
<event>
 5   0  0.5770125E-03  0.9018636E+03  0.7818609E-02  0.9423255E-01
        3   -1    0    0  501    0  0.00000000000E+00  0.00000000000E+00  0.27290121181E+03  0.27290123050E+03  0.10100000352E+00 0.  1.
       -3   -1    0    0    0  501  0.00000000000E+00  0.00000000000E+00 -0.74510286330E+03  0.74510287014E+03  0.10100000352E+00 0. -1.
    10030    2    1    2    0    0  0.00000000000E+00  0.00000000000E+00 -0.47220165149E+03  0.10180041006E+04  0.90186359791E+03 0.  0.
        1    1    3    3  502    0 -0.35199102702E+03  0.90394474004E+02 -0.53744583890E+03  0.64878106770E+03  0.50400001928E-02 0. -1.
       -1    1    3    3    0  502  0.35199102702E+03 -0.90394474004E+02  0.65244187411E+02  0.36922303293E+03  0.50400001928E-02 0.  1.
</event>
<event>
 5   0  0.5770125E-03  0.8960788E+03  0.7818609E-02  0.9430496E-01
       -3   -1    0    0    0  501  0.00000000000E+00  0.00000000000E+00  0.32120290566E+03  0.32120292154E+03  0.10100000352E+00 0.  1.
        3   -1    0    0  501    0  0.00000000000E+00  0.00000000000E+00 -0.62496103311E+03  0.62496104127E+03  0.10100000352E+00 0. -1.
    10030    2    1    2    0    0  0.00000000000E+00  0.00000000000E+00 -0.30375812746E+03  0.94616396281E+03  0.89607881602E+03 0.  0.
        1    1    3    3  502    0 -0.14376657099E+03  0.27803751976E+03 -0.49036772053E+03  0.58175096965E+03  0.50400001928E-02 0. -1.
       -1    1    3    3    0  502  0.14376657099E+03 -0.27803751976E+03  0.18660959307E+03  0.36441299316E+03  0.50400001928E-02 0.  1.
</event>
<event>
 5   0  0.8524692E-03  0.8719091E+03  0.7818609E-02  0.9461394E-01
        1   -1    0    0  501    0  0.00000000000E+00  0.00000000000E+00  0.58183532280E+03  0.58183532282E+03  0.50400001928E-02 0.  1.
       -1   -1    0    0    0  501  0.00000000000E+00  0.00000000000E+00 -0.32664975180E+03  0.32664975184E+03  0.50400001928E-02 0. -1.
    10030    2    1    2    0    0  0.00000000000E+00  0.00000000000E+00  0.25518557100E+03  0.90848507466E+03  0.87190908656E+03 0.  0.
        5    1    3    3  502    0 -0.42956002467E+03  0.45899291950E+02  0.66786191022E+02  0.43716249280E+03  0.46999998093E+01 0. -1.
       -5    1    3    3    0  502  0.42956002467E+03 -0.45899291950E+02  0.18839937998E+03  0.47132258186E+03  0.46999998093E+01 0.  1.
</event>
<event>
 5   0  0.8885324E-03  0.9075664E+03  0.7818609E-02  0.9416172E-01
       -1   -1    0    0    0  501  0.00000000000E+00  0.00000000000E+00  0.14197040586E+03  0.14197040595E+03  0.50400001928E-02 0. -1.
        1   -1    0    0  501    0  0.00000000000E+00  0.00000000000E+00 -0.14504375502E+04  0.14504375502E+04  0.50400001928E-02 0.  1.
    10030    2    1    2    0    0  0.00000000000E+00  0.00000000000E+00 -0.13084671443E+04  0.15924079561E+04  0.90756643338E+03 0.  0.
        2    1    3    3  502    0 -0.40241793600E+03 -0.17345913165E+02 -0.28753607891E+03  0.49489198074E+03  0.25500000920E-02 0. -1.
       -2    1    3    3    0  502  0.40241793600E+03  0.17345913165E+02 -0.10209310654E+04  0.10975159754E+04  0.25500000920E-02 0.  1.
</event>
<event>
 5   0  0.8738044E-03  0.8705274E+03  0.7818609E-02  0.9463193E-01
       -1   -1    0    0    0  501  0.00000000000E+00  0.00000000000E+00  0.13813237363E+03  0.13813237373E+03  0.50400001928E-02 0. -1.
        1   -1    0    0  501    0  0.00000000000E+00  0.00000000000E+00 -0.13715428733E+04  0.13715428733E+04  0.50400001928E-02 0.  1.
    10030    2    1    2    0    0  0.00000000000E+00  0.00000000000E+00 -0.12334104997E+04  0.15096752471E+04  0.87052736364E+03 0.  0.
        3    1    3    3  502    0 -0.16816350803E+03  0.26617891606E+03 -0.95506499659E+02  0.32901623435E+03  0.10100000352E+00 0. -1.
       -3    1    3    3    0  502  0.16816350803E+03 -0.26617891606E+03 -0.11379040000E+04  0.11806590127E+04  0.10100000352E+00 0.  1.
</event>
<event>
 5   0  0.8524692E-03  0.8882066E+03  0.7818609E-02  0.9440445E-01
       -1   -1    0    0    0  501  0.00000000000E+00  0.00000000000E+00  0.18799294909E+03  0.18799294916E+03  0.50400001928E-02 0.  1.
        1   -1    0    0  501    0  0.00000000000E+00  0.00000000000E+00 -0.10491231337E+04  0.10491231337E+04  0.50400001928E-02 0. -1.
    10030    2    1    2    0    0  0.00000000000E+00  0.00000000000E+00 -0.86113018459E+03  0.12371160828E+04  0.88820662441E+03 0.  0.
        5    1    3    3  502    0 -0.23234094302E+03 -0.29945989837E+03 -0.75286820002E+03  0.84290637744E+03  0.46999998093E+01 0. -1.
       -5    1    3    3    0  502  0.23234094302E+03  0.29945989837E+03 -0.10826198457E+03  0.39420970541E+03  0.46999998093E+01 0.  1.
</event>
<event>
 5   0  0.1441195E-02  0.8714289E+03  0.7818609E-02  0.9462019E-01
       -2   -1    0    0    0  501  0.00000000000E+00  0.00000000000E+00  0.37046306088E+03  0.37046306088E+03  0.25500000920E-02 0.  1.
        2   -1    0    0  501    0  0.00000000000E+00  0.00000000000E+00 -0.51245888732E+03  0.51245888733E+03  0.25500000920E-02 0. -1.
    10030    2    1    2    0    0  0.00000000000E+00  0.00000000000E+00 -0.14199582645E+03  0.88292194821E+03  0.87142891386E+03 0.  0.
        5    1    3    3  502    0 -0.17390286331E+00  0.23827850145E+03  0.29857067464E+03  0.38202514609E+03  0.46999998093E+01 0.  1.
       -5    1    3    3    0  502  0.17390286331E+00 -0.23827850145E+03 -0.44056650109E+03  0.50089680212E+03  0.46999998093E+01 0. -1.
</event>
<event>
 5   0  0.8291252E-03  0.8982317E+03  0.7818609E-02  0.9427795E-01
       -1   -1    0    0    0  501  0.00000000000E+00  0.00000000000E+00  0.19415665648E+03  0.19415665654E+03  0.50400001928E-02 0. -1.
        1   -1    0    0  501    0  0.00000000000E+00  0.00000000000E+00 -0.10388777332E+04  0.10388777332E+04  0.50400001928E-02 0.  1.
    10030    2    1    2    0    0  0.00000000000E+00  0.00000000000E+00 -0.84472107670E+03  0.12330343897E+04  0.89823165655E+03 0.  0.
        1    1    3    3  502    0  0.11099165984E+03 -0.38135780591E+03 -0.13456990172E+03  0.41935901464E+03  0.50400001928E-02 0.  1.
       -1    1    3    3    0  502 -0.11099165984E+03  0.38135780591E+03 -0.71015117497E+03  0.81367537509E+03  0.50400001928E-02 0. -1.
</event>
<event>
 5   0  0.8524692E-03  0.8872954E+03  0.7818609E-02  0.9441604E-01
       -1   -1    0    0    0  501  0.00000000000E+00  0.00000000000E+00  0.52319088391E+03  0.52319088393E+03  0.50400001928E-02 0.  1.
        1   -1    0    0  501    0  0.00000000000E+00  0.00000000000E+00 -0.37619781200E+03  0.37619781203E+03  0.50400001928E-02 0. -1.
    10030    2    1    2    0    0  0.00000000000E+00  0.00000000000E+00  0.14699307191E+03  0.89938869596E+03  0.88729536414E+03 0.  0.
        5    1    3    3  502    0 -0.26802342365E+03  0.27327919428E+03  0.30079172522E+03  0.48684271136E+03  0.46999998093E+01 0.  1.
       -5    1    3    3    0  502  0.26802342365E+03 -0.27327919428E+03 -0.15379865331E+03  0.41254598460E+03  0.46999998093E+01 0. -1.
</event>
<event>
 5   0  0.8612969E-03  0.8933920E+03  0.7818609E-02  0.9433880E-01
        1   -1    0    0  501    0  0.00000000000E+00  0.00000000000E+00  0.84893310847E+03  0.84893310848E+03  0.50400001928E-02 0.  1.
       -1   -1    0    0    0  501  0.00000000000E+00  0.00000000000E+00 -0.23504478981E+03  0.23504478987E+03  0.50400001928E-02 0. -1.
    10030    2    1    2    0    0  0.00000000000E+00  0.00000000000E+00  0.61388831866E+03  0.10839778984E+04  0.89339197239E+03 0.  0.
        4    1    3    3  502    0  0.28487868715E+03 -0.34405855825E+03  0.30466346010E+03  0.54069732264E+03  0.12699999809E+01 0.  1.
       -4    1    3    3    0  502 -0.28487868715E+03  0.34405855825E+03  0.30922485856E+03  0.54328057571E+03  0.12699999809E+01 0. -1.
</event>
<event>
 5   0  0.8885324E-03  0.9285846E+03  0.7818609E-02  0.9390538E-01
        1   -1    0    0  501    0  0.00000000000E+00  0.00000000000E+00  0.42986006002E+03  0.42986006005E+03  0.50400001928E-02 0. -1.
       -1   -1    0    0    0  501  0.00000000000E+00  0.00000000000E+00 -0.50148257621E+03  0.50148257624E+03  0.50400001928E-02 0.  1.
    10030    2    1    2    0    0  0.00000000000E+00  0.00000000000E+00 -0.71622516193E+02  0.93134263629E+03  0.92858457953E+03 0.  0.
        2    1    3    3  502    0 -0.24424455203E+02  0.45990699891E+03  0.23153909207E+02  0.46113675322E+03  0.25500000920E-02 0.  1.
       -2    1    3    3    0  502  0.24424455203E+02 -0.45990699891E+03 -0.94776425400E+02  0.47020588307E+03  0.25500000920E-02 0. -1.
</event>
<event>
 5   0  0.1535906E-02  0.8991997E+03  0.7818609E-02  0.9426582E-01
        2   -1    0    0  501    0  0.00000000000E+00  0.00000000000E+00  0.14885145031E+04  0.14885145031E+04  0.25500000920E-02 0.  1.
       -2   -1    0    0    0  501  0.00000000000E+00  0.00000000000E+00 -0.13579982946E+03  0.13579982949E+03  0.25500000920E-02 0. -1.
    10030    2    1    2    0    0  0.00000000000E+00  0.00000000000E+00  0.13527146736E+04  0.16243143326E+04  0.89919967903E+03 0.  0.
        2    1    3    3  502    0 -0.19239847860E+03 -0.33766965661E+03  0.10847078160E+04  0.11522278497E+04  0.25500000920E-02 0.  1.
       -2    1    3    3    0  502  0.19239847860E+03  0.33766965661E+03  0.26800685764E+03  0.47208648288E+03  0.25500000920E-02 0. -1.
</event>
<event>
 5   0  0.1440615E-02  0.9057163E+03  0.7818609E-02  0.9418464E-01
        2   -1    0    0  501    0  0.00000000000E+00  0.00000000000E+00  0.28671935296E+03  0.28671935297E+03  0.25500000920E-02 0.  1.
       -2   -1    0    0    0  501  0.00000000000E+00  0.00000000000E+00 -0.71526569799E+03  0.71526569800E+03  0.25500000920E-02 0. -1.
    10030    2    1    2    0    0  0.00000000000E+00  0.00000000000E+00 -0.42854634504E+03  0.10019850510E+04  0.90571633115E+03 0.  0.
        3    1    3    3  502    0  0.37675263279E+02 -0.44637661965E+03 -0.28773113715E+03  0.53241030185E+03  0.10100000352E+00 0. -1.
       -3    1    3    3    0  502 -0.37675263279E+02  0.44637661965E+03 -0.14081520789E+03  0.46957474911E+03  0.10100000352E+00 0.  1.
</event>
<event>
 5   0  0.1454652E-02  0.8946716E+03  0.7818609E-02  0.9432267E-01
        2   -1    0    0  501    0  0.00000000000E+00  0.00000000000E+00  0.13101036449E+04  0.13101036449E+04  0.25500000920E-02 0. -1.
       -2   -1    0    0    0  501  0.00000000000E+00  0.00000000000E+00 -0.15274312663E+03  0.15274312665E+03  0.25500000920E-02 0.  1.
    10030    2    1    2    0    0  0.00000000000E+00  0.00000000000E+00  0.11573605183E+04  0.14628467716E+04  0.89467162010E+03 0.  0.
        4    1    3    3  502    0 -0.92950014079E+02  0.29820841411E+03  0.11022581567E+04  0.11456625246E+04  0.12699999809E+01 0. -1.
       -4    1    3    3    0  502  0.92950014079E+02 -0.29820841411E+03  0.55102361556E+02  0.31718424694E+03  0.12699999809E+01 0.  1.
</event>
<event>
 5   0  0.8738044E-03  0.9011532E+03  0.7818609E-02  0.9424141E-01
       -1   -1    0    0    0  501  0.00000000000E+00  0.00000000000E+00  0.27430140465E+03  0.27430140469E+03  0.50400001928E-02 0. -1.
        1   -1    0    0  501    0  0.00000000000E+00  0.00000000000E+00 -0.74013201437E+03  0.74013201438E+03  0.50400001928E-02 0.  1.
    10030    2    1    2    0    0  0.00000000000E+00  0.00000000000E+00 -0.46583060972E+03  0.10144334191E+04  0.90115315279E+03 0.  0.
        3    1    3    3  502    0  0.30555350137E+03 -0.12788181403E+03  0.11093679110E+03  0.34931888352E+03  0.10100000352E+00 0. -1.
       -3    1    3    3    0  502 -0.30555350137E+03  0.12788181403E+03 -0.57676740082E+03  0.66511453556E+03  0.10100000352E+00 0.  1.
</event>
<event>
 5   0  0.1483326E-02  0.9168373E+03  0.7818609E-02  0.9404775E-01
       -2   -1    0    0    0  501  0.00000000000E+00  0.00000000000E+00  0.47486729514E+03  0.47486729515E+03  0.25500000920E-02 0. -1.
        2   -1    0    0  501    0  0.00000000000E+00  0.00000000000E+00 -0.44253971861E+03  0.44253971862E+03  0.25500000920E-02 0.  1.
    10030    2    1    2    0    0  0.00000000000E+00  0.00000000000E+00  0.32327576531E+02  0.91740701376E+03  0.91683725748E+03 0.  0.
        1    1    3    3  502    0 -0.20996403162E+03 -0.39079174417E+03  0.13175422045E+03  0.46277668104E+03  0.50400001928E-02 0.  1.
       -1    1    3    3    0  502  0.20996403162E+03  0.39079174417E+03 -0.99426643915E+02  0.45463033272E+03  0.50400001928E-02 0. -1.
</event>
<event>
 5   0  0.1441195E-02  0.9002944E+03  0.7818609E-02  0.9425213E-01
        2   -1    0    0  501    0  0.00000000000E+00  0.00000000000E+00  0.99571784061E+03  0.99571784061E+03  0.25500000920E-02 0. -1.
       -2   -1    0    0    0  501  0.00000000000E+00  0.00000000000E+00 -0.20350394527E+03  0.20350394529E+03  0.25500000920E-02 0.  1.
    10030    2    1    2    0    0  0.00000000000E+00  0.00000000000E+00  0.79221389534E+03  0.11992217859E+04  0.90029441618E+03 0.  0.
        5    1    3    3  502    0 -0.50836935691E+02  0.39308003333E+03  0.68028333672E+03  0.78733970740E+03  0.46999998093E+01 0.  1.
       -5    1    3    3    0  502  0.50836935691E+02 -0.39308003333E+03  0.11193055862E+03  0.41188207850E+03  0.46999998093E+01 0. -1.
</event>
<event>
 5   0  0.8612969E-03  0.8946645E+03  0.7818609E-02  0.9432276E-01
        1   -1    0    0  501    0  0.00000000000E+00  0.00000000000E+00  0.81137526940E+03  0.81137526941E+03  0.50400001928E-02 0.  1.
       -1   -1    0    0    0  501  0.00000000000E+00  0.00000000000E+00 -0.24662590423E+03  0.24662590428E+03  0.50400001928E-02 0. -1.
    10030    2    1    2    0    0  0.00000000000E+00  0.00000000000E+00  0.56474936517E+03  0.10580011737E+04  0.89466453941E+03 0.  0.
        4    1    3    3  502    0  0.16767620348E+03 -0.20369378108E+03  0.70957147969E+03  0.75703352855E+03  0.12699999809E+01 0.  1.
       -4    1    3    3    0  502 -0.16767620348E+03  0.20369378108E+03 -0.14482211452E+03  0.30096764514E+03  0.12699999809E+01 0. -1.
</event>
<event>
 5   0  0.8885324E-03  0.8860369E+03  0.7818609E-02  0.9443206E-01
        1   -1    0    0  501    0  0.00000000000E+00  0.00000000000E+00  0.19556470189E+03  0.19556470195E+03  0.50400001928E-02 0.  1.
       -1   -1    0    0    0  501  0.00000000000E+00  0.00000000000E+00 -0.10035827053E+04  0.10035827053E+04  0.50400001928E-02 0. -1.
    10030    2    1    2    0    0  0.00000000000E+00  0.00000000000E+00 -0.80801800344E+03  0.11991474073E+04  0.88603691263E+03 0.  0.
        2    1    3    3  502    0  0.34311180099E+03  0.23618145507E+03 -0.60817690537E+03  0.73714756727E+03  0.25500000920E-02 0. -1.
       -2    1    3    3    0  502 -0.34311180099E+03 -0.23618145507E+03 -0.19984109806E+03  0.46199984002E+03  0.25500000920E-02 0.  1.
</event>
<event>
 5   0  0.8885324E-03  0.8788570E+03  0.7818609E-02  0.9452404E-01
       -1   -1    0    0    0  501  0.00000000000E+00  0.00000000000E+00  0.23043773913E+03  0.23043773919E+03  0.50400001928E-02 0.  1.
        1   -1    0    0  501    0  0.00000000000E+00  0.00000000000E+00 -0.83795909445E+03  0.83795909446E+03  0.50400001928E-02 0. -1.
    10030    2    1    2    0    0  0.00000000000E+00  0.00000000000E+00 -0.60752135531E+03  0.10683968336E+04  0.87885698324E+03 0.  0.
        2    1    3    3  502    0 -0.54765982021E+02  0.15008437461E+03  0.19388026576E+03  0.25122537639E+03  0.25500000920E-02 0.  1.
       -2    1    3    3    0  502  0.54765982021E+02 -0.15008437461E+03 -0.80140162107E+03  0.81717145725E+03  0.25500000920E-02 0. -1.
</event>
<event>
 5   0  0.8738044E-03  0.8898617E+03  0.7818609E-02  0.9438344E-01
       -1   -1    0    0    0  501  0.00000000000E+00  0.00000000000E+00  0.22380465160E+03  0.22380465166E+03  0.50400001928E-02 0. -1.
        1   -1    0    0  501    0  0.00000000000E+00  0.00000000000E+00 -0.88453677245E+03  0.88453677246E+03  0.50400001928E-02 0.  1.
    10030    2    1    2    0    0  0.00000000000E+00  0.00000000000E+00 -0.66073212085E+03  0.11083414241E+04  0.88986166167E+03 0.  0.
        3    1    3    3  502    0  0.21751598997E+03  0.21095368059E+03 -0.73616280412E+03  0.79608438348E+03  0.10100000352E+00 0.  1.
       -3    1    3    3    0  502 -0.21751598997E+03 -0.21095368059E+03  0.75430683279E+02  0.31225704064E+03  0.10100000352E+00 0. -1.
</event>
<event>
 5   0  0.8885324E-03  0.9113888E+03  0.7818609E-02  0.9411456E-01
       -1   -1    0    0    0  501  0.00000000000E+00  0.00000000000E+00  0.11786657723E+03  0.11786657734E+03  0.50400001928E-02 0. -1.
        1   -1    0    0  501    0  0.00000000000E+00  0.00000000000E+00 -0.17618002875E+04  0.17618002875E+04  0.50400001928E-02 0.  1.
    10030    2    1    2    0    0  0.00000000000E+00  0.00000000000E+00 -0.16439337103E+04  0.18796668649E+04  0.91138876395E+03 0.  0.
        2    1    3    3  502    0 -0.24648898853E+03 -0.13574024294E+03 -0.82724645504E+02  0.29330121377E+03  0.25500000920E-02 0. -1.
       -2    1    3    3    0  502  0.24648898853E+03  0.13574024294E+03 -0.15612090648E+04  0.15863656511E+04  0.25500000920E-02 0.  1.
</event>
<event>
 5   0  0.1535906E-02  0.8959080E+03  0.7818609E-02  0.9430711E-01
        2   -1    0    0  501    0  0.00000000000E+00  0.00000000000E+00  0.26361082598E+04  0.26361082598E+04  0.25500000920E-02 0.  1.
       -2   -1    0    0    0  501  0.00000000000E+00  0.00000000000E+00 -0.76120846941E+02  0.76120846984E+02  0.25500000920E-02 0. -1.
    10030    2    1    2    0    0  0.00000000000E+00  0.00000000000E+00  0.25599874129E+04  0.27122291068E+04  0.89590801632E+03 0.  0.
        2    1    3    3  502    0  0.12269764206E+03  0.39069974549E+02  0.25788711135E+04  0.25820839247E+04  0.25500000920E-02 0.  1.
       -2    1    3    3    0  502 -0.12269764206E+03 -0.39069974549E+02 -0.18883700571E+02  0.13014518213E+03  0.25500000920E-02 0. -1.
</event>
<event>
 5   0  0.1535906E-02  0.8355110E+03  0.7818609E-02  0.9509993E-01
        2   -1    0    0  501    0  0.00000000000E+00  0.00000000000E+00  0.24417243314E+04  0.24417243314E+04  0.25500000920E-02 0.  1.
       -2   -1    0    0    0  501  0.00000000000E+00  0.00000000000E+00 -0.71473944069E+02  0.71473944115E+02  0.25500000920E-02 0. -1.
    10030    2    1    2    0    0  0.00000000000E+00  0.00000000000E+00  0.23702503874E+04  0.25131982755E+04  0.83551102532E+03 0.  0.
        2    1    3    3  502    0 -0.39408592041E+03  0.13862156807E+03  0.11847382573E+04  0.12562342099E+04  0.25500000920E-02 0.  1.
       -2    1    3    3    0  502  0.39408592041E+03 -0.13862156807E+03  0.11855121301E+04  0.12569640657E+04  0.25500000920E-02 0. -1.
</event>
<event>
 5   0  0.1440615E-02  0.9411021E+03  0.7818609E-02  0.9375612E-01
        2   -1    0    0  501    0  0.00000000000E+00  0.00000000000E+00  0.60791471804E+03  0.60791471805E+03  0.25500000920E-02 0.  1.
       -2   -1    0    0    0  501  0.00000000000E+00  0.00000000000E+00 -0.36422587031E+03  0.36422587032E+03  0.25500000920E-02 0. -1.
    10030    2    1    2    0    0  0.00000000000E+00  0.00000000000E+00  0.24368884773E+03  0.97214058837E+03  0.94110205029E+03 0.  0.
        3    1    3    3  502    0  0.34375555741E+03 -0.58386329402E+02 -0.20455374226E+03  0.40425127134E+03  0.10100000352E+00 0. -1.
       -3    1    3    3    0  502 -0.34375555741E+03  0.58386329402E+02  0.44824258999E+03  0.56788931703E+03  0.10100000352E+00 0.  1.
</event>
<event>
 5   0  0.5770125E-03  0.9061280E+03  0.7818609E-02  0.9417953E-01
        3   -1    0    0  501    0  0.00000000000E+00  0.00000000000E+00  0.31238027055E+03  0.31238028687E+03  0.10100000352E+00 0. -1.
       -3   -1    0    0    0  501  0.00000000000E+00  0.00000000000E+00 -0.65710607722E+03  0.65710608498E+03  0.10100000352E+00 0.  1.
    10030    2    1    2    0    0  0.00000000000E+00  0.00000000000E+00 -0.34472580668E+03  0.96948637186E+03  0.90612799506E+03 0.  0.
        3    1    3    3  502    0 -0.24547588076E+02  0.26823306203E+03 -0.56213688599E+03  0.62333734722E+03  0.10100000352E+00 0.  1.
       -3    1    3    3    0  502  0.24547588076E+02 -0.26823306203E+03  0.21741107932E+03  0.34614902464E+03  0.10100000352E+00 0. -1.
</event>
<event>
 5   0  0.8291252E-03  0.9060867E+03  0.7818609E-02  0.9418005E-01
        1   -1    0    0  501    0  0.00000000000E+00  0.00000000000E+00  0.16904890654E+03  0.16904890662E+03  0.50400001928E-02 0. -1.
       -1   -1    0    0    0  501  0.00000000000E+00  0.00000000000E+00 -0.12141353597E+04  0.12141353597E+04  0.50400001928E-02 0.  1.
    10030    2    1    2    0    0  0.00000000000E+00  0.00000000000E+00 -0.10450864531E+04  0.13831842663E+04  0.90608665150E+03 0.  0.
        1    1    3    3  502    0 -0.25836856595E+03  0.37190715299E+03 -0.54296753393E+03  0.70702403725E+03  0.50400001928E-02 0. -1.
       -1    1    3    3    0  502  0.25836856595E+03 -0.37190715299E+03 -0.50211891920E+03  0.67616022906E+03  0.50400001928E-02 0.  1.
</event>
<event>
 5   0  0.8885324E-03  0.9805703E+03  0.7818609E-02  0.9330115E-01
       -1   -1    0    0    0  501  0.00000000000E+00  0.00000000000E+00  0.42145867310E+03  0.42145867313E+03  0.50400001928E-02 0.  1.
        1   -1    0    0  501    0  0.00000000000E+00  0.00000000000E+00 -0.57035138390E+03  0.57035138392E+03  0.50400001928E-02 0. -1.
    10030    2    1    2    0    0  0.00000000000E+00  0.00000000000E+00 -0.14889271079E+03  0.99181005705E+03  0.98057031871E+03 0.  0.
        2    1    3    3  502    0 -0.11938136691E+03  0.22358216626E+03 -0.49894576045E+03  0.55963181442E+03  0.25500000920E-02 0. -1.
       -2    1    3    3    0  502  0.11938136691E+03 -0.22358216626E+03  0.35005304965E+03  0.43217824264E+03  0.25500000920E-02 0.  1.
</event>
<event>
 5   0  0.8885324E-03  0.9004270E+03  0.7818609E-02  0.9425048E-01
        1   -1    0    0  501    0  0.00000000000E+00  0.00000000000E+00  0.46039494645E+03  0.46039494647E+03  0.50400001928E-02 0. -1.
       -1   -1    0    0    0  501  0.00000000000E+00  0.00000000000E+00 -0.44025723394E+03  0.44025723397E+03  0.50400001928E-02 0.  1.
    10030    2    1    2    0    0  0.00000000000E+00  0.00000000000E+00  0.20137712511E+02  0.90065218044E+03  0.90042702240E+03 0.  0.
        2    1    3    3  502    0  0.39922894960E+03  0.10541265529E+03 -0.16941018866E+03  0.44631311220E+03  0.25500000920E-02 0. -1.
       -2    1    3    3    0  502 -0.39922894960E+03 -0.10541265529E+03  0.18954790117E+03  0.45433906824E+03  0.25500000920E-02 0.  1.
</event>
<event>
 5   0  0.1440615E-02  0.9173855E+03  0.7818609E-02  0.9404106E-01
        2   -1    0    0  501    0  0.00000000000E+00  0.00000000000E+00  0.68528688263E+03  0.68528688264E+03  0.25500000920E-02 0.  1.
       -2   -1    0    0    0  501  0.00000000000E+00  0.00000000000E+00 -0.30702327931E+03  0.30702327932E+03  0.25500000920E-02 0. -1.
    10030    2    1    2    0    0  0.00000000000E+00  0.00000000000E+00  0.37826360333E+03  0.99231016196E+03  0.91738547183E+03 0.  0.
        3    1    3    3  502    0 -0.32124530426E+03  0.88659539544E+02 -0.15179218873E+03  0.36619658412E+03  0.10100000352E+00 0. -1.
       -3    1    3    3    0  502  0.32124530426E+03 -0.88659539544E+02  0.53005579205E+03  0.62611357784E+03  0.10100000352E+00 0.  1.
</event>
<event>
 5   0  0.1535906E-02  0.8596532E+03  0.7818609E-02  0.9477472E-01
       -2   -1    0    0    0  501  0.00000000000E+00  0.00000000000E+00  0.13473061781E+03  0.13473061783E+03  0.25500000920E-02 0. -1.
        2   -1    0    0  501    0  0.00000000000E+00  0.00000000000E+00 -0.13712614762E+04  0.13712614762E+04  0.25500000920E-02 0.  1.
    10030    2    1    2    0    0  0.00000000000E+00  0.00000000000E+00 -0.12365308584E+04  0.15059920941E+04  0.85965319958E+03 0.  0.
        2    1    3    3  502    0 -0.12265412110E+03 -0.41060014596E+03 -0.67674693098E+03  0.80101368395E+03  0.25500000920E-02 0.  1.
       -2    1    3    3    0  502  0.12265412110E+03  0.41060014596E+03 -0.55978392744E+03  0.70497841010E+03  0.25500000920E-02 0. -1.
</event>
<event>
 5   0  0.1535906E-02  0.7433668E+03  0.7818609E-02  0.9645815E-01
        2   -1    0    0  501    0  0.00000000000E+00  0.00000000000E+00  0.72829974988E+03  0.72829974989E+03  0.25500000920E-02 0. -1.
       -2   -1    0    0    0  501  0.00000000000E+00  0.00000000000E+00 -0.18968639094E+03  0.18968639095E+03  0.25500000920E-02 0.  1.
    10030    2    1    2    0    0  0.00000000000E+00  0.00000000000E+00  0.53861335895E+03  0.91798614084E+03  0.74336680336E+03 0.  0.
        2    1    3    3  502    0  0.13975369465E+03 -0.17543959477E+03 -0.96688344676E+02  0.24425147406E+03  0.25500000920E-02 0.  1.
       -2    1    3    3    0  502 -0.13975369465E+03  0.17543959477E+03  0.63530170363E+03  0.67373466678E+03  0.25500000920E-02 0. -1.
</event>
<event>
 5   0  0.8612969E-03  0.9022954E+03  0.7818609E-02  0.9422717E-01
       -1   -1    0    0    0  501  0.00000000000E+00  0.00000000000E+00  0.96346193176E+03  0.96346193177E+03  0.50400001928E-02 0.  1.
        1   -1    0    0  501    0  0.00000000000E+00  0.00000000000E+00 -0.21125300185E+03  0.21125300191E+03  0.50400001928E-02 0. -1.
    10030    2    1    2    0    0  0.00000000000E+00  0.00000000000E+00  0.75220892991E+03  0.11747149337E+04  0.90229535142E+03 0.  0.
        4    1    3    3  502    0 -0.12431902183E+03  0.42851663332E+03  0.46296192228E+03  0.64297517728E+03  0.12699999809E+01 0. -1.
       -4    1    3    3    0  502  0.12431902183E+03 -0.42851663332E+03  0.28924700763E+03  0.53173975640E+03  0.12699999809E+01 0.  1.
</event>
<event>
 5   0  0.8524692E-03  0.9107383E+03  0.7818609E-02  0.9412257E-01
        1   -1    0    0  501    0  0.00000000000E+00  0.00000000000E+00  0.39714336118E+03  0.39714336121E+03  0.50400001928E-02 0. -1.
       -1   -1    0    0    0  501  0.00000000000E+00  0.00000000000E+00 -0.52213152809E+03  0.52213152811E+03  0.50400001928E-02 0.  1.
    10030    2    1    2    0    0  0.00000000000E+00  0.00000000000E+00 -0.12498816691E+03  0.91927488932E+03  0.91073831602E+03 0.  0.
        5    1    3    3  502    0 -0.19148877112E+03  0.27491941010E+03 -0.37375171505E+03  0.50195723525E+03  0.46999998093E+01 0.  1.
       -5    1    3    3    0  502  0.19148877112E+03 -0.27491941010E+03  0.24876354814E+03  0.41731765407E+03  0.46999998093E+01 0. -1.
</event>
<event>
 5   0  0.1483326E-02  0.9189823E+03  0.7818609E-02  0.9402159E-01
        2   -1    0    0  501    0  0.00000000000E+00  0.00000000000E+00  0.16317205205E+04  0.16317205205E+04  0.25500000920E-02 0. -1.
       -2   -1    0    0    0  501  0.00000000000E+00  0.00000000000E+00 -0.12939233876E+03  0.12939233878E+03  0.25500000920E-02 0.  1.
    10030    2    1    2    0    0  0.00000000000E+00  0.00000000000E+00  0.15023281818E+04  0.17611128593E+04  0.91898233797E+03 0.  0.
        1    1    3    3  502    0 -0.42623675124E+03  0.86712122202E+02  0.10349903325E+04  0.11226761548E+04  0.50400001928E-02 0. -1.
       -1    1    3    3    0  502  0.42623675124E+03 -0.86712122202E+02  0.46733784928E+03  0.63843670449E+03  0.50400001928E-02 0.  1.
</event>
<event>
 5   0  0.1440615E-02  0.9085872E+03  0.7818609E-02  0.9414910E-01
       -2   -1    0    0    0  501  0.00000000000E+00  0.00000000000E+00  0.10473256945E+04  0.10473256945E+04  0.25500000920E-02 0. -1.
        2   -1    0    0  501    0  0.00000000000E+00  0.00000000000E+00 -0.19705681988E+03  0.19705681990E+03  0.25500000920E-02 0.  1.
    10030    2    1    2    0    0  0.00000000000E+00  0.00000000000E+00  0.85026887460E+03  0.12443825144E+04  0.90858719064E+03 0.  0.
        3    1    3    3  502    0 -0.93754606069E+02 -0.20582829811E+03 -0.11446507223E+03  0.25349058646E+03  0.10100000352E+00 0.  1.
       -3    1    3    3    0  502  0.93754606069E+02  0.20582829811E+03  0.96473394683E+03  0.99089192793E+03  0.10100000352E+00 0. -1.
</event>
<event>
 5   0  0.5770125E-03  0.8934606E+03  0.7818609E-02  0.9433793E-01
        4   -1    0    0  501    0  0.00000000000E+00  0.00000000000E+00  0.39156703553E+03  0.39156909507E+03  0.12699999809E+01 0. -1.
       -4   -1    0    0    0  501  0.00000000000E+00  0.00000000000E+00 -0.50966069742E+03  0.50966227975E+03  0.12699999809E+01 0.  1.
    10030    2    1    2    0    0  0.00000000000E+00  0.00000000000E+00 -0.11809366189E+03  0.90123137482E+03  0.89346061915E+03 0.  0.
        1    1    3    3  502    0 -0.21956074388E+03 -0.23726255912E+03 -0.37005871668E+03  0.49136940893E+03  0.50400001928E-02 0.  1.
       -1    1    3    3    0  502  0.21956074388E+03  0.23726255912E+03  0.25196505479E+03  0.40986196589E+03  0.50400001928E-02 0. -1.
</event>
<event>
 5   0  0.1440615E-02  0.9090573E+03  0.7818609E-02  0.9414330E-01
        2   -1    0    0  501    0  0.00000000000E+00  0.00000000000E+00  0.51533446712E+03  0.51533446712E+03  0.25500000920E-02 0. -1.
       -2   -1    0    0    0  501  0.00000000000E+00  0.00000000000E+00 -0.40089751578E+03  0.40089751579E+03  0.25500000920E-02 0.  1.
    10030    2    1    2    0    0  0.00000000000E+00  0.00000000000E+00  0.11443695134E+03  0.91623198291E+03  0.90905733080E+03 0.  0.
        3    1    3    3  502    0 -0.76612205840E+02  0.26816946623E+03  0.41895498543E+03  0.50329671439E+03  0.10100000352E+00 0. -1.
       -3    1    3    3    0  502  0.76612205840E+02 -0.26816946623E+03 -0.30451803409E+03  0.41293526852E+03  0.10100000352E+00 0.  1.
</event>
<event>
 5   0  0.1535906E-02  0.9252445E+03  0.7818609E-02  0.9394563E-01
        2   -1    0    0  501    0  0.00000000000E+00  0.00000000000E+00  0.76030789943E+03  0.76030789943E+03  0.25500000920E-02 0.  1.
       -2   -1    0    0    0  501  0.00000000000E+00  0.00000000000E+00 -0.28149035475E+03  0.28149035476E+03  0.25500000920E-02 0. -1.
    10030    2    1    2    0    0  0.00000000000E+00  0.00000000000E+00  0.47881754468E+03  0.10417982542E+04  0.92524448733E+03 0.  0.
        2    1    3    3  502    0 -0.45270123457E+03 -0.64657776861E+02  0.31822917519E+03  0.55712551893E+03  0.25500000920E-02 0. -1.
       -2    1    3    3    0  502  0.45270123457E+03  0.64657776861E+02  0.16058836949E+03  0.48467273526E+03  0.25500000920E-02 0.  1.
</event>
<event>
 5   0  0.1441195E-02  0.8962252E+03  0.7818609E-02  0.9430312E-01
       -2   -1    0    0    0  501  0.00000000000E+00  0.00000000000E+00  0.17299255850E+03  0.17299255852E+03  0.25500000920E-02 0.  1.
        2   -1    0    0  501    0  0.00000000000E+00  0.00000000000E+00 -0.11607719053E+04  0.11607719053E+04  0.25500000920E-02 0. -1.
    10030    2    1    2    0    0  0.00000000000E+00  0.00000000000E+00 -0.98777934680E+03  0.13337644638E+04  0.89622519882E+03 0.  0.
        5    1    3    3  502    0  0.20534632841E+03 -0.79677090623E+02 -0.10746076305E+04  0.10969590707E+04  0.46999998093E+01 0. -1.
       -5    1    3    3    0  502 -0.20534632841E+03  0.79677090623E+02  0.86828283668E+02  0.23680539311E+03  0.46999998093E+01 0.  1.
</event>
<event>
 5   0  0.8738044E-03  0.8963010E+03  0.7818609E-02  0.9430217E-01
       -1   -1    0    0    0  501  0.00000000000E+00  0.00000000000E+00  0.21775288198E+03  0.21775288204E+03  0.50400001928E-02 0. -1.
        1   -1    0    0  501    0  0.00000000000E+00  0.00000000000E+00 -0.92232468912E+03  0.92232468913E+03  0.50400001928E-02 0.  1.
    10030    2    1    2    0    0  0.00000000000E+00  0.00000000000E+00 -0.70457180714E+03  0.11400775712E+04  0.89630097449E+03 0.  0.
        3    1    3    3  502    0 -0.20531920617E+03  0.29620447645E+03 -0.13485577703E+02  0.36065903468E+03  0.10100000352E+00 0. -1.
       -3    1    3    3    0  502  0.20531920617E+03 -0.29620447645E+03 -0.69108622944E+03  0.77941853649E+03  0.10100000352E+00 0.  1.
</event>
<event>
 5   0  0.8524692E-03  0.9171706E+03  0.7818609E-02  0.9404368E-01
       -1   -1    0    0    0  501  0.00000000000E+00  0.00000000000E+00  0.23428790805E+03  0.23428790811E+03  0.50400001928E-02 0.  1.
        1   -1    0    0  501    0  0.00000000000E+00  0.00000000000E+00 -0.89761567947E+03  0.89761567948E+03  0.50400001928E-02 0. -1.
    10030    2    1    2    0    0  0.00000000000E+00  0.00000000000E+00 -0.66332777142E+03  0.11319035876E+04  0.91717064893E+03 0.  0.
        5    1    3    3  502    0  0.35990563786E+03  0.20678981493E+03 -0.57218955544E+03  0.70690669333E+03  0.46999998093E+01 0. -1.
       -5    1    3    3    0  502 -0.35990563786E+03 -0.20678981493E+03 -0.91138215980E+02  0.42499689426E+03  0.46999998093E+01 0.  1.
</event>
<event>
 5   0  0.1483326E-02  0.8768001E+03  0.7818609E-02  0.9455056E-01
       -2   -1    0    0    0  501  0.00000000000E+00  0.00000000000E+00  0.28309029450E+03  0.28309029452E+03  0.25500000920E-02 0. -1.
        2   -1    0    0  501    0  0.00000000000E+00  0.00000000000E+00 -0.67891631109E+03  0.67891631109E+03  0.25500000920E-02 0.  1.
    10030    2    1    2    0    0  0.00000000000E+00  0.00000000000E+00 -0.39582601658E+03  0.96200660561E+03  0.87680013334E+03 0.  0.
        1    1    3    3  502    0 -0.21003825174E+03 -0.17170144001E+03  0.17993279588E+03  0.32553534793E+03  0.50400001928E-02 0. -1.
       -1    1    3    3    0  502  0.21003825174E+03  0.17170144001E+03 -0.57575881247E+03  0.63647125768E+03  0.50400001928E-02 0.  1.
</event>
<event>
 5   0  0.8885324E-03  0.8299407E+03  0.7818609E-02  0.9517662E-01
       -1   -1    0    0    0  501  0.00000000000E+00  0.00000000000E+00  0.33952465955E+03  0.33952465959E+03  0.50400001928E-02 0. -1.
        1   -1    0    0  501    0  0.00000000000E+00  0.00000000000E+00 -0.50718086499E+03  0.50718086502E+03  0.50400001928E-02 0.  1.
    10030    2    1    2    0    0  0.00000000000E+00  0.00000000000E+00 -0.16765620545E+03  0.84670552461E+03  0.82994074618E+03 0.  0.
        2    1    3    3  502    0  0.33529813503E+03 -0.82215863363E+02  0.15107528986E+03  0.37683952919E+03  0.25500000920E-02 0. -1.
       -2    1    3    3    0  502 -0.33529813503E+03  0.82215863363E+02 -0.31873149530E+03  0.46986599542E+03  0.25500000920E-02 0.  1.
</event>
<event>
 5   0  0.1535906E-02  0.8969125E+03  0.7818609E-02  0.9429449E-01
        2   -1    0    0  501    0  0.00000000000E+00  0.00000000000E+00  0.10123004281E+04  0.10123004281E+04  0.25500000920E-02 0. -1.
       -2   -1    0    0    0  501  0.00000000000E+00  0.00000000000E+00 -0.19866928722E+03  0.19866928724E+03  0.25500000920E-02 0.  1.
    10030    2    1    2    0    0  0.00000000000E+00  0.00000000000E+00  0.81363114086E+03  0.12109697153E+04  0.89691249186E+03 0.  0.
        2    1    3    3  502    0 -0.18288768072E+02 -0.33357363341E+03  0.28800082332E+01  0.33408702818E+03  0.25500000920E-02 0.  1.
       -2    1    3    3    0  502  0.18288768072E+02  0.33357363341E+03  0.81075113263E+03  0.87688268714E+03  0.25500000920E-02 0. -1.
</event>
<event>
 5   0  0.8291252E-03  0.9107976E+03  0.7818609E-02  0.9412184E-01
        1   -1    0    0  501    0  0.00000000000E+00  0.00000000000E+00  0.90292608228E+03  0.90292608229E+03  0.50400001928E-02 0.  1.
       -1   -1    0    0    0  501  0.00000000000E+00  0.00000000000E+00 -0.22968443227E+03  0.22968443233E+03  0.50400001928E-02 0. -1.
    10030    2    1    2    0    0  0.00000000000E+00  0.00000000000E+00  0.67324165001E+03  0.11326105146E+04  0.91079759470E+03 0.  0.
        1    1    3    3  502    0 -0.22521883869E+02  0.30344199504E+02  0.90097301898E+03  0.90176515050E+03  0.50400001928E-02 0.  1.
       -1    1    3    3    0  502  0.22521883869E+02 -0.30344199504E+02 -0.22773136897E+03  0.23084536412E+03  0.50400001928E-02 0. -1.
</event>
<event>
 5   0  0.1454652E-02  0.8929860E+03  0.7818609E-02  0.9434392E-01
       -2   -1    0    0    0  501  0.00000000000E+00  0.00000000000E+00  0.12600341678E+03  0.12600341680E+03  0.25500000920E-02 0.  1.
        2   -1    0    0  501    0  0.00000000000E+00  0.00000000000E+00 -0.15821475970E+04  0.15821475970E+04  0.25500000920E-02 0. -1.
    10030    2    1    2    0    0  0.00000000000E+00  0.00000000000E+00 -0.14561441803E+04  0.17081510138E+04  0.89298600906E+03 0.  0.
        4    1    3    3  502    0 -0.34842766249E+03 -0.24427317659E+03 -0.98671903338E+03  0.10745637648E+04  0.12699999809E+01 0. -1.
       -4    1    3    3    0  502  0.34842766249E+03  0.24427317659E+03 -0.46942514689E+03  0.63358724909E+03  0.12699999809E+01 0.  1.
</event>
<event>
 5   0  0.8612969E-03  0.9086895E+03  0.7818609E-02  0.9414784E-01
       -1   -1    0    0    0  501  0.00000000000E+00  0.00000000000E+00  0.60063430876E+03  0.60063430879E+03  0.50400001928E-02 0.  1.
        1   -1    0    0  501    0  0.00000000000E+00  0.00000000000E+00 -0.34368528109E+03  0.34368528113E+03  0.50400001928E-02 0. -1.
    10030    2    1    2    0    0  0.00000000000E+00  0.00000000000E+00  0.25694902767E+03  0.94431958992E+03  0.90868954274E+03 0.  0.
        4    1    3    3  502    0 -0.18400246496E+03  0.29181424586E+03 -0.17877888191E+03  0.38855625424E+03  0.12699999809E+01 0. -1.
       -4    1    3    3    0  502  0.18400246496E+03 -0.29181424586E+03  0.43572790958E+03  0.55576333567E+03  0.12699999809E+01 0.  1.
</event>
<event>
 5   0  0.1441195E-02  0.8947639E+03  0.7818609E-02  0.9432151E-01
       -2   -1    0    0    0  501  0.00000000000E+00  0.00000000000E+00  0.61620072758E+03  0.61620072758E+03  0.25500000920E-02 0.  1.
        2   -1    0    0  501    0  0.00000000000E+00  0.00000000000E+00 -0.32481397722E+03  0.32481397723E+03  0.25500000920E-02 0. -1.
    10030    2    1    2    0    0  0.00000000000E+00  0.00000000000E+00  0.29138675036E+03  0.94101470481E+03  0.89476389980E+03 0.  0.
        5    1    3    3  502    0  0.72992168610E+02  0.16868625319E+03 -0.28324374217E+03  0.33768626885E+03  0.46999998093E+01 0. -1.
       -5    1    3    3    0  502 -0.72992168610E+02 -0.16868625319E+03  0.57463049253E+03  0.60332843596E+03  0.46999998093E+01 0.  1.
</event>
<event>
 5   0  0.8885324E-03  0.8998478E+03  0.7818609E-02  0.9425772E-01
        1   -1    0    0  501    0  0.00000000000E+00  0.00000000000E+00  0.61894647909E+03  0.61894647911E+03  0.50400001928E-02 0.  1.
       -1   -1    0    0    0  501  0.00000000000E+00  0.00000000000E+00 -0.32705819742E+03  0.32705819746E+03  0.50400001928E-02 0. -1.
    10030    2    1    2    0    0  0.00000000000E+00  0.00000000000E+00  0.29188828167E+03  0.94600467658E+03  0.89984780887E+03 0.  0.
        2    1    3    3  502    0  0.18816748700E+03  0.67200150434E+02 -0.27785733979E+03  0.34223904608E+03  0.25500000920E-02 0. -1.
       -2    1    3    3    0  502 -0.18816748700E+03 -0.67200150434E+02  0.56974562146E+03  0.60376563049E+03  0.25500000920E-02 0.  1.
</event>
<event>
 5   0  0.8738044E-03  0.9026240E+03  0.7818609E-02  0.9422307E-01
        1   -1    0    0  501    0  0.00000000000E+00  0.00000000000E+00  0.66989064332E+03  0.66989064333E+03  0.50400001928E-02 0. -1.
       -1   -1    0    0    0  501  0.00000000000E+00  0.00000000000E+00 -0.30405337015E+03  0.30405337019E+03  0.50400001928E-02 0.  1.
    10030    2    1    2    0    0  0.00000000000E+00  0.00000000000E+00  0.36583727317E+03  0.97394401353E+03  0.90262396990E+03 0.  0.
        3    1    3    3  502    0 -0.16459682130E+03 -0.41224156440E+03  0.94945717242E+02  0.45392721930E+03  0.10100000352E+00 0.  1.
       -3    1    3    3    0  502  0.16459682130E+03  0.41224156440E+03  0.27089155592E+03  0.52001679422E+03  0.10100000352E+00 0. -1.
</event>
<event>
 5   0  0.1483326E-02  0.9183328E+03  0.7818609E-02  0.9402950E-01
        2   -1    0    0  501    0  0.00000000000E+00  0.00000000000E+00  0.42434694166E+03  0.42434694167E+03  0.25500000920E-02 0. -1.
       -2   -1    0    0    0  501  0.00000000000E+00  0.00000000000E+00 -0.49684293132E+03  0.49684293133E+03  0.25500000920E-02 0.  1.
    10030    2    1    2    0    0  0.00000000000E+00  0.00000000000E+00 -0.72495989664E+02  0.92118987300E+03  0.91833279022E+03 0.  0.
        1    1    3    3  502    0  0.36067175159E+03  0.44520808110E+02  0.24528076651E+03  0.43843912827E+03  0.50400001928E-02 0. -1.
       -1    1    3    3    0  502 -0.36067175159E+03 -0.44520808110E+02 -0.31777675618E+03  0.48275074473E+03  0.50400001928E-02 0.  1.
</event>
<event>
 5   0  0.8738044E-03  0.9008287E+03  0.7818609E-02  0.9424546E-01
       -1   -1    0    0    0  501  0.00000000000E+00  0.00000000000E+00  0.16157833637E+03  0.16157833645E+03  0.50400001928E-02 0. -1.
        1   -1    0    0  501    0  0.00000000000E+00  0.00000000000E+00 -0.12555710829E+04  0.12555710829E+04  0.50400001928E-02 0.  1.
    10030    2    1    2    0    0  0.00000000000E+00  0.00000000000E+00 -0.10939927466E+04  0.14171494194E+04  0.90082870033E+03 0.  0.
        3    1    3    3  502    0  0.12105716357E+02 -0.22043872079E+03 -0.11646168203E+04  0.11853573833E+04  0.10100000352E+00 0.  1.
       -3    1    3    3    0  502 -0.12105716357E+02  0.22043872079E+03  0.70624073694E+02  0.23179203605E+03  0.10100000352E+00 0. -1.
</event>
<event>
 5   0  0.1483326E-02  0.9612730E+03  0.7818609E-02  0.9352070E-01
       -2   -1    0    0    0  501  0.00000000000E+00  0.00000000000E+00  0.13602614367E+03  0.13602614369E+03  0.25500000920E-02 0.  1.
        2   -1    0    0  501    0  0.00000000000E+00  0.00000000000E+00 -0.16982869424E+04  0.16982869424E+04  0.25500000920E-02 0. -1.
    10030    2    1    2    0    0  0.00000000000E+00  0.00000000000E+00 -0.15622607987E+04  0.18343130861E+04  0.96127295529E+03 0.  0.
        1    1    3    3  502    0 -0.14478035154E+03 -0.36203780642E+03 -0.24486258627E+03  0.46042416276E+03  0.50400001928E-02 0.  1.
       -1    1    3    3    0  502  0.14478035154E+03  0.36203780642E+03 -0.13173982124E+04  0.13738889233E+04  0.50400001928E-02 0. -1.
</event>
<event>
 5   0  0.8738044E-03  0.8419796E+03  0.7818609E-02  0.9501165E-01
        1   -1    0    0  501    0  0.00000000000E+00  0.00000000000E+00  0.29703699375E+03  0.29703699380E+03  0.50400001928E-02 0. -1.
       -1   -1    0    0    0  501  0.00000000000E+00  0.00000000000E+00 -0.59666773698E+03  0.59666773700E+03  0.50400001928E-02 0.  1.
    10030    2    1    2    0    0  0.00000000000E+00  0.00000000000E+00 -0.29963074323E+03  0.89370473080E+03  0.84197955056E+03 0.  0.
        3    1    3    3  502    0  0.12830301282E+02 -0.30325976920E+03 -0.45945786089E+03  0.55066563392E+03  0.10100000352E+00 0.  1.
       -3    1    3    3    0  502 -0.12830301282E+02  0.30325976920E+03  0.15982711766E+03  0.34303909688E+03  0.10100000352E+00 0. -1.
</event>
<event>
 5   0  0.8524692E-03  0.8787579E+03  0.7818609E-02  0.9452532E-01
        1   -1    0    0  501    0  0.00000000000E+00  0.00000000000E+00  0.33623323972E+03  0.33623323976E+03  0.50400001928E-02 0.  1.
       -1   -1    0    0    0  501  0.00000000000E+00  0.00000000000E+00 -0.57416647714E+03  0.57416647717E+03  0.50400001928E-02 0. -1.
    10030    2    1    2    0    0  0.00000000000E+00  0.00000000000E+00 -0.23793323742E+03  0.91039971692E+03  0.87875788424E+03 0.  0.
        5    1    3    3  502    0  0.18487780339E+03  0.39675493090E+03 -0.79687213556E+02  0.44493417422E+03  0.46999998093E+01 0.  1.
       -5    1    3    3    0  502 -0.18487780339E+03 -0.39675493090E+03 -0.15824602387E+03  0.46546554271E+03  0.46999998093E+01 0. -1.
</event>
<event>
 5   0  0.1454652E-02  0.9031866E+03  0.7818609E-02  0.9421607E-01
       -2   -1    0    0    0  501  0.00000000000E+00  0.00000000000E+00  0.15599554297E+03  0.15599554299E+03  0.25500000920E-02 0. -1.
        2   -1    0    0  501    0  0.00000000000E+00  0.00000000000E+00 -0.13073225583E+04  0.13073225583E+04  0.25500000920E-02 0.  1.
    10030    2    1    2    0    0  0.00000000000E+00  0.00000000000E+00 -0.11513270153E+04  0.14633181013E+04  0.90318656398E+03 0.  0.
        4    1    3    3  502    0  0.14012719676E+03  0.42398742703E+03 -0.68475671711E+03  0.81749271806E+03  0.12699999809E+01 0. -1.
       -4    1    3    3    0  502 -0.14012719676E+03 -0.42398742703E+03 -0.46657029824E+03  0.64582538325E+03  0.12699999809E+01 0.  1.
</event>
<event>
 5   0  0.1535906E-02  0.8953866E+03  0.7818609E-02  0.9431367E-01
        2   -1    0    0  501    0  0.00000000000E+00  0.00000000000E+00  0.11342581909E+04  0.11342581909E+04  0.25500000920E-02 0. -1.
       -2   -1    0    0    0  501  0.00000000000E+00  0.00000000000E+00 -0.17670519259E+03  0.17670519261E+03  0.25500000920E-02 0.  1.
    10030    2    1    2    0    0  0.00000000000E+00  0.00000000000E+00  0.95755299834E+03  0.13109633836E+04  0.89538664742E+03 0.  0.
        2    1    3    3  502    0 -0.23223112650E+03  0.17701408302E+03 -0.18088466861E+02  0.29256191540E+03  0.25500000920E-02 0.  1.
       -2    1    3    3    0  502  0.23223112650E+03 -0.17701408302E+03  0.97564146521E+03  0.10184014682E+04  0.25500000920E-02 0. -1.
</event>
<event>
 5   0  0.8612969E-03  0.8184248E+03  0.7818609E-02  0.9533724E-01
        1   -1    0    0  501    0  0.00000000000E+00  0.00000000000E+00  0.41729129183E+03  0.41729129186E+03  0.50400001928E-02 0. -1.
       -1   -1    0    0    0  501  0.00000000000E+00  0.00000000000E+00 -0.40128991218E+03  0.40128991221E+03  0.50400001928E-02 0.  1.
    10030    2    1    2    0    0  0.00000000000E+00  0.00000000000E+00  0.16001379644E+02  0.81858120407E+03  0.81842479405E+03 0.  0.
        4    1    3    3  502    0  0.38424646416E+03  0.42098584948E+02  0.14232280692E+03  0.41191629046E+03  0.12699999809E+01 0. -1.
       -4    1    3    3    0  502 -0.38424646416E+03 -0.42098584948E+02 -0.12632142727E+03  0.40666491361E+03  0.12699999809E+01 0.  1.
</event>
<event>
 5   0  0.5770125E-03  0.8957796E+03  0.7818609E-02  0.9430873E-01
        3   -1    0    0  501    0  0.00000000000E+00  0.00000000000E+00  0.26532045199E+03  0.26532047121E+03  0.10100000352E+00 0. -1.
       -3   -1    0    0    0  501  0.00000000000E+00  0.00000000000E+00 -0.75608672481E+03  0.75608673156E+03  0.10100000352E+00 0.  1.
    10030    2    1    2    0    0  0.00000000000E+00  0.00000000000E+00 -0.49076627282E+03  0.10214072028E+04  0.89577962654E+03 0.  0.
        4    1    3    3  502    0  0.39155253229E+03  0.17205477966E+03 -0.39702887658E+03  0.58356642680E+03  0.12699999809E+01 0.  1.
       -4    1    3    3    0  502 -0.39155253229E+03 -0.17205477966E+03 -0.93737396238E+02  0.43784077597E+03  0.12699999809E+01 0. -1.
</event>
<event>
 5   0  0.1441195E-02  0.8554619E+03  0.7818609E-02  0.9483035E-01
        2   -1    0    0  501    0  0.00000000000E+00  0.00000000000E+00  0.14494743746E+04  0.14494743746E+04  0.25500000920E-02 0.  1.
       -2   -1    0    0    0  501  0.00000000000E+00  0.00000000000E+00 -0.12622075463E+03  0.12622075466E+03  0.25500000920E-02 0. -1.
    10030    2    1    2    0    0  0.00000000000E+00  0.00000000000E+00  0.13232536200E+04  0.15756951293E+04  0.85546186216E+03 0.  0.
        5    1    3    3  502    0 -0.38245505755E+03  0.76880704483E+02  0.33863756114E+03  0.51660429884E+03  0.46999998093E+01 0. -1.
       -5    1    3    3    0  502  0.38245505755E+03 -0.76880704483E+02  0.98461605884E+03  0.10590908304E+04  0.46999998093E+01 0.  1.
</event>
<event>
 5   0  0.8612969E-03  0.8942444E+03  0.7818609E-02  0.9432805E-01
       -1   -1    0    0    0  501  0.00000000000E+00  0.00000000000E+00  0.11455062236E+03  0.11455062247E+03  0.50400001928E-02 0.  1.
        1   -1    0    0  501    0  0.00000000000E+00  0.00000000000E+00 -0.17452392755E+04  0.17452392755E+04  0.50400001928E-02 0. -1.
    10030    2    1    2    0    0  0.00000000000E+00  0.00000000000E+00 -0.16306886531E+04  0.18597898980E+04  0.89424436320E+03 0.  0.
        4    1    3    3  502    0  0.25656039196E+03  0.20657386851E+03 -0.14441693109E+04  0.14812571044E+04  0.12699999809E+01 0. -1.
       -4    1    3    3    0  502 -0.25656039196E+03 -0.20657386851E+03 -0.18651934222E+03  0.37853279356E+03  0.12699999809E+01 0.  1.
</event>
<event>
 5   0  0.1454652E-02  0.8969223E+03  0.7818609E-02  0.9429437E-01
        2   -1    0    0  501    0  0.00000000000E+00  0.00000000000E+00  0.59312468785E+03  0.59312468785E+03  0.25500000920E-02 0.  1.
       -2   -1    0    0    0  501  0.00000000000E+00  0.00000000000E+00 -0.33908116514E+03  0.33908116515E+03  0.25500000920E-02 0. -1.
    10030    2    1    2    0    0  0.00000000000E+00  0.00000000000E+00  0.25404352271E+03  0.93220585300E+03  0.89692231600E+03 0.  0.
        4    1    3    3  502    0  0.52440061119E+02  0.17613624475E+03  0.55218851045E+03  0.58196881420E+03  0.12699999809E+01 0.  1.
       -4    1    3    3    0  502 -0.52440061119E+02 -0.17613624475E+03 -0.29814498775E+03  0.35023703880E+03  0.12699999809E+01 0. -1.
</event>
<event>
 5   0  0.8885324E-03  0.8862032E+03  0.7818609E-02  0.9442994E-01
        1   -1    0    0  501    0  0.00000000000E+00  0.00000000000E+00  0.25195128872E+03  0.25195128878E+03  0.50400001928E-02 0. -1.
       -1   -1    0    0    0  501  0.00000000000E+00  0.00000000000E+00 -0.77927369756E+03  0.77927369757E+03  0.50400001928E-02 0.  1.
    10030    2    1    2    0    0  0.00000000000E+00  0.00000000000E+00 -0.52732240883E+03  0.10312249863E+04  0.88620316497E+03 0.  0.
        2    1    3    3  502    0 -0.38387711661E+03 -0.97792181091E+02 -0.49467915304E+03  0.63374475603E+03  0.25500000920E-02 0.  1.
       -2    1    3    3    0  502  0.38387711661E+03  0.97792181091E+02 -0.32643255789E+02  0.39748023032E+03  0.25500000920E-02 0. -1.
</event>
<event>
 5   0  0.8885324E-03  0.8929716E+03  0.7818609E-02  0.9434410E-01
        1   -1    0    0  501    0  0.00000000000E+00  0.00000000000E+00  0.75770566729E+03  0.75770566731E+03  0.50400001928E-02 0.  1.
       -1   -1    0    0    0  501  0.00000000000E+00  0.00000000000E+00 -0.26309631770E+03  0.26309631775E+03  0.50400001928E-02 0. -1.
    10030    2    1    2    0    0  0.00000000000E+00  0.00000000000E+00  0.49460934960E+03  0.10208019851E+04  0.89297160313E+03 0.  0.
        2    1    3    3  502    0  0.55139822925E+02 -0.10366997989E+03 -0.24512933090E+03  0.27180186474E+03  0.25500000920E-02 0. -1.
       -2    1    3    3    0  502 -0.55139822925E+02  0.10366997989E+03  0.73973868050E+03  0.74900012032E+03  0.25500000920E-02 0.  1.
</event>
<event>
 5   0  0.1535906E-02  0.9077924E+03  0.7818609E-02  0.9415893E-01
       -2   -1    0    0    0  501  0.00000000000E+00  0.00000000000E+00  0.63879054192E+03  0.63879054192E+03  0.25500000920E-02 0.  1.
        2   -1    0    0  501    0  0.00000000000E+00  0.00000000000E+00 -0.32251848852E+03  0.32251848853E+03  0.25500000920E-02 0. -1.
    10030    2    1    2    0    0  0.00000000000E+00  0.00000000000E+00  0.31627205339E+03  0.96130903046E+03  0.90779239933E+03 0.  0.
        2    1    3    3  502    0 -0.14506104162E+01  0.26712755835E+02  0.63795497007E+03  0.63851563758E+03  0.25500000920E-02 0.  1.
       -2    1    3    3    0  502  0.14506104162E+01 -0.26712755835E+02 -0.32168291668E+03  0.32279339287E+03  0.25500000920E-02 0. -1.
</event>
<event>
 5   0  0.8524692E-03  0.9010455E+03  0.7818609E-02  0.9424275E-01
       -1   -1    0    0    0  501  0.00000000000E+00  0.00000000000E+00  0.12156062228E+04  0.12156062228E+04  0.50400001928E-02 0. -1.
        1   -1    0    0  501    0  0.00000000000E+00  0.00000000000E+00 -0.16697078706E+03  0.16697078714E+03  0.50400001928E-02 0.  1.
    10030    2    1    2    0    0  0.00000000000E+00  0.00000000000E+00  0.10486354357E+04  0.13825770099E+04  0.90104545464E+03 0.  0.
        5    1    3    3  502    0  0.42122929725E+03  0.13664884037E+03  0.65123531229E+03  0.78755098147E+03  0.46999998093E+01 0. -1.
       -5    1    3    3    0  502 -0.42122929725E+03 -0.13664884037E+03  0.39740012341E+03  0.59502602844E+03  0.46999998093E+01 0.  1.
</event>
<event>
 5   0  0.8612969E-03  0.8951407E+03  0.7818609E-02  0.9431676E-01
        1   -1    0    0  501    0  0.00000000000E+00  0.00000000000E+00  0.11201522470E+04  0.11201522470E+04  0.50400001928E-02 0.  1.
       -1   -1    0    0    0  501  0.00000000000E+00  0.00000000000E+00 -0.17883215479E+03  0.17883215486E+03  0.50400001928E-02 0. -1.
    10030    2    1    2    0    0  0.00000000000E+00  0.00000000000E+00  0.94132009218E+03  0.12989844018E+04  0.89514074887E+03 0.  0.
        4    1    3    3  502    0  0.23152142461E+03 -0.11883197656E+03  0.99907515872E+03  0.10324127055E+04  0.12699999809E+01 0.  1.
       -4    1    3    3    0  502 -0.23152142461E+03  0.11883197656E+03 -0.57755066542E+02  0.26657169639E+03  0.12699999809E+01 0. -1.
</event>
<event>
 5   0  0.8524692E-03  0.8839289E+03  0.7818609E-02  0.9445897E-01
       -1   -1    0    0    0  501  0.00000000000E+00  0.00000000000E+00  0.21999739344E+03  0.21999739350E+03  0.50400001928E-02 0. -1.
        1   -1    0    0  501    0  0.00000000000E+00  0.00000000000E+00 -0.88788586551E+03  0.88788586552E+03  0.50400001928E-02 0.  1.
    10030    2    1    2    0    0  0.00000000000E+00  0.00000000000E+00 -0.66788847206E+03  0.11078832590E+04  0.88392890241E+03 0.  0.
        5    1    3    3  502    0  0.42586593117E+03 -0.92572548930E+02 -0.42586807719E+03  0.60935800422E+03  0.46999998093E+01 0.  1.
       -5    1    3    3    0  502 -0.42586593117E+03  0.92572548930E+02 -0.24202039488E+03  0.49852525480E+03  0.46999998093E+01 0. -1.
</event>
<event>
 5   0  0.1535906E-02  0.8905663E+03  0.7818609E-02  0.9437451E-01
       -2   -1    0    0    0  501  0.00000000000E+00  0.00000000000E+00  0.15921498331E+03  0.15921498333E+03  0.25500000920E-02 0. -1.
        2   -1    0    0  501    0  0.00000000000E+00  0.00000000000E+00 -0.12453418378E+04  0.12453418378E+04  0.25500000920E-02 0.  1.
    10030    2    1    2    0    0  0.00000000000E+00  0.00000000000E+00 -0.10861268545E+04  0.14045568211E+04  0.89056629159E+03 0.  0.
        2    1    3    3  502    0  0.21416249273E+03 -0.22787537534E+03 -0.10430084041E+04  0.10888798331E+04  0.25500000920E-02 0.  1.
       -2    1    3    3    0  502 -0.21416249273E+03  0.22787537534E+03 -0.43118450388E+02  0.31567698799E+03  0.25500000920E-02 0. -1.
</event>
<event>
 5   0  0.1535906E-02  0.8825258E+03  0.7818609E-02  0.9447693E-01
        2   -1    0    0  501    0  0.00000000000E+00  0.00000000000E+00  0.10358469634E+04  0.10358469634E+04  0.25500000920E-02 0.  1.
       -2   -1    0    0    0  501  0.00000000000E+00  0.00000000000E+00 -0.18797463047E+03  0.18797463049E+03  0.25500000920E-02 0. -1.
    10030    2    1    2    0    0  0.00000000000E+00  0.00000000000E+00  0.84787233296E+03  0.12238215939E+04  0.88252580742E+03 0.  0.
        2    1    3    3  502    0 -0.38729433105E+03 -0.18258874675E+03  0.57185116996E+03  0.71438736683E+03  0.25500000920E-02 0.  1.
       -2    1    3    3    0  502  0.38729433105E+03  0.18258874675E+03  0.27602116300E+03  0.50943422709E+03  0.25500000920E-02 0. -1.
</event>
<event>
 5   0  0.8291252E-03  0.9007162E+03  0.7818609E-02  0.9424687E-01
        1   -1    0    0  501    0  0.00000000000E+00  0.00000000000E+00  0.35054725799E+03  0.35054725802E+03  0.50400001928E-02 0.  1.
       -1   -1    0    0    0  501  0.00000000000E+00  0.00000000000E+00 -0.57858795083E+03  0.57858795085E+03  0.50400001928E-02 0. -1.
    10030    2    1    2    0    0  0.00000000000E+00  0.00000000000E+00 -0.22804069284E+03  0.92913520887E+03  0.90071620323E+03 0.  0.
        1    1    3    3  502    0 -0.20405616270E+03  0.15566697419E+03 -0.49576592372E+03  0.55826066989E+03  0.50400001928E-02 0. -1.
       -1    1    3    3    0  502  0.20405616270E+03 -0.15566697419E+03  0.26772523088E+03  0.37087453898E+03  0.50400001928E-02 0.  1.
</event>
<event>
 5   0  0.1440615E-02  0.9645650E+03  0.7818609E-02  0.9348287E-01
        2   -1    0    0  501    0  0.00000000000E+00  0.00000000000E+00  0.66880943695E+03  0.66880943695E+03  0.25500000920E-02 0. -1.
       -2   -1    0    0    0  501  0.00000000000E+00  0.00000000000E+00 -0.34777677984E+03  0.34777677984E+03  0.25500000920E-02 0.  1.
    10030    2    1    2    0    0  0.00000000000E+00  0.00000000000E+00  0.32103265711E+03  0.10165862168E+04  0.96456496373E+03 0.  0.
        3    1    3    3  502    0  0.31936733730E+03 -0.25036038352E+03 -0.11415503100E+03  0.42155331699E+03  0.10100000352E+00 0.  1.
       -3    1    3    3    0  502 -0.31936733730E+03  0.25036038352E+03  0.43518768811E+03  0.59503289980E+03  0.10100000352E+00 0. -1.
</event>
<event>
 5   0  0.1440615E-02  0.8837912E+03  0.7818609E-02  0.9446073E-01
        2   -1    0    0  501    0  0.00000000000E+00  0.00000000000E+00  0.45670596650E+03  0.45670596651E+03  0.25500000920E-02 0. -1.
       -2   -1    0    0    0  501  0.00000000000E+00  0.00000000000E+00 -0.42756549831E+03  0.42756549832E+03  0.25500000920E-02 0.  1.
    10030    2    1    2    0    0  0.00000000000E+00  0.00000000000E+00  0.29140468188E+02  0.88427146483E+03  0.88379118383E+03 0.  0.
        3    1    3    3  502    0  0.32891860564E+03  0.29194347501E+02 -0.27924210885E+03  0.43245337855E+03  0.10100000352E+00 0.  1.
       -3    1    3    3    0  502 -0.32891860564E+03 -0.29194347501E+02  0.30838257704E+03  0.45181808628E+03  0.10100000352E+00 0. -1.
</event>
<event>
 5   0  0.1454652E-02  0.8912072E+03  0.7818609E-02  0.9436640E-01
        2   -1    0    0  501    0  0.00000000000E+00  0.00000000000E+00  0.10725247378E+04  0.10725247378E+04  0.25500000920E-02 0. -1.
       -2   -1    0    0    0  501  0.00000000000E+00  0.00000000000E+00 -0.18513565618E+03  0.18513565620E+03  0.25500000920E-02 0.  1.
    10030    2    1    2    0    0  0.00000000000E+00  0.00000000000E+00  0.88738908165E+03  0.12576603940E+04  0.89120720625E+03 0.  0.
        4    1    3    3  502    0  0.29154287048E+03 -0.15063473601E+03  0.18290253046E+02  0.32867037481E+03  0.12699999809E+01 0.  1.
       -4    1    3    3    0  502 -0.29154287048E+03  0.15063473601E+03  0.86909882860E+03  0.92899001921E+03  0.12699999809E+01 0. -1.
</event>
<event>
 5   0  0.8612969E-03  0.9114823E+03  0.7818609E-02  0.9411341E-01
        1   -1    0    0  501    0  0.00000000000E+00  0.00000000000E+00  0.73237952144E+03  0.73237952145E+03  0.50400001928E-02 0.  1.
       -1   -1    0    0    0  501  0.00000000000E+00  0.00000000000E+00 -0.28359611962E+03  0.28359611967E+03  0.50400001928E-02 0. -1.
    10030    2    1    2    0    0  0.00000000000E+00  0.00000000000E+00  0.44878340181E+03  0.10159756411E+04  0.91148228815E+03 0.  0.
        4    1    3    3  502    0 -0.15638357952E+03 -0.17164729892E+03 -0.21271216607E+03  0.31490744301E+03  0.12699999809E+01 0. -1.
       -4    1    3    3    0  502  0.15638357952E+03  0.17164729892E+03  0.66149556788E+03  0.70106819811E+03  0.12699999809E+01 0.  1.
</event>
<event>
 5   0  0.8612969E-03  0.9065341E+03  0.7818609E-02  0.9417450E-01
        1   -1    0    0  501    0  0.00000000000E+00  0.00000000000E+00  0.10758756299E+04  0.10758756299E+04  0.50400001928E-02 0. -1.
       -1   -1    0    0    0  501  0.00000000000E+00  0.00000000000E+00 -0.19096168444E+03  0.19096168451E+03  0.50400001928E-02 0.  1.
    10030    2    1    2    0    0  0.00000000000E+00  0.00000000000E+00  0.88491394549E+03  0.12668373145E+04  0.90653410877E+03 0.  0.
        4    1    3    3  502    0 -0.73899761280E+01 -0.27218961470E+03 -0.63928978655E+02  0.27969684537E+03  0.12699999809E+01 0.  1.
       -4    1    3    3    0  502  0.73899761280E+01  0.27218961470E+03  0.94884292414E+03  0.98714046908E+03  0.12699999809E+01 0. -1.
</event>
<event>
 5   0  0.1441195E-02  0.9200694E+03  0.7818609E-02  0.9400836E-01
        2   -1    0    0  501    0  0.00000000000E+00  0.00000000000E+00  0.59045251961E+03  0.59045251962E+03  0.25500000920E-02 0. -1.
       -2   -1    0    0    0  501  0.00000000000E+00  0.00000000000E+00 -0.35842325859E+03  0.35842325860E+03  0.25500000920E-02 0.  1.
    10030    2    1    2    0    0  0.00000000000E+00  0.00000000000E+00  0.23202926103E+03  0.94887577821E+03  0.92006938027E+03 0.  0.
        5    1    3    3  502    0 -0.16319926785E+03  0.26646427107E+03  0.46418278369E+03  0.55957569234E+03  0.46999998093E+01 0. -1.
       -5    1    3    3    0  502  0.16319926785E+03 -0.26646427107E+03 -0.23215352266E+03  0.38930008588E+03  0.46999998093E+01 0.  1.
</event>
<event>
 5   0  0.8612969E-03  0.8884127E+03  0.7818609E-02  0.9440183E-01
       -1   -1    0    0    0  501  0.00000000000E+00  0.00000000000E+00  0.18579103425E+03  0.18579103432E+03  0.50400001928E-02 0. -1.
        1   -1    0    0  501    0  0.00000000000E+00  0.00000000000E+00 -0.10620495462E+04  0.10620495462E+04  0.50400001928E-02 0.  1.
    10030    2    1    2    0    0  0.00000000000E+00  0.00000000000E+00 -0.87625851192E+03  0.12478405805E+04  0.88841270513E+03 0.  0.
        4    1    3    3  502    0 -0.36581870132E+03 -0.40496333556E+02 -0.88804288136E+02  0.37861733949E+03  0.12699999809E+01 0. -1.
       -4    1    3    3    0  502  0.36581870132E+03  0.40496333556E+02 -0.78745422378E+03  0.86922324101E+03  0.12699999809E+01 0.  1.
</event>
<event>
 5   0  0.1440615E-02  0.8875297E+03  0.7818609E-02  0.9441306E-01
        2   -1    0    0  501    0  0.00000000000E+00  0.00000000000E+00  0.22306683238E+04  0.22306683238E+04  0.25500000920E-02 0. -1.
       -2   -1    0    0    0  501  0.00000000000E+00  0.00000000000E+00 -0.88281725931E+02  0.88281725968E+02  0.25500000920E-02 0.  1.
    10030    2    1    2    0    0  0.00000000000E+00  0.00000000000E+00  0.21423865979E+04  0.23189500498E+04  0.88752971702E+03 0.  0.
        3    1    3    3  502    0 -0.26462989932E+02 -0.39083649970E+03  0.52641199750E+03  0.65617304170E+03  0.10100000352E+00 0.  1.
       -3    1    3    3    0  502  0.26462989932E+02  0.39083649970E+03  0.16159746004E+04  0.16627770081E+04  0.10100000352E+00 0. -1.
</event>
<event>
 5   0  0.1440615E-02  0.8977800E+03  0.7818609E-02  0.9428361E-01
       -2   -1    0    0    0  501  0.00000000000E+00  0.00000000000E+00  0.41153967399E+03  0.41153967400E+03  0.25500000920E-02 0.  1.
        2   -1    0    0  501    0  0.00000000000E+00  0.00000000000E+00 -0.48963012770E+03  0.48963012771E+03  0.25500000920E-02 0. -1.
    10030    2    1    2    0    0  0.00000000000E+00  0.00000000000E+00 -0.78090453712E+02  0.90116980171E+03  0.89777998003E+03 0.  0.
        3    1    3    3  502    0 -0.37041598785E+03 -0.22354348481E+03 -0.15917382834E+03  0.46099458943E+03  0.10100000352E+00 0. -1.
       -3    1    3    3    0  502  0.37041598785E+03  0.22354348481E+03  0.81083374628E+02  0.44017521227E+03  0.10100000352E+00 0.  1.
</event>
<event>
 5   0  0.8612969E-03  0.8988242E+03  0.7818609E-02  0.9427052E-01
        1   -1    0    0  501    0  0.00000000000E+00  0.00000000000E+00  0.74061056200E+03  0.74061056202E+03  0.50400001928E-02 0.  1.
       -1   -1    0    0    0  501  0.00000000000E+00  0.00000000000E+00 -0.27270907308E+03  0.27270907312E+03  0.50400001928E-02 0. -1.
    10030    2    1    2    0    0  0.00000000000E+00  0.00000000000E+00  0.46790148892E+03  0.10133196351E+04  0.89882416502E+03 0.  0.
        4    1    3    3  502    0 -0.31288461033E+03 -0.23187321889E+02  0.59670764336E+03  0.67416322639E+03  0.12699999809E+01 0.  1.
       -4    1    3    3    0  502  0.31288461033E+03  0.23187321889E+02 -0.12880615443E+03  0.33915640875E+03  0.12699999809E+01 0. -1.
</event>
<event>
 5   0  0.8738044E-03  0.9099036E+03  0.7818609E-02  0.9413285E-01
        1   -1    0    0  501    0  0.00000000000E+00  0.00000000000E+00  0.11142674028E+04  0.11142674028E+04  0.50400001928E-02 0.  1.
       -1   -1    0    0    0  501  0.00000000000E+00  0.00000000000E+00 -0.18575536353E+03  0.18575536360E+03  0.50400001928E-02 0. -1.
    10030    2    1    2    0    0  0.00000000000E+00  0.00000000000E+00  0.92851203924E+03  0.13000227664E+04  0.90990361363E+03 0.  0.
        3    1    3    3  502    0 -0.26773133132E+03  0.27305444342E+03  0.11212739328E+03  0.39851142690E+03  0.10100000352E+00 0. -1.
       -3    1    3    3    0  502  0.26773133132E+03 -0.27305444342E+03  0.81638464596E+03  0.90151133947E+03  0.10100000352E+00 0.  1.
</event>
<event>
 5   0  0.8612969E-03  0.8833331E+03  0.7818609E-02  0.9446659E-01
       -1   -1    0    0    0  501  0.00000000000E+00  0.00000000000E+00  0.25741963377E+03  0.25741963382E+03  0.50400001928E-02 0. -1.
        1   -1    0    0  501    0  0.00000000000E+00  0.00000000000E+00 -0.75778741802E+03  0.75778741804E+03  0.50400001928E-02 0.  1.
    10030    2    1    2    0    0  0.00000000000E+00  0.00000000000E+00 -0.50036778425E+03  0.10152070519E+04  0.88333314136E+03 0.  0.
        4    1    3    3  502    0 -0.13642657000E+03  0.73337352857E+01 -0.73288861785E+03  0.74551548056E+03  0.12699999809E+01 0.  1.
       -4    1    3    3    0  502  0.13642657000E+03 -0.73337352857E+01  0.23252083360E+03  0.26969157130E+03  0.12699999809E+01 0. -1.
</event>
<event>
 5   0  0.1441195E-02  0.9018520E+03  0.7818609E-02  0.9423269E-01
        2   -1    0    0  501    0  0.00000000000E+00  0.00000000000E+00  0.54794008285E+03  0.54794008286E+03  0.25500000920E-02 0. -1.
       -2   -1    0    0    0  501  0.00000000000E+00  0.00000000000E+00 -0.37108852296E+03  0.37108852297E+03  0.25500000920E-02 0.  1.
    10030    2    1    2    0    0  0.00000000000E+00  0.00000000000E+00  0.17685155990E+03  0.91902860583E+03  0.90185204113E+03 0.  0.
        5    1    3    3  502    0  0.32243918466E+03 -0.30840202174E+03  0.15472919332E+03  0.47227327691E+03  0.46999998093E+01 0.  1.
       -5    1    3    3    0  502 -0.32243918466E+03  0.30840202174E+03  0.22122366573E+02  0.44675532892E+03  0.46999998093E+01 0. -1.
</event>
<event>
 5   0  0.8612969E-03  0.9241845E+03  0.7818609E-02  0.9395845E-01
        1   -1    0    0  501    0  0.00000000000E+00  0.00000000000E+00  0.58785165021E+03  0.58785165023E+03  0.50400001928E-02 0.  1.
       -1   -1    0    0    0  501  0.00000000000E+00  0.00000000000E+00 -0.36323660825E+03  0.36323660828E+03  0.50400001928E-02 0. -1.
    10030    2    1    2    0    0  0.00000000000E+00  0.00000000000E+00  0.22461504196E+03  0.95108825851E+03  0.92418448289E+03 0.  0.
        4    1    3    3  502    0  0.21329314369E+03 -0.28586052058E+03 -0.19004346149E+03  0.40413900149E+03  0.12699999809E+01 0. -1.
       -4    1    3    3    0  502 -0.21329314369E+03  0.28586052058E+03  0.41465850345E+03  0.54694925702E+03  0.12699999809E+01 0.  1.
</event>
<event>
 5   0  0.5770125E-03  0.8897655E+03  0.7818609E-02  0.9438466E-01
       -3   -1    0    0    0  501  0.00000000000E+00  0.00000000000E+00  0.18830883168E+03  0.18830885876E+03  0.10100000352E+00 0.  1.
        3   -1    0    0  501    0  0.00000000000E+00  0.00000000000E+00 -0.10510427252E+04  0.10510427300E+04  0.10100000352E+00 0. -1.
    10030    2    1    2    0    0  0.00000000000E+00  0.00000000000E+00 -0.86273389350E+03  0.12393515888E+04  0.88976546890E+03 0.  0.
        2    1    3    3  502    0 -0.40066134595E+03  0.18490901710E+03 -0.35257539953E+03  0.56482764725E+03  0.25500000920E-02 0.  1.
       -2    1    3    3    0  502  0.40066134595E+03 -0.18490901710E+03 -0.51015849397E+03  0.67452394155E+03  0.25500000920E-02 0. -1.
</event>
<event>
 5   0  0.8885324E-03  0.9018261E+03  0.7818609E-02  0.9423302E-01
       -1   -1    0    0    0  501  0.00000000000E+00  0.00000000000E+00  0.23330416764E+03  0.23330416769E+03  0.50400001928E-02 0. -1.
        1   -1    0    0  501    0  0.00000000000E+00  0.00000000000E+00 -0.87149150662E+03  0.87149150663E+03  0.50400001928E-02 0.  1.
    10030    2    1    2    0    0  0.00000000000E+00  0.00000000000E+00 -0.63818733898E+03  0.11047956743E+04  0.90182614864E+03 0.  0.
        2    1    3    3  502    0 -0.14653048988E+03 -0.40160202952E+02  0.20100173110E+03  0.25196373207E+03  0.25500000920E-02 0. -1.
       -2    1    3    3    0  502  0.14653048988E+03  0.40160202952E+02 -0.83918907009E+03  0.85283194225E+03  0.25500000920E-02 0.  1.
</event>
<event>
 5   0  0.8524692E-03  0.9136773E+03  0.7818609E-02  0.9408644E-01
       -1   -1    0    0    0  501  0.00000000000E+00  0.00000000000E+00  0.18586928207E+03  0.18586928214E+03  0.50400001928E-02 0. -1.
        1   -1    0    0  501    0  0.00000000000E+00  0.00000000000E+00 -0.11228404663E+04  0.11228404663E+04  0.50400001928E-02 0.  1.
    10030    2    1    2    0    0  0.00000000000E+00  0.00000000000E+00 -0.93697118419E+03  0.13087097484E+04  0.91367729839E+03 0.  0.
        5    1    3    3  502    0  0.27130304810E+03 -0.22775601213E+03 -0.55328129084E+02  0.35855464972E+03  0.46999998093E+01 0. -1.
       -5    1    3    3    0  502 -0.27130304810E+03  0.22775601213E+03 -0.88164305511E+03  0.95015509870E+03  0.46999998093E+01 0.  1.
</event>
<event>
 5   0  0.1535906E-02  0.9420531E+03  0.7818609E-02  0.9374488E-01
        2   -1    0    0  501    0  0.00000000000E+00  0.00000000000E+00  0.11620720667E+04  0.11620720667E+04  0.25500000920E-02 0. -1.
       -2   -1    0    0    0  501  0.00000000000E+00  0.00000000000E+00 -0.19092276345E+03  0.19092276347E+03  0.25500000920E-02 0.  1.
    10030    2    1    2    0    0  0.00000000000E+00  0.00000000000E+00  0.97114930323E+03  0.13529948302E+04  0.94205309897E+03 0.  0.
        2    1    3    3  502    0 -0.44996750293E+03 -0.11938449809E+03  0.58856868182E+03  0.75042421690E+03  0.25500000920E-02 0.  1.
       -2    1    3    3    0  502  0.44996750293E+03  0.11938449809E+03  0.38258062140E+03  0.60257061326E+03  0.25500000920E-02 0. -1.
</event>
<event>
 5   0  0.1454652E-02  0.8912472E+03  0.7818609E-02  0.9436589E-01
        2   -1    0    0  501    0  0.00000000000E+00  0.00000000000E+00  0.36623992000E+03  0.36623992001E+03  0.25500000920E-02 0. -1.
       -2   -1    0    0    0  501  0.00000000000E+00  0.00000000000E+00 -0.54221399912E+03  0.54221399913E+03  0.25500000920E-02 0.  1.
    10030    2    1    2    0    0  0.00000000000E+00  0.00000000000E+00 -0.17597407912E+03  0.90845391914E+03  0.89124724217E+03 0.  0.
        4    1    3    3  502    0 -0.75354145412E+02 -0.30263890810E+03  0.23645071130E+03  0.39138102624E+03  0.12699999809E+01 0. -1.
       -4    1    3    3    0  502  0.75354145412E+02  0.30263890810E+03 -0.41242479042E+03  0.51707289290E+03  0.12699999809E+01 0.  1.
</event>
<event>
 5   0  0.1440615E-02  0.9004077E+03  0.7818609E-02  0.9425072E-01
        2   -1    0    0  501    0  0.00000000000E+00  0.00000000000E+00  0.28689269004E+03  0.28689269005E+03  0.25500000920E-02 0.  1.
       -2   -1    0    0    0  501  0.00000000000E+00  0.00000000000E+00 -0.70647846886E+03  0.70647846886E+03  0.25500000920E-02 0. -1.
    10030    2    1    2    0    0  0.00000000000E+00  0.00000000000E+00 -0.41958577882E+03  0.99337115892E+03  0.90040770408E+03 0.  0.
        3    1    3    3  502    0  0.97107567862E+02 -0.77736966303E+02  0.26755778644E+03  0.29505947697E+03  0.10100000352E+00 0.  1.
       -3    1    3    3    0  502 -0.97107567862E+02  0.77736966303E+02 -0.68714356526E+03  0.69831168195E+03  0.10100000352E+00 0. -1.
</event>
<event>
 5   0  0.8612969E-03  0.8958364E+03  0.7818609E-02  0.9430801E-01
       -1   -1    0    0    0  501  0.00000000000E+00  0.00000000000E+00  0.52438967888E+03  0.52438967890E+03  0.50400001928E-02 0.  1.
        1   -1    0    0  501    0  0.00000000000E+00  0.00000000000E+00 -0.38259854749E+03  0.38259854752E+03  0.50400001928E-02 0. -1.
    10030    2    1    2    0    0  0.00000000000E+00  0.00000000000E+00  0.14179113139E+03  0.90698822642E+03  0.89583643481E+03 0.  0.
        4    1    3    3  502    0  0.22401538374E+03 -0.24932915966E+03 -0.22992465694E+03  0.40646633659E+03  0.12699999809E+01 0. -1.
       -4    1    3    3    0  502 -0.22401538374E+03  0.24932915966E+03  0.37171578833E+03  0.50052188984E+03  0.12699999809E+01 0.  1.
</event>
<event>
 5   0  0.8738044E-03  0.9050487E+03  0.7818609E-02  0.9419292E-01
        1   -1    0    0  501    0  0.00000000000E+00  0.00000000000E+00  0.12415601015E+04  0.12415601016E+04  0.50400001928E-02 0.  1.
       -1   -1    0    0    0  501  0.00000000000E+00  0.00000000000E+00 -0.16493626958E+03  0.16493626966E+03  0.50400001928E-02 0. -1.
    10030    2    1    2    0    0  0.00000000000E+00  0.00000000000E+00  0.10766238320E+04  0.14064963712E+04  0.90504870957E+03 0.  0.
        3    1    3    3  502    0  0.37046810907E+03  0.65101155030E+02  0.14733940567E+03  0.40397238877E+03  0.10100000352E+00 0. -1.
       -3    1    3    3    0  502 -0.37046810907E+03 -0.65101155030E+02  0.92928442629E+03  0.10025239824E+04  0.10100000352E+00 0.  1.
</event>
<event>
 5   0  0.8524692E-03  0.9058836E+03  0.7818609E-02  0.9418256E-01
        1   -1    0    0  501    0  0.00000000000E+00  0.00000000000E+00  0.66939332733E+03  0.66939332735E+03  0.50400001928E-02 0.  1.
       -1   -1    0    0    0  501  0.00000000000E+00  0.00000000000E+00 -0.30648088697E+03  0.30648088701E+03  0.50400001928E-02 0. -1.
    10030    2    1    2    0    0  0.00000000000E+00  0.00000000000E+00  0.36291244036E+03  0.97587421436E+03  0.90588357026E+03 0.  0.
        5    1    3    3  502    0  0.16867642955E+03 -0.50971946412E+02 -0.26801434326E+03  0.32078599626E+03  0.46999998093E+01 0. -1.
       -5    1    3    3    0  502 -0.16867642955E+03  0.50971946412E+02  0.63092678362E+03  0.65508821810E+03  0.46999998093E+01 0.  1.
</event>
<event>
 5   0  0.8524692E-03  0.9011690E+03  0.7818609E-02  0.9424121E-01
        1   -1    0    0  501    0  0.00000000000E+00  0.00000000000E+00  0.21392398776E+03  0.21392398782E+03  0.50400001928E-02 0. -1.
       -1   -1    0    0    0  501  0.00000000000E+00  0.00000000000E+00 -0.94905855105E+03  0.94905855106E+03  0.50400001928E-02 0.  1.
    10030    2    1    2    0    0  0.00000000000E+00  0.00000000000E+00 -0.73513456329E+03  0.11629825389E+04  0.90116899614E+03 0.  0.
        5    1    3    3  502    0 -0.36128445525E+03 -0.15732699378E+03 -0.85635042347E+02  0.40327867666E+03  0.46999998093E+01 0. -1.
       -5    1    3    3    0  502  0.36128445525E+03  0.15732699378E+03 -0.64949952094E+03  0.75970386222E+03  0.46999998093E+01 0.  1.
</event>
<event>
 5   0  0.1535906E-02  0.1042038E+04  0.7818609E-02  0.9263603E-01
        2   -1    0    0  501    0  0.00000000000E+00  0.00000000000E+00  0.48711380886E+03  0.48711380887E+03  0.25500000920E-02 0.  1.
       -2   -1    0    0    0  501  0.00000000000E+00  0.00000000000E+00 -0.55728431556E+03  0.55728431557E+03  0.25500000920E-02 0. -1.
    10030    2    1    2    0    0  0.00000000000E+00  0.00000000000E+00 -0.70170506703E+02  0.10443981244E+04  0.10420381674E+04 0.  0.
        2    1    3    3  502    0 -0.83228566295E+02  0.32578122638E+03 -0.43398219699E+03  0.54899995356E+03  0.25500000920E-02 0. -1.
       -2    1    3    3    0  502  0.83228566295E+02 -0.32578122638E+03  0.36381169028E+03  0.49539817087E+03  0.25500000920E-02 0.  1.
</event>
<event>
 5   0  0.1535906E-02  0.9053156E+03  0.7818609E-02  0.9418961E-01
        2   -1    0    0  501    0  0.00000000000E+00  0.00000000000E+00  0.24198862151E+03  0.24198862153E+03  0.25500000920E-02 0. -1.
       -2   -1    0    0    0  501  0.00000000000E+00  0.00000000000E+00 -0.84673022913E+03  0.84673022913E+03  0.25500000920E-02 0.  1.
    10030    2    1    2    0    0  0.00000000000E+00  0.00000000000E+00 -0.60474160761E+03  0.10887188507E+04  0.90531559348E+03 0.  0.
        2    1    3    3  502    0 -0.26301065412E+03 -0.32909879822E+03 -0.50150106035E+03  0.65496865322E+03  0.25500000920E-02 0.  1.
       -2    1    3    3    0  502  0.26301065412E+03  0.32909879822E+03 -0.10324054727E+03  0.43375019744E+03  0.25500000920E-02 0. -1.
</event>
<event>
 5   0  0.8738044E-03  0.8912026E+03  0.7818609E-02  0.9436646E-01
        1   -1    0    0  501    0  0.00000000000E+00  0.00000000000E+00  0.16891319889E+03  0.16891319897E+03  0.50400001928E-02 0. -1.
       -1   -1    0    0    0  501  0.00000000000E+00  0.00000000000E+00 -0.11755181286E+04  0.11755181286E+04  0.50400001928E-02 0.  1.
    10030    2    1    2    0    0  0.00000000000E+00  0.00000000000E+00 -0.10066049297E+04  0.13444313276E+04  0.89120262011E+03 0.  0.
        3    1    3    3  502    0  0.24423018345E+03 -0.36258565920E+03 -0.37314808876E+03  0.57476625607E+03  0.10100000352E+00 0. -1.
       -3    1    3    3    0  502 -0.24423018345E+03  0.36258565920E+03 -0.63345684099E+03  0.76966507155E+03  0.10100000352E+00 0.  1.
</event>
<event>
 5   0  0.8291252E-03  0.9067238E+03  0.7818609E-02  0.9417215E-01
       -1   -1    0    0    0  501  0.00000000000E+00  0.00000000000E+00  0.66638854723E+03  0.66638854724E+03  0.50400001928E-02 0.  1.
        1   -1    0    0  501    0  0.00000000000E+00  0.00000000000E+00 -0.30843421769E+03  0.30843421773E+03  0.50400001928E-02 0. -1.
    10030    2    1    2    0    0  0.00000000000E+00  0.00000000000E+00  0.35795432953E+03  0.97482276498E+03  0.90672383948E+03 0.  0.
        1    1    3    3  502    0 -0.34140658157E+02  0.13117840838E+03  0.64409329985E+03  0.65820174590E+03  0.50400001928E-02 0.  1.
       -1    1    3    3    0  502  0.34140658157E+02 -0.13117840838E+03 -0.28613897031E+03  0.31662101908E+03  0.50400001928E-02 0. -1.
</event>
<event>
 5   0  0.1483326E-02  0.9197801E+03  0.7818609E-02  0.9401188E-01
        2   -1    0    0  501    0  0.00000000000E+00  0.00000000000E+00  0.62947082887E+03  0.62947082887E+03  0.25500000920E-02 0.  1.
       -2   -1    0    0    0  501  0.00000000000E+00  0.00000000000E+00 -0.33599470077E+03  0.33599470078E+03  0.25500000920E-02 0. -1.
    10030    2    1    2    0    0  0.00000000000E+00  0.00000000000E+00  0.29347612809E+03  0.96546552965E+03  0.91978011024E+03 0.  0.
        1    1    3    3  502    0  0.22379634167E+03 -0.16997639400E+03 -0.23537940268E+03  0.36657910510E+03  0.50400001928E-02 0. -1.
       -1    1    3    3    0  502 -0.22379634167E+03  0.16997639400E+03  0.52885553077E+03  0.59888642456E+03  0.50400001928E-02 0.  1.
</event>
<event>
 5   0  0.1441195E-02  0.8792993E+03  0.7818609E-02  0.9451835E-01
       -2   -1    0    0    0  501  0.00000000000E+00  0.00000000000E+00  0.20365434021E+03  0.20365434023E+03  0.25500000920E-02 0. -1.
        2   -1    0    0  501    0  0.00000000000E+00  0.00000000000E+00 -0.94911699032E+03  0.94911699032E+03  0.25500000920E-02 0.  1.
    10030    2    1    2    0    0  0.00000000000E+00  0.00000000000E+00 -0.74546265011E+03  0.11527713305E+04  0.87929925385E+03 0.  0.
        5    1    3    3  502    0 -0.13723820223E+02 -0.37267556825E+03 -0.67793038809E+03  0.77374874702E+03  0.46999998093E+01 0.  1.
       -5    1    3    3    0  502  0.13723820223E+02  0.37267556825E+03 -0.67532262012E+02  0.37902258353E+03  0.46999998093E+01 0. -1.
</event>
<event>
 5   0  0.8885324E-03  0.8995804E+03  0.7818609E-02  0.9426106E-01
       -1   -1    0    0    0  501  0.00000000000E+00  0.00000000000E+00  0.34443084697E+03  0.34443084701E+03  0.50400001928E-02 0.  1.
        1   -1    0    0  501    0  0.00000000000E+00  0.00000000000E+00 -0.58737831854E+03  0.58737831856E+03  0.50400001928E-02 0. -1.
    10030    2    1    2    0    0  0.00000000000E+00  0.00000000000E+00 -0.24294747157E+03  0.93180916557E+03  0.89958037278E+03 0.  0.
        2    1    3    3  502    0 -0.20308217259E+02  0.30535722511E+03 -0.46291292769E+03  0.55492687558E+03  0.25500000920E-02 0. -1.
       -2    1    3    3    0  502  0.20308217259E+02 -0.30535722511E+03  0.21996545612E+03  0.37688228999E+03  0.25500000920E-02 0.  1.
</event>
<event>
 5   0  0.8885324E-03  0.8809917E+03  0.7818609E-02  0.9449660E-01
       -1   -1    0    0    0  501  0.00000000000E+00  0.00000000000E+00  0.33489069710E+03  0.33489069713E+03  0.50400001928E-02 0.  1.
        1   -1    0    0  501    0  0.00000000000E+00  0.00000000000E+00 -0.57940276016E+03  0.57940276018E+03  0.50400001928E-02 0. -1.
    10030    2    1    2    0    0  0.00000000000E+00  0.00000000000E+00 -0.24451206306E+03  0.91429345731E+03  0.88099170093E+03 0.  0.
        2    1    3    3  502    0 -0.37532106227E+02 -0.39610055543E+03  0.73919207683E+02  0.40468303434E+03  0.25500000920E-02 0.  1.
       -2    1    3    3    0  502  0.37532106227E+02  0.39610055543E+03 -0.31843127074E+03  0.50961042297E+03  0.25500000920E-02 0. -1.
</event>
<event>
 5   0  0.8738044E-03  0.9405387E+03  0.7818609E-02  0.9376278E-01
       -1   -1    0    0    0  501  0.00000000000E+00  0.00000000000E+00  0.25405576238E+03  0.25405576242E+03  0.50400001928E-02 0.  1.
        1   -1    0    0  501    0  0.00000000000E+00  0.00000000000E+00 -0.87049106481E+03  0.87049106483E+03  0.50400001928E-02 0. -1.
    10030    2    1    2    0    0  0.00000000000E+00  0.00000000000E+00 -0.61643530244E+03  0.11245468273E+04  0.94053872041E+03 0.  0.
        3    1    3    3  502    0 -0.95548197910E+02 -0.25356631005E+03  0.15133171369E+03  0.31036531618E+03  0.10100000352E+00 0.  1.
       -3    1    3    3    0  502  0.95548197910E+02  0.25356631005E+03 -0.76776701613E+03  0.81418151107E+03  0.10100000352E+00 0. -1.
</event>
<event>
 5   0  0.1440615E-02  0.9191933E+03  0.7818609E-02  0.9401902E-01
       -2   -1    0    0    0  501  0.00000000000E+00  0.00000000000E+00  0.16213302739E+03  0.16213302741E+03  0.25500000920E-02 0. -1.
        2   -1    0    0  501    0  0.00000000000E+00  0.00000000000E+00 -0.13028133070E+04  0.13028133070E+04  0.25500000920E-02 0.  1.
    10030    2    1    2    0    0  0.00000000000E+00  0.00000000000E+00 -0.11406802796E+04  0.14649463344E+04  0.91919326717E+03 0.  0.
        3    1    3    3  502    0  0.40395643616E+03 -0.19372018869E+03 -0.73381013785E+03  0.85975906069E+03  0.10100000352E+00 0.  1.
       -3    1    3    3    0  502 -0.40395643616E+03  0.19372018869E+03 -0.40687014178E+03  0.60518727374E+03  0.10100000352E+00 0. -1.
</event>
<event>
 5   0  0.8524692E-03  0.9033140E+03  0.7818609E-02  0.9421448E-01
        1   -1    0    0  501    0  0.00000000000E+00  0.00000000000E+00  0.85807046093E+03  0.85807046095E+03  0.50400001928E-02 0.  1.
       -1   -1    0    0    0  501  0.00000000000E+00  0.00000000000E+00 -0.23773575879E+03  0.23773575884E+03  0.50400001928E-02 0. -1.
    10030    2    1    2    0    0  0.00000000000E+00  0.00000000000E+00  0.62033470215E+03  0.10958062198E+04  0.90331397014E+03 0.  0.
        5    1    3    3  502    0 -0.27720550629E+03  0.34925068021E+03  0.39724879142E+03  0.59719981800E+03  0.46999998093E+01 0. -1.
       -5    1    3    3    0  502  0.27720550629E+03 -0.34925068021E+03  0.22308591073E+03  0.49860640179E+03  0.46999998093E+01 0.  1.
</event>
<event>
 5   0  0.8885324E-03  0.8961774E+03  0.7818609E-02  0.9430373E-01
       -1   -1    0    0    0  501  0.00000000000E+00  0.00000000000E+00  0.35150601686E+03  0.35150601689E+03  0.50400001928E-02 0. -1.
        1   -1    0    0  501    0  0.00000000000E+00  0.00000000000E+00 -0.57120921411E+03  0.57120921413E+03  0.50400001928E-02 0.  1.
    10030    2    1    2    0    0  0.00000000000E+00  0.00000000000E+00 -0.21970319725E+03  0.92271523103E+03  0.89617738349E+03 0.  0.
        2    1    3    3  502    0 -0.40616815909E+03  0.18341052541E+03 -0.61872535419E+02  0.44993355614E+03  0.25500000920E-02 0. -1.
       -2    1    3    3    0  502  0.40616815909E+03 -0.18341052541E+03 -0.15783066183E+03  0.47278167489E+03  0.25500000920E-02 0.  1.
</event>
<event>
 5   0  0.1440615E-02  0.8766707E+03  0.7818609E-02  0.9455223E-01
       -2   -1    0    0    0  501  0.00000000000E+00  0.00000000000E+00  0.14790385610E+03  0.14790385612E+03  0.25500000920E-02 0. -1.
        2   -1    0    0  501    0  0.00000000000E+00  0.00000000000E+00 -0.12990729424E+04  0.12990729425E+04  0.25500000920E-02 0.  1.
    10030    2    1    2    0    0  0.00000000000E+00  0.00000000000E+00 -0.11511690864E+04  0.14469767986E+04  0.87667074220E+03 0.  0.
        3    1    3    3  502    0 -0.66158669397E+02  0.39674480354E+03 -0.28801926654E+03  0.49471053837E+03  0.10100000352E+00 0. -1.
       -3    1    3    3    0  502  0.66158669397E+02 -0.39674480354E+03 -0.86314981982E+03  0.95226626020E+03  0.10100000352E+00 0.  1.
</event>
<event>
 5   0  0.1441195E-02  0.9038180E+03  0.7818609E-02  0.9420821E-01
       -2   -1    0    0    0  501  0.00000000000E+00  0.00000000000E+00  0.37530081466E+03  0.37530081467E+03  0.25500000920E-02 0. -1.
        2   -1    0    0  501    0  0.00000000000E+00  0.00000000000E+00 -0.54415478126E+03  0.54415478126E+03  0.25500000920E-02 0.  1.
    10030    2    1    2    0    0  0.00000000000E+00  0.00000000000E+00 -0.16885396659E+03  0.91945559594E+03  0.90381797441E+03 0.  0.
        5    1    3    3  502    0  0.97313169497E+01  0.71214072527E+02  0.36942357756E+03  0.37638014336E+03  0.46999998093E+01 0. -1.
       -5    1    3    3    0  502 -0.97313169497E+01 -0.71214072527E+02 -0.53827754416E+03  0.54307545258E+03  0.46999998093E+01 0.  1.
</event>
<event>
 5   0  0.1441195E-02  0.9021239E+03  0.7818609E-02  0.9422930E-01
       -2   -1    0    0    0  501  0.00000000000E+00  0.00000000000E+00  0.10728199031E+03  0.10728199034E+03  0.25500000920E-02 0.  1.
        2   -1    0    0  501    0  0.00000000000E+00  0.00000000000E+00 -0.18964683857E+04  0.18964683857E+04  0.25500000920E-02 0. -1.
    10030    2    1    2    0    0  0.00000000000E+00  0.00000000000E+00 -0.17891863954E+04  0.20037503760E+04  0.90212394493E+03 0.  0.
        5    1    3    3  502    0 -0.24145463599E+03 -0.24488103541E+03 -0.15428021044E+04  0.15806731117E+04  0.46999998093E+01 0. -1.
       -5    1    3    3    0  502  0.24145463599E+03  0.24488103541E+03 -0.24638429099E+03  0.42307726433E+03  0.46999998093E+01 0.  1.
</event>
<event>
 5   0  0.1441195E-02  0.9661211E+03  0.7818609E-02  0.9346503E-01
       -2   -1    0    0    0  501  0.00000000000E+00  0.00000000000E+00  0.56988449259E+03  0.56988449259E+03  0.25500000920E-02 0.  1.
        2   -1    0    0  501    0  0.00000000000E+00  0.00000000000E+00 -0.40946455231E+03  0.40946455232E+03  0.25500000920E-02 0. -1.
    10030    2    1    2    0    0  0.00000000000E+00  0.00000000000E+00  0.16041994028E+03  0.97934904491E+03  0.96612110759E+03 0.  0.
        5    1    3    3  502    0 -0.12787763279E+03  0.40908486615E+03 -0.14560063954E+03  0.45268615278E+03  0.46999998093E+01 0. -1.
       -5    1    3    3    0  502  0.12787763279E+03 -0.40908486615E+03  0.30602057981E+03  0.52666289213E+03  0.46999998093E+01 0.  1.
</event>
<event>
 5   0  0.1535906E-02  0.8977358E+03  0.7818609E-02  0.9428416E-01
        2   -1    0    0  501    0  0.00000000000E+00  0.00000000000E+00  0.68290039733E+03  0.68290039734E+03  0.25500000920E-02 0. -1.
       -2   -1    0    0    0  501  0.00000000000E+00  0.00000000000E+00 -0.29503920438E+03  0.29503920440E+03  0.25500000920E-02 0.  1.
    10030    2    1    2    0    0  0.00000000000E+00  0.00000000000E+00  0.38786119295E+03  0.97793960173E+03  0.89773579612E+03 0.  0.
        2    1    3    3  502    0 -0.20357123780E+03 -0.21357281783E+03 -0.17456241067E+03  0.34282157546E+03  0.25500000920E-02 0.  1.
       -2    1    3    3    0  502  0.20357123780E+03  0.21357281783E+03  0.56242360362E+03  0.63511802627E+03  0.25500000920E-02 0. -1.
</event>
<event>
 5   0  0.1454652E-02  0.8921168E+03  0.7818609E-02  0.9435490E-01
        2   -1    0    0  501    0  0.00000000000E+00  0.00000000000E+00  0.13535672100E+04  0.13535672100E+04  0.25500000920E-02 0. -1.
       -2   -1    0    0    0  501  0.00000000000E+00  0.00000000000E+00 -0.14699536324E+03  0.14699536326E+03  0.25500000920E-02 0.  1.
    10030    2    1    2    0    0  0.00000000000E+00  0.00000000000E+00  0.12065718468E+04  0.15005625733E+04  0.89211681684E+03 0.  0.
        4    1    3    3  502    0  0.37846428169E+03  0.13217043692E+03  0.93230240873E+03  0.10148367510E+04  0.12699999809E+01 0. -1.
       -4    1    3    3    0  502 -0.37846428169E+03 -0.13217043692E+03  0.27426943806E+03  0.48572582231E+03  0.12699999809E+01 0.  1.
</event>
<event>
 5   0  0.1440615E-02  0.8936171E+03  0.7818609E-02  0.9433596E-01
        2   -1    0    0  501    0  0.00000000000E+00  0.00000000000E+00  0.10028535333E+04  0.10028535333E+04  0.25500000920E-02 0.  1.
       -2   -1    0    0    0  501  0.00000000000E+00  0.00000000000E+00 -0.19906983782E+03  0.19906983784E+03  0.25500000920E-02 0. -1.
    10030    2    1    2    0    0  0.00000000000E+00  0.00000000000E+00  0.80378369552E+03  0.12019233712E+04  0.89361712216E+03 0.  0.
        3    1    3    3  502    0 -0.52805408119E+02 -0.38713337058E+03  0.11037143811E+03  0.40600803230E+03  0.10100000352E+00 0. -1.
       -3    1    3    3    0  502  0.52805408119E+02  0.38713337058E+03  0.69341225741E+03  0.79591533888E+03  0.10100000352E+00 0.  1.
</event>
<event>
 5   0  0.1441195E-02  0.8950829E+03  0.7818609E-02  0.9431749E-01
       -2   -1    0    0    0  501  0.00000000000E+00  0.00000000000E+00  0.13112234989E+03  0.13112234991E+03  0.25500000920E-02 0. -1.
        2   -1    0    0  501    0  0.00000000000E+00  0.00000000000E+00 -0.15275302701E+04  0.15275302701E+04  0.25500000920E-02 0.  1.
    10030    2    1    2    0    0  0.00000000000E+00  0.00000000000E+00 -0.13964079202E+04  0.16586526200E+04  0.89508292032E+03 0.  0.
        5    1    3    3  502    0 -0.27204883775E+03 -0.27947508433E+03 -0.29156400643E+03  0.48697900646E+03  0.46999998093E+01 0. -1.
       -5    1    3    3    0  502  0.27204883775E+03  0.27947508433E+03 -0.11048439138E+04  0.11716736136E+04  0.46999998093E+01 0.  1.
</event>
<event>
 5   0  0.1483326E-02  0.8822184E+03  0.7818609E-02  0.9448086E-01
        2   -1    0    0  501    0  0.00000000000E+00  0.00000000000E+00  0.89555248243E+03  0.89555248243E+03  0.25500000920E-02 0.  1.
       -2   -1    0    0    0  501  0.00000000000E+00  0.00000000000E+00 -0.21727071809E+03  0.21727071810E+03  0.25500000920E-02 0. -1.
    10030    2    1    2    0    0  0.00000000000E+00  0.00000000000E+00  0.67828176434E+03  0.11128232005E+04  0.88221841049E+03 0.  0.
        1    1    3    3  502    0  0.66629936273E+02  0.42703730674E+03  0.45037906953E+03  0.62421287719E+03  0.50400001928E-02 0.  1.
       -1    1    3    3    0  502 -0.66629936273E+02 -0.42703730674E+03  0.22790269481E+03  0.48861032335E+03  0.50400001928E-02 0. -1.
</event>
<event>
 5   0  0.8524692E-03  0.9049953E+03  0.7818609E-02  0.9419359E-01
       -1   -1    0    0    0  501  0.00000000000E+00  0.00000000000E+00  0.47172452816E+03  0.47172452819E+03  0.50400001928E-02 0. -1.
        1   -1    0    0  501    0  0.00000000000E+00  0.00000000000E+00 -0.43405440751E+03  0.43405440754E+03  0.50400001928E-02 0.  1.
    10030    2    1    2    0    0  0.00000000000E+00  0.00000000000E+00  0.37670120651E+02  0.90577893573E+03  0.90499527205E+03 0.  0.
        5    1    3    3  502    0 -0.35675479795E+03  0.50737385681E+02 -0.25505085927E+03  0.44149892297E+03  0.46999998093E+01 0.  1.
       -5    1    3    3    0  502  0.35675479795E+03 -0.50737385681E+02  0.29272097992E+03  0.46428001276E+03  0.46999998093E+01 0. -1.
</event>
<event>
 5   0  0.1483326E-02  0.8865881E+03  0.7818609E-02  0.9442504E-01
       -2   -1    0    0    0  501  0.00000000000E+00  0.00000000000E+00  0.41449000680E+03  0.41449000681E+03  0.25500000920E-02 0.  1.
        2   -1    0    0  501    0  0.00000000000E+00  0.00000000000E+00 -0.47409981044E+03  0.47409981045E+03  0.25500000920E-02 0. -1.
    10030    2    1    2    0    0  0.00000000000E+00  0.00000000000E+00 -0.59609803645E+02  0.88858981725E+03  0.88658814262E+03 0.  0.
        1    1    3    3  502    0 -0.42711719720E+03 -0.66694472783E+02  0.68561375288E+02  0.43769614466E+03  0.50400001928E-02 0.  1.
       -1    1    3    3    0  502  0.42711719720E+03  0.66694472783E+02 -0.12817117893E+03  0.45089367259E+03  0.50400001928E-02 0. -1.
</event>
<event>
 5   0  0.8885324E-03  0.9196756E+03  0.7818609E-02  0.9401315E-01
       -1   -1    0    0    0  501  0.00000000000E+00  0.00000000000E+00  0.77069111847E+03  0.77069111849E+03  0.50400001928E-02 0.  1.
        1   -1    0    0  501    0  0.00000000000E+00  0.00000000000E+00 -0.27436517161E+03  0.27436517166E+03  0.50400001928E-02 0. -1.
    10030    2    1    2    0    0  0.00000000000E+00  0.00000000000E+00  0.49632594686E+03  0.10450562901E+04  0.91967559717E+03 0.  0.
        2    1    3    3  502    0  0.12960596635E+03 -0.22081118902E+03  0.68219920959E+03  0.72866387949E+03  0.25500000920E-02 0.  1.
       -2    1    3    3    0  502 -0.12960596635E+03  0.22081118902E+03 -0.18587326273E+03  0.31639241065E+03  0.25500000920E-02 0. -1.
</event>
<event>
 5   0  0.1440615E-02  0.9252265E+03  0.7818609E-02  0.9394585E-01
       -2   -1    0    0    0  501  0.00000000000E+00  0.00000000000E+00  0.25920418085E+03  0.25920418086E+03  0.25500000920E-02 0.  1.
        2   -1    0    0  501    0  0.00000000000E+00  0.00000000000E+00 -0.82564655618E+03  0.82564655619E+03  0.25500000920E-02 0. -1.
    10030    2    1    2    0    0  0.00000000000E+00  0.00000000000E+00 -0.56644237533E+03  0.10848507371E+04  0.92522654367E+03 0.  0.
        3    1    3    3  502    0  0.26054412489E+03  0.23574449595E+03  0.69613843286E+02  0.35819660211E+03  0.10100000352E+00 0.  1.
       -3    1    3    3    0  502 -0.26054412489E+03 -0.23574449595E+03 -0.63605621862E+03  0.72665413494E+03  0.10100000352E+00 0. -1.
</event>
<event>
 5   0  0.8612969E-03  0.9070546E+03  0.7818609E-02  0.9416806E-01
       -1   -1    0    0    0  501  0.00000000000E+00  0.00000000000E+00  0.89843823622E+03  0.89843823623E+03  0.50400001928E-02 0.  1.
        1   -1    0    0  501    0  0.00000000000E+00  0.00000000000E+00 -0.22893837536E+03  0.22893837541E+03  0.50400001928E-02 0. -1.
    10030    2    1    2    0    0  0.00000000000E+00  0.00000000000E+00  0.66949986086E+03  0.11273766116E+04  0.90705455227E+03 0.  0.
        4    1    3    3  502    0 -0.90580056940E+02  0.23841225976E+03  0.80086204398E+03  0.84049198610E+03  0.12699999809E+01 0.  1.
       -4    1    3    3    0  502  0.90580056940E+02 -0.23841225976E+03 -0.13136218312E+03  0.28688462554E+03  0.12699999809E+01 0. -1.
</event>
<event>
 5   0  0.8291252E-03  0.8543737E+03  0.7818609E-02  0.9484485E-01
        1   -1    0    0  501    0  0.00000000000E+00  0.00000000000E+00  0.97098934918E+03  0.97098934920E+03  0.50400001928E-02 0. -1.
       -1   -1    0    0    0  501  0.00000000000E+00  0.00000000000E+00 -0.18794091046E+03  0.18794091053E+03  0.50400001928E-02 0.  1.
    10030    2    1    2    0    0  0.00000000000E+00  0.00000000000E+00  0.78304843872E+03  0.11589302597E+04  0.85437374112E+03 0.  0.
        1    1    3    3  502    0 -0.21638692712E+03 -0.32717440605E+03  0.62101282650E+03  0.73452251491E+03  0.50400001928E-02 0. -1.
       -1    1    3    3    0  502  0.21638692712E+03  0.32717440605E+03  0.16203561223E+03  0.42440774482E+03  0.50400001928E-02 0.  1.
</event>
<event>
 5   0  0.8524692E-03  0.8999260E+03  0.7818609E-02  0.9425674E-01
        1   -1    0    0  501    0  0.00000000000E+00  0.00000000000E+00  0.66863346668E+03  0.66863346670E+03  0.50400001928E-02 0. -1.
       -1   -1    0    0    0  501  0.00000000000E+00  0.00000000000E+00 -0.30280671948E+03  0.30280671952E+03  0.50400001928E-02 0.  1.
    10030    2    1    2    0    0  0.00000000000E+00  0.00000000000E+00  0.36582674720E+03  0.97144018622E+03  0.89992601164E+03 0.  0.
        5    1    3    3  502    0  0.10220274563E+03 -0.34968693934E+03 -0.10211134769E+03  0.37838495489E+03  0.46999998093E+01 0.  1.
       -5    1    3    3    0  502 -0.10220274563E+03  0.34968693934E+03  0.46793809489E+03  0.59305523133E+03  0.46999998093E+01 0. -1.
</event>
<event>
 5   0  0.1454652E-02  0.8769564E+03  0.7818609E-02  0.9454854E-01
       -2   -1    0    0    0  501  0.00000000000E+00  0.00000000000E+00  0.14700789752E+03  0.14700789754E+03  0.25500000920E-02 0. -1.
        2   -1    0    0  501    0  0.00000000000E+00  0.00000000000E+00 -0.13078422960E+04  0.13078422960E+04  0.25500000920E-02 0.  1.
    10030    2    1    2    0    0  0.00000000000E+00  0.00000000000E+00 -0.11608343985E+04  0.14548501935E+04  0.87695643275E+03 0.  0.
        4    1    3    3  502    0  0.26206315332E+03 -0.29101749625E+03 -0.25324424362E+03  0.46637167504E+03  0.12699999809E+01 0. -1.
       -4    1    3    3    0  502 -0.26206315332E+03  0.29101749625E+03 -0.90759015484E+03  0.98847851848E+03  0.12699999809E+01 0.  1.
</event>
<event>
 5   0  0.8885324E-03  0.9000133E+03  0.7818609E-02  0.9425565E-01
       -1   -1    0    0    0  501  0.00000000000E+00  0.00000000000E+00  0.17679443748E+03  0.17679443755E+03  0.50400001928E-02 0.  1.
        1   -1    0    0  501    0  0.00000000000E+00  0.00000000000E+00 -0.11454318411E+04  0.11454318411E+04  0.50400001928E-02 0. -1.
    10030    2    1    2    0    0  0.00000000000E+00  0.00000000000E+00 -0.96863740365E+03  0.13222262787E+04  0.90001328453E+03 0.  0.
        2    1    3    3  502    0  0.44994973352E+03  0.43011002420E+01 -0.49272174159E+03  0.66726904379E+03  0.25500000920E-02 0. -1.
       -2    1    3    3    0  502 -0.44994973352E+03 -0.43011002420E+01 -0.47591566206E+03  0.65495723491E+03  0.25500000920E-02 0.  1.
</event>
<event>
 5   0  0.1535906E-02  0.8847426E+03  0.7818609E-02  0.9444857E-01
        2   -1    0    0  501    0  0.00000000000E+00  0.00000000000E+00  0.11887878393E+04  0.11887878393E+04  0.25500000920E-02 0. -1.
       -2   -1    0    0    0  501  0.00000000000E+00  0.00000000000E+00 -0.16461506594E+03  0.16461506596E+03  0.25500000920E-02 0.  1.
    10030    2    1    2    0    0  0.00000000000E+00  0.00000000000E+00  0.10241727733E+04  0.13534029052E+04  0.88474264861E+03 0.  0.
        2    1    3    3  502    0  0.25170014814E+03  0.35052901663E+03  0.66093964941E+03  0.78934452316E+03  0.25500000920E-02 0. -1.
       -2    1    3    3    0  502 -0.25170014814E+03 -0.35052901663E+03  0.36323312392E+03  0.56405838207E+03  0.25500000920E-02 0.  1.
</event>
<event>
 5   0  0.5770125E-03  0.8887027E+03  0.7818609E-02  0.9439815E-01
        3   -1    0    0  501    0  0.00000000000E+00  0.00000000000E+00  0.28833019339E+03  0.28833021108E+03  0.10100000352E+00 0.  1.
       -3   -1    0    0    0  501  0.00000000000E+00  0.00000000000E+00 -0.68479852329E+03  0.68479853074E+03  0.10100000352E+00 0. -1.
    10030    2    1    2    0    0  0.00000000000E+00  0.00000000000E+00 -0.39646832990E+03  0.97312874182E+03  0.88870265643E+03 0.  0.
        5    1    3    3  502    0  0.30917675144E+03 -0.19116007739E+03  0.81566693387E+02  0.37256899266E+03  0.46999998093E+01 0.  1.
       -5    1    3    3    0  502 -0.30917675144E+03  0.19116007739E+03 -0.47803502329E+03  0.60055974916E+03  0.46999998093E+01 0. -1.
</event>
<event>
 5   0  0.1483326E-02  0.9108223E+03  0.7818609E-02  0.9412153E-01
        2   -1    0    0  501    0  0.00000000000E+00  0.00000000000E+00  0.67284357035E+03  0.67284357035E+03  0.25500000920E-02 0.  1.
       -2   -1    0    0    0  501  0.00000000000E+00  0.00000000000E+00 -0.30824295911E+03  0.30824295912E+03  0.25500000920E-02 0. -1.
    10030    2    1    2    0    0  0.00000000000E+00  0.00000000000E+00  0.36460061124E+03  0.98108652947E+03  0.91082225082E+03 0.  0.
        1    1    3    3  502    0  0.28877927840E+03  0.25165267542E+03  0.44762938206E+03  0.58914735372E+03  0.50400001928E-02 0.  1.
       -1    1    3    3    0  502 -0.28877927840E+03 -0.25165267542E+03 -0.83028770824E+02  0.39193917575E+03  0.50400001928E-02 0. -1.
</event>
<event>
 5   0  0.1441195E-02  0.9053362E+03  0.7818609E-02  0.9418935E-01
       -2   -1    0    0    0  501  0.00000000000E+00  0.00000000000E+00  0.27170322950E+03  0.27170322951E+03  0.25500000920E-02 0. -1.
        2   -1    0    0  501    0  0.00000000000E+00  0.00000000000E+00 -0.75416255940E+03  0.75416255940E+03  0.25500000920E-02 0.  1.
    10030    2    1    2    0    0  0.00000000000E+00  0.00000000000E+00 -0.48245932990E+03  0.10258657889E+04  0.90533618720E+03 0.  0.
        5    1    3    3  502    0 -0.13781742691E+03  0.23698879041E+03 -0.64936028018E+03  0.70487459410E+03  0.46999998093E+01 0.  1.
       -5    1    3    3    0  502  0.13781742691E+03 -0.23698879041E+03  0.16690095028E+03  0.32099119480E+03  0.46999998093E+01 0. -1.
</event>
<event>
 5   0  0.8885324E-03  0.9064160E+03  0.7818609E-02  0.9417596E-01
       -1   -1    0    0    0  501  0.00000000000E+00  0.00000000000E+00  0.34200469878E+03  0.34200469881E+03  0.50400001928E-02 0. -1.
        1   -1    0    0  501    0  0.00000000000E+00  0.00000000000E+00 -0.60056922870E+03  0.60056922872E+03  0.50400001928E-02 0.  1.
    10030    2    1    2    0    0  0.00000000000E+00  0.00000000000E+00 -0.25856452992E+03  0.94257392753E+03  0.90641601527E+03 0.  0.
        2    1    3    3  502    0 -0.44808313089E+03 -0.30891513357E+02 -0.19223408267E+03  0.48855574946E+03  0.25500000920E-02 0.  1.
       -2    1    3    3    0  502  0.44808313089E+03  0.30891513357E+02 -0.66330447251E+02  0.45401817807E+03  0.25500000920E-02 0. -1.
</event>
<event>
 5   0  0.8612969E-03  0.9107621E+03  0.7818609E-02  0.9412227E-01
        1   -1    0    0  501    0  0.00000000000E+00  0.00000000000E+00  0.33198781759E+03  0.33198781763E+03  0.50400001928E-02 0.  1.
       -1   -1    0    0    0  501  0.00000000000E+00  0.00000000000E+00 -0.62463702985E+03  0.62463702987E+03  0.50400001928E-02 0. -1.
    10030    2    1    2    0    0  0.00000000000E+00  0.00000000000E+00 -0.29264921226E+03  0.95662484750E+03  0.91076206411E+03 0.  0.
        4    1    3    3  502    0 -0.38498809992E+03  0.24106293044E+03 -0.18024799797E+03  0.48869021597E+03  0.12699999809E+01 0. -1.
       -4    1    3    3    0  502  0.38498809992E+03 -0.24106293044E+03 -0.11240121429E+03  0.46793463153E+03  0.12699999809E+01 0.  1.
</event>
<event>
 5   0  0.1454652E-02  0.9327209E+03  0.7818609E-02  0.9385578E-01
       -2   -1    0    0    0  501  0.00000000000E+00  0.00000000000E+00  0.26195552702E+03  0.26195552703E+03  0.25500000920E-02 0. -1.
        2   -1    0    0  501    0  0.00000000000E+00  0.00000000000E+00 -0.83026333291E+03  0.83026333291E+03  0.25500000920E-02 0.  1.
    10030    2    1    2    0    0  0.00000000000E+00  0.00000000000E+00 -0.56830780589E+03  0.10922188599E+04  0.93272089920E+03 0.  0.
        4    1    3    3  502    0 -0.13513906394E+03  0.25206120836E+03 -0.71551079790E+03  0.77055482230E+03  0.12699999809E+01 0.  1.
       -4    1    3    3    0  502  0.13513906394E+03 -0.25206120836E+03  0.14720299201E+03  0.32166403765E+03  0.12699999809E+01 0. -1.
</event>
<event>
 5   0  0.1440615E-02  0.9284980E+03  0.7818609E-02  0.9390642E-01
        2   -1    0    0  501    0  0.00000000000E+00  0.00000000000E+00  0.13446475092E+04  0.13446475092E+04  0.25500000920E-02 0. -1.
       -2   -1    0    0    0  501  0.00000000000E+00  0.00000000000E+00 -0.16028521197E+03  0.16028521199E+03  0.25500000920E-02 0.  1.
    10030    2    1    2    0    0  0.00000000000E+00  0.00000000000E+00  0.11843622972E+04  0.15049327212E+04  0.92849795056E+03 0.  0.
        3    1    3    3  502    0 -0.43563891368E+03 -0.20761642326E+02  0.85006450662E+03  0.95541717826E+03  0.10100000352E+00 0. -1.
       -3    1    3    3    0  502  0.43563891368E+03  0.20761642326E+02  0.33429779060E+03  0.54951554291E+03  0.10100000352E+00 0.  1.
</event>
<event>
 5   0  0.8291252E-03  0.8512101E+03  0.7818609E-02  0.9488714E-01
        1   -1    0    0  501    0  0.00000000000E+00  0.00000000000E+00  0.14450184733E+04  0.14450184733E+04  0.50400001928E-02 0.  1.
       -1   -1    0    0    0  501  0.00000000000E+00  0.00000000000E+00 -0.12535455368E+03  0.12535455378E+03  0.50400001928E-02 0. -1.
    10030    2    1    2    0    0  0.00000000000E+00  0.00000000000E+00  0.13196639196E+04  0.15703730271E+04  0.85121007009E+03 0.  0.
        1    1    3    3  502    0  0.15316210363E+02 -0.28326868951E+03  0.74499013095E+02  0.29330161904E+03  0.50400001928E-02 0. -1.
       -1    1    3    3    0  502 -0.15316210363E+02  0.28326868951E+03  0.12451649065E+04  0.12770714080E+04  0.50400001928E-02 0.  1.
</event>
<event>
 5   0  0.8291252E-03  0.8963926E+03  0.7818609E-02  0.9430102E-01
        1   -1    0    0  501    0  0.00000000000E+00  0.00000000000E+00  0.31200010395E+03  0.31200010399E+03  0.50400001928E-02 0.  1.
       -1   -1    0    0    0  501  0.00000000000E+00  0.00000000000E+00 -0.64384574500E+03  0.64384574502E+03  0.50400001928E-02 0. -1.
    10030    2    1    2    0    0  0.00000000000E+00  0.00000000000E+00 -0.33184564105E+03  0.95584584901E+03  0.89639263583E+03 0.  0.
        1    1    3    3  502    0  0.39234362908E+01  0.25960236640E+03 -0.55549083482E+03  0.61317114216E+03  0.50400001928E-02 0. -1.
       -1    1    3    3    0  502 -0.39234362908E+01 -0.25960236640E+03  0.22364519376E+03  0.34267470684E+03  0.50400001928E-02 0.  1.
</event>
<event>
 5   0  0.8885324E-03  0.9241360E+03  0.7818609E-02  0.9395903E-01
        1   -1    0    0  501    0  0.00000000000E+00  0.00000000000E+00  0.10782678430E+04  0.10782678430E+04  0.50400001928E-02 0.  1.
       -1   -1    0    0    0  501  0.00000000000E+00  0.00000000000E+00 -0.19800908163E+03  0.19800908169E+03  0.50400001928E-02 0. -1.
    10030    2    1    2    0    0  0.00000000000E+00  0.00000000000E+00  0.88025876138E+03  0.12762769247E+04  0.92413597570E+03 0.  0.
        2    1    3    3  502    0 -0.88938918938E+02 -0.43011764037E+03  0.63832557469E+03  0.77483601824E+03  0.25500000920E-02 0.  1.
       -2    1    3    3    0  502  0.88938918938E+02  0.43011764037E+03  0.24193318669E+03  0.50144090647E+03  0.25500000920E-02 0. -1.
</event>
<event>
 5   0  0.8885324E-03  0.8919421E+03  0.7818609E-02  0.9435711E-01
        1   -1    0    0  501    0  0.00000000000E+00  0.00000000000E+00  0.11581848224E+04  0.11581848224E+04  0.50400001928E-02 0. -1.
       -1   -1    0    0    0  501  0.00000000000E+00  0.00000000000E+00 -0.17172576104E+03  0.17172576112E+03  0.50400001928E-02 0.  1.
    10030    2    1    2    0    0  0.00000000000E+00  0.00000000000E+00  0.98645906139E+03  0.13299105836E+04  0.89194208359E+03 0.  0.
        2    1    3    3  502    0  0.18557180263E+03 -0.44257437521E+02 -0.10781298540E+03  0.21913296086E+03  0.25500000920E-02 0.  1.
       -2    1    3    3    0  502 -0.18557180263E+03  0.44257437521E+02  0.10942720468E+04  0.11107776227E+04  0.25500000920E-02 0. -1.
</event>
<event>
 5   0  0.1441195E-02  0.9949892E+03  0.7818609E-02  0.9314058E-01
       -2   -1    0    0    0  501  0.00000000000E+00  0.00000000000E+00  0.89062926468E+03  0.89062926468E+03  0.25500000920E-02 0. -1.
        2   -1    0    0  501    0  0.00000000000E+00  0.00000000000E+00 -0.27789440620E+03  0.27789440621E+03  0.25500000920E-02 0.  1.
    10030    2    1    2    0    0  0.00000000000E+00  0.00000000000E+00  0.61273485848E+03  0.11685236709E+04  0.99498922740E+03 0.  0.
        5    1    3    3  502    0  0.47620661952E+03 -0.10848202364E+03  0.41739534463E+03  0.64248117299E+03  0.46999998093E+01 0. -1.
       -5    1    3    3    0  502 -0.47620661952E+03  0.10848202364E+03  0.19533951385E+03  0.52604249790E+03  0.46999998093E+01 0.  1.
</event>
<event>
 5   0  0.8524692E-03  0.8960058E+03  0.7818609E-02  0.9430588E-01
       -1   -1    0    0    0  501  0.00000000000E+00  0.00000000000E+00  0.36274738668E+03  0.36274738671E+03  0.50400001928E-02 0.  1.
        1   -1    0    0  501    0  0.00000000000E+00  0.00000000000E+00 -0.55329581544E+03  0.55329581546E+03  0.50400001928E-02 0. -1.
    10030    2    1    2    0    0  0.00000000000E+00  0.00000000000E+00 -0.19054842876E+03  0.91604320217E+03  0.89600582841E+03 0.  0.
        5    1    3    3  502    0 -0.39902997503E+02  0.39859019838E+03 -0.30030356445E+03  0.50067026702E+03  0.46999998093E+01 0.  1.
       -5    1    3    3    0  502  0.39902997503E+02 -0.39859019838E+03  0.10975513569E+03  0.41537293516E+03  0.46999998093E+01 0. -1.
</event>
<event>
 5   0  0.8738044E-03  0.8982989E+03  0.7818609E-02  0.9427710E-01
        1   -1    0    0  501    0  0.00000000000E+00  0.00000000000E+00  0.83510345799E+03  0.83510345801E+03  0.50400001928E-02 0. -1.
       -1   -1    0    0    0  501  0.00000000000E+00  0.00000000000E+00 -0.24156914470E+03  0.24156914476E+03  0.50400001928E-02 0.  1.
    10030    2    1    2    0    0  0.00000000000E+00  0.00000000000E+00  0.59353431329E+03  0.10766726028E+04  0.89829889930E+03 0.  0.
        3    1    3    3  502    0 -0.30973834759E+03 -0.47802286012E+02  0.68238649586E+03  0.75091560274E+03  0.10100000352E+00 0. -1.
       -3    1    3    3    0  502  0.30973834759E+03  0.47802286012E+02 -0.88852182566E+02  0.32575700002E+03  0.10100000352E+00 0.  1.
</event>
<event>
 5   0  0.8738044E-03  0.7712068E+03  0.7818609E-02  0.9602655E-01
        1   -1    0    0  501    0  0.00000000000E+00  0.00000000000E+00  0.31776125032E+03  0.31776125036E+03  0.50400001928E-02 0. -1.
       -1   -1    0    0    0  501  0.00000000000E+00  0.00000000000E+00 -0.46792981492E+03  0.46792981494E+03  0.50400001928E-02 0.  1.
    10030    2    1    2    0    0  0.00000000000E+00  0.00000000000E+00 -0.15016856459E+03  0.78569106531E+03  0.77120675069E+03 0.  0.
        3    1    3    3  502    0 -0.29159243427E+03  0.47369272398E+02 -0.32756937804E+03  0.44110282624E+03  0.10100000352E+00 0.  1.
       -3    1    3    3    0  502  0.29159243427E+03 -0.47369272398E+02  0.17740081344E+03  0.34458823907E+03  0.10100000352E+00 0. -1.
</event>
<event>
 5   0  0.8612969E-03  0.8899620E+03  0.7818609E-02  0.9438217E-01
        1   -1    0    0  501    0  0.00000000000E+00  0.00000000000E+00  0.11838123380E+04  0.11838123380E+04  0.50400001928E-02 0.  1.
       -1   -1    0    0    0  501  0.00000000000E+00  0.00000000000E+00 -0.16726307464E+03  0.16726307472E+03  0.50400001928E-02 0. -1.
    10030    2    1    2    0    0  0.00000000000E+00  0.00000000000E+00  0.10165492633E+04  0.13510754127E+04  0.88996200258E+03 0.  0.
        4    1    3    3  502    0 -0.24736099308E+03 -0.10896353641E+03 -0.28348321046E+02  0.27178254795E+03  0.12699999809E+01 0. -1.
       -4    1    3    3    0  502  0.24736099308E+03  0.10896353641E+03  0.10448975844E+04  0.10792928647E+04  0.12699999809E+01 0.  1.
</event>
<event>
 5   0  0.1535906E-02  0.8845901E+03  0.7818609E-02  0.9445052E-01
       -2   -1    0    0    0  501  0.00000000000E+00  0.00000000000E+00  0.18560279905E+03  0.18560279906E+03  0.25500000920E-02 0. -1.
        2   -1    0    0  501    0  0.00000000000E+00  0.00000000000E+00 -0.10539975915E+04  0.10539975915E+04  0.25500000920E-02 0.  1.
    10030    2    1    2    0    0  0.00000000000E+00  0.00000000000E+00 -0.86839479242E+03  0.12396003905E+04  0.88459008174E+03 0.  0.
        2    1    3    3  502    0 -0.34519013992E+03  0.27179438786E+03 -0.50560298924E+03  0.66982296519E+03  0.25500000920E-02 0.  1.
       -2    1    3    3    0  502  0.34519013992E+03 -0.27179438786E+03 -0.36279180318E+03  0.56977742534E+03  0.25500000920E-02 0. -1.
</event>
<event>
 5   0  0.1483326E-02  0.9129474E+03  0.7818609E-02  0.9409540E-01
       -2   -1    0    0    0  501  0.00000000000E+00  0.00000000000E+00  0.55483046190E+03  0.55483046190E+03  0.25500000920E-02 0. -1.
        2   -1    0    0  501    0  0.00000000000E+00  0.00000000000E+00 -0.37555298646E+03  0.37555298647E+03  0.25500000920E-02 0.  1.
    10030    2    1    2    0    0  0.00000000000E+00  0.00000000000E+00  0.17927747543E+03  0.93038344838E+03  0.91294739597E+03 0.  0.
        1    1    3    3  502    0 -0.16859608617E+03 -0.41954078333E+03  0.15351864803E+03  0.47750087379E+03  0.50400001928E-02 0. -1.
       -1    1    3    3    0  502  0.16859608617E+03  0.41954078333E+03  0.25758827402E+02  0.45288257459E+03  0.50400001928E-02 0.  1.
</event>
<event>
 5   0  0.8524692E-03  0.9000160E+03  0.7818609E-02  0.9425561E-01
       -1   -1    0    0    0  501  0.00000000000E+00  0.00000000000E+00  0.23429831041E+03  0.23429831046E+03  0.50400001928E-02 0. -1.
        1   -1    0    0  501    0  0.00000000000E+00  0.00000000000E+00 -0.86431360527E+03  0.86431360529E+03  0.50400001928E-02 0.  1.
    10030    2    1    2    0    0  0.00000000000E+00  0.00000000000E+00 -0.63001529486E+03  0.10986119157E+04  0.90001603856E+03 0.  0.
        5    1    3    3  502    0  0.23202528970E+03  0.14479904085E+03  0.12116654578E+03  0.29917539857E+03  0.46999998093E+01 0. -1.
       -5    1    3    3    0  502 -0.23202528970E+03 -0.14479904085E+03 -0.75118184065E+03  0.79943651718E+03  0.46999998093E+01 0.  1.
</event>
<event>
 5   0  0.8885324E-03  0.7005166E+03  0.7818609E-02  0.9716349E-01
       -1   -1    0    0    0  501  0.00000000000E+00  0.00000000000E+00  0.16987629406E+03  0.16987629414E+03  0.50400001928E-02 0.  1.
        1   -1    0    0  501    0  0.00000000000E+00  0.00000000000E+00 -0.72217780839E+03  0.72217780841E+03  0.50400001928E-02 0. -1.
    10030    2    1    2    0    0  0.00000000000E+00  0.00000000000E+00 -0.55230151433E+03  0.89205410254E+03  0.70051663730E+03 0.  0.
        2    1    3    3  502    0 -0.32715262350E+03  0.55319014028E+02 -0.41904595664E+03  0.53449840613E+03  0.25500000920E-02 0. -1.
       -2    1    3    3    0  502  0.32715262350E+03 -0.55319014028E+02 -0.13325555769E+03  0.35755569641E+03  0.25500000920E-02 0.  1.
</event>
<event>
 5   0  0.8738044E-03  0.9033633E+03  0.7818609E-02  0.9421387E-01
        1   -1    0    0  501    0  0.00000000000E+00  0.00000000000E+00  0.26839475912E+04  0.26839475912E+04  0.50400001928E-02 0.  1.
       -1   -1    0    0    0  501  0.00000000000E+00  0.00000000000E+00 -0.76013528486E+02  0.76013528653E+02  0.50400001928E-02 0. -1.
    10030    2    1    2    0    0  0.00000000000E+00  0.00000000000E+00  0.26079340627E+04  0.27599611199E+04  0.90336333093E+03 0.  0.
        3    1    3    3  502    0 -0.26233738734E+03 -0.12171121034E+03  0.24393030942E+03  0.37833388637E+03  0.10100000352E+00 0. -1.
       -3    1    3    3    0  502  0.26233738734E+03  0.12171121034E+03  0.23640037533E+04  0.23816272335E+04  0.10100000352E+00 0.  1.
</event>
<event>
 5   0  0.1535906E-02  0.9061326E+03  0.7818609E-02  0.9417948E-01
        2   -1    0    0  501    0  0.00000000000E+00  0.00000000000E+00  0.77868397880E+03  0.77868397881E+03  0.25500000920E-02 0.  1.
       -2   -1    0    0    0  501  0.00000000000E+00  0.00000000000E+00 -0.26361023371E+03  0.26361023372E+03  0.25500000920E-02 0. -1.
    10030    2    1    2    0    0  0.00000000000E+00  0.00000000000E+00  0.51507374510E+03  0.10422942125E+04  0.90613258554E+03 0.  0.
        2    1    3    3  502    0  0.29094689682E+03 -0.80524802867E+02  0.64614106016E+03  0.71318483598E+03  0.25500000920E-02 0.  1.
       -2    1    3    3    0  502 -0.29094689682E+03  0.80524802867E+02 -0.13106731507E+03  0.32910937654E+03  0.25500000920E-02 0. -1.
</event>
<event>
 5   0  0.1483326E-02  0.8995481E+03  0.7818609E-02  0.9426147E-01
       -2   -1    0    0    0  501  0.00000000000E+00  0.00000000000E+00  0.78196235219E+03  0.78196235220E+03  0.25500000920E-02 0.  1.
        2   -1    0    0  501    0  0.00000000000E+00  0.00000000000E+00 -0.25870385499E+03  0.25870385500E+03  0.25500000920E-02 0. -1.
    10030    2    1    2    0    0  0.00000000000E+00  0.00000000000E+00  0.52325849720E+03  0.10406662072E+04  0.89954805314E+03 0.  0.
        1    1    3    3  502    0  0.24717147259E+03  0.37112810814E+03  0.19351223849E+03  0.48608311633E+03  0.50400001928E-02 0. -1.
       -1    1    3    3    0  502 -0.24717147259E+03 -0.37112810814E+03  0.32974625872E+03  0.55458309087E+03  0.50400001928E-02 0.  1.
</event>
<event>
 5   0  0.8291252E-03  0.9081409E+03  0.7818609E-02  0.9415462E-01
       -1   -1    0    0    0  501  0.00000000000E+00  0.00000000000E+00  0.19073939629E+03  0.19073939635E+03  0.50400001928E-02 0.  1.
        1   -1    0    0  501    0  0.00000000000E+00  0.00000000000E+00 -0.10809511082E+04  0.10809511082E+04  0.50400001928E-02 0. -1.
    10030    2    1    2    0    0  0.00000000000E+00  0.00000000000E+00 -0.89021171193E+03  0.12716905046E+04  0.90814087420E+03 0.  0.
        1    1    3    3  502    0  0.40809822475E+03 -0.15050967992E+03 -0.26261934445E+03  0.50810062478E+03  0.50400001928E-02 0. -1.
       -1    1    3    3    0  502 -0.40809822475E+03  0.15050967992E+03 -0.62759236748E+03  0.76358987981E+03  0.50400001928E-02 0.  1.
</event>
<event>
 5   0  0.1535906E-02  0.9083680E+03  0.7818609E-02  0.9415181E-01
       -2   -1    0    0    0  501  0.00000000000E+00  0.00000000000E+00  0.28723056027E+03  0.28723056028E+03  0.25500000920E-02 0.  1.
        2   -1    0    0  501    0  0.00000000000E+00  0.00000000000E+00 -0.71817959804E+03  0.71817959804E+03  0.25500000920E-02 0. -1.
    10030    2    1    2    0    0  0.00000000000E+00  0.00000000000E+00 -0.43094903777E+03  0.10054101583E+04  0.90836804947E+03 0.  0.
        2    1    3    3  502    0 -0.32527283349E+03  0.11485492962E+03  0.11153569693E+03  0.36253866382E+03  0.25500000920E-02 0.  1.
       -2    1    3    3    0  502  0.32527283349E+03 -0.11485492962E+03 -0.54248473469E+03  0.64287149451E+03  0.25500000920E-02 0. -1.
</event>
<event>
 5   0  0.8612969E-03  0.8892171E+03  0.7818609E-02  0.9439162E-01
       -1   -1    0    0    0  501  0.00000000000E+00  0.00000000000E+00  0.31938671332E+03  0.31938671336E+03  0.50400001928E-02 0.  1.
        1   -1    0    0  501    0  0.00000000000E+00  0.00000000000E+00 -0.61892612688E+03  0.61892612690E+03  0.50400001928E-02 0. -1.
    10030    2    1    2    0    0  0.00000000000E+00  0.00000000000E+00 -0.29953941356E+03  0.93831284026E+03  0.88921714217E+03 0.  0.
        4    1    3    3  502    0  0.57316246512E+02 -0.42287129961E+03 -0.18101029785E+02  0.42712357501E+03  0.12699999809E+01 0.  1.
       -4    1    3    3    0  502 -0.57316246512E+02  0.42287129961E+03 -0.28143838377E+03  0.51118926525E+03  0.12699999809E+01 0. -1.
</event>
<event>
 5   0  0.5770125E-03  0.9026113E+03  0.7818609E-02  0.9422323E-01
       -3   -1    0    0    0  501  0.00000000000E+00  0.00000000000E+00  0.74653610738E+03  0.74653611421E+03  0.10100000352E+00 0.  1.
        3   -1    0    0  501    0  0.00000000000E+00  0.00000000000E+00 -0.27282909150E+03  0.27282911019E+03  0.10100000352E+00 0. -1.
    10030    2    1    2    0    0  0.00000000000E+00  0.00000000000E+00  0.47370701589E+03  0.10193652244E+04  0.90261128058E+03 0.  0.
        4    1    3    3  502    0 -0.37092433887E+03  0.44220155447E+02 -0.49153189009E+02  0.37677305664E+03  0.12699999809E+01 0. -1.
       -4    1    3    3    0  502  0.37092433887E+03 -0.44220155447E+02  0.52286020489E+03  0.64259216777E+03  0.12699999809E+01 0.  1.
</event>
<event>
 5   0  0.8738044E-03  0.9124057E+03  0.7818609E-02  0.9410205E-01
       -1   -1    0    0    0  501  0.00000000000E+00  0.00000000000E+00  0.14098499794E+04  0.14098499794E+04  0.50400001928E-02 0.  1.
        1   -1    0    0  501    0  0.00000000000E+00  0.00000000000E+00 -0.14761927602E+03  0.14761927611E+03  0.50400001928E-02 0. -1.
    10030    2    1    2    0    0  0.00000000000E+00  0.00000000000E+00  0.12622307033E+04  0.15574692555E+04  0.91240568462E+03 0.  0.
        3    1    3    3  502    0 -0.33532868669E+03  0.27579675372E+03  0.87016644443E+03  0.97247047703E+03  0.10100000352E+00 0.  1.
       -3    1    3    3    0  502  0.33532868669E+03 -0.27579675372E+03  0.39206425891E+03  0.58499877846E+03  0.10100000352E+00 0. -1.
</event>
<event>
 5   0  0.1441195E-02  0.9050084E+03  0.7818609E-02  0.9419342E-01
        2   -1    0    0  501    0  0.00000000000E+00  0.00000000000E+00  0.22826505378E+04  0.22826505378E+04  0.25500000920E-02 0.  1.
       -2   -1    0    0    0  501  0.00000000000E+00  0.00000000000E+00 -0.89702765822E+02  0.89702765858E+02  0.25500000920E-02 0. -1.
    10030    2    1    2    0    0  0.00000000000E+00  0.00000000000E+00  0.21929477719E+04  0.23723533036E+04  0.90500843463E+03 0.  0.
        5    1    3    3  502    0  0.10665840118E+03 -0.20649034770E+02 -0.54943816112E+02  0.12183312401E+03  0.46999998093E+01 0. -1.
       -5    1    3    3    0  502 -0.10665840118E+03  0.20649034770E+02  0.22478915881E+04  0.22505201796E+04  0.46999998093E+01 0.  1.
</event>
<event>
 5   0  0.1535906E-02  0.9028072E+03  0.7818609E-02  0.9422079E-01
        2   -1    0    0  501    0  0.00000000000E+00  0.00000000000E+00  0.50872946066E+03  0.50872946067E+03  0.25500000920E-02 0. -1.
       -2   -1    0    0    0  501  0.00000000000E+00  0.00000000000E+00 -0.40053745994E+03  0.40053745995E+03  0.25500000920E-02 0.  1.
    10030    2    1    2    0    0  0.00000000000E+00  0.00000000000E+00  0.10819200072E+03  0.90926692062E+03  0.90280719088E+03 0.  0.
        2    1    3    3  502    0 -0.32972423568E+03 -0.26225180265E+03  0.21733943692E+03  0.47405749698E+03  0.25500000920E-02 0. -1.
       -2    1    3    3    0  502  0.32972423568E+03  0.26225180265E+03 -0.10914743620E+03  0.43520942364E+03  0.25500000920E-02 0.  1.
</event>
<event>
 5   0  0.8524692E-03  0.8936774E+03  0.7818609E-02  0.9433520E-01
       -1   -1    0    0    0  501  0.00000000000E+00  0.00000000000E+00  0.16192954489E+03  0.16192954497E+03  0.50400001928E-02 0.  1.
        1   -1    0    0  501    0  0.00000000000E+00  0.00000000000E+00 -0.12330350694E+04  0.12330350694E+04  0.50400001928E-02 0. -1.
    10030    2    1    2    0    0  0.00000000000E+00  0.00000000000E+00 -0.10711055245E+04  0.13949646144E+04  0.89367736389E+03 0.  0.
        5    1    3    3  502    0  0.36877297734E+03  0.24707392240E+03 -0.61520109987E+03  0.75863925236E+03  0.46999998093E+01 0. -1.
       -5    1    3    3    0  502 -0.36877297734E+03 -0.24707392240E+03 -0.45590442466E+03  0.63632536203E+03  0.46999998093E+01 0.  1.
</event>
<event>
 5   0  0.8524692E-03  0.9854290E+03  0.7818609E-02  0.9324672E-01
        1   -1    0    0  501    0  0.00000000000E+00  0.00000000000E+00  0.68030275964E+03  0.68030275966E+03  0.50400001928E-02 0.  1.
       -1   -1    0    0    0  501  0.00000000000E+00  0.00000000000E+00 -0.35685226999E+03  0.35685227002E+03  0.50400001928E-02 0. -1.
    10030    2    1    2    0    0  0.00000000000E+00  0.00000000000E+00  0.32345048966E+03  0.10371550297E+04  0.98542901132E+03 0.  0.
        5    1    3    3  502    0  0.26135733480E+03 -0.36265954078E+03  0.37976085096E+03  0.58657479736E+03  0.46999998093E+01 0.  1.
       -5    1    3    3    0  502 -0.26135733480E+03  0.36265954078E+03 -0.56310361306E+02  0.45058023233E+03  0.46999998093E+01 0. -1.
</event>
<event>
 5   0  0.8885324E-03  0.8050710E+03  0.7818609E-02  0.9552706E-01
       -1   -1    0    0    0  501  0.00000000000E+00  0.00000000000E+00  0.40820208287E+03  0.40820208290E+03  0.50400001928E-02 0.  1.
        1   -1    0    0  501    0  0.00000000000E+00  0.00000000000E+00 -0.39694754557E+03  0.39694754560E+03  0.50400001928E-02 0. -1.
    10030    2    1    2    0    0  0.00000000000E+00  0.00000000000E+00  0.11254537302E+02  0.80514962850E+03  0.80507096561E+03 0.  0.
        2    1    3    3  502    0 -0.39445140664E+03  0.29489664024E+01 -0.74594073452E+02  0.40145346481E+03  0.25500000920E-02 0.  1.
       -2    1    3    3    0  502  0.39445140664E+03 -0.29489664024E+01  0.85848610755E+02  0.40369616369E+03  0.25500000920E-02 0. -1.
</event>
<event>
 5   0  0.8291252E-03  0.9033563E+03  0.7818609E-02  0.9421396E-01
        1   -1    0    0  501    0  0.00000000000E+00  0.00000000000E+00  0.83840841315E+03  0.83840841316E+03  0.50400001928E-02 0.  1.
       -1   -1    0    0    0  501  0.00000000000E+00  0.00000000000E+00 -0.24333385214E+03  0.24333385220E+03  0.50400001928E-02 0. -1.
    10030    2    1    2    0    0  0.00000000000E+00  0.00000000000E+00  0.59507456100E+03  0.10817422654E+04  0.90335629489E+03 0.  0.
        1    1    3    3  502    0 -0.15252198973E+02 -0.25544428255E+02 -0.24215924382E+03  0.24398001308E+03  0.50400001928E-02 0. -1.
       -1    1    3    3    0  502  0.15252198973E+02  0.25544428255E+02  0.83723380482E+03  0.83776225228E+03  0.50400001928E-02 0.  1.
</event>
<event>
 5   0  0.1535906E-02  0.9241155E+03  0.7818609E-02  0.9395928E-01
        2   -1    0    0  501    0  0.00000000000E+00  0.00000000000E+00  0.32335621792E+03  0.32335621793E+03  0.25500000920E-02 0.  1.
       -2   -1    0    0    0  501  0.00000000000E+00  0.00000000000E+00 -0.66025434765E+03  0.66025434766E+03  0.25500000920E-02 0. -1.
    10030    2    1    2    0    0  0.00000000000E+00  0.00000000000E+00 -0.33689812973E+03  0.98361056559E+03  0.92411546623E+03 0.  0.
        2    1    3    3  502    0 -0.42719224517E+02  0.26462606677E+03  0.23213925113E+03  0.35459909656E+03  0.25500000920E-02 0.  1.
       -2    1    3    3    0  502  0.42719224517E+02 -0.26462606677E+03 -0.56903738085E+03  0.62901146903E+03  0.25500000920E-02 0. -1.
</event>
<event>
 5   0  0.8291252E-03  0.8951136E+03  0.7818609E-02  0.9431710E-01
        1   -1    0    0  501    0  0.00000000000E+00  0.00000000000E+00  0.58599931959E+03  0.58599931961E+03  0.50400001928E-02 0. -1.
       -1   -1    0    0    0  501  0.00000000000E+00  0.00000000000E+00 -0.34182140160E+03  0.34182140164E+03  0.50400001928E-02 0.  1.
    10030    2    1    2    0    0  0.00000000000E+00  0.00000000000E+00  0.24417791799E+03  0.92782072124E+03  0.89511364370E+03 0.  0.
        1    1    3    3  502    0 -0.44298427373E+03  0.57589003096E+02  0.93597340272E+02  0.45641211880E+03  0.50400001928E-02 0.  1.
       -1    1    3    3    0  502  0.44298427373E+03 -0.57589003096E+02  0.15058057772E+03  0.47140860245E+03  0.50400001928E-02 0. -1.
</event>
<event>
 5   0  0.5770125E-03  0.9084125E+03  0.7818609E-02  0.9415126E-01
        3   -1    0    0  501    0  0.00000000000E+00  0.00000000000E+00  0.21196724357E+03  0.21196726763E+03  0.10100000352E+00 0. -1.
       -3   -1    0    0    0  501  0.00000000000E+00  0.00000000000E+00 -0.97327911630E+03  0.97327912154E+03  0.10100000352E+00 0.  1.
    10030    2    1    2    0    0  0.00000000000E+00  0.00000000000E+00 -0.76131187273E+03  0.11852463892E+04  0.90841248091E+03 0.  0.
        3    1    3    3  502    0  0.18149072678E+03  0.15806841061E+03 -0.88324318353E+03  0.91544690604E+03  0.10100000352E+00 0.  1.
       -3    1    3    3    0  502 -0.18149072678E+03 -0.15806841061E+03  0.12193131079E+03  0.26979948312E+03  0.10100000352E+00 0. -1.
</event>
<event>
 5   0  0.1441195E-02  0.8746346E+03  0.7818609E-02  0.9457857E-01
       -2   -1    0    0    0  501  0.00000000000E+00  0.00000000000E+00  0.66133578628E+02  0.66133578677E+02  0.25500000920E-02 0. -1.
        2   -1    0    0  501    0  0.00000000000E+00  0.00000000000E+00 -0.28918199199E+04  0.28918199199E+04  0.25500000920E-02 0.  1.
    10030    2    1    2    0    0  0.00000000000E+00  0.00000000000E+00 -0.28256863413E+04  0.29579534986E+04  0.87463455255E+03 0.  0.
        5    1    3    3  502    0  0.48519044354E+02  0.10100750348E+03  0.16668585893E+02  0.11338670636E+03  0.46999998093E+01 0. -1.
       -5    1    3    3    0  502 -0.48519044354E+02 -0.10100750348E+03 -0.28423549272E+04  0.28445667923E+04  0.46999998093E+01 0.  1.
</event>
<event>
 5   0  0.8738044E-03  0.9250075E+03  0.7818609E-02  0.9394850E-01
       -1   -1    0    0    0  501  0.00000000000E+00  0.00000000000E+00  0.56520679300E+03  0.56520679303E+03  0.50400001928E-02 0. -1.
        1   -1    0    0  501    0  0.00000000000E+00  0.00000000000E+00 -0.37846273376E+03  0.37846273380E+03  0.50400001928E-02 0.  1.
    10030    2    1    2    0    0  0.00000000000E+00  0.00000000000E+00  0.18674405924E+03  0.94366952682E+03  0.92500747683E+03 0.  0.
        3    1    3    3  502    0  0.33678874409E+03  0.26373583356E+03  0.27277916913E+03  0.50733788875E+03  0.10100000352E+00 0.  1.
       -3    1    3    3    0  502 -0.33678874409E+03 -0.26373583356E+03 -0.86035109883E+02  0.43633163807E+03  0.10100000352E+00 0. -1.
</event>
<event>
 5   0  0.8524692E-03  0.8972399E+03  0.7818609E-02  0.9429038E-01
        1   -1    0    0  501    0  0.00000000000E+00  0.00000000000E+00  0.79751818089E+03  0.79751818091E+03  0.50400001928E-02 0.  1.
       -1   -1    0    0    0  501  0.00000000000E+00  0.00000000000E+00 -0.25235768363E+03  0.25235768368E+03  0.50400001928E-02 0. -1.
    10030    2    1    2    0    0  0.00000000000E+00  0.00000000000E+00  0.54516049726E+03  0.10498758646E+04  0.89723985828E+03 0.  0.
        5    1    3    3  502    0  0.25637159544E+03 -0.13120299042E+03 -0.12987398486E+03  0.31595879729E+03  0.46999998093E+01 0. -1.
       -5    1    3    3    0  502 -0.25637159544E+03  0.13120299042E+03  0.67503448211E+03  0.73391706731E+03  0.46999998093E+01 0.  1.
</event>
<event>
 5   0  0.8524692E-03  0.8959625E+03  0.7818609E-02  0.9430643E-01
        1   -1    0    0  501    0  0.00000000000E+00  0.00000000000E+00  0.14052458939E+04  0.14052458939E+04  0.50400001928E-02 0.  1.
       -1   -1    0    0    0  501  0.00000000000E+00  0.00000000000E+00 -0.14281288502E+03  0.14281288511E+03  0.50400001928E-02 0. -1.
    10030    2    1    2    0    0  0.00000000000E+00  0.00000000000E+00  0.12624330089E+04  0.15480587790E+04  0.89596254464E+03 0.  0.
        5    1    3    3  502    0  0.15718595935E+03  0.89588455479E+01  0.13558237366E+04  0.13649424096E+04  0.46999998093E+01 0.  1.
       -5    1    3    3    0  502 -0.15718595935E+03 -0.89588455479E+01 -0.93390727738E+02  0.18311636943E+03  0.46999998093E+01 0. -1.
</event>
<event>
 5   0  0.1535906E-02  0.9114941E+03  0.7818609E-02  0.9411326E-01
        2   -1    0    0  501    0  0.00000000000E+00  0.00000000000E+00  0.65789116699E+03  0.65789116699E+03  0.25500000920E-02 0.  1.
       -2   -1    0    0    0  501  0.00000000000E+00  0.00000000000E+00 -0.31571390265E+03  0.31571390266E+03  0.25500000920E-02 0. -1.
    10030    2    1    2    0    0  0.00000000000E+00  0.00000000000E+00  0.34217726434E+03  0.97360506965E+03  0.91149413131E+03 0.  0.
        2    1    3    3  502    0 -0.44120420466E+03  0.98827901360E+02  0.23223715345E+03  0.50829341894E+03  0.25500000920E-02 0.  1.
       -2    1    3    3    0  502  0.44120420466E+03 -0.98827901360E+02  0.10994011089E+03  0.46531165071E+03  0.25500000920E-02 0. -1.
</event>
<event>
 5   0  0.8524692E-03  0.9067347E+03  0.7818609E-02  0.9417202E-01
        1   -1    0    0  501    0  0.00000000000E+00  0.00000000000E+00  0.93725667740E+03  0.93725667741E+03  0.50400001928E-02 0.  1.
       -1   -1    0    0    0  501  0.00000000000E+00  0.00000000000E+00 -0.21930166513E+03  0.21930166519E+03  0.50400001928E-02 0. -1.
    10030    2    1    2    0    0  0.00000000000E+00  0.00000000000E+00  0.71795501227E+03  0.11565583426E+04  0.90673469118E+03 0.  0.
        5    1    3    3  502    0 -0.10439556602E+03  0.28348691371E+03 -0.72172060137E+02  0.31063509253E+03  0.46999998093E+01 0. -1.
       -5    1    3    3    0  502  0.10439556602E+03 -0.28348691371E+03  0.79012707241E+03  0.84592325006E+03  0.46999998093E+01 0.  1.
</event>
<event>
 5   0  0.8291252E-03  0.9471922E+03  0.7818609E-02  0.9368438E-01
       -1   -1    0    0    0  501  0.00000000000E+00  0.00000000000E+00  0.25264530028E+03  0.25264530033E+03  0.50400001928E-02 0.  1.
        1   -1    0    0  501    0  0.00000000000E+00  0.00000000000E+00 -0.88777934023E+03  0.88777934024E+03  0.50400001928E-02 0. -1.
    10030    2    1    2    0    0  0.00000000000E+00  0.00000000000E+00 -0.63513403995E+03  0.11404246406E+04  0.94719222554E+03 0.  0.
        1    1    3    3  502    0  0.22719902174E+03 -0.19870028063E+03 -0.75697472679E+03  0.81493063142E+03  0.50400001928E-02 0. -1.
       -1    1    3    3    0  502 -0.22719902174E+03  0.19870028063E+03  0.12184068684E+03  0.32549400915E+03  0.50400001928E-02 0.  1.
</event>
<event>
 5   0  0.1535906E-02  0.9043523E+03  0.7818609E-02  0.9420157E-01
       -2   -1    0    0    0  501  0.00000000000E+00  0.00000000000E+00  0.26638054604E+03  0.26638054606E+03  0.25500000920E-02 0.  1.
        2   -1    0    0  501    0  0.00000000000E+00  0.00000000000E+00 -0.76756075745E+03  0.76756075745E+03  0.25500000920E-02 0. -1.
    10030    2    1    2    0    0  0.00000000000E+00  0.00000000000E+00 -0.50118021140E+03  0.10339413035E+04  0.90435226256E+03 0.  0.
        2    1    3    3  502    0  0.31519627311E+03  0.32247267959E+03 -0.21222691437E+03  0.49837494204E+03  0.25500000920E-02 0.  1.
       -2    1    3    3    0  502 -0.31519627311E+03 -0.32247267959E+03 -0.28895329704E+03  0.53556636147E+03  0.25500000920E-02 0. -1.
</event>
<event>
 5   0  0.5770125E-03  0.8748209E+03  0.7818609E-02  0.9457616E-01
        4   -1    0    0  501    0  0.00000000000E+00  0.00000000000E+00  0.15033167567E+04  0.15033172931E+04  0.12699999809E+01 0. -1.
       -4   -1    0    0    0  501  0.00000000000E+00  0.00000000000E+00 -0.12726678641E+03  0.12727312294E+03  0.12699999809E+01 0.  1.
    10030    2    1    2    0    0  0.00000000000E+00  0.00000000000E+00  0.13760499703E+04  0.16305904161E+04  0.87482088697E+03 0.  0.
        3    1    3    3  502    0  0.22865311841E+03  0.12990468180E+03  0.36533477118E+02  0.26550363474E+03  0.10100000352E+00 0.  1.
       -3    1    3    3    0  502 -0.22865311841E+03 -0.12990468180E+03  0.13395164932E+04  0.13650867813E+04  0.10100000352E+00 0. -1.
</event>
<event>
 5   0  0.8885324E-03  0.9061162E+03  0.7818609E-02  0.9417968E-01
       -1   -1    0    0    0  501  0.00000000000E+00  0.00000000000E+00  0.10438051872E+03  0.10438051884E+03  0.50400001928E-02 0.  1.
        1   -1    0    0  501    0  0.00000000000E+00  0.00000000000E+00 -0.19664747366E+04  0.19664747366E+04  0.50400001928E-02 0. -1.
    10030    2    1    2    0    0  0.00000000000E+00  0.00000000000E+00 -0.18620942178E+04  0.20708552554E+04  0.90611622474E+03 0.  0.
        2    1    3    3  502    0 -0.12232451866E+02  0.25456473442E+03 -0.17871152167E+04  0.18051962870E+04  0.25500000920E-02 0. -1.
       -2    1    3    3    0  502  0.12232451866E+02 -0.25456473442E+03 -0.74979001190E+02  0.26565896844E+03  0.25500000920E-02 0.  1.
</event>
<event>
 5   0  0.8612969E-03  0.8867027E+03  0.7818609E-02  0.9442358E-01
       -1   -1    0    0    0  501  0.00000000000E+00  0.00000000000E+00  0.39405931908E+03  0.39405931911E+03  0.50400001928E-02 0.  1.
        1   -1    0    0  501    0  0.00000000000E+00  0.00000000000E+00 -0.49880925215E+03  0.49880925218E+03  0.50400001928E-02 0. -1.
    10030    2    1    2    0    0  0.00000000000E+00  0.00000000000E+00 -0.10474993308E+03  0.89286857129E+03  0.88670273323E+03 0.  0.
        4    1    3    3  502    0  0.43058382363E+03 -0.35167410343E+02  0.47915017938E+02  0.43466842278E+03  0.12699999809E+01 0. -1.
       -4    1    3    3    0  502 -0.43058382363E+03  0.35167410343E+02 -0.15266495102E+03  0.45820014850E+03  0.12699999809E+01 0.  1.
</event>
<event>
 5   0  0.8612969E-03  0.8949392E+03  0.7818609E-02  0.9431930E-01
       -1   -1    0    0    0  501  0.00000000000E+00  0.00000000000E+00  0.10939587304E+03  0.10939587315E+03  0.50400001928E-02 0.  1.
        1   -1    0    0  501    0  0.00000000000E+00  0.00000000000E+00 -0.18303163901E+04  0.18303163901E+04  0.50400001928E-02 0. -1.
    10030    2    1    2    0    0  0.00000000000E+00  0.00000000000E+00 -0.17209205171E+04  0.19397122633E+04  0.89493923714E+03 0.  0.
        4    1    3    3  502    0  0.12080952352E+03  0.39826528666E+03 -0.12167181313E+04  0.12859295484E+04  0.12699999809E+01 0.  1.
       -4    1    3    3    0  502 -0.12080952352E+03 -0.39826528666E+03 -0.50420238579E+03  0.65378271488E+03  0.12699999809E+01 0. -1.
</event>
<event>
 5   0  0.8524692E-03  0.9027493E+03  0.7818609E-02  0.9422151E-01
       -1   -1    0    0    0  501  0.00000000000E+00  0.00000000000E+00  0.13996724272E+03  0.13996724281E+03  0.50400001928E-02 0. -1.
        1   -1    0    0  501    0  0.00000000000E+00  0.00000000000E+00 -0.14556198131E+04  0.14556198132E+04  0.50400001928E-02 0.  1.
    10030    2    1    2    0    0  0.00000000000E+00  0.00000000000E+00 -0.13156525704E+04  0.15955870560E+04  0.90274933790E+03 0.  0.
        5    1    3    3  502    0 -0.13160607633E+03  0.13606087828E+03 -0.13820259875E+04  0.13949375047E+04  0.46999998093E+01 0.  1.
       -5    1    3    3    0  502  0.13160607633E+03 -0.13606087828E+03  0.66373417073E+02  0.20064955125E+03  0.46999998093E+01 0. -1.
</event>
<event>
 5   0  0.8738044E-03  0.9283568E+03  0.7818609E-02  0.9390812E-01
       -1   -1    0    0    0  501  0.00000000000E+00  0.00000000000E+00  0.27318487347E+03  0.27318487352E+03  0.50400001928E-02 0.  1.
        1   -1    0    0  501    0  0.00000000000E+00  0.00000000000E+00 -0.78870254771E+03  0.78870254772E+03  0.50400001928E-02 0. -1.
    10030    2    1    2    0    0  0.00000000000E+00  0.00000000000E+00 -0.51551767424E+03  0.10618874212E+04  0.92835684031E+03 0.  0.
        3    1    3    3  502    0 -0.10916730655E+03  0.44545901728E+03 -0.33952793839E+03  0.57064040169E+03  0.10100000352E+00 0.  1.
       -3    1    3    3    0  502  0.10916730655E+03 -0.44545901728E+03 -0.17598973585E+03  0.49124701955E+03  0.10100000352E+00 0. -1.
</event>
<event>
 5   0  0.1441195E-02  0.9110508E+03  0.7818609E-02  0.9411872E-01
       -2   -1    0    0    0  501  0.00000000000E+00  0.00000000000E+00  0.17703928648E+03  0.17703928650E+03  0.25500000920E-02 0.  1.
        2   -1    0    0  501    0  0.00000000000E+00  0.00000000000E+00 -0.11720754566E+04  0.11720754566E+04  0.25500000920E-02 0. -1.
    10030    2    1    2    0    0  0.00000000000E+00  0.00000000000E+00 -0.99503617010E+03  0.13491147431E+04  0.91105082745E+03 0.  0.
        5    1    3    3  502    0  0.13010524952E+03 -0.38949673276E+03 -0.78938221924E+03  0.88982102629E+03  0.46999998093E+01 0. -1.
       -5    1    3    3    0  502 -0.13010524952E+03  0.38949673276E+03 -0.20565395085E+03  0.45929371679E+03  0.46999998093E+01 0.  1.
</event>
<event>
 5   0  0.8524692E-03  0.9017336E+03  0.7818609E-02  0.9423417E-01
        1   -1    0    0  501    0  0.00000000000E+00  0.00000000000E+00  0.53322880108E+03  0.53322880110E+03  0.50400001928E-02 0. -1.
       -1   -1    0    0    0  501  0.00000000000E+00  0.00000000000E+00 -0.38122631797E+03  0.38122631801E+03  0.50400001928E-02 0.  1.
    10030    2    1    2    0    0  0.00000000000E+00  0.00000000000E+00  0.15200248310E+03  0.91445511910E+03  0.90173355820E+03 0.  0.
        5    1    3    3  502    0 -0.35028893288E+02  0.57565111857E+02  0.52806819791E+03  0.53237099575E+03  0.46999998093E+01 0. -1.
       -5    1    3    3    0  502  0.35028893288E+02 -0.57565111857E+02 -0.37606571481E+03  0.38208412336E+03  0.46999998093E+01 0.  1.
</event>
<event>
 5   0  0.1483326E-02  0.9010512E+03  0.7818609E-02  0.9424268E-01
        2   -1    0    0  501    0  0.00000000000E+00  0.00000000000E+00  0.51263350783E+03  0.51263350783E+03  0.25500000920E-02 0.  1.
       -2   -1    0    0    0  501  0.00000000000E+00  0.00000000000E+00 -0.39594232975E+03  0.39594232976E+03  0.25500000920E-02 0. -1.
    10030    2    1    2    0    0  0.00000000000E+00  0.00000000000E+00  0.11669117808E+03  0.90857583759E+03  0.90105117591E+03 0.  0.
        1    1    3    3  502    0 -0.38898038588E+03 -0.18082798013E+03  0.19722303697E+03  0.47212437486E+03  0.50400001928E-02 0.  1.
       -1    1    3    3    0  502  0.38898038588E+03  0.18082798013E+03 -0.80531858900E+02  0.43645146273E+03  0.50400001928E-02 0. -1.
</event>
<event>
 5   0  0.8738044E-03  0.9004379E+03  0.7818609E-02  0.9425034E-01
        1   -1    0    0  501    0  0.00000000000E+00  0.00000000000E+00  0.45169585967E+03  0.45169585969E+03  0.50400001928E-02 0. -1.
       -1   -1    0    0    0  501  0.00000000000E+00  0.00000000000E+00 -0.44874691356E+03  0.44874691358E+03  0.50400001928E-02 0.  1.
    10030    2    1    2    0    0  0.00000000000E+00  0.00000000000E+00  0.29489461099E+01  0.90044277328E+03  0.90043794437E+03 0.  0.
        3    1    3    3  502    0  0.26356275649E+03 -0.18591648449E+02 -0.36306299006E+03  0.44902752805E+03  0.10100000352E+00 0.  1.
       -3    1    3    3    0  502 -0.26356275649E+03  0.18591648449E+02  0.36601193617E+03  0.45141524522E+03  0.10100000352E+00 0. -1.
</event>
<event>
 5   0  0.8885324E-03  0.8923467E+03  0.7818609E-02  0.9435199E-01
        1   -1    0    0  501    0  0.00000000000E+00  0.00000000000E+00  0.77769888505E+03  0.77769888507E+03  0.50400001928E-02 0. -1.
       -1   -1    0    0    0  501  0.00000000000E+00  0.00000000000E+00 -0.25597396489E+03  0.25597396494E+03  0.50400001928E-02 0.  1.
    10030    2    1    2    0    0  0.00000000000E+00  0.00000000000E+00  0.52172492016E+03  0.10336728500E+04  0.89234671991E+03 0.  0.
        2    1    3    3  502    0  0.24223542852E+03  0.26273655271E+03 -0.48582558687E+02  0.36065047341E+03  0.25500000920E-02 0.  1.
       -2    1    3    3    0  502 -0.24223542852E+03 -0.26273655271E+03  0.57030747885E+03  0.67302237660E+03  0.25500000920E-02 0. -1.
</event>
<event>
 5   0  0.5770125E-03  0.9057704E+03  0.7818609E-02  0.9418397E-01
       -3   -1    0    0    0  501  0.00000000000E+00  0.00000000000E+00  0.23110749061E+03  0.23110751268E+03  0.10100000352E+00 0.  1.
        3   -1    0    0  501    0  0.00000000000E+00  0.00000000000E+00 -0.88748734782E+03  0.88748735356E+03  0.10100000352E+00 0. -1.
    10030    2    1    2    0    0  0.00000000000E+00  0.00000000000E+00 -0.65637985721E+03  0.11185948662E+04  0.90577036705E+03 0.  0.
        4    1    3    3  502    0 -0.85529424870E+02 -0.22300645248E+03  0.14700088532E+03  0.28046039569E+03  0.12699999809E+01 0.  1.
       -4    1    3    3    0  502  0.85529424870E+02  0.22300645248E+03 -0.80338074253E+03  0.83813447055E+03  0.12699999809E+01 0. -1.
</event>
<event>
 5   0  0.1483326E-02  0.8859797E+03  0.7818609E-02  0.9443279E-01
       -2   -1    0    0    0  501  0.00000000000E+00  0.00000000000E+00  0.25541644146E+03  0.25541644148E+03  0.25500000920E-02 0. -1.
        2   -1    0    0  501    0  0.00000000000E+00  0.00000000000E+00 -0.76831397766E+03  0.76831397767E+03  0.25500000920E-02 0.  1.
    10030    2    1    2    0    0  0.00000000000E+00  0.00000000000E+00 -0.51289753620E+03  0.10237304191E+04  0.88597973365E+03 0.  0.
        1    1    3    3  502    0 -0.60230097274E+01 -0.24442049755E+03  0.17039433500E+03  0.29801323074E+03  0.50400001928E-02 0. -1.
       -1    1    3    3    0  502  0.60230097274E+01  0.24442049755E+03 -0.68329187120E+03  0.72571718841E+03  0.50400001928E-02 0.  1.
</event>
<event>
 5   0  0.1440615E-02  0.8775211E+03  0.7818609E-02  0.9454126E-01
       -2   -1    0    0    0  501  0.00000000000E+00  0.00000000000E+00  0.20691145471E+03  0.20691145473E+03  0.25500000920E-02 0.  1.
        2   -1    0    0  501    0  0.00000000000E+00  0.00000000000E+00 -0.93040192036E+03  0.93040192036E+03  0.25500000920E-02 0. -1.
    10030    2    1    2    0    0  0.00000000000E+00  0.00000000000E+00 -0.72349046565E+03  0.11373133751E+04  0.87752108765E+03 0.  0.
        3    1    3    3  502    0 -0.21700156592E+03 -0.38128679522E+03 -0.35339551637E+03  0.56334509940E+03  0.10100000352E+00 0.  1.
       -3    1    3    3    0  502  0.21700156592E+03  0.38128679522E+03 -0.37009494928E+03  0.57396827570E+03  0.10100000352E+00 0. -1.
</event>
<event>
 5   0  0.1483326E-02  0.9030884E+03  0.7818609E-02  0.9421729E-01
       -2   -1    0    0    0  501  0.00000000000E+00  0.00000000000E+00  0.27436929763E+03  0.27436929764E+03  0.25500000920E-02 0.  1.
        2   -1    0    0  501    0  0.00000000000E+00  0.00000000000E+00 -0.74313044596E+03  0.74313044596E+03  0.25500000920E-02 0. -1.
    10030    2    1    2    0    0  0.00000000000E+00  0.00000000000E+00 -0.46876114833E+03  0.10174997436E+04  0.90308843092E+03 0.  0.
        1    1    3    3  502    0 -0.36645356528E+03  0.24640121336E+03 -0.34061488462E+03  0.55769191594E+03  0.50400001928E-02 0. -1.
       -1    1    3    3    0  502  0.36645356528E+03 -0.24640121336E+03 -0.12814626370E+03  0.45980782766E+03  0.50400001928E-02 0.  1.
</event>
<event>
 5   0  0.1440615E-02  0.8974102E+03  0.7818609E-02  0.9428825E-01
        2   -1    0    0  501    0  0.00000000000E+00  0.00000000000E+00  0.24749926011E+04  0.24749926011E+04  0.25500000920E-02 0. -1.
       -2   -1    0    0    0  501  0.00000000000E+00  0.00000000000E+00 -0.81348230578E+02  0.81348230617E+02  0.25500000920E-02 0.  1.
    10030    2    1    2    0    0  0.00000000000E+00  0.00000000000E+00  0.23936443705E+04  0.25563408317E+04  0.89741020463E+03 0.  0.
        3    1    3    3  502    0 -0.26916106194E+03  0.32025214297E+02  0.22154139069E+04  0.22319346049E+04  0.10100000352E+00 0. -1.
       -3    1    3    3    0  502  0.26916106194E+03 -0.32025214297E+02  0.17823046364E+03  0.32440622680E+03  0.10100000352E+00 0.  1.
</event>
<event>
 5   0  0.1535906E-02  0.8960692E+03  0.7818609E-02  0.9430508E-01
       -2   -1    0    0    0  501  0.00000000000E+00  0.00000000000E+00  0.91672433425E+02  0.91672433461E+02  0.25500000920E-02 0.  1.
        2   -1    0    0  501    0  0.00000000000E+00  0.00000000000E+00 -0.21896986304E+04  0.21896986304E+04  0.25500000920E-02 0. -1.
    10030    2    1    2    0    0  0.00000000000E+00  0.00000000000E+00 -0.20980261970E+04  0.22813710638E+04  0.89606919813E+03 0.  0.
        2    1    3    3  502    0  0.11829693929E+03  0.35352569130E+03 -0.41629609434E+03  0.55881751799E+03  0.25500000920E-02 0.  1.
       -2    1    3    3    0  502 -0.11829693929E+03 -0.35352569130E+03 -0.16817301026E+04  0.17225535458E+04  0.25500000920E-02 0. -1.
</event>
<event>
 5   0  0.1483326E-02  0.9083634E+03  0.7818609E-02  0.9415187E-01
        2   -1    0    0  501    0  0.00000000000E+00  0.00000000000E+00  0.99247372855E+03  0.99247372855E+03  0.25500000920E-02 0. -1.
       -2   -1    0    0    0  501  0.00000000000E+00  0.00000000000E+00 -0.20784531354E+03  0.20784531356E+03  0.25500000920E-02 0.  1.
    10030    2    1    2    0    0  0.00000000000E+00  0.00000000000E+00  0.78462841501E+03  0.12003190421E+04  0.90836339272E+03 0.  0.
        1    1    3    3  502    0 -0.44388123848E+03 -0.94529700328E+02  0.36887660993E+03  0.58483875683E+03  0.50400001928E-02 0.  1.
       -1    1    3    3    0  502  0.44388123848E+03  0.94529700328E+02  0.41575180508E+03  0.61548028528E+03  0.50400001928E-02 0. -1.
</event>
<event>
 5   0  0.8524692E-03  0.8708490E+03  0.7818609E-02  0.9462774E-01
        1   -1    0    0  501    0  0.00000000000E+00  0.00000000000E+00  0.15232900668E+04  0.15232900668E+04  0.50400001928E-02 0.  1.
       -1   -1    0    0    0  501  0.00000000000E+00  0.00000000000E+00 -0.12446381439E+03  0.12446381449E+03  0.50400001928E-02 0. -1.
    10030    2    1    2    0    0  0.00000000000E+00  0.00000000000E+00  0.13988262524E+04  0.16477538813E+04  0.87084899317E+03 0.  0.
        5    1    3    3  502    0  0.42224534715E+03  0.77059820883E+02  0.56110610364E+03  0.70646408170E+03  0.46999998093E+01 0.  1.
       -5    1    3    3    0  502 -0.42224534715E+03 -0.77059820883E+02  0.83772014878E+03  0.94128979961E+03  0.46999998093E+01 0. -1.
</event>
<event>
 5   0  0.8738044E-03  0.9164255E+03  0.7818609E-02  0.9405279E-01
        1   -1    0    0  501    0  0.00000000000E+00  0.00000000000E+00  0.25851316621E+03  0.25851316626E+03  0.50400001928E-02 0.  1.
       -1   -1    0    0    0  501  0.00000000000E+00  0.00000000000E+00 -0.81217879256E+03  0.81217879258E+03  0.50400001928E-02 0. -1.
    10030    2    1    2    0    0  0.00000000000E+00  0.00000000000E+00 -0.55366562635E+03  0.10706919588E+04  0.91642547156E+03 0.  0.
        3    1    3    3  502    0 -0.23274261501E+03  0.30423457808E+03 -0.57061993190E+03  0.68726626589E+03  0.10100000352E+00 0. -1.
       -3    1    3    3    0  502  0.23274261501E+03 -0.30423457808E+03  0.16954305554E+02  0.38342569295E+03  0.10100000352E+00 0.  1.
</event>
<event>
 5   0  0.1535906E-02  0.8944598E+03  0.7818609E-02  0.9432534E-01
        2   -1    0    0  501    0  0.00000000000E+00  0.00000000000E+00  0.12655776764E+04  0.12655776764E+04  0.25500000920E-02 0. -1.
       -2   -1    0    0    0  501  0.00000000000E+00  0.00000000000E+00 -0.15804213770E+03  0.15804213772E+03  0.25500000920E-02 0.  1.
    10030    2    1    2    0    0  0.00000000000E+00  0.00000000000E+00  0.11075355387E+04  0.14236198141E+04  0.89445984018E+03 0.  0.
        2    1    3    3  502    0 -0.10855922938E+03 -0.42192051885E+03  0.71461023430E+03  0.83694074909E+03  0.25500000920E-02 0. -1.
       -2    1    3    3    0  502  0.10855922938E+03  0.42192051885E+03  0.39292530442E+03  0.58667906505E+03  0.25500000920E-02 0.  1.
</event>
<event>
 5   0  0.8738044E-03  0.8932244E+03  0.7818609E-02  0.9434091E-01
       -1   -1    0    0    0  501  0.00000000000E+00  0.00000000000E+00  0.23692749807E+03  0.23692749812E+03  0.50400001928E-02 0. -1.
        1   -1    0    0  501    0  0.00000000000E+00  0.00000000000E+00 -0.84187135651E+03  0.84187135653E+03  0.50400001928E-02 0.  1.
    10030    2    1    2    0    0  0.00000000000E+00  0.00000000000E+00 -0.60494385845E+03  0.10787988547E+04  0.89322443816E+03 0.  0.
        3    1    3    3  502    0  0.83855507442E+00 -0.20862412585E+03 -0.77940286211E+03  0.80684171975E+03  0.10100000352E+00 0.  1.
       -3    1    3    3    0  502 -0.83855507442E+00  0.20862412585E+03  0.17445900367E+03  0.27195713490E+03  0.10100000352E+00 0. -1.
</event>
<event>
 5   0  0.8738044E-03  0.9038422E+03  0.7818609E-02  0.9420791E-01
        1   -1    0    0  501    0  0.00000000000E+00  0.00000000000E+00  0.16005389436E+04  0.16005389436E+04  0.50400001928E-02 0. -1.
       -1   -1    0    0    0  501  0.00000000000E+00  0.00000000000E+00 -0.12760244565E+03  0.12760244575E+03  0.50400001928E-02 0.  1.
    10030    2    1    2    0    0  0.00000000000E+00  0.00000000000E+00  0.14729364979E+04  0.17281413894E+04  0.90384220672E+03 0.  0.
        3    1    3    3  502    0 -0.43213399148E+02  0.19738965643E+03  0.15093554833E+04  0.15228210859E+04  0.10100000352E+00 0. -1.
       -3    1    3    3    0  502  0.43213399148E+02 -0.19738965643E+03 -0.36418985372E+02  0.20532030350E+03  0.10100000352E+00 0.  1.
</event>
<event>
 5   0  0.1441195E-02  0.8696007E+03  0.7818609E-02  0.9464401E-01
       -2   -1    0    0    0  501  0.00000000000E+00  0.00000000000E+00  0.21824556104E+03  0.21824556106E+03  0.25500000920E-02 0.  1.
        2   -1    0    0  501    0  0.00000000000E+00  0.00000000000E+00 -0.86623229930E+03  0.86623229931E+03  0.25500000920E-02 0. -1.
    10030    2    1    2    0    0  0.00000000000E+00  0.00000000000E+00 -0.64798673826E+03  0.10844778604E+04  0.86960072255E+03 0.  0.
        5    1    3    3  502    0 -0.86646541893E+02  0.38521132506E+03 -0.96987586875E+02  0.40660062738E+03  0.46999998093E+01 0.  1.
       -5    1    3    3    0  502  0.86646541893E+02 -0.38521132506E+03 -0.55099915138E+03  0.67787723299E+03  0.46999998093E+01 0. -1.
</event>
<event>
 5   0  0.1440615E-02  0.8844744E+03  0.7818609E-02  0.9445200E-01
        2   -1    0    0  501    0  0.00000000000E+00  0.00000000000E+00  0.50509291693E+03  0.50509291693E+03  0.25500000920E-02 0. -1.
       -2   -1    0    0    0  501  0.00000000000E+00  0.00000000000E+00 -0.38720344812E+03  0.38720344813E+03  0.25500000920E-02 0.  1.
    10030    2    1    2    0    0  0.00000000000E+00  0.00000000000E+00  0.11788946880E+03  0.89229636507E+03  0.88447435025E+03 0.  0.
        3    1    3    3  502    0  0.21644878569E+00 -0.11235043450E+03  0.49045519121E+03  0.50315899254E+03  0.10100000352E+00 0. -1.
       -3    1    3    3    0  502 -0.21644878569E+00  0.11235043450E+03 -0.37256572241E+03  0.38913737253E+03  0.10100000352E+00 0.  1.
</event>
<event>
 5   0  0.8524692E-03  0.9270631E+03  0.7818609E-02  0.9392369E-01
       -1   -1    0    0    0  501  0.00000000000E+00  0.00000000000E+00  0.89063041631E+03  0.89063041632E+03  0.50400001928E-02 0.  1.
        1   -1    0    0  501    0  0.00000000000E+00  0.00000000000E+00 -0.24124654196E+03  0.24124654202E+03  0.50400001928E-02 0. -1.
    10030    2    1    2    0    0  0.00000000000E+00  0.00000000000E+00  0.64938387434E+03  0.11318769583E+04  0.92706312221E+03 0.  0.
        5    1    3    3  502    0 -0.45744096322E+03 -0.17915544098E+02  0.23609080494E+03  0.51510596942E+03  0.46999998093E+01 0.  1.
       -5    1    3    3    0  502  0.45744096322E+03  0.17915544098E+02  0.41329306940E+03  0.61677098892E+03  0.46999998093E+01 0. -1.
</event>
<event>
 5   0  0.1535906E-02  0.9017383E+03  0.7818609E-02  0.9423411E-01
       -2   -1    0    0    0  501  0.00000000000E+00  0.00000000000E+00  0.18527338675E+03  0.18527338677E+03  0.25500000920E-02 0. -1.
        2   -1    0    0  501    0  0.00000000000E+00  0.00000000000E+00 -0.10972055427E+04  0.10972055427E+04  0.25500000920E-02 0.  1.
    10030    2    1    2    0    0  0.00000000000E+00  0.00000000000E+00 -0.91193215592E+03  0.12824789294E+04  0.90173829212E+03 0.  0.
        2    1    3    3  502    0  0.27484431414E+03  0.21946521712E+03 -0.54759637288E+02  0.35595364364E+03  0.25500000920E-02 0. -1.
       -2    1    3    3    0  502 -0.27484431414E+03 -0.21946521712E+03 -0.85717251863E+03  0.92652528580E+03  0.25500000920E-02 0.  1.
</event>
<event>
 5   0  0.8291252E-03  0.9289499E+03  0.7818609E-02  0.9390099E-01
       -1   -1    0    0    0  501  0.00000000000E+00  0.00000000000E+00  0.43113797857E+03  0.43113797860E+03  0.50400001928E-02 0.  1.
        1   -1    0    0  501    0  0.00000000000E+00  0.00000000000E+00 -0.50038961602E+03  0.50038961604E+03  0.50400001928E-02 0. -1.
    10030    2    1    2    0    0  0.00000000000E+00  0.00000000000E+00 -0.69251637443E+02  0.93152759464E+03  0.92894987502E+03 0.  0.
        1    1    3    3  502    0 -0.44612739137E+03  0.26590216829E+02 -0.16146902636E+03  0.47519357684E+03  0.50400001928E-02 0.  1.
       -1    1    3    3    0  502  0.44612739137E+03 -0.26590216829E+02  0.92217388921E+02  0.45633401781E+03  0.50400001928E-02 0. -1.
</event>
<event>
 5   0  0.5770125E-03  0.9137685E+03  0.7818609E-02  0.9408532E-01
       -3   -1    0    0    0  501  0.00000000000E+00  0.00000000000E+00  0.65113817152E+03  0.65113817935E+03  0.10100000352E+00 0. -1.
        3   -1    0    0  501    0  0.00000000000E+00  0.00000000000E+00 -0.32058203503E+03  0.32058205094E+03  0.10100000352E+00 0.  1.
    10030    2    1    2    0    0  0.00000000000E+00  0.00000000000E+00  0.33055613648E+03  0.97172023030E+03  0.91376848632E+03 0.  0.
        2    1    3    3  502    0  0.15686844869E+03 -0.36827188264E+03 -0.68943358828E+02  0.40618355023E+03  0.25500000920E-02 0.  1.
       -2    1    3    3    0  502 -0.15686844869E+03  0.36827188264E+03  0.39949949531E+03  0.56553668007E+03  0.25500000920E-02 0. -1.
</event>
<event>
 5   0  0.1440615E-02  0.9026730E+03  0.7818609E-02  0.9422246E-01
       -2   -1    0    0    0  501  0.00000000000E+00  0.00000000000E+00  0.24305965880E+03  0.24305965881E+03  0.25500000920E-02 0.  1.
        2   -1    0    0  501    0  0.00000000000E+00  0.00000000000E+00 -0.83808485624E+03  0.83808485624E+03  0.25500000920E-02 0. -1.
    10030    2    1    2    0    0  0.00000000000E+00  0.00000000000E+00 -0.59502519744E+03  0.10811445150E+04  0.90267296228E+03 0.  0.
        3    1    3    3  502    0  0.23991461069E+03  0.33656926642E+02  0.15858363294E+03  0.28955239245E+03  0.10100000352E+00 0.  1.
       -3    1    3    3    0  502 -0.23991461069E+03 -0.33656926642E+02 -0.75360883038E+03  0.79159212260E+03  0.10100000352E+00 0. -1.
</event>
<event>
 5   0  0.8885324E-03  0.8984046E+03  0.7818609E-02  0.9427578E-01
       -1   -1    0    0    0  501  0.00000000000E+00  0.00000000000E+00  0.75386654011E+03  0.75386654013E+03  0.50400001928E-02 0.  1.
        1   -1    0    0  501    0  0.00000000000E+00  0.00000000000E+00 -0.26766368978E+03  0.26766368982E+03  0.50400001928E-02 0. -1.
    10030    2    1    2    0    0  0.00000000000E+00  0.00000000000E+00  0.48620285033E+03  0.10215302300E+04  0.89840458538E+03 0.  0.
        2    1    3    3  502    0 -0.15106335943E+03  0.25139456021E+03  0.62997118208E+03  0.69489787288E+03  0.25500000920E-02 0.  1.
       -2    1    3    3    0  502  0.15106335943E+03 -0.25139456021E+03 -0.14376833175E+03  0.32663235707E+03  0.25500000920E-02 0. -1.
</event>
<event>
 5   0  0.8738044E-03  0.9563380E+03  0.7818609E-02  0.9357773E-01
        1   -1    0    0  501    0  0.00000000000E+00  0.00000000000E+00  0.16190310899E+04  0.16190310899E+04  0.50400001928E-02 0.  1.
       -1   -1    0    0    0  501  0.00000000000E+00  0.00000000000E+00 -0.14122373409E+03  0.14122373418E+03  0.50400001928E-02 0. -1.
    10030    2    1    2    0    0  0.00000000000E+00  0.00000000000E+00  0.14778073558E+04  0.17602548241E+04  0.95633804944E+03 0.  0.
        3    1    3    3  502    0 -0.13269364329E+03  0.39124190479E+03  0.11820604837E+04  0.12521760373E+04  0.10100000352E+00 0.  1.
       -3    1    3    3    0  502  0.13269364329E+03 -0.39124190479E+03  0.29574687212E+03  0.50807878681E+03  0.10100000352E+00 0. -1.
</event>
<event>
 5   0  0.8524692E-03  0.8805691E+03  0.7818609E-02  0.9450202E-01
        1   -1    0    0  501    0  0.00000000000E+00  0.00000000000E+00  0.61740387247E+03  0.61740387249E+03  0.50400001928E-02 0.  1.
       -1   -1    0    0    0  501  0.00000000000E+00  0.00000000000E+00 -0.31397680193E+03  0.31397680197E+03  0.50400001928E-02 0. -1.
    10030    2    1    2    0    0  0.00000000000E+00  0.00000000000E+00  0.30342707054E+03  0.93138067445E+03  0.88056911916E+03 0.  0.
        5    1    3    3  502    0  0.47274140443E+02 -0.42469817073E+03  0.26377528203E+03  0.50219803861E+03  0.46999998093E+01 0.  1.
       -5    1    3    3    0  502 -0.47274140443E+02  0.42469817073E+03  0.39651788509E+02  0.42918263584E+03  0.46999998093E+01 0. -1.
</event>
<event>
 5   0  0.8885324E-03  0.9193431E+03  0.7818609E-02  0.9401719E-01
        1   -1    0    0  501    0  0.00000000000E+00  0.00000000000E+00  0.64438218998E+03  0.64438219000E+03  0.50400001928E-02 0. -1.
       -1   -1    0    0    0  501  0.00000000000E+00  0.00000000000E+00 -0.32790781048E+03  0.32790781052E+03  0.50400001928E-02 0.  1.
    10030    2    1    2    0    0  0.00000000000E+00  0.00000000000E+00  0.31647437950E+03  0.97229000052E+03  0.91934314172E+03 0.  0.
        2    1    3    3  502    0  0.15307809252E+03  0.28818267973E+03 -0.18416106507E+03  0.37469648677E+03  0.25500000920E-02 0.  1.
       -2    1    3    3    0  502 -0.15307809252E+03 -0.28818267973E+03  0.50063544457E+03  0.59759351375E+03  0.25500000920E-02 0. -1.
</event>
<event>
 5   0  0.5770125E-03  0.9044676E+03  0.7818609E-02  0.9420014E-01
        3   -1    0    0  501    0  0.00000000000E+00  0.00000000000E+00  0.10635832533E+04  0.10635832581E+04  0.10100000352E+00 0.  1.
       -3   -1    0    0    0  501  0.00000000000E+00  0.00000000000E+00 -0.19228903646E+03  0.19228906299E+03  0.10100000352E+00 0. -1.
    10030    2    1    2    0    0  0.00000000000E+00  0.00000000000E+00  0.87129421686E+03  0.12558723211E+04  0.90446761943E+03 0.  0.
        5    1    3    3  502    0  0.11518165980E+03 -0.36863183231E+03  0.10901369549E+03  0.40132570108E+03  0.46999998093E+01 0. -1.
       -5    1    3    3    0  502 -0.11518165980E+03  0.36863183231E+03  0.76228052137E+03  0.85454662003E+03  0.46999998093E+01 0.  1.
</event>
<event>
 5   0  0.1454652E-02  0.8971072E+03  0.7818609E-02  0.9429205E-01
        2   -1    0    0  501    0  0.00000000000E+00  0.00000000000E+00  0.22781424434E+04  0.22781424434E+04  0.25500000920E-02 0.  1.
       -2   -1    0    0    0  501  0.00000000000E+00  0.00000000000E+00 -0.88317717752E+02  0.88317717788E+02  0.25500000920E-02 0. -1.
    10030    2    1    2    0    0  0.00000000000E+00  0.00000000000E+00  0.21898247256E+04  0.23664601611E+04  0.89710722069E+03 0.  0.
        4    1    3    3  502    0 -0.89105727093E+02  0.76814145645E+02  0.22367162789E+04  0.22398083777E+04  0.12699999809E+01 0.  1.
       -4    1    3    3    0  502  0.89105727093E+02 -0.76814145645E+02 -0.46891553325E+02  0.12665178343E+03  0.12699999809E+01 0. -1.
</event>
<event>
 5   0  0.8612969E-03  0.8982327E+03  0.7818609E-02  0.9427793E-01
       -1   -1    0    0    0  501  0.00000000000E+00  0.00000000000E+00  0.48253855583E+03  0.48253855585E+03  0.50400001928E-02 0.  1.
        1   -1    0    0  501    0  0.00000000000E+00  0.00000000000E+00 -0.41800904118E+03  0.41800904121E+03  0.50400001928E-02 0. -1.
    10030    2    1    2    0    0  0.00000000000E+00  0.00000000000E+00  0.64529514648E+02  0.90054759706E+03  0.89823266269E+03 0.  0.
        4    1    3    3  502    0 -0.26652193172E+03 -0.28341930158E+03  0.25721642134E+03  0.46639290400E+03  0.12699999809E+01 0.  1.
       -4    1    3    3    0  502  0.26652193172E+03  0.28341930158E+03 -0.19268690669E+03  0.43415469306E+03  0.12699999809E+01 0. -1.
</event>
<event>
 5   0  0.8738044E-03  0.9019815E+03  0.7818609E-02  0.9423108E-01
       -1   -1    0    0    0  501  0.00000000000E+00  0.00000000000E+00  0.12698359170E+04  0.12698359170E+04  0.50400001928E-02 0. -1.
        1   -1    0    0  501    0  0.00000000000E+00  0.00000000000E+00 -0.16017239085E+03  0.16017239093E+03  0.50400001928E-02 0.  1.
    10030    2    1    2    0    0  0.00000000000E+00  0.00000000000E+00  0.11096635261E+04  0.14300083079E+04  0.90198149620E+03 0.  0.
        3    1    3    3  502    0 -0.11935827107E+03 -0.22203280895E+03 -0.38050645625E+02  0.25493690780E+03  0.10100000352E+00 0.  1.
       -3    1    3    3    0  502  0.11935827107E+03  0.22203280895E+03  0.11477141718E+04  0.11750714001E+04  0.10100000352E+00 0. -1.
</event>
<event>
 5   0  0.5770125E-03  0.9008582E+03  0.7818609E-02  0.9424509E-01
        4   -1    0    0  501    0  0.00000000000E+00  0.00000000000E+00  0.12066288570E+04  0.12066295253E+04  0.12699999809E+01 0.  1.
       -4   -1    0    0    0  501  0.00000000000E+00  0.00000000000E+00 -0.16814002123E+03  0.16814481746E+03  0.12699999809E+01 0. -1.
    10030    2    1    2    0    0  0.00000000000E+00  0.00000000000E+00  0.10384888358E+04  0.13747743428E+04  0.90085816397E+03 0.  0.
        4    1    3    3  502    0  0.28151486095E+02  0.33110496479E+03  0.98328507523E+03  0.10379181836E+04  0.12699999809E+01 0.  1.
       -4    1    3    3    0  502 -0.28151486095E+02 -0.33110496479E+03  0.55203760525E+02  0.33685615914E+03  0.12699999809E+01 0. -1.
</event>
<event>
 5   0  0.1483326E-02  0.9015750E+03  0.7818609E-02  0.9423615E-01
        2   -1    0    0  501    0  0.00000000000E+00  0.00000000000E+00  0.19534756902E+04  0.19534756902E+04  0.25500000920E-02 0. -1.
       -2   -1    0    0    0  501  0.00000000000E+00  0.00000000000E+00 -0.10402452253E+03  0.10402452256E+03  0.25500000920E-02 0.  1.
    10030    2    1    2    0    0  0.00000000000E+00  0.00000000000E+00  0.18494511677E+04  0.20575002128E+04  0.90157501292E+03 0.  0.
        1    1    3    3  502    0  0.12434932326E+03 -0.27268256022E+03  0.15625541335E+03  0.33798563145E+03  0.50400001928E-02 0.  1.
       -1    1    3    3    0  502 -0.12434932326E+03  0.27268256022E+03  0.16931957544E+04  0.17195145813E+04  0.50400001928E-02 0. -1.
</event>
<event>
 5   0  0.1440615E-02  0.9064177E+03  0.7818609E-02  0.9417594E-01
       -2   -1    0    0    0  501  0.00000000000E+00  0.00000000000E+00  0.27467529833E+03  0.27467529834E+03  0.25500000920E-02 0.  1.
        2   -1    0    0  501    0  0.00000000000E+00  0.00000000000E+00 -0.74778574689E+03  0.74778574689E+03  0.25500000920E-02 0. -1.
    10030    2    1    2    0    0  0.00000000000E+00  0.00000000000E+00 -0.47311044856E+03  0.10224610452E+04  0.90641772516E+03 0.  0.
        3    1    3    3  502    0 -0.27404802885E+03 -0.15305132601E+03 -0.60531945593E+03  0.68186412461E+03  0.10100000352E+00 0. -1.
       -3    1    3    3    0  502  0.27404802885E+03  0.15305132601E+03  0.13220900737E+03  0.34059692062E+03  0.10100000352E+00 0.  1.
</event>
<event>
 5   0  0.1440615E-02  0.8936508E+03  0.7818609E-02  0.9433553E-01
        2   -1    0    0  501    0  0.00000000000E+00  0.00000000000E+00  0.16257424363E+04  0.16257424363E+04  0.25500000920E-02 0.  1.
       -2   -1    0    0    0  501  0.00000000000E+00  0.00000000000E+00 -0.12280725014E+03  0.12280725017E+03  0.25500000920E-02 0. -1.
    10030    2    1    2    0    0  0.00000000000E+00  0.00000000000E+00  0.15029351861E+04  0.17485496865E+04  0.89365084472E+03 0.  0.
        3    1    3    3  502    0 -0.18904338177E+03  0.33357370990E+03  0.12004042566E+04  0.12601504710E+04  0.10100000352E+00 0.  1.
       -3    1    3    3    0  502  0.18904338177E+03 -0.33357370990E+03  0.30253092958E+03  0.48839921548E+03  0.10100000352E+00 0. -1.
</event>
<event>
 5   0  0.8612969E-03  0.8994707E+03  0.7818609E-02  0.9426243E-01
       -1   -1    0    0    0  501  0.00000000000E+00  0.00000000000E+00  0.73143045623E+03  0.73143045625E+03  0.50400001928E-02 0. -1.
        1   -1    0    0  501    0  0.00000000000E+00  0.00000000000E+00 -0.27652923854E+03  0.27652923858E+03  0.50400001928E-02 0.  1.
    10030    2    1    2    0    0  0.00000000000E+00  0.00000000000E+00  0.45490121770E+03  0.10079596948E+04  0.89947074913E+03 0.  0.
        4    1    3    3  502    0 -0.44255896698E+03 -0.28858441052E+02  0.31107760538E+03  0.54172145827E+03  0.12699999809E+01 0.  1.
       -4    1    3    3    0  502  0.44255896698E+03  0.28858441052E+02  0.14382361232E+03  0.46623823657E+03  0.12699999809E+01 0. -1.
</event>
<event>
 5   0  0.1483326E-02  0.8839244E+03  0.7818609E-02  0.9445903E-01
        2   -1    0    0  501    0  0.00000000000E+00  0.00000000000E+00  0.96095862249E+03  0.96095862250E+03  0.25500000920E-02 0. -1.
       -2   -1    0    0    0  501  0.00000000000E+00  0.00000000000E+00 -0.20326637828E+03  0.20326637830E+03  0.25500000920E-02 0.  1.
    10030    2    1    2    0    0  0.00000000000E+00  0.00000000000E+00  0.75769224421E+03  0.11642250008E+04  0.88392438338E+03 0.  0.
        1    1    3    3  502    0  0.40707761798E+03  0.13113378060E+02  0.15283066572E+03  0.43501880437E+03  0.50400001928E-02 0.  1.
       -1    1    3    3    0  502 -0.40707761798E+03 -0.13113378060E+02  0.60486157849E+03  0.72920619643E+03  0.50400001928E-02 0. -1.
</event>
<event>
 5   0  0.8885324E-03  0.9082370E+03  0.7818609E-02  0.9415343E-01
       -1   -1    0    0    0  501  0.00000000000E+00  0.00000000000E+00  0.47112218099E+03  0.47112218101E+03  0.50400001928E-02 0. -1.
        1   -1    0    0  501    0  0.00000000000E+00  0.00000000000E+00 -0.43772848347E+03  0.43772848350E+03  0.50400001928E-02 0.  1.
    10030    2    1    2    0    0  0.00000000000E+00  0.00000000000E+00  0.33393697519E+02  0.90885066451E+03  0.90823696872E+03 0.  0.
        2    1    3    3  502    0  0.20828375349E+03 -0.33746200524E+03 -0.20472369898E+03  0.44628972639E+03  0.25500000920E-02 0.  1.
       -2    1    3    3    0  502 -0.20828375349E+03  0.33746200524E+03  0.23811739650E+03  0.46256093812E+03  0.25500000920E-02 0. -1.
</event>
<event>
 5   0  0.8291252E-03  0.1000985E+04  0.7818609E-02  0.9307465E-01
       -1   -1    0    0    0  501  0.00000000000E+00  0.00000000000E+00  0.13652246005E+03  0.13652246014E+03  0.50400001928E-02 0. -1.
        1   -1    0    0  501    0  0.00000000000E+00  0.00000000000E+00 -0.18348086819E+04  0.18348086819E+04  0.50400001928E-02 0.  1.
    10030    2    1    2    0    0  0.00000000000E+00  0.00000000000E+00 -0.16982862219E+04  0.19713311421E+04  0.10009847053E+04 0.  0.
        1    1    3    3  502    0 -0.80157214008E+02 -0.39237670908E+03 -0.25797138090E+03  0.47637579092E+03  0.50400001928E-02 0. -1.
       -1    1    3    3    0  502  0.80157214008E+02  0.39237670908E+03 -0.14403148410E+04  0.14949553511E+04  0.50400001928E-02 0.  1.
</event>
<event>
 5   0  0.8524692E-03  0.8967922E+03  0.7818609E-02  0.9429600E-01
        1   -1    0    0  501    0  0.00000000000E+00  0.00000000000E+00  0.65630022858E+03  0.65630022859E+03  0.50400001928E-02 0. -1.
       -1   -1    0    0    0  501  0.00000000000E+00  0.00000000000E+00 -0.30635223241E+03  0.30635223245E+03  0.50400001928E-02 0.  1.
    10030    2    1    2    0    0  0.00000000000E+00  0.00000000000E+00  0.34994799616E+03  0.96265246105E+03  0.89679215024E+03 0.  0.
        5    1    3    3  502    0 -0.41830599526E+03 -0.15458941424E+03  0.12509475080E+03  0.46319388958E+03  0.46999998093E+01 0. -1.
       -5    1    3    3    0  502  0.41830599526E+03  0.15458941424E+03  0.22485324536E+03  0.49945857147E+03  0.46999998093E+01 0.  1.
</event>
<event>
 5   0  0.1535906E-02  0.8504302E+03  0.7818609E-02  0.9489760E-01
        2   -1    0    0  501    0  0.00000000000E+00  0.00000000000E+00  0.16797545243E+04  0.16797545243E+04  0.25500000920E-02 0. -1.
       -2   -1    0    0    0  501  0.00000000000E+00  0.00000000000E+00 -0.10763947804E+03  0.10763947807E+03  0.25500000920E-02 0.  1.
    10030    2    1    2    0    0  0.00000000000E+00  0.00000000000E+00  0.15721150462E+04  0.17873940023E+04  0.85043024464E+03 0.  0.
        2    1    3    3  502    0  0.78115912528E+02  0.34365122094E+03  0.12861229234E+04  0.13335330635E+04  0.25500000920E-02 0. -1.
       -2    1    3    3    0  502 -0.78115912528E+02 -0.34365122094E+03  0.28599212285E+03  0.45386093882E+03  0.25500000920E-02 0.  1.
</event>
<event>
 5   0  0.1483326E-02  0.8993763E+03  0.7818609E-02  0.9426361E-01
       -2   -1    0    0    0  501  0.00000000000E+00  0.00000000000E+00  0.20354068838E+03  0.20354068839E+03  0.25500000920E-02 0.  1.
        2   -1    0    0  501    0  0.00000000000E+00  0.00000000000E+00 -0.99350873088E+03  0.99350873088E+03  0.25500000920E-02 0. -1.
    10030    2    1    2    0    0  0.00000000000E+00  0.00000000000E+00 -0.78996804250E+03  0.11970494193E+04  0.89937634171E+03 0.  0.
        1    1    3    3  502    0  0.42155072030E+02 -0.30749475241E+03 -0.82809263386E+03  0.88434579387E+03  0.50400001928E-02 0. -1.
       -1    1    3    3    0  502 -0.42155072030E+02  0.30749475241E+03  0.38124591353E+02  0.31270362541E+03  0.50400001928E-02 0.  1.
</event>
<event>
 5   0  0.1441195E-02  0.8944970E+03  0.7818609E-02  0.9432487E-01
        2   -1    0    0  501    0  0.00000000000E+00  0.00000000000E+00  0.15799460203E+04  0.15799460203E+04  0.25500000920E-02 0. -1.
       -2   -1    0    0    0  501  0.00000000000E+00  0.00000000000E+00 -0.12660637491E+03  0.12660637493E+03  0.25500000920E-02 0.  1.
    10030    2    1    2    0    0  0.00000000000E+00  0.00000000000E+00  0.14533396454E+04  0.17065523953E+04  0.89449703903E+03 0.  0.
        5    1    3    3  502    0  0.57899994597E+02  0.44338356979E+03  0.74237315323E+03  0.86664951853E+03  0.46999998093E+01 0.  1.
       -5    1    3    3    0  502 -0.57899994597E+02 -0.44338356979E+03  0.71096649221E+03  0.83990287675E+03  0.46999998093E+01 0. -1.
</event>
<event>
 5   0  0.8524692E-03  0.8664540E+03  0.7818609E-02  0.9468515E-01
       -1   -1    0    0    0  501  0.00000000000E+00  0.00000000000E+00  0.56303057763E+03  0.56303057766E+03  0.50400001928E-02 0.  1.
        1   -1    0    0  501    0  0.00000000000E+00  0.00000000000E+00 -0.33334894932E+03  0.33334894936E+03  0.50400001928E-02 0. -1.
    10030    2    1    2    0    0  0.00000000000E+00  0.00000000000E+00  0.22968162831E+03  0.89637952702E+03  0.86645404152E+03 0.  0.
        5    1    3    3  502    0  0.32676519221E+02 -0.24330836588E+03 -0.25441363312E+03  0.35357474816E+03  0.46999998093E+01 0. -1.
       -5    1    3    3    0  502 -0.32676519221E+02  0.24330836588E+03  0.48409526143E+03  0.54280477886E+03  0.46999998093E+01 0.  1.
</event>
<event>
 5   0  0.5770125E-03  0.8916193E+03  0.7818609E-02  0.9436119E-01
        4   -1    0    0  501    0  0.00000000000E+00  0.00000000000E+00  0.99483864519E+03  0.99483945582E+03  0.12699999809E+01 0.  1.
       -4   -1    0    0    0  501  0.00000000000E+00  0.00000000000E+00 -0.19977443692E+03  0.19977847368E+03  0.12699999809E+01 0. -1.
    10030    2    1    2    0    0  0.00000000000E+00  0.00000000000E+00  0.79506420827E+03  0.11946179295E+04  0.89161925855E+03 0.  0.
        4    1    3    3  502    0 -0.26385699107E+03 -0.31046079125E+03  0.15510734448E+03  0.43596595721E+03  0.12699999809E+01 0. -1.
       -4    1    3    3    0  502  0.26385699107E+03  0.31046079125E+03  0.63995686379E+03  0.75865197229E+03  0.12699999809E+01 0.  1.
</event>
<event>
 5   0  0.1454652E-02  0.8807844E+03  0.7818609E-02  0.9449926E-01
        2   -1    0    0  501    0  0.00000000000E+00  0.00000000000E+00  0.14413540658E+04  0.14413540658E+04  0.25500000920E-02 0.  1.
       -2   -1    0    0    0  501  0.00000000000E+00  0.00000000000E+00 -0.13455769697E+03  0.13455769699E+03  0.25500000920E-02 0. -1.
    10030    2    1    2    0    0  0.00000000000E+00  0.00000000000E+00  0.13067963689E+04  0.15759117628E+04  0.88078438596E+03 0.  0.
        4    1    3    3  502    0  0.11622305893E+03 -0.34118202505E+03  0.11061460432E+04  0.11633888668E+04  0.12699999809E+01 0.  1.
       -4    1    3    3    0  502 -0.11622305893E+03  0.34118202505E+03  0.20065032566E+03  0.41252289601E+03  0.12699999809E+01 0. -1.
</event>
<event>
 5   0  0.1483326E-02  0.9044367E+03  0.7818609E-02  0.9420052E-01
       -2   -1    0    0    0  501  0.00000000000E+00  0.00000000000E+00  0.30383245466E+03  0.30383245467E+03  0.25500000920E-02 0.  1.
        2   -1    0    0  501    0  0.00000000000E+00  0.00000000000E+00 -0.67307310961E+03  0.67307310962E+03  0.25500000920E-02 0. -1.
    10030    2    1    2    0    0  0.00000000000E+00  0.00000000000E+00 -0.36924065495E+03  0.97690556429E+03  0.90443674200E+03 0.  0.
        1    1    3    3  502    0  0.20129953826E+03 -0.40055957752E+03 -0.24881267317E+03  0.51271554063E+03  0.50400001928E-02 0.  1.
       -1    1    3    3    0  502 -0.20129953826E+03  0.40055957752E+03 -0.12042798178E+03  0.46419002366E+03  0.50400001928E-02 0. -1.
</event>
<event>
 5   0  0.8612969E-03  0.9125725E+03  0.7818609E-02  0.9410000E-01
       -1   -1    0    0    0  501  0.00000000000E+00  0.00000000000E+00  0.51663525004E+03  0.51663525006E+03  0.50400001928E-02 0.  1.
        1   -1    0    0  501    0  0.00000000000E+00  0.00000000000E+00 -0.40298672351E+03  0.40298672355E+03  0.50400001928E-02 0. -1.
    10030    2    1    2    0    0  0.00000000000E+00  0.00000000000E+00  0.11364852652E+03  0.91962197361E+03  0.91257251041E+03 0.  0.
        4    1    3    3  502    0  0.24332677367E+03  0.11016354709E+03  0.42961654289E+03  0.50588132276E+03  0.12699999809E+01 0.  1.
       -4    1    3    3    0  502 -0.24332677367E+03 -0.11016354709E+03 -0.31596801637E+03  0.41374065084E+03  0.12699999809E+01 0. -1.
</event>
<event>
 5   0  0.8524692E-03  0.8954675E+03  0.7818609E-02  0.9431265E-01
        1   -1    0    0  501    0  0.00000000000E+00  0.00000000000E+00  0.10696075499E+04  0.10696075499E+04  0.50400001928E-02 0. -1.
       -1   -1    0    0    0  501  0.00000000000E+00  0.00000000000E+00 -0.18741967259E+03  0.18741967266E+03  0.50400001928E-02 0.  1.
    10030    2    1    2    0    0  0.00000000000E+00  0.00000000000E+00  0.88218787734E+03  0.12570272226E+04  0.89546746866E+03 0.  0.
        5    1    3    3  502    0  0.37734474491E+03  0.16022458817E+02  0.77857537560E+03  0.86535974091E+03  0.46999998093E+01 0. -1.
       -5    1    3    3    0  502 -0.37734474491E+03 -0.16022458817E+02  0.10361250174E+03  0.39166748169E+03  0.46999998093E+01 0.  1.
</event>
<event>
 5   0  0.1441195E-02  0.9094919E+03  0.7818609E-02  0.9413793E-01
        2   -1    0    0  501    0  0.00000000000E+00  0.00000000000E+00  0.16952088601E+04  0.16952088601E+04  0.25500000920E-02 0. -1.
       -2   -1    0    0    0  501  0.00000000000E+00  0.00000000000E+00 -0.12198726691E+03  0.12198726694E+03  0.25500000920E-02 0.  1.
    10030    2    1    2    0    0  0.00000000000E+00  0.00000000000E+00  0.15732215932E+04  0.18171961270E+04  0.90949193667E+03 0.  0.
        5    1    3    3  502    0 -0.26701674484E+03 -0.23436280757E+03  0.13536722979E+04  0.13995265798E+04  0.46999998093E+01 0. -1.
       -5    1    3    3    0  502  0.26701674484E+03  0.23436280757E+03  0.21954929529E+03  0.41766954720E+03  0.46999998093E+01 0.  1.
</event>
<event>
 5   0  0.1441195E-02  0.8557434E+03  0.7818609E-02  0.9482661E-01
        2   -1    0    0  501    0  0.00000000000E+00  0.00000000000E+00  0.75293125753E+03  0.75293125754E+03  0.25500000920E-02 0. -1.
       -2   -1    0    0    0  501  0.00000000000E+00  0.00000000000E+00 -0.24314862685E+03  0.24314862687E+03  0.25500000920E-02 0.  1.
    10030    2    1    2    0    0  0.00000000000E+00  0.00000000000E+00  0.50978263068E+03  0.99607988440E+03  0.85574342274E+03 0.  0.
        5    1    3    3  502    0  0.36103024122E+03 -0.13524324057E+02 -0.11880098171E+02  0.36150929330E+03  0.46999998093E+01 0.  1.
       -5    1    3    3    0  502 -0.36103024122E+03  0.13524324057E+02  0.52166272885E+03  0.63457059110E+03  0.46999998093E+01 0. -1.
</event>
<event>
 5   0  0.1441195E-02  0.8549544E+03  0.7818609E-02  0.9483711E-01
       -2   -1    0    0    0  501  0.00000000000E+00  0.00000000000E+00  0.38274514575E+03  0.38274514576E+03  0.25500000920E-02 0.  1.
        2   -1    0    0  501    0  0.00000000000E+00  0.00000000000E+00 -0.47743719192E+03  0.47743719193E+03  0.25500000920E-02 0. -1.
    10030    2    1    2    0    0  0.00000000000E+00  0.00000000000E+00 -0.94692046167E+02  0.86018233769E+03  0.85495442596E+03 0.  0.
        5    1    3    3  502    0 -0.22883923513E+03 -0.21132629377E+03  0.24716989631E+03  0.39766976955E+03  0.46999998093E+01 0.  1.
       -5    1    3    3    0  502  0.22883923513E+03  0.21132629377E+03 -0.34186194248E+03  0.46251256814E+03  0.46999998093E+01 0. -1.
</event>
<event>
 5   0  0.1454652E-02  0.8818269E+03  0.7818609E-02  0.9448588E-01
        2   -1    0    0  501    0  0.00000000000E+00  0.00000000000E+00  0.14687526102E+04  0.14687526102E+04  0.25500000920E-02 0.  1.
       -2   -1    0    0    0  501  0.00000000000E+00  0.00000000000E+00 -0.13236038787E+03  0.13236038789E+03  0.25500000920E-02 0. -1.
    10030    2    1    2    0    0  0.00000000000E+00  0.00000000000E+00  0.13363922223E+04  0.16011129981E+04  0.88182688818E+03 0.  0.
        4    1    3    3  502    0  0.27016282376E+03 -0.29758707567E+03  0.33907721298E+03  0.52585262975E+03  0.12699999809E+01 0. -1.
       -4    1    3    3    0  502 -0.27016282376E+03  0.29758707567E+03  0.99731500931E+03  0.10752603683E+04  0.12699999809E+01 0.  1.
</event>
<event>
 5   0  0.1454652E-02  0.8669074E+03  0.7818609E-02  0.9467921E-01
        2   -1    0    0  501    0  0.00000000000E+00  0.00000000000E+00  0.31157448138E+03  0.31157448139E+03  0.25500000920E-02 0.  1.
       -2   -1    0    0    0  501  0.00000000000E+00  0.00000000000E+00 -0.60300868448E+03  0.60300868449E+03  0.25500000920E-02 0. -1.
    10030    2    1    2    0    0  0.00000000000E+00  0.00000000000E+00 -0.29143420310E+03  0.91458316588E+03  0.86690741869E+03 0.  0.
        4    1    3    3  502    0  0.37299884722E+02 -0.42057332283E+03 -0.42309789425E+02  0.42434058545E+03  0.12699999809E+01 0.  1.
       -4    1    3    3    0  502 -0.37299884722E+02  0.42057332283E+03 -0.24912441367E+03  0.49024258043E+03  0.12699999809E+01 0. -1.
</event>
<event>
 5   0  0.8524692E-03  0.8995699E+03  0.7818609E-02  0.9426119E-01
       -1   -1    0    0    0  501  0.00000000000E+00  0.00000000000E+00  0.36072174845E+03  0.36072174848E+03  0.50400001928E-02 0.  1.
        1   -1    0    0  501    0  0.00000000000E+00  0.00000000000E+00 -0.56083811075E+03  0.56083811077E+03  0.50400001928E-02 0. -1.
    10030    2    1    2    0    0  0.00000000000E+00  0.00000000000E+00 -0.20011636230E+03  0.92155985925E+03  0.89956990597E+03 0.  0.
        5    1    3    3  502    0 -0.34709507846E+03  0.20189997951E+03  0.10749198858E+03  0.41571049160E+03  0.46999998093E+01 0.  1.
       -5    1    3    3    0  502  0.34709507846E+03 -0.20189997951E+03 -0.30760835088E+03  0.50584936765E+03  0.46999998093E+01 0. -1.
</event>
<event>
 5   0  0.1440615E-02  0.8834800E+03  0.7818609E-02  0.9446471E-01
        2   -1    0    0  501    0  0.00000000000E+00  0.00000000000E+00  0.13963457632E+04  0.13963457632E+04  0.25500000920E-02 0.  1.
       -2   -1    0    0    0  501  0.00000000000E+00  0.00000000000E+00 -0.13974634716E+03  0.13974634718E+03  0.25500000920E-02 0. -1.
    10030    2    1    2    0    0  0.00000000000E+00  0.00000000000E+00  0.12565994160E+04  0.15360921103E+04  0.88347998232E+03 0.  0.
        3    1    3    3  502    0 -0.32411545663E+03  0.20307127099E+03  0.24403318165E+03  0.45369700712E+03  0.10100000352E+00 0. -1.
       -3    1    3    3    0  502  0.32411545663E+03 -0.20307127099E+03  0.10125662343E+04  0.10823951032E+04  0.10100000352E+00 0.  1.
</event>
<event>
 5   0  0.1454652E-02  0.9017532E+03  0.7818609E-02  0.9423392E-01
       -2   -1    0    0    0  501  0.00000000000E+00  0.00000000000E+00  0.18542363390E+03  0.18542363391E+03  0.25500000920E-02 0.  1.
        2   -1    0    0  501    0  0.00000000000E+00  0.00000000000E+00 -0.10963527448E+04  0.10963527448E+04  0.25500000920E-02 0. -1.
    10030    2    1    2    0    0  0.00000000000E+00  0.00000000000E+00 -0.91092911092E+03  0.12817763787E+04  0.90175320346E+03 0.  0.
        4    1    3    3  502    0 -0.30554940350E+03 -0.27238165678E+03 -0.72417025879E+03  0.83185117753E+03  0.12699999809E+01 0. -1.
       -4    1    3    3    0  502  0.30554940350E+03  0.27238165678E+03 -0.18675885213E+03  0.44992520121E+03  0.12699999809E+01 0.  1.
</event>
<event>
 5   0  0.8291252E-03  0.9230923E+03  0.7818609E-02  0.9397167E-01
       -1   -1    0    0    0  501  0.00000000000E+00  0.00000000000E+00  0.44862237171E+03  0.44862237173E+03  0.50400001928E-02 0. -1.
        1   -1    0    0  501    0  0.00000000000E+00  0.00000000000E+00 -0.47484225377E+03  0.47484225380E+03  0.50400001928E-02 0.  1.
    10030    2    1    2    0    0  0.00000000000E+00  0.00000000000E+00 -0.26219882066E+02  0.92346462553E+03  0.92309232062E+03 0.  0.
        1    1    3    3  502    0  0.37532482154E+03  0.32161590387E+02  0.25368426853E+03  0.45415723894E+03  0.50400001928E-02 0. -1.
       -1    1    3    3    0  502 -0.37532482154E+03 -0.32161590387E+02 -0.27990415060E+03  0.46930738659E+03  0.50400001928E-02 0.  1.
</event>
<event>
 5   0  0.1441195E-02  0.8932117E+03  0.7818609E-02  0.9434107E-01
       -2   -1    0    0    0  501  0.00000000000E+00  0.00000000000E+00  0.59661374871E+03  0.59661374872E+03  0.25500000920E-02 0. -1.
        2   -1    0    0  501    0  0.00000000000E+00  0.00000000000E+00 -0.33431479857E+03  0.33431479858E+03  0.25500000920E-02 0.  1.
    10030    2    1    2    0    0  0.00000000000E+00  0.00000000000E+00  0.26229895015E+03  0.93092854730E+03  0.89321174473E+03 0.  0.
        5    1    3    3  502    0 -0.10488047964E+03  0.42498511710E+03  0.38970190267E+02  0.43949178661E+03  0.46999998093E+01 0.  1.
       -5    1    3    3    0  502  0.10488047964E+03 -0.42498511710E+03  0.22332875988E+03  0.49143676069E+03  0.46999998093E+01 0. -1.
</event>
<event>
 5   0  0.1535906E-02  0.9232134E+03  0.7818609E-02  0.9397020E-01
        2   -1    0    0  501    0  0.00000000000E+00  0.00000000000E+00  0.13646207419E+04  0.13646207419E+04  0.25500000920E-02 0. -1.
       -2   -1    0    0    0  501  0.00000000000E+00  0.00000000000E+00 -0.15614648860E+03  0.15614648862E+03  0.25500000920E-02 0.  1.
    10030    2    1    2    0    0  0.00000000000E+00  0.00000000000E+00  0.12084742532E+04  0.15207672305E+04  0.92321338190E+03 0.  0.
        2    1    3    3  502    0 -0.29107509374E+03  0.33475552240E+03  0.39396353431E+03  0.59329017887E+03  0.25500000920E-02 0.  1.
       -2    1    3    3    0  502  0.29107509374E+03 -0.33475552240E+03  0.81451071894E+03  0.92747705160E+03  0.25500000920E-02 0. -1.
</event>
<event>
 5   0  0.8291252E-03  0.9000181E+03  0.7818609E-02  0.9425559E-01
       -1   -1    0    0    0  501  0.00000000000E+00  0.00000000000E+00  0.21027062536E+03  0.21027062542E+03  0.50400001928E-02 0. -1.
        1   -1    0    0  501    0  0.00000000000E+00  0.00000000000E+00 -0.96308331602E+03  0.96308331604E+03  0.50400001928E-02 0.  1.
    10030    2    1    2    0    0  0.00000000000E+00  0.00000000000E+00 -0.75281269066E+03  0.11733539415E+04  0.90001806910E+03 0.  0.
        1    1    3    3  502    0  0.42754495369E+03 -0.12633396754E+03 -0.45627512762E+03  0.63792001920E+03  0.50400001928E-02 0.  1.
       -1    1    3    3    0  502 -0.42754495369E+03  0.12633396754E+03 -0.29653756304E+03  0.53543392226E+03  0.50400001928E-02 0. -1.
</event>
<event>
 5   0  0.1441195E-02  0.8909326E+03  0.7818609E-02  0.9436988E-01
        2   -1    0    0  501    0  0.00000000000E+00  0.00000000000E+00  0.11134781498E+04  0.11134781499E+04  0.25500000920E-02 0.  1.
       -2   -1    0    0    0  501  0.00000000000E+00  0.00000000000E+00 -0.17821654218E+03  0.17821654220E+03  0.25500000920E-02 0. -1.
    10030    2    1    2    0    0  0.00000000000E+00  0.00000000000E+00  0.93526160767E+03  0.12916946920E+04  0.89093260277E+03 0.  0.
        5    1    3    3  502    0 -0.90369971650E+02 -0.41095267602E+03  0.25569214040E+03  0.49239150517E+03  0.46999998093E+01 0. -1.
       -5    1    3    3    0  502  0.90369971650E+02  0.41095267602E+03  0.67956946727E+03  0.79930318688E+03  0.46999998093E+01 0.  1.
</event>
<event>
 5   0  0.1441195E-02  0.9079954E+03  0.7818609E-02  0.9415642E-01
        2   -1    0    0  501    0  0.00000000000E+00  0.00000000000E+00  0.21875079579E+04  0.21875079579E+04  0.25500000920E-02 0. -1.
       -2   -1    0    0    0  501  0.00000000000E+00  0.00000000000E+00 -0.94223155381E+02  0.94223155416E+02  0.25500000920E-02 0.  1.
    10030    2    1    2    0    0  0.00000000000E+00  0.00000000000E+00  0.20932848025E+04  0.22817311133E+04  0.90799537941E+03 0.  0.
        5    1    3    3  502    0  0.11390324359E+03  0.10477216987E+03 -0.25825428744E+02  0.15697196962E+03  0.46999998093E+01 0.  1.
       -5    1    3    3    0  502 -0.11390324359E+03 -0.10477216987E+03  0.21191102313E+04  0.21247591437E+04  0.46999998093E+01 0. -1.
</event>
<event>
 5   0  0.1440615E-02  0.8936883E+03  0.7818609E-02  0.9433506E-01
        2   -1    0    0  501    0  0.00000000000E+00  0.00000000000E+00  0.60251214515E+03  0.60251214516E+03  0.25500000920E-02 0.  1.
       -2   -1    0    0    0  501  0.00000000000E+00  0.00000000000E+00 -0.33139533823E+03  0.33139533824E+03  0.25500000920E-02 0. -1.
    10030    2    1    2    0    0  0.00000000000E+00  0.00000000000E+00  0.27111680692E+03  0.93390748340E+03  0.89368834867E+03 0.  0.
        3    1    3    3  502    0  0.41408678925E+03  0.13834928321E+03  0.36083547407E+02  0.43807582197E+03  0.10100000352E+00 0. -1.
       -3    1    3    3    0  502 -0.41408678925E+03 -0.13834928321E+03  0.23503325951E+03  0.49583166143E+03  0.10100000352E+00 0.  1.
</event>
<event>
 5   0  0.5770125E-03  0.8997959E+03  0.7818609E-02  0.9425837E-01
        4   -1    0    0  501    0  0.00000000000E+00  0.00000000000E+00  0.17089577343E+03  0.17090049232E+03  0.12699999809E+01 0. -1.
       -4   -1    0    0    0  501  0.00000000000E+00  0.00000000000E+00 -0.11843739266E+04  0.11843746075E+04  0.12699999809E+01 0.  1.
    10030    2    1    2    0    0  0.00000000000E+00  0.00000000000E+00 -0.10134781532E+04  0.13552750998E+04  0.89979588198E+03 0.  0.
        3    1    3    3  502    0  0.10074048173E+03  0.16330473620E+03 -0.11196564169E+04  0.11359786898E+04  0.10100000352E+00 0.  1.
       -3    1    3    3    0  502 -0.10074048173E+03 -0.16330473620E+03  0.10617826380E+03  0.21929640998E+03  0.10100000352E+00 0. -1.
</event>
<event>
 5   0  0.8524692E-03  0.8985116E+03  0.7818609E-02  0.9427444E-01
        1   -1    0    0  501    0  0.00000000000E+00  0.00000000000E+00  0.38455436153E+03  0.38455436157E+03  0.50400001928E-02 0. -1.
       -1   -1    0    0    0  501  0.00000000000E+00  0.00000000000E+00 -0.52484330674E+03  0.52484330676E+03  0.50400001928E-02 0.  1.
    10030    2    1    2    0    0  0.00000000000E+00  0.00000000000E+00 -0.14028894520E+03  0.90939766833E+03  0.89851161985E+03 0.  0.
        5    1    3    3  502    0 -0.30038803276E+03 -0.14536676214E+03 -0.37452759241E+03  0.50165473509E+03  0.46999998093E+01 0.  1.
       -5    1    3    3    0  502  0.30038803276E+03  0.14536676214E+03  0.23423864721E+03  0.40774293324E+03  0.46999998093E+01 0. -1.
</event>
<event>
 5   0  0.1535906E-02  0.9001153E+03  0.7818609E-02  0.9425437E-01
       -2   -1    0    0    0  501  0.00000000000E+00  0.00000000000E+00  0.85827598901E+03  0.85827598901E+03  0.25500000920E-02 0. -1.
        2   -1    0    0  501    0  0.00000000000E+00  0.00000000000E+00 -0.23599855795E+03  0.23599855796E+03  0.25500000920E-02 0.  1.
    10030    2    1    2    0    0  0.00000000000E+00  0.00000000000E+00  0.62227743106E+03  0.10942745470E+04  0.90011531647E+03 0.  0.
        2    1    3    3  502    0 -0.28709216110E+03 -0.13606394657E+03  0.69867328803E+03  0.76751525714E+03  0.25500000920E-02 0. -1.
       -2    1    3    3    0  502  0.28709216110E+03  0.13606394657E+03 -0.76395856975E+02  0.32675928983E+03  0.25500000920E-02 0.  1.
</event>
<event>
 5   0  0.1483326E-02  0.8849963E+03  0.7818609E-02  0.9444534E-01
       -2   -1    0    0    0  501  0.00000000000E+00  0.00000000000E+00  0.12829715097E+03  0.12829715099E+03  0.25500000920E-02 0.  1.
        2   -1    0    0  501    0  0.00000000000E+00  0.00000000000E+00 -0.15261803634E+04  0.15261803634E+04  0.25500000920E-02 0. -1.
    10030    2    1    2    0    0  0.00000000000E+00  0.00000000000E+00 -0.13978832125E+04  0.16544775144E+04  0.88499625426E+03 0.  0.
        1    1    3    3  502    0 -0.13251521662E+02 -0.14959945561E+03 -0.14770763294E+04  0.14846919151E+04  0.50400001928E-02 0. -1.
       -1    1    3    3    0  502  0.13251521662E+02  0.14959945561E+03  0.79193116912E+02  0.16978559932E+03  0.50400001928E-02 0.  1.
</event>
<event>
 5   0  0.8885324E-03  0.8969986E+03  0.7818609E-02  0.9429341E-01
       -1   -1    0    0    0  501  0.00000000000E+00  0.00000000000E+00  0.27104225138E+03  0.27104225143E+03  0.50400001928E-02 0. -1.
        1   -1    0    0  501    0  0.00000000000E+00  0.00000000000E+00 -0.74214112893E+03  0.74214112895E+03  0.50400001928E-02 0.  1.
    10030    2    1    2    0    0  0.00000000000E+00  0.00000000000E+00 -0.47109887755E+03  0.10131833804E+04  0.89699855621E+03 0.  0.
        2    1    3    3  502    0  0.33648067532E+03 -0.24849516776E+02 -0.56931413079E+03  0.66178193000E+03  0.25500000920E-02 0.  1.
       -2    1    3    3    0  502 -0.33648067532E+03  0.24849516776E+02  0.98215253244E+02  0.35140145037E+03  0.25500000920E-02 0. -1.
</event>
<event>
 5   0  0.8738044E-03  0.9131885E+03  0.7818609E-02  0.9409244E-01
       -1   -1    0    0    0  501  0.00000000000E+00  0.00000000000E+00  0.22069794121E+03  0.22069794127E+03  0.50400001928E-02 0.  1.
        1   -1    0    0  501    0  0.00000000000E+00  0.00000000000E+00 -0.94463192135E+03  0.94463192136E+03  0.50400001928E-02 0. -1.
    10030    2    1    2    0    0  0.00000000000E+00  0.00000000000E+00 -0.72393398013E+03  0.11653298626E+04  0.91318852443E+03 0.  0.
        3    1    3    3  502    0 -0.17250356618E+03  0.27436143336E+03  0.48470111159E+02  0.32769046116E+03  0.10100000352E+00 0.  1.
       -3    1    3    3    0  502  0.17250356618E+03 -0.27436143336E+03 -0.77240409129E+03  0.83763940147E+03  0.10100000352E+00 0. -1.
</event>
<event>
 5   0  0.1535906E-02  0.9344470E+03  0.7818609E-02  0.9383517E-01
       -2   -1    0    0    0  501  0.00000000000E+00  0.00000000000E+00  0.87401054252E+03  0.87401054253E+03  0.25500000920E-02 0. -1.
        2   -1    0    0  501    0  0.00000000000E+00  0.00000000000E+00 -0.24976566167E+03  0.24976566168E+03  0.25500000920E-02 0.  1.
    10030    2    1    2    0    0  0.00000000000E+00  0.00000000000E+00  0.62424488085E+03  0.11237762042E+04  0.93444704819E+03 0.  0.
        2    1    3    3  502    0 -0.64908337862E+02  0.45122656187E+03  0.43523196826E+03  0.63027404251E+03  0.25500000920E-02 0. -1.
       -2    1    3    3    0  502  0.64908337862E+02 -0.45122656187E+03  0.18901291260E+03  0.49350216170E+03  0.25500000920E-02 0.  1.
</event>
<event>
 5   0  0.8291252E-03  0.9174093E+03  0.7818609E-02  0.9404077E-01
       -1   -1    0    0    0  501  0.00000000000E+00  0.00000000000E+00  0.90456462178E+03  0.90456462179E+03  0.50400001928E-02 0. -1.
        1   -1    0    0  501    0  0.00000000000E+00  0.00000000000E+00 -0.23260908736E+03  0.23260908742E+03  0.50400001928E-02 0.  1.
    10030    2    1    2    0    0  0.00000000000E+00  0.00000000000E+00  0.67195553442E+03  0.11371737092E+04  0.91740928962E+03 0.  0.
        1    1    3    3  502    0 -0.36762194199E+03 -0.99149048540E+02  0.18901427701E+02  0.38122656001E+03  0.50400001928E-02 0.  1.
       -1    1    3    3    0  502  0.36762194199E+03  0.99149048540E+02  0.65305410672E+03  0.75594714920E+03  0.50400001928E-02 0. -1.
</event>
<event>
 5   0  0.8291252E-03  0.9065347E+03  0.7818609E-02  0.9417449E-01
       -1   -1    0    0    0  501  0.00000000000E+00  0.00000000000E+00  0.38305304080E+03  0.38305304083E+03  0.50400001928E-02 0.  1.
        1   -1    0    0  501    0  0.00000000000E+00  0.00000000000E+00 -0.53635201687E+03  0.53635201689E+03  0.50400001928E-02 0. -1.
    10030    2    1    2    0    0  0.00000000000E+00  0.00000000000E+00 -0.15329897607E+03  0.91940505773E+03  0.90653465687E+03 0.  0.
        1    1    3    3  502    0 -0.20850060593E+03 -0.12362716848E+03 -0.46509514298E+03  0.52447084905E+03  0.50400001928E-02 0. -1.
       -1    1    3    3    0  502  0.20850060593E+03  0.12362716848E+03  0.31179616690E+03  0.39493420867E+03  0.50400001928E-02 0.  1.
</event>
<event>
 5   0  0.8885324E-03  0.8980265E+03  0.7818609E-02  0.9428052E-01
        1   -1    0    0  501    0  0.00000000000E+00  0.00000000000E+00  0.19825197873E+04  0.19825197873E+04  0.50400001928E-02 0.  1.
       -1   -1    0    0    0  501  0.00000000000E+00  0.00000000000E+00 -0.10169528666E+03  0.10169528678E+03  0.50400001928E-02 0. -1.
    10030    2    1    2    0    0  0.00000000000E+00  0.00000000000E+00  0.18808245006E+04  0.20842150741E+04  0.89802654351E+03 0.  0.
        2    1    3    3  502    0  0.10746933522E+03  0.28678712671E+03  0.17024838566E+04  0.17298114914E+04  0.25500000920E-02 0.  1.
       -2    1    3    3    0  502 -0.10746933522E+03 -0.28678712671E+03  0.17834064408E+03  0.35440358265E+03  0.25500000920E-02 0. -1.
</event>
<event>
 5   0  0.1454652E-02  0.9146824E+03  0.7818609E-02  0.9407412E-01
        2   -1    0    0  501    0  0.00000000000E+00  0.00000000000E+00  0.41041481732E+03  0.41041481733E+03  0.25500000920E-02 0.  1.
       -2   -1    0    0    0  501  0.00000000000E+00  0.00000000000E+00 -0.50963313891E+03  0.50963313891E+03  0.25500000920E-02 0. -1.
    10030    2    1    2    0    0  0.00000000000E+00  0.00000000000E+00 -0.99218321587E+02  0.92004795624E+03  0.91468244022E+03 0.  0.
        4    1    3    3  502    0  0.11758333881E+03  0.22157047317E+03 -0.43426586423E+03  0.50150550334E+03  0.12699999809E+01 0. -1.
       -4    1    3    3    0  502 -0.11758333881E+03 -0.22157047317E+03  0.33504754265E+03  0.41854245290E+03  0.12699999809E+01 0.  1.
</event>
<event>
 5   0  0.1441195E-02  0.9000450E+03  0.7818609E-02  0.9425525E-01
       -2   -1    0    0    0  501  0.00000000000E+00  0.00000000000E+00  0.14572820043E+03  0.14572820045E+03  0.25500000920E-02 0. -1.
        2   -1    0    0  501    0  0.00000000000E+00  0.00000000000E+00 -0.13897121207E+04  0.13897121207E+04  0.25500000920E-02 0.  1.
    10030    2    1    2    0    0  0.00000000000E+00  0.00000000000E+00 -0.12439839203E+04  0.15354403212E+04  0.90004499108E+03 0.  0.
        5    1    3    3  502    0 -0.36461621884E+03 -0.26152220083E+03 -0.56390640772E+03  0.72066037441E+03  0.46999998093E+01 0. -1.
       -5    1    3    3    0  502  0.36461621884E+03  0.26152220083E+03 -0.68007751258E+03  0.81477994679E+03  0.46999998093E+01 0.  1.
</event>
<event>
 5   0  0.1454652E-02  0.8912367E+03  0.7818609E-02  0.9436603E-01
       -2   -1    0    0    0  501  0.00000000000E+00  0.00000000000E+00  0.10239591405E+03  0.10239591408E+03  0.25500000920E-02 0. -1.
        2   -1    0    0  501    0  0.00000000000E+00  0.00000000000E+00 -0.19392932245E+04  0.19392932245E+04  0.25500000920E-02 0.  1.
    10030    2    1    2    0    0  0.00000000000E+00  0.00000000000E+00 -0.18368973105E+04  0.20416891386E+04  0.89123667422E+03 0.  0.
        4    1    3    3  502    0  0.10881037392E+02  0.41615897265E+03 -0.55430154837E+03  0.69322327350E+03  0.12699999809E+01 0.  1.
       -4    1    3    3    0  502 -0.10881037392E+02 -0.41615897265E+03 -0.12825957621E+04  0.13484658651E+04  0.12699999809E+01 0. -1.
</event>
<event>
 5   0  0.1483326E-02  0.8717254E+03  0.7818609E-02  0.9461633E-01
        2   -1    0    0  501    0  0.00000000000E+00  0.00000000000E+00  0.10791314817E+04  0.10791314817E+04  0.25500000920E-02 0.  1.
       -2   -1    0    0    0  501  0.00000000000E+00  0.00000000000E+00 -0.17604553346E+03  0.17604553348E+03  0.25500000920E-02 0. -1.
    10030    2    1    2    0    0  0.00000000000E+00  0.00000000000E+00  0.90308594825E+03  0.12551770152E+04  0.87172536360E+03 0.  0.
        1    1    3    3  502    0 -0.61008088162E+02  0.34465821812E+03  0.77549031505E+02  0.35850401177E+03  0.50400001928E-02 0. -1.
       -1    1    3    3    0  502  0.61008088162E+02 -0.34465821812E+03  0.82553691675E+03  0.89667300343E+03  0.50400001928E-02 0.  1.
</event>
<event>
 5   0  0.1441195E-02  0.9083451E+03  0.7818609E-02  0.9415209E-01
       -2   -1    0    0    0  501  0.00000000000E+00  0.00000000000E+00  0.13894709588E+03  0.13894709590E+03  0.25500000920E-02 0.  1.
        2   -1    0    0  501    0  0.00000000000E+00  0.00000000000E+00 -0.14845413678E+04  0.14845413678E+04  0.25500000920E-02 0. -1.
    10030    2    1    2    0    0  0.00000000000E+00  0.00000000000E+00 -0.13455942719E+04  0.16234884637E+04  0.90834511455E+03 0.  0.
        5    1    3    3  502    0 -0.21391180572E+03 -0.25691953765E+03 -0.12340922998E+03  0.35639561935E+03  0.46999998093E+01 0.  1.
       -5    1    3    3    0  502  0.21391180572E+03  0.25691953765E+03 -0.12221850419E+04  0.12670928443E+04  0.46999998093E+01 0. -1.
</event>
<event>
 5   0  0.1440615E-02  0.9213454E+03  0.7818609E-02  0.9399285E-01
       -2   -1    0    0    0  501  0.00000000000E+00  0.00000000000E+00  0.21284676138E+03  0.21284676140E+03  0.25500000920E-02 0.  1.
        2   -1    0    0  501    0  0.00000000000E+00  0.00000000000E+00 -0.99705228588E+03  0.99705228589E+03  0.25500000920E-02 0. -1.
    10030    2    1    2    0    0  0.00000000000E+00  0.00000000000E+00 -0.78420552450E+03  0.12098990473E+04  0.92134542923E+03 0.  0.
        3    1    3    3  502    0  0.17166350192E+03  0.39446619216E+03 -0.17573586799E+03  0.46470962992E+03  0.10100000352E+00 0.  1.
       -3    1    3    3    0  502 -0.17166350192E+03 -0.39446619216E+03 -0.60846965651E+03  0.74518941736E+03  0.10100000352E+00 0. -1.
</event>
<event>
 5   0  0.1454652E-02  0.9055155E+03  0.7818609E-02  0.9418713E-01
        2   -1    0    0  501    0  0.00000000000E+00  0.00000000000E+00  0.55536373167E+03  0.55536373168E+03  0.25500000920E-02 0. -1.
       -2   -1    0    0    0  501  0.00000000000E+00  0.00000000000E+00 -0.36910869704E+03  0.36910869705E+03  0.25500000920E-02 0.  1.
    10030    2    1    2    0    0  0.00000000000E+00  0.00000000000E+00  0.18625503464E+03  0.92447242873E+03  0.90551550707E+03 0.  0.
        4    1    3    3  502    0 -0.20262068687E+03  0.22287202298E+03 -0.25197400169E+03  0.39270802360E+03  0.12699999809E+01 0.  1.
       -4    1    3    3    0  502  0.20262068687E+03 -0.22287202298E+03  0.43822903633E+03  0.53176440512E+03  0.12699999809E+01 0. -1.
</event>
<event>
 5   0  0.8738044E-03  0.9053598E+03  0.7818609E-02  0.9418906E-01
        1   -1    0    0  501    0  0.00000000000E+00  0.00000000000E+00  0.83478839445E+03  0.83478839446E+03  0.50400001928E-02 0.  1.
       -1   -1    0    0    0  501  0.00000000000E+00  0.00000000000E+00 -0.24547430707E+03  0.24547430712E+03  0.50400001928E-02 0. -1.
    10030    2    1    2    0    0  0.00000000000E+00  0.00000000000E+00  0.58931408738E+03  0.10802627016E+04  0.90535982396E+03 0.  0.
        3    1    3    3  502    0  0.20610729745E+03  0.26289324211E+03 -0.69853025910E+02  0.34128072057E+03  0.10100000352E+00 0.  1.
       -3    1    3    3    0  502 -0.20610729745E+03 -0.26289324211E+03  0.65916711329E+03  0.73898198101E+03  0.10100000352E+00 0. -1.
</event>
<event>
 5   0  0.8885324E-03  0.8929714E+03  0.7818609E-02  0.9434410E-01
        1   -1    0    0  501    0  0.00000000000E+00  0.00000000000E+00  0.16232955295E+03  0.16232955302E+03  0.50400001928E-02 0. -1.
       -1   -1    0    0    0  501  0.00000000000E+00  0.00000000000E+00 -0.12280540632E+04  0.12280540632E+04  0.50400001928E-02 0.  1.
    10030    2    1    2    0    0  0.00000000000E+00  0.00000000000E+00 -0.10657245102E+04  0.13903836162E+04  0.89297137050E+03 0.  0.
        2    1    3    3  502    0 -0.58434326413E+01 -0.35211181125E+03 -0.10550747423E+03  0.36762576141E+03  0.25500000920E-02 0. -1.
       -2    1    3    3    0  502  0.58434326413E+01  0.35211181125E+03 -0.96021703601E+03  0.10227578548E+04  0.25500000920E-02 0.  1.
</event>
<event>
 5   0  0.8738044E-03  0.8992228E+03  0.7818609E-02  0.9426553E-01
       -1   -1    0    0    0  501  0.00000000000E+00  0.00000000000E+00  0.35636549980E+03  0.35636549984E+03  0.50400001928E-02 0.  1.
        1   -1    0    0  501    0  0.00000000000E+00  0.00000000000E+00 -0.56725587846E+03  0.56725587848E+03  0.50400001928E-02 0. -1.
    10030    2    1    2    0    0  0.00000000000E+00  0.00000000000E+00 -0.21089037865E+03  0.92362137831E+03  0.89922283038E+03 0.  0.
        3    1    3    3  502    0  0.12447956605E+03 -0.31420733482E+03 -0.41001911852E+03  0.53135402451E+03  0.10100000352E+00 0. -1.
       -3    1    3    3    0  502 -0.12447956605E+03  0.31420733482E+03  0.19912873986E+03  0.39226735380E+03  0.10100000352E+00 0.  1.
</event>
<event>
 5   0  0.1454652E-02  0.8775215E+03  0.7818609E-02  0.9454125E-01
       -2   -1    0    0    0  501  0.00000000000E+00  0.00000000000E+00  0.29709451380E+03  0.29709451381E+03  0.25500000920E-02 0. -1.
        2   -1    0    0  501    0  0.00000000000E+00  0.00000000000E+00 -0.64797896259E+03  0.64797896259E+03  0.25500000920E-02 0.  1.
    10030    2    1    2    0    0  0.00000000000E+00  0.00000000000E+00 -0.35088444879E+03  0.94507347640E+03  0.87752149797E+03 0.  0.
        4    1    3    3  502    0 -0.27814135438E+03  0.11403349124E+03  0.16875898726E+03  0.34474259792E+03  0.12699999809E+01 0. -1.
       -4    1    3    3    0  502  0.27814135438E+03 -0.11403349124E+03 -0.51964343604E+03  0.60033087848E+03  0.12699999809E+01 0.  1.
</event>
<event>
 5   0  0.8291252E-03  0.9018176E+03  0.7818609E-02  0.9423312E-01
       -1   -1    0    0    0  501  0.00000000000E+00  0.00000000000E+00  0.11058217183E+04  0.11058217183E+04  0.50400001928E-02 0. -1.
        1   -1    0    0  501    0  0.00000000000E+00  0.00000000000E+00 -0.18386215380E+03  0.18386215387E+03  0.50400001928E-02 0.  1.
    10030    2    1    2    0    0  0.00000000000E+00  0.00000000000E+00  0.92195956453E+03  0.12896838722E+04  0.90181763768E+03 0.  0.
        1    1    3    3  502    0  0.30618978173E+03  0.33044686164E+03  0.48854211327E+03  0.66454548924E+03  0.50400001928E-02 0.  1.
       -1    1    3    3    0  502 -0.30618978173E+03 -0.33044686164E+03  0.43341745126E+03  0.62513838299E+03  0.50400001928E-02 0. -1.
</event>
<event>
 5   0  0.8524692E-03  0.9103065E+03  0.7818609E-02  0.9412789E-01
        1   -1    0    0  501    0  0.00000000000E+00  0.00000000000E+00  0.90851636022E+03  0.90851636024E+03  0.50400001928E-02 0. -1.
       -1   -1    0    0    0  501  0.00000000000E+00  0.00000000000E+00 -0.22802505217E+03  0.22802505223E+03  0.50400001928E-02 0.  1.
    10030    2    1    2    0    0  0.00000000000E+00  0.00000000000E+00  0.68049130805E+03  0.11365414125E+04  0.91030652086E+03 0.  0.
        5    1    3    3  502    0 -0.19169865329E+03  0.31286978209E+03  0.40545939778E+01  0.36698011383E+03  0.46999998093E+01 0.  1.
       -5    1    3    3    0  502  0.19169865329E+03 -0.31286978209E+03  0.67643671407E+03  0.76956129864E+03  0.46999998093E+01 0. -1.
</event>
<event>
 5   0  0.8291252E-03  0.8915577E+03  0.7818609E-02  0.9436197E-01
        1   -1    0    0  501    0  0.00000000000E+00  0.00000000000E+00  0.41457762460E+03  0.41457762463E+03  0.50400001928E-02 0.  1.
       -1   -1    0    0    0  501  0.00000000000E+00  0.00000000000E+00 -0.47932825662E+03  0.47932825665E+03  0.50400001928E-02 0. -1.
    10030    2    1    2    0    0  0.00000000000E+00  0.00000000000E+00 -0.64750632023E+02  0.89390588128E+03  0.89155767073E+03 0.  0.
        1    1    3    3  502    0 -0.10647132392E+03  0.16631269118E+03 -0.43308117902E+03  0.47597832064E+03  0.50400001928E-02 0. -1.
       -1    1    3    3    0  502  0.10647132392E+03 -0.16631269118E+03  0.36833054700E+03  0.41792756064E+03  0.50400001928E-02 0.  1.
</event>
<event>
 5   0  0.8885324E-03  0.9041595E+03  0.7818609E-02  0.9420397E-01
       -1   -1    0    0    0  501  0.00000000000E+00  0.00000000000E+00  0.34528757129E+03  0.34528757133E+03  0.50400001928E-02 0.  1.
        1   -1    0    0  501    0  0.00000000000E+00  0.00000000000E+00 -0.59190112485E+03  0.59190112487E+03  0.50400001928E-02 0. -1.
    10030    2    1    2    0    0  0.00000000000E+00  0.00000000000E+00 -0.24661355356E+03  0.93718869620E+03  0.90415950335E+03 0.  0.
        2    1    3    3  502    0  0.12328366194E+03 -0.29101853160E+03  0.21174344454E+03  0.38042861794E+03  0.25500000920E-02 0.  1.
       -2    1    3    3    0  502 -0.12328366194E+03  0.29101853160E+03 -0.45835699809E+03  0.55676007826E+03  0.25500000920E-02 0. -1.
</event>
<event>
 5   0  0.1441195E-02  0.9077266E+03  0.7818609E-02  0.9415974E-01
       -2   -1    0    0    0  501  0.00000000000E+00  0.00000000000E+00  0.14436445782E+03  0.14436445784E+03  0.25500000920E-02 0. -1.
        2   -1    0    0  501    0  0.00000000000E+00  0.00000000000E+00 -0.14268879828E+04  0.14268879828E+04  0.25500000920E-02 0.  1.
    10030    2    1    2    0    0  0.00000000000E+00  0.00000000000E+00 -0.12825235250E+04  0.15712524406E+04  0.90772663292E+03 0.  0.
        5    1    3    3  502    0  0.27380861963E+03  0.21527074697E+03 -0.11449047003E+04  0.11967211528E+04  0.46999998093E+01 0.  1.
       -5    1    3    3    0  502 -0.27380861963E+03 -0.21527074697E+03 -0.13761882463E+03  0.37453128784E+03  0.46999998093E+01 0. -1.
</event>
<event>
 5   0  0.1454652E-02  0.8905617E+03  0.7818609E-02  0.9437457E-01
        2   -1    0    0  501    0  0.00000000000E+00  0.00000000000E+00  0.11701457399E+04  0.11701457399E+04  0.25500000920E-02 0. -1.
       -2   -1    0    0    0  501  0.00000000000E+00  0.00000000000E+00 -0.16944472963E+03  0.16944472965E+03  0.25500000920E-02 0.  1.
    10030    2    1    2    0    0  0.00000000000E+00  0.00000000000E+00  0.10007010102E+04  0.13395904695E+04  0.89056168465E+03 0.  0.
        4    1    3    3  502    0  0.21178183643E+03 -0.39168366653E+03  0.49673577756E+03  0.66709496061E+03  0.12699999809E+01 0.  1.
       -4    1    3    3    0  502 -0.21178183643E+03  0.39168366653E+03  0.50396523268E+03  0.67249550892E+03  0.12699999809E+01 0. -1.
</event>
<event>
 5   0  0.8738044E-03  0.9045283E+03  0.7818609E-02  0.9419938E-01
        1   -1    0    0  501    0  0.00000000000E+00  0.00000000000E+00  0.14357318406E+04  0.14357318406E+04  0.50400001928E-02 0.  1.
       -1   -1    0    0    0  501  0.00000000000E+00  0.00000000000E+00 -0.14246591666E+03  0.14246591675E+03  0.50400001928E-02 0. -1.
    10030    2    1    2    0    0  0.00000000000E+00  0.00000000000E+00  0.12932659240E+04  0.15781977574E+04  0.90452828112E+03 0.  0.
        3    1    3    3  502    0 -0.27775241369E+03  0.93183870191E+02  0.45474744447E+02  0.29647529334E+03  0.10100000352E+00 0. -1.
       -3    1    3    3    0  502  0.27775241369E+03 -0.93183870191E+02  0.12477911795E+04  0.12817224641E+04  0.10100000352E+00 0.  1.
</event>
<event>
 5   0  0.8885324E-03  0.8728797E+03  0.7818609E-02  0.9460133E-01
       -1   -1    0    0    0  501  0.00000000000E+00  0.00000000000E+00  0.20137082218E+03  0.20137082225E+03  0.50400001928E-02 0.  1.
        1   -1    0    0  501    0  0.00000000000E+00  0.00000000000E+00 -0.94591525760E+03  0.94591525761E+03  0.50400001928E-02 0. -1.
    10030    2    1    2    0    0  0.00000000000E+00  0.00000000000E+00 -0.74454443542E+03  0.11472860799E+04  0.87287967826E+03 0.  0.
        2    1    3    3  502    0 -0.36933161505E+03 -0.61147139113E+02 -0.66715677331E+03  0.76501174807E+03  0.25500000920E-02 0. -1.
       -2    1    3    3    0  502  0.36933161505E+03  0.61147139113E+02 -0.77387662101E+02  0.38227433179E+03  0.25500000920E-02 0.  1.
</event>
<event>
 5   0  0.1454652E-02  0.8952481E+03  0.7818609E-02  0.9431541E-01
       -2   -1    0    0    0  501  0.00000000000E+00  0.00000000000E+00  0.11502911532E+03  0.11502911535E+03  0.25500000920E-02 0. -1.
        2   -1    0    0  501    0  0.00000000000E+00  0.00000000000E+00 -0.17418830757E+04  0.17418830757E+04  0.25500000920E-02 0.  1.
    10030    2    1    2    0    0  0.00000000000E+00  0.00000000000E+00 -0.16268539604E+04  0.18569121910E+04  0.89524805328E+03 0.  0.
        4    1    3    3  502    0 -0.21910583574E+03  0.35479494906E+03 -0.47590861877E+03  0.63275386167E+03  0.12699999809E+01 0. -1.
       -4    1    3    3    0  502  0.21910583574E+03 -0.35479494906E+03 -0.11509453416E+04  0.12241583294E+04  0.12699999809E+01 0.  1.
</event>
<event>
 5   0  0.8291252E-03  0.8847085E+03  0.7818609E-02  0.9444901E-01
       -1   -1    0    0    0  501  0.00000000000E+00  0.00000000000E+00  0.48368698549E+03  0.48368698551E+03  0.50400001928E-02 0.  1.
        1   -1    0    0  501    0  0.00000000000E+00  0.00000000000E+00 -0.40455356312E+03  0.40455356315E+03  0.50400001928E-02 0. -1.
    10030    2    1    2    0    0  0.00000000000E+00  0.00000000000E+00  0.79133422365E+02  0.88824054867E+03  0.88470852475E+03 0.  0.
        1    1    3    3  502    0  0.25033798575E+03  0.45360883920E+02 -0.32374892605E+03  0.41175245481E+03  0.50400001928E-02 0. -1.
       -1    1    3    3    0  502 -0.25033798575E+03 -0.45360883920E+02  0.40288234842E+03  0.47648809386E+03  0.50400001928E-02 0.  1.
</event>
<event>
 5   0  0.1483326E-02  0.9002527E+03  0.7818609E-02  0.9425266E-01
       -2   -1    0    0    0  501  0.00000000000E+00  0.00000000000E+00  0.20877203952E+03  0.20877203954E+03  0.25500000920E-02 0.  1.
        2   -1    0    0  501    0  0.00000000000E+00  0.00000000000E+00 -0.97050228609E+03  0.97050228609E+03  0.25500000920E-02 0. -1.
    10030    2    1    2    0    0  0.00000000000E+00  0.00000000000E+00 -0.76173024656E+03  0.11792743256E+04  0.90025272372E+03 0.  0.
        1    1    3    3  502    0  0.91220828356E+02 -0.43803133069E+03 -0.44531955222E+03  0.63127029854E+03  0.50400001928E-02 0.  1.
       -1    1    3    3    0  502 -0.91220828356E+02  0.43803133069E+03 -0.31641069434E+03  0.54800402709E+03  0.50400001928E-02 0. -1.
</event>
<event>
 5   0  0.8612969E-03  0.8945210E+03  0.7818609E-02  0.9432456E-01
       -1   -1    0    0    0  501  0.00000000000E+00  0.00000000000E+00  0.18006443888E+03  0.18006443895E+03  0.50400001928E-02 0.  1.
        1   -1    0    0  501    0  0.00000000000E+00  0.00000000000E+00 -0.11109464393E+04  0.11109464393E+04  0.50400001928E-02 0. -1.
    10030    2    1    2    0    0  0.00000000000E+00  0.00000000000E+00 -0.93088200043E+03  0.12910108783E+04  0.89452098303E+03 0.  0.
        4    1    3    3  502    0  0.26804514926E+03  0.24256886685E+03 -0.85365077661E+02  0.37145210538E+03  0.12699999809E+01 0.  1.
       -4    1    3    3    0  502 -0.26804514926E+03 -0.24256886685E+03 -0.84551692277E+03  0.91955877289E+03  0.12699999809E+01 0. -1.
</event>
<event>
 5   0  0.8291252E-03  0.1098201E+04  0.7818609E-02  0.9206947E-01
        1   -1    0    0  501    0  0.00000000000E+00  0.00000000000E+00  0.78626523966E+03  0.78626523967E+03  0.50400001928E-02 0. -1.
       -1   -1    0    0    0  501  0.00000000000E+00  0.00000000000E+00 -0.38347301276E+03  0.38347301279E+03  0.50400001928E-02 0.  1.
    10030    2    1    2    0    0  0.00000000000E+00  0.00000000000E+00  0.40279222690E+03  0.11697382525E+04  0.10982012572E+04 0.  0.
        1    1    3    3  502    0 -0.43229847105E+03  0.66592210766E+02 -0.15218390935E+03  0.46311600371E+03  0.50400001928E-02 0.  1.
       -1    1    3    3    0  502  0.43229847105E+03 -0.66592210766E+02  0.55497613624E+03  0.70662224875E+03  0.50400001928E-02 0. -1.
</event>
<event>
 5   0  0.1440615E-02  0.9075138E+03  0.7818609E-02  0.9416237E-01
        2   -1    0    0  501    0  0.00000000000E+00  0.00000000000E+00  0.15555401182E+04  0.15555401182E+04  0.25500000920E-02 0.  1.
       -2   -1    0    0    0  501  0.00000000000E+00  0.00000000000E+00 -0.13236258197E+03  0.13236258199E+03  0.25500000920E-02 0. -1.
    10030    2    1    2    0    0  0.00000000000E+00  0.00000000000E+00  0.14231775362E+04  0.16879027002E+04  0.90751376059E+03 0.  0.
        3    1    3    3  502    0 -0.33697670166E+03 -0.29630386522E+03  0.83699230176E+03  0.94968700181E+03  0.10100000352E+00 0. -1.
       -3    1    3    3    0  502  0.33697670166E+03  0.29630386522E+03  0.58618523443E+03  0.73821569834E+03  0.10100000352E+00 0.  1.
</event>
<event>
 5   0  0.8524692E-03  0.9020014E+03  0.7818609E-02  0.9423083E-01
       -1   -1    0    0    0  501  0.00000000000E+00  0.00000000000E+00  0.25974957544E+03  0.25974957549E+03  0.50400001928E-02 0. -1.
        1   -1    0    0  501    0  0.00000000000E+00  0.00000000000E+00 -0.78306820031E+03  0.78306820033E+03  0.50400001928E-02 0.  1.
    10030    2    1    2    0    0  0.00000000000E+00  0.00000000000E+00 -0.52331862487E+03  0.10428177758E+04  0.90200140267E+03 0.  0.
        5    1    3    3  502    0 -0.44919352014E+03 -0.72735595812E+01 -0.21611629503E+03  0.49855397519E+03  0.46999998093E+01 0. -1.
       -5    1    3    3    0  502  0.44919352014E+03  0.72735595812E+01 -0.30720232984E+03  0.54426380062E+03  0.46999998093E+01 0.  1.
</event>
<event>
 5   0  0.1440615E-02  0.9008119E+03  0.7818609E-02  0.9424567E-01
       -2   -1    0    0    0  501  0.00000000000E+00  0.00000000000E+00  0.28372013363E+03  0.28372013364E+03  0.25500000920E-02 0. -1.
        2   -1    0    0  501    0  0.00000000000E+00  0.00000000000E+00 -0.71501989852E+03  0.71501989852E+03  0.25500000920E-02 0.  1.
    10030    2    1    2    0    0  0.00000000000E+00  0.00000000000E+00 -0.43129976489E+03  0.99874003217E+03  0.90081194745E+03 0.  0.
        3    1    3    3  502    0 -0.11054974632E+03 -0.35380218376E+03 -0.49933323450E+03  0.62187693390E+03  0.10100000352E+00 0.  1.
       -3    1    3    3    0  502  0.11054974632E+03  0.35380218376E+03  0.68033469612E+02  0.37686309826E+03  0.10100000352E+00 0. -1.
</event>
<event>
 5   0  0.1454652E-02  0.9001100E+03  0.7818609E-02  0.9425444E-01
       -2   -1    0    0    0  501  0.00000000000E+00  0.00000000000E+00  0.11919326844E+03  0.11919326846E+03  0.25500000920E-02 0. -1.
        2   -1    0    0  501    0  0.00000000000E+00  0.00000000000E+00 -0.16993368368E+04  0.16993368368E+04  0.25500000920E-02 0.  1.
    10030    2    1    2    0    0  0.00000000000E+00  0.00000000000E+00 -0.15801435683E+04  0.18185301052E+04  0.90011001944E+03 0.  0.
        4    1    3    3  502    0 -0.12438597976E+03  0.40953480850E+03 -0.10711627743E+04  0.11535085320E+04  0.12699999809E+01 0.  1.
       -4    1    3    3    0  502  0.12438597976E+03 -0.40953480850E+03 -0.50898079402E+03  0.66502157327E+03  0.12699999809E+01 0. -1.
</event>
<event>
 5   0  0.1440615E-02  0.9028270E+03  0.7818609E-02  0.9422054E-01
       -2   -1    0    0    0  501  0.00000000000E+00  0.00000000000E+00  0.37533890498E+03  0.37533890499E+03  0.25500000920E-02 0.  1.
        2   -1    0    0  501    0  0.00000000000E+00  0.00000000000E+00 -0.54290710702E+03  0.54290710703E+03  0.25500000920E-02 0. -1.
    10030    2    1    2    0    0  0.00000000000E+00  0.00000000000E+00 -0.16756820204E+03  0.91824601202E+03  0.90282702455E+03 0.  0.
        3    1    3    3  502    0  0.33199649710E+03  0.29953815410E+03 -0.20845351545E+02  0.44763748584E+03  0.10100000352E+00 0. -1.
       -3    1    3    3    0  502 -0.33199649710E+03 -0.29953815410E+03 -0.14672285049E+03  0.47060852618E+03  0.10100000352E+00 0.  1.
</event>
<event>
 5   0  0.1483326E-02  0.9003973E+03  0.7818609E-02  0.9425085E-01
        2   -1    0    0  501    0  0.00000000000E+00  0.00000000000E+00  0.68452506283E+03  0.68452506283E+03  0.25500000920E-02 0. -1.
       -2   -1    0    0    0  501  0.00000000000E+00  0.00000000000E+00 -0.29608681188E+03  0.29608681190E+03  0.25500000920E-02 0.  1.
    10030    2    1    2    0    0  0.00000000000E+00  0.00000000000E+00  0.38843825094E+03  0.98061187473E+03  0.90039734232E+03 0.  0.
        1    1    3    3  502    0 -0.13076902360E+03 -0.41582018945E+03  0.71621121085E+02  0.44174263151E+03  0.50400001928E-02 0. -1.
       -1    1    3    3    0  502  0.13076902360E+03  0.41582018945E+03  0.31681712986E+03  0.53886924321E+03  0.50400001928E-02 0.  1.
</event>
<event>
 5   0  0.8885324E-03  0.9136429E+03  0.7818609E-02  0.9408686E-01
        1   -1    0    0  501    0  0.00000000000E+00  0.00000000000E+00  0.11885034579E+04  0.11885034579E+04  0.50400001928E-02 0.  1.
       -1   -1    0    0    0  501  0.00000000000E+00  0.00000000000E+00 -0.17558706545E+03  0.17558706552E+03  0.50400001928E-02 0. -1.
    10030    2    1    2    0    0  0.00000000000E+00  0.00000000000E+00  0.10129163925E+04  0.13640905235E+04  0.91364289415E+03 0.  0.
        2    1    3    3  502    0  0.14607431312E+03 -0.16035091212E+02 -0.13933455420E+03  0.20250665941E+03  0.25500000920E-02 0. -1.
       -2    1    3    3    0  502 -0.14607431312E+03  0.16035091212E+02  0.11522509467E+04  0.11615838640E+04  0.25500000920E-02 0.  1.
</event>
<event>
 5   0  0.8612969E-03  0.9057420E+03  0.7818609E-02  0.9418432E-01
       -1   -1    0    0    0  501  0.00000000000E+00  0.00000000000E+00  0.31308540787E+03  0.31308540791E+03  0.50400001928E-02 0. -1.
        1   -1    0    0  501    0  0.00000000000E+00  0.00000000000E+00 -0.65506777952E+03  0.65506777954E+03  0.50400001928E-02 0.  1.
    10030    2    1    2    0    0  0.00000000000E+00  0.00000000000E+00 -0.34198237165E+03  0.96815318744E+03  0.90574204486E+03 0.  0.
        4    1    3    3  502    0  0.34938886191E+03  0.19617844312E+02  0.13627630180E+03  0.37553998452E+03  0.12699999809E+01 0. -1.
       -4    1    3    3    0  502 -0.34938886191E+03 -0.19617844312E+02 -0.47825867345E+03  0.59261320292E+03  0.12699999809E+01 0.  1.
</event>
<event>
 5   0  0.1441195E-02  0.8781689E+03  0.7818609E-02  0.9453290E-01
        2   -1    0    0  501    0  0.00000000000E+00  0.00000000000E+00  0.27845693376E+03  0.27845693377E+03  0.25500000920E-02 0.  1.
       -2   -1    0    0    0  501  0.00000000000E+00  0.00000000000E+00 -0.69236980845E+03  0.69236980845E+03  0.25500000920E-02 0. -1.
    10030    2    1    2    0    0  0.00000000000E+00  0.00000000000E+00 -0.41391287469E+03  0.97082674222E+03  0.87816894478E+03 0.  0.
        5    1    3    3  502    0 -0.25888337119E+03 -0.35431108791E+03 -0.19070363633E+03  0.47848397445E+03  0.46999998093E+01 0.  1.
       -5    1    3    3    0  502  0.25888337119E+03  0.35431108791E+03 -0.22320923836E+03  0.49234276777E+03  0.46999998093E+01 0. -1.
</event>
<event>
 5   0  0.8291252E-03  0.9128443E+03  0.7818609E-02  0.9409666E-01
        1   -1    0    0  501    0  0.00000000000E+00  0.00000000000E+00  0.31170281445E+03  0.31170281449E+03  0.50400001928E-02 0. -1.
       -1   -1    0    0    0  501  0.00000000000E+00  0.00000000000E+00 -0.66833272541E+03  0.66833272543E+03  0.50400001928E-02 0.  1.
    10030    2    1    2    0    0  0.00000000000E+00  0.00000000000E+00 -0.35662991096E+03  0.98003553991E+03  0.91284432742E+03 0.  0.
        1    1    3    3  502    0  0.14923315111E+03  0.32205923086E+03 -0.48636425930E+03  0.60211533308E+03  0.50400001928E-02 0.  1.
       -1    1    3    3    0  502 -0.14923315111E+03 -0.32205923086E+03  0.12973434834E+03  0.37792020684E+03  0.50400001928E-02 0. -1.
</event>
<event>
 5   0  0.8612969E-03  0.8939447E+03  0.7818609E-02  0.9433183E-01
        1   -1    0    0  501    0  0.00000000000E+00  0.00000000000E+00  0.74562662293E+03  0.74562662294E+03  0.50400001928E-02 0.  1.
       -1   -1    0    0    0  501  0.00000000000E+00  0.00000000000E+00 -0.26794148295E+03  0.26794148300E+03  0.50400001928E-02 0. -1.
    10030    2    1    2    0    0  0.00000000000E+00  0.00000000000E+00  0.47768513997E+03  0.10135681059E+04  0.89394474798E+03 0.  0.
        4    1    3    3  502    0  0.16347282350E+03 -0.31929036477E+03 -0.63512131395E+02  0.36428711862E+03  0.12699999809E+01 0. -1.
       -4    1    3    3    0  502 -0.16347282350E+03  0.31929036477E+03  0.54119727137E+03  0.64928098732E+03  0.12699999809E+01 0.  1.
</event>
<event>
 5   0  0.8524692E-03  0.8904804E+03  0.7818609E-02  0.9437560E-01
        1   -1    0    0  501    0  0.00000000000E+00  0.00000000000E+00  0.62704362702E+03  0.62704362704E+03  0.50400001928E-02 0.  1.
       -1   -1    0    0    0  501  0.00000000000E+00  0.00000000000E+00 -0.31614839268E+03  0.31614839272E+03  0.50400001928E-02 0. -1.
    10030    2    1    2    0    0  0.00000000000E+00  0.00000000000E+00  0.31089523434E+03  0.94319201976E+03  0.89048039811E+03 0.  0.
        5    1    3    3  502    0 -0.17220056863E+03 -0.77499697177E+01 -0.27934324302E+03  0.32828011711E+03  0.46999998093E+01 0. -1.
       -5    1    3    3    0  502  0.17220056863E+03  0.77499697177E+01  0.59023847737E+03  0.61491190266E+03  0.46999998093E+01 0.  1.
</event>
<event>
 5   0  0.1454652E-02  0.8999220E+03  0.7818609E-02  0.9425679E-01
        2   -1    0    0  501    0  0.00000000000E+00  0.00000000000E+00  0.12428347862E+04  0.12428347862E+04  0.25500000920E-02 0. -1.
       -2   -1    0    0    0  501  0.00000000000E+00  0.00000000000E+00 -0.16290571027E+03  0.16290571029E+03  0.25500000920E-02 0.  1.
    10030    2    1    2    0    0  0.00000000000E+00  0.00000000000E+00  0.10799290759E+04  0.14057404964E+04  0.89992196017E+03 0.  0.
        4    1    3    3  502    0 -0.11521470809E+03  0.43124630204E+03  0.62854184050E+03  0.77091780376E+03  0.12699999809E+01 0.  1.
       -4    1    3    3    0  502  0.11521470809E+03 -0.43124630204E+03  0.45138723538E+03  0.63482269269E+03  0.12699999809E+01 0. -1.
</event>
<event>
 5   0  0.8291252E-03  0.9070495E+03  0.7818609E-02  0.9416812E-01
       -1   -1    0    0    0  501  0.00000000000E+00  0.00000000000E+00  0.41007871353E+03  0.41007871356E+03  0.50400001928E-02 0. -1.
        1   -1    0    0  501    0  0.00000000000E+00  0.00000000000E+00 -0.50157365113E+03  0.50157365115E+03  0.50400001928E-02 0.  1.
    10030    2    1    2    0    0  0.00000000000E+00  0.00000000000E+00 -0.91494937598E+02  0.91165236471E+03  0.90704945316E+03 0.  0.
        1    1    3    3  502    0  0.38093714459E+02  0.16081132290E+03  0.37873834208E+03  0.41322408502E+03  0.50400001928E-02 0. -1.
       -1    1    3    3    0  502 -0.38093714459E+02 -0.16081132290E+03 -0.47023327968E+03  0.49842827969E+03  0.50400001928E-02 0.  1.
</event>
<event>
 5   0  0.1535906E-02  0.9343533E+03  0.7818609E-02  0.9383628E-01
       -2   -1    0    0    0  501  0.00000000000E+00  0.00000000000E+00  0.27656428738E+03  0.27656428740E+03  0.25500000920E-02 0. -1.
        2   -1    0    0  501    0  0.00000000000E+00  0.00000000000E+00 -0.78916198616E+03  0.78916198617E+03  0.25500000920E-02 0.  1.
    10030    2    1    2    0    0  0.00000000000E+00  0.00000000000E+00 -0.51259769878E+03  0.10657262736E+04  0.93435330008E+03 0.  0.
        2    1    3    3  502    0  0.15806832753E+02  0.43085080906E+03 -0.46151787236E+03  0.63157028282E+03  0.25500000920E-02 0.  1.
       -2    1    3    3    0  502 -0.15806832753E+02 -0.43085080906E+03 -0.51079826424E+02  0.43415599075E+03  0.25500000920E-02 0. -1.
</event>
<event>
 5   0  0.1441195E-02  0.9002450E+03  0.7818609E-02  0.9425275E-01
        2   -1    0    0  501    0  0.00000000000E+00  0.00000000000E+00  0.22836754375E+03  0.22836754376E+03  0.25500000920E-02 0.  1.
       -2   -1    0    0    0  501  0.00000000000E+00  0.00000000000E+00 -0.88721130392E+03  0.88721130393E+03  0.25500000920E-02 0. -1.
    10030    2    1    2    0    0  0.00000000000E+00  0.00000000000E+00 -0.65884376017E+03  0.11155788477E+04  0.90024500282E+03 0.  0.
        5    1    3    3  502    0 -0.14201770347E+03 -0.17284137305E+03 -0.81341429079E+03  0.84362791964E+03  0.46999998093E+01 0. -1.
       -5    1    3    3    0  502  0.14201770347E+03  0.17284137305E+03  0.15457053062E+03  0.27195092805E+03  0.46999998093E+01 0.  1.
</event>
<event>
 5   0  0.8738044E-03  0.8096838E+03  0.7818609E-02  0.9546105E-01
       -1   -1    0    0    0  501  0.00000000000E+00  0.00000000000E+00  0.11237821677E+03  0.11237821688E+03  0.50400001928E-02 0.  1.
        1   -1    0    0  501    0  0.00000000000E+00  0.00000000000E+00 -0.14584407164E+04  0.14584407164E+04  0.50400001928E-02 0. -1.
    10030    2    1    2    0    0  0.00000000000E+00  0.00000000000E+00 -0.13460624996E+04  0.15708189333E+04  0.80968380758E+03 0.  0.
        3    1    3    3  502    0  0.27849119466E+03  0.23780397297E+03 -0.10078715894E+04  0.10723400701E+04  0.10100000352E+00 0. -1.
       -3    1    3    3    0  502 -0.27849119466E+03 -0.23780397297E+03 -0.33819091025E+03  0.49847886319E+03  0.10100000352E+00 0.  1.
</event>
<event>
 5   0  0.5770125E-03  0.9107678E+03  0.7818609E-02  0.9412220E-01
       -3   -1    0    0    0  501  0.00000000000E+00  0.00000000000E+00  0.26005184438E+03  0.26005186399E+03  0.10100000352E+00 0. -1.
        3   -1    0    0  501    0  0.00000000000E+00  0.00000000000E+00 -0.79743518456E+03  0.79743519095E+03  0.10100000352E+00 0.  1.
    10030    2    1    2    0    0  0.00000000000E+00  0.00000000000E+00 -0.53738334018E+03  0.10574870549E+04  0.91076781732E+03 0.  0.
        4    1    3    3  502    0 -0.11731859331E+03  0.39610797155E+03 -0.46234682070E+02  0.41569752969E+03  0.12699999809E+01 0. -1.
       -4    1    3    3    0  502  0.11731859331E+03 -0.39610797155E+03 -0.49114865811E+03  0.64178952526E+03  0.12699999809E+01 0.  1.
</event>
<event>
 5   0  0.8524692E-03  0.9049595E+03  0.7818609E-02  0.9419403E-01
       -1   -1    0    0    0  501  0.00000000000E+00  0.00000000000E+00  0.18699556268E+03  0.18699556275E+03  0.50400001928E-02 0. -1.
        1   -1    0    0  501    0  0.00000000000E+00  0.00000000000E+00 -0.10948812947E+04  0.10948812947E+04  0.50400001928E-02 0.  1.
    10030    2    1    2    0    0  0.00000000000E+00  0.00000000000E+00 -0.90788573199E+03  0.12818768574E+04  0.90495954345E+03 0.  0.
        5    1    3    3  502    0  0.13466259095E+03  0.33142789538E+03 -0.61550403628E+02  0.36302755463E+03  0.46999998093E+01 0. -1.
       -5    1    3    3    0  502 -0.13466259095E+03 -0.33142789538E+03 -0.84633532837E+03  0.91884930281E+03  0.46999998093E+01 0.  1.
</event>
<event>
 5   0  0.1535906E-02  0.9093227E+03  0.7818609E-02  0.9414002E-01
       -2   -1    0    0    0  501  0.00000000000E+00  0.00000000000E+00  0.94174350565E+03  0.94174350565E+03  0.25500000920E-02 0. -1.
        2   -1    0    0  501    0  0.00000000000E+00  0.00000000000E+00 -0.21950449453E+03  0.21950449455E+03  0.25500000920E-02 0.  1.
    10030    2    1    2    0    0  0.00000000000E+00  0.00000000000E+00  0.72223901111E+03  0.11612480002E+04  0.90932267583E+03 0.  0.
        2    1    3    3  502    0  0.70051548701E+02 -0.40003953549E+03  0.10009504268E+03  0.41827965167E+03  0.25500000920E-02 0.  1.
       -2    1    3    3    0  502 -0.70051548701E+02  0.40003953549E+03  0.62214396844E+03  0.74296834852E+03  0.25500000920E-02 0. -1.
</event>
<event>
 5   0  0.8612969E-03  0.9129750E+03  0.7818609E-02  0.9409506E-01
       -1   -1    0    0    0  501  0.00000000000E+00  0.00000000000E+00  0.17309120016E+03  0.17309120024E+03  0.50400001928E-02 0.  1.
        1   -1    0    0  501    0  0.00000000000E+00  0.00000000000E+00 -0.12038787491E+04  0.12038787491E+04  0.50400001928E-02 0. -1.
    10030    2    1    2    0    0  0.00000000000E+00  0.00000000000E+00 -0.10307875489E+04  0.13769699493E+04  0.91297495604E+03 0.  0.
        4    1    3    3  502    0 -0.10828604160E+03  0.19026337623E+03 -0.11195368050E+04  0.11407411143E+04  0.12699999809E+01 0. -1.
       -4    1    3    3    0  502  0.10828604160E+03 -0.19026337623E+03  0.88749256109E+02  0.23622883503E+03  0.12699999809E+01 0.  1.
</event>
<event>
 5   0  0.1440615E-02  0.9231696E+03  0.7818609E-02  0.9397073E-01
        2   -1    0    0  501    0  0.00000000000E+00  0.00000000000E+00  0.18817209163E+03  0.18817209165E+03  0.25500000920E-02 0. -1.
       -2   -1    0    0    0  501  0.00000000000E+00  0.00000000000E+00 -0.11322641336E+04  0.11322641336E+04  0.25500000920E-02 0.  1.
    10030    2    1    2    0    0  0.00000000000E+00  0.00000000000E+00 -0.94409204200E+03  0.13204362253E+04  0.92316956258E+03 0.  0.
        3    1    3    3  502    0 -0.13715507022E+03 -0.14233801395E+03  0.12457245074E+03  0.23364487836E+03  0.10100000352E+00 0. -1.
       -3    1    3    3    0  502  0.13715507022E+03  0.14233801395E+03 -0.10686644927E+04  0.10867913469E+04  0.10100000352E+00 0.  1.
</event>
<event>
 5   0  0.1441195E-02  0.8919194E+03  0.7818609E-02  0.9435739E-01
       -2   -1    0    0    0  501  0.00000000000E+00  0.00000000000E+00  0.28935479252E+03  0.28935479253E+03  0.25500000920E-02 0. -1.
        2   -1    0    0  501    0  0.00000000000E+00  0.00000000000E+00 -0.68732241803E+03  0.68732241804E+03  0.25500000920E-02 0.  1.
    10030    2    1    2    0    0  0.00000000000E+00  0.00000000000E+00 -0.39796762551E+03  0.97667721057E+03  0.89191935885E+03 0.  0.
        5    1    3    3  502    0 -0.12273592561E+03 -0.36766434754E+03 -0.44042896833E+03  0.58672050077E+03  0.46999998093E+01 0.  1.
       -5    1    3    3    0  502  0.12273592561E+03  0.36766434754E+03  0.42461342819E+02  0.38995670980E+03  0.46999998093E+01 0. -1.
</event>
<event>
 5   0  0.1483326E-02  0.8967286E+03  0.7818609E-02  0.9429680E-01
       -2   -1    0    0    0  501  0.00000000000E+00  0.00000000000E+00  0.25585921586E+03  0.25585921588E+03  0.25500000920E-02 0.  1.
        2   -1    0    0  501    0  0.00000000000E+00  0.00000000000E+00 -0.78570765788E+03  0.78570765788E+03  0.25500000920E-02 0. -1.
    10030    2    1    2    0    0  0.00000000000E+00  0.00000000000E+00 -0.52984844201E+03  0.10415668738E+04  0.89672859941E+03 0.  0.
        1    1    3    3  502    0  0.25063689125E+03  0.30846145626E+03 -0.23889610306E+02  0.39816834977E+03  0.50400001928E-02 0.  1.
       -1    1    3    3    0  502 -0.25063689125E+03 -0.30846145626E+03 -0.50595883171E+03  0.64339852398E+03  0.50400001928E-02 0. -1.
</event>
<event>
 5   0  0.8612969E-03  0.8992799E+03  0.7818609E-02  0.9426482E-01
       -1   -1    0    0    0  501  0.00000000000E+00  0.00000000000E+00  0.18398207090E+03  0.18398207097E+03  0.50400001928E-02 0.  1.
        1   -1    0    0  501    0  0.00000000000E+00  0.00000000000E+00 -0.10988901840E+04  0.10988901840E+04  0.50400001928E-02 0. -1.
    10030    2    1    2    0    0  0.00000000000E+00  0.00000000000E+00 -0.91490811313E+03  0.12828722550E+04  0.89927991593E+03 0.  0.
        4    1    3    3  502    0 -0.33349232436E+03  0.28796188360E+03 -0.58533022729E+03  0.73263378620E+03  0.12699999809E+01 0. -1.
       -4    1    3    3    0  502  0.33349232436E+03 -0.28796188360E+03 -0.32957788584E+03  0.55023846880E+03  0.12699999809E+01 0.  1.
</event>
<event>
 5   0  0.1483326E-02  0.9321704E+03  0.7818609E-02  0.9386237E-01
        2   -1    0    0  501    0  0.00000000000E+00  0.00000000000E+00  0.13655665489E+04  0.13655665489E+04  0.25500000920E-02 0.  1.
       -2   -1    0    0    0  501  0.00000000000E+00  0.00000000000E+00 -0.15908079968E+03  0.15908079970E+03  0.25500000920E-02 0. -1.
    10030    2    1    2    0    0  0.00000000000E+00  0.00000000000E+00  0.12064857492E+04  0.15246473486E+04  0.93217041067E+03 0.  0.
        1    1    3    3  502    0 -0.27115250846E+03 -0.35049326928E+03  0.83950592866E+03  0.94928363461E+03  0.50400001928E-02 0.  1.
       -1    1    3    3    0  502  0.27115250846E+03  0.35049326928E+03  0.36697982057E+03  0.57536371400E+03  0.50400001928E-02 0. -1.
</event>
<event>
 5   0  0.8612969E-03  0.9013123E+03  0.7818609E-02  0.9423942E-01
       -1   -1    0    0    0  501  0.00000000000E+00  0.00000000000E+00  0.13235939092E+03  0.13235939101E+03  0.50400001928E-02 0. -1.
        1   -1    0    0  501    0  0.00000000000E+00  0.00000000000E+00 -0.15343904071E+04  0.15343904071E+04  0.50400001928E-02 0.  1.
    10030    2    1    2    0    0  0.00000000000E+00  0.00000000000E+00 -0.14020310161E+04  0.16667497981E+04  0.90131233164E+03 0.  0.
        4    1    3    3  502    0 -0.22069454082E+03  0.31009282792E+03 -0.11472391219E+04  0.12087277849E+04  0.12699999809E+01 0.  1.
       -4    1    3    3    0  502  0.22069454082E+03 -0.31009282792E+03 -0.25479189422E+03  0.45802201316E+03  0.12699999809E+01 0. -1.
</event>
<event>
 5   0  0.1454652E-02  0.9028140E+03  0.7818609E-02  0.9422071E-01
       -2   -1    0    0    0  501  0.00000000000E+00  0.00000000000E+00  0.28264056605E+03  0.28264056606E+03  0.25500000920E-02 0. -1.
        2   -1    0    0  501    0  0.00000000000E+00  0.00000000000E+00 -0.72094492175E+03  0.72094492175E+03  0.25500000920E-02 0.  1.
    10030    2    1    2    0    0  0.00000000000E+00  0.00000000000E+00 -0.43830435570E+03  0.10035854878E+04  0.90281400250E+03 0.  0.
        4    1    3    3  502    0 -0.19801812112E+03 -0.10205483249E+03 -0.65558176988E+03  0.69239832108E+03  0.12699999809E+01 0.  1.
       -4    1    3    3    0  502  0.19801812112E+03  0.10205483249E+03  0.21727741418E+03  0.31118716673E+03  0.12699999809E+01 0. -1.
</event>
<event>
 5   0  0.8291252E-03  0.9085094E+03  0.7818609E-02  0.9415006E-01
       -1   -1    0    0    0  501  0.00000000000E+00  0.00000000000E+00  0.29766270639E+03  0.29766270643E+03  0.50400001928E-02 0. -1.
        1   -1    0    0  501    0  0.00000000000E+00  0.00000000000E+00 -0.69322539735E+03  0.69322539737E+03  0.50400001928E-02 0.  1.
    10030    2    1    2    0    0  0.00000000000E+00  0.00000000000E+00 -0.39556269096E+03  0.99088810380E+03  0.90850943406E+03 0.  0.
        1    1    3    3  502    0  0.12960169391E+03  0.42229840072E+03 -0.31328377661E+03  0.54155264105E+03  0.50400001928E-02 0. -1.
       -1    1    3    3    0  502 -0.12960169391E+03 -0.42229840072E+03 -0.82278914348E+02  0.44933546275E+03  0.50400001928E-02 0.  1.
</event>
<event>
 5   0  0.1441195E-02  0.9042040E+03  0.7818609E-02  0.9420341E-01
        2   -1    0    0  501    0  0.00000000000E+00  0.00000000000E+00  0.12378583950E+04  0.12378583950E+04  0.25500000920E-02 0.  1.
       -2   -1    0    0    0  501  0.00000000000E+00  0.00000000000E+00 -0.16512085761E+03  0.16512085763E+03  0.25500000920E-02 0. -1.
    10030    2    1    2    0    0  0.00000000000E+00  0.00000000000E+00  0.10727375374E+04  0.14029792527E+04  0.90420404733E+03 0.  0.
        5    1    3    3  502    0 -0.54772025810E+02 -0.13674831727E+03 -0.12679876685E+03  0.19442246362E+03  0.46999998093E+01 0. -1.
       -5    1    3    3    0  502  0.54772025810E+02  0.13674831727E+03  0.11995363043E+04  0.12085567891E+04  0.46999998093E+01 0.  1.
</event>
<event>
 5   0  0.1441195E-02  0.8861160E+03  0.7818609E-02  0.9443105E-01
       -2   -1    0    0    0  501  0.00000000000E+00  0.00000000000E+00  0.15757135640E+03  0.15757135642E+03  0.25500000920E-02 0. -1.
        2   -1    0    0  501    0  0.00000000000E+00  0.00000000000E+00 -0.12457872829E+04  0.12457872829E+04  0.25500000920E-02 0.  1.
    10030    2    1    2    0    0  0.00000000000E+00  0.00000000000E+00 -0.10882159265E+04  0.14033586393E+04  0.88611600137E+03 0.  0.
        5    1    3    3  502    0 -0.29521578282E+03 -0.30564451069E+02 -0.10650329413E+04  0.11056237155E+04  0.46999998093E+01 0.  1.
       -5    1    3    3    0  502  0.29521578282E+03  0.30564451069E+02 -0.23182985198E+02  0.29773492388E+03  0.46999998093E+01 0. -1.
</event>
<event>
 5   0  0.1535906E-02  0.8956170E+03  0.7818609E-02  0.9431077E-01
       -2   -1    0    0    0  501  0.00000000000E+00  0.00000000000E+00  0.64407635745E+02  0.64407635796E+02  0.25500000920E-02 0. -1.
        2   -1    0    0  501    0  0.00000000000E+00  0.00000000000E+00 -0.31134888308E+04  0.31134888308E+04  0.25500000920E-02 0.  1.
    10030    2    1    2    0    0  0.00000000000E+00  0.00000000000E+00 -0.30490811951E+04  0.31778964666E+04  0.89561700429E+03 0.  0.
        2    1    3    3  502    0  0.35715407431E+03 -0.15922283947E+03 -0.22988579481E+04  0.23318788157E+04  0.25500000920E-02 0.  1.
       -2    1    3    3    0  502 -0.35715407431E+03  0.15922283947E+03 -0.75022324695E+03  0.84601765092E+03  0.25500000920E-02 0. -1.
</event>
<event>
 5   0  0.1535906E-02  0.9201784E+03  0.7818609E-02  0.9400703E-01
       -2   -1    0    0    0  501  0.00000000000E+00  0.00000000000E+00  0.28443736850E+03  0.28443736851E+03  0.25500000920E-02 0.  1.
        2   -1    0    0  501    0  0.00000000000E+00  0.00000000000E+00 -0.74421337607E+03  0.74421337607E+03  0.25500000920E-02 0. -1.
    10030    2    1    2    0    0  0.00000000000E+00  0.00000000000E+00 -0.45977600757E+03  0.10286507446E+04  0.92017844857E+03 0.  0.
        2    1    3    3  502    0  0.38180826350E+02  0.19021239483E+03  0.23647583762E+03  0.30587473324E+03  0.25500000920E-02 0.  1.
       -2    1    3    3    0  502 -0.38180826350E+02 -0.19021239483E+03 -0.69625184519E+03  0.72277601135E+03  0.25500000920E-02 0. -1.
</event>
<event>
 5   0  0.1483326E-02  0.8979456E+03  0.7818609E-02  0.9428153E-01
        2   -1    0    0  501    0  0.00000000000E+00  0.00000000000E+00  0.39713461972E+03  0.39713461973E+03  0.25500000920E-02 0. -1.
       -2   -1    0    0    0  501  0.00000000000E+00  0.00000000000E+00 -0.50757749381E+03  0.50757749381E+03  0.25500000920E-02 0.  1.
    10030    2    1    2    0    0  0.00000000000E+00  0.00000000000E+00 -0.11044287408E+03  0.90471211354E+03  0.89794564421E+03 0.  0.
        1    1    3    3  502    0 -0.23041550067E+03  0.60390969482E+02 -0.43866544092E+03  0.49916504408E+03  0.50400001928E-02 0.  1.
       -1    1    3    3    0  502  0.23041550067E+03 -0.60390969482E+02  0.32822256683E+03  0.40554706946E+03  0.50400001928E-02 0. -1.
</event>
<event>
 5   0  0.8738044E-03  0.9064509E+03  0.7818609E-02  0.9417553E-01
        1   -1    0    0  501    0  0.00000000000E+00  0.00000000000E+00  0.42900970375E+03  0.42900970378E+03  0.50400001928E-02 0.  1.
       -1   -1    0    0    0  501  0.00000000000E+00  0.00000000000E+00 -0.47880802999E+03  0.47880803001E+03  0.50400001928E-02 0. -1.
    10030    2    1    2    0    0  0.00000000000E+00  0.00000000000E+00 -0.49798326239E+02  0.90781773379E+03  0.90645086160E+03 0.  0.
        3    1    3    3  502    0 -0.20123406122E+03  0.35712736161E+03 -0.21852507593E+03  0.46453021303E+03  0.10100000352E+00 0. -1.
       -3    1    3    3    0  502  0.20123406122E+03 -0.35712736161E+03  0.16872674969E+03  0.44328752077E+03  0.10100000352E+00 0.  1.
</event>
<event>
 5   0  0.8738044E-03  0.8915697E+03  0.7818609E-02  0.9436182E-01
       -1   -1    0    0    0  501  0.00000000000E+00  0.00000000000E+00  0.39003838854E+03  0.39003838857E+03  0.50400001928E-02 0. -1.
        1   -1    0    0  501    0  0.00000000000E+00  0.00000000000E+00 -0.50949885453E+03  0.50949885455E+03  0.50400001928E-02 0.  1.
    10030    2    1    2    0    0  0.00000000000E+00  0.00000000000E+00 -0.11946046598E+03  0.89953724312E+03  0.89156965451E+03 0.  0.
        3    1    3    3  502    0 -0.30119183072E+03  0.26415662024E+03 -0.25699955949E+03  0.47596640920E+03  0.10100000352E+00 0.  1.
       -3    1    3    3    0  502  0.30119183072E+03 -0.26415662024E+03  0.13753909351E+03  0.42357083392E+03  0.10100000352E+00 0. -1.
</event>
<event>
 5   0  0.5770125E-03  0.8014255E+03  0.7818609E-02  0.9557956E-01
        3   -1    0    0  501    0  0.00000000000E+00  0.00000000000E+00  0.20776287971E+03  0.20776290426E+03  0.10100000352E+00 0.  1.
       -3   -1    0    0    0  501  0.00000000000E+00  0.00000000000E+00 -0.77285545045E+03  0.77285545705E+03  0.10100000352E+00 0. -1.
    10030    2    1    2    0    0  0.00000000000E+00  0.00000000000E+00 -0.56509257074E+03  0.98061836130E+03  0.80142545319E+03 0.  0.
        2    1    3    3  502    0  0.19430020834E+03  0.26117424993E+03  0.33823072018E+01  0.32553955181E+03  0.25500000920E-02 0.  1.
       -2    1    3    3    0  502 -0.19430020834E+03 -0.26117424993E+03 -0.56847487794E+03  0.65507880949E+03  0.25500000920E-02 0. -1.
</event>
<event>
 5   0  0.1440615E-02  0.8959618E+03  0.7818609E-02  0.9430643E-01
        2   -1    0    0  501    0  0.00000000000E+00  0.00000000000E+00  0.45722504194E+03  0.45722504195E+03  0.25500000920E-02 0. -1.
       -2   -1    0    0    0  501  0.00000000000E+00  0.00000000000E+00 -0.43892366849E+03  0.43892366849E+03  0.25500000920E-02 0.  1.
    10030    2    1    2    0    0  0.00000000000E+00  0.00000000000E+00  0.18301373455E+02  0.89614871044E+03  0.89596181334E+03 0.  0.
        3    1    3    3  502    0  0.75152755138E+02 -0.24177531240E+03  0.37880002424E+03  0.45562342659E+03  0.10100000352E+00 0. -1.
       -3    1    3    3    0  502 -0.75152755138E+02  0.24177531240E+03 -0.36049865079E+03  0.44052528385E+03  0.10100000352E+00 0.  1.
</event>
<event>
 5   0  0.8291252E-03  0.1001955E+04  0.7818609E-02  0.9306404E-01
       -1   -1    0    0    0  501  0.00000000000E+00  0.00000000000E+00  0.31436637619E+03  0.31436637623E+03  0.50400001928E-02 0. -1.
        1   -1    0    0  501    0  0.00000000000E+00  0.00000000000E+00 -0.79836231335E+03  0.79836231336E+03  0.50400001928E-02 0.  1.
    10030    2    1    2    0    0  0.00000000000E+00  0.00000000000E+00 -0.48399593716E+03  0.11127286896E+04  0.10019546245E+04 0.  0.
        1    1    3    3  502    0 -0.44294553722E+03 -0.19560620961E+03 -0.99276236467E+02  0.49428565560E+03  0.50400001928E-02 0. -1.
       -1    1    3    3    0  502  0.44294553722E+03  0.19560620961E+03 -0.38471970069E+03  0.61844303400E+03  0.50400001928E-02 0.  1.
</event>
<event>
 5   0  0.1535906E-02  0.8845654E+03  0.7818609E-02  0.9445084E-01
        2   -1    0    0  501    0  0.00000000000E+00  0.00000000000E+00  0.14944637569E+04  0.14944637569E+04  0.25500000920E-02 0. -1.
       -2   -1    0    0    0  501  0.00000000000E+00  0.00000000000E+00 -0.13089242263E+03  0.13089242265E+03  0.25500000920E-02 0.  1.
    10030    2    1    2    0    0  0.00000000000E+00  0.00000000000E+00  0.13635713343E+04  0.16253561796E+04  0.88456538864E+03 0.  0.
        2    1    3    3  502    0  0.75059943988E+02  0.43576459664E+03  0.66443133580E+03  0.79811890021E+03  0.25500000920E-02 0. -1.
       -2    1    3    3    0  502 -0.75059943988E+02 -0.43576459664E+03  0.69913999848E+03  0.82723727936E+03  0.25500000920E-02 0.  1.
</event>
<event>
 5   0  0.8612969E-03  0.9136228E+03  0.7818609E-02  0.9408711E-01
        1   -1    0    0  501    0  0.00000000000E+00  0.00000000000E+00  0.10849414940E+04  0.10849414940E+04  0.50400001928E-02 0. -1.
       -1   -1    0    0    0  501  0.00000000000E+00  0.00000000000E+00 -0.19233907174E+03  0.19233907180E+03  0.50400001928E-02 0.  1.
    10030    2    1    2    0    0  0.00000000000E+00  0.00000000000E+00  0.89260242227E+03  0.12772805658E+04  0.91362276656E+03 0.  0.
        4    1    3    3  502    0  0.12029933886E+03  0.43190816449E+03  0.56864709539E+03  0.72413929978E+03  0.12699999809E+01 0.  1.
       -4    1    3    3    0  502 -0.12029933886E+03 -0.43190816449E+03  0.32395532688E+03  0.55314126604E+03  0.12699999809E+01 0. -1.
</event>
<event>
 5   0  0.8291252E-03  0.8984281E+03  0.7818609E-02  0.9427549E-01
        1   -1    0    0  501    0  0.00000000000E+00  0.00000000000E+00  0.11378901412E+04  0.11378901412E+04  0.50400001928E-02 0. -1.
       -1   -1    0    0    0  501  0.00000000000E+00  0.00000000000E+00 -0.17733983779E+03  0.17733983786E+03  0.50400001928E-02 0.  1.
    10030    2    1    2    0    0  0.00000000000E+00  0.00000000000E+00  0.96055030343E+03  0.13152299791E+04  0.89842807864E+03 0.  0.
        1    1    3    3  502    0 -0.39406428697E+03 -0.11531681399E+03  0.21350095642E+03  0.46278211749E+03  0.50400001928E-02 0.  1.
       -1    1    3    3    0  502  0.39406428697E+03  0.11531681399E+03  0.74704934701E+03  0.85244786160E+03  0.50400001928E-02 0. -1.
</event>
<event>
 5   0  0.8885324E-03  0.9007988E+03  0.7818609E-02  0.9424583E-01
        1   -1    0    0  501    0  0.00000000000E+00  0.00000000000E+00  0.34403502686E+03  0.34403502689E+03  0.50400001928E-02 0.  1.
       -1   -1    0    0    0  501  0.00000000000E+00  0.00000000000E+00 -0.58964816123E+03  0.58964816125E+03  0.50400001928E-02 0. -1.
    10030    2    1    2    0    0  0.00000000000E+00  0.00000000000E+00 -0.24561313437E+03  0.93368318814E+03  0.90079880331E+03 0.  0.
        2    1    3    3  502    0  0.28233308980E+02  0.42427367098E+03 -0.27673501958E+03  0.50733375473E+03  0.25500000920E-02 0. -1.
       -2    1    3    3    0  502 -0.28233308980E+02 -0.42427367098E+03  0.31121885206E+02  0.42634943341E+03  0.25500000920E-02 0.  1.
</event>
<event>
 5   0  0.8738044E-03  0.9141995E+03  0.7818609E-02  0.9408003E-01
        1   -1    0    0  501    0  0.00000000000E+00  0.00000000000E+00  0.29510401110E+03  0.29510401115E+03  0.50400001928E-02 0. -1.
       -1   -1    0    0    0  501  0.00000000000E+00  0.00000000000E+00 -0.70802213226E+03  0.70802213228E+03  0.50400001928E-02 0.  1.
    10030    2    1    2    0    0  0.00000000000E+00  0.00000000000E+00 -0.41291812116E+03  0.10031261434E+04  0.91419947760E+03 0.  0.
        3    1    3    3  502    0  0.20205069830E+03 -0.73444067450E+02 -0.64908538954E+03  0.68376192410E+03  0.10100000352E+00 0.  1.
       -3    1    3    3    0  502 -0.20205069830E+03  0.73444067450E+02  0.23616726839E+03  0.31936421933E+03  0.10100000352E+00 0. -1.
</event>
<event>
 5   0  0.1454652E-02  0.9024584E+03  0.7818609E-02  0.9422514E-01
        2   -1    0    0  501    0  0.00000000000E+00  0.00000000000E+00  0.59825261284E+03  0.59825261285E+03  0.25500000920E-02 0.  1.
       -2   -1    0    0    0  501  0.00000000000E+00  0.00000000000E+00 -0.34033749384E+03  0.34033749385E+03  0.25500000920E-02 0. -1.
    10030    2    1    2    0    0  0.00000000000E+00  0.00000000000E+00  0.25791511900E+03  0.93859010670E+03  0.90245840890E+03 0.  0.
        4    1    3    3  502    0 -0.27109516883E+03 -0.27861177560E+03 -0.10932003943E+03  0.40381876626E+03  0.12699999809E+01 0.  1.
       -4    1    3    3    0  502  0.27109516883E+03  0.27861177560E+03  0.36723515843E+03  0.53477134044E+03  0.12699999809E+01 0. -1.
</event>
<event>
 5   0  0.1454652E-02  0.9158691E+03  0.7818609E-02  0.9405959E-01
       -2   -1    0    0    0  501  0.00000000000E+00  0.00000000000E+00  0.44068308798E+03  0.44068308799E+03  0.25500000920E-02 0. -1.
        2   -1    0    0  501    0  0.00000000000E+00  0.00000000000E+00 -0.47586134583E+03  0.47586134584E+03  0.25500000920E-02 0.  1.
    10030    2    1    2    0    0  0.00000000000E+00  0.00000000000E+00 -0.35178257850E+02  0.91654443382E+03  0.91586908963E+03 0.  0.
        4    1    3    3  502    0  0.16445806286E+03  0.11562437683E+03  0.39415925715E+03  0.44246873771E+03  0.12699999809E+01 0. -1.
       -4    1    3    3    0  502 -0.16445806286E+03 -0.11562437683E+03 -0.42933751500E+03  0.47407569611E+03  0.12699999809E+01 0.  1.
</event>
<event>
 5   0  0.8885324E-03  0.9014517E+03  0.7818609E-02  0.9423769E-01
       -1   -1    0    0    0  501  0.00000000000E+00  0.00000000000E+00  0.25963282869E+03  0.25963282874E+03  0.50400001928E-02 0.  1.
        1   -1    0    0  501    0  0.00000000000E+00  0.00000000000E+00 -0.78246569538E+03  0.78246569539E+03  0.50400001928E-02 0. -1.
    10030    2    1    2    0    0  0.00000000000E+00  0.00000000000E+00 -0.52283286669E+03  0.10420985241E+04  0.90145167786E+03 0.  0.
        2    1    3    3  502    0 -0.43479565866E+03  0.60286387758E+02 -0.37971584023E+03  0.58040144096E+03  0.25500000920E-02 0. -1.
       -2    1    3    3    0  502  0.43479565866E+03 -0.60286387758E+02 -0.14311702645E+03  0.46169708317E+03  0.25500000920E-02 0.  1.
</event>
<event>
 5   0  0.1454652E-02  0.8967336E+03  0.7818609E-02  0.9429674E-01
       -2   -1    0    0    0  501  0.00000000000E+00  0.00000000000E+00  0.12726027149E+03  0.12726027151E+03  0.25500000920E-02 0.  1.
        2   -1    0    0  501    0  0.00000000000E+00  0.00000000000E+00 -0.15796978791E+04  0.15796978791E+04  0.25500000920E-02 0. -1.
    10030    2    1    2    0    0  0.00000000000E+00  0.00000000000E+00 -0.14524376076E+04  0.17069581506E+04  0.89673358582E+03 0.  0.
        4    1    3    3  502    0  0.27011141922E+03 -0.11811782077E+03 -0.83177692545E+02  0.30632032223E+03  0.12699999809E+01 0.  1.
       -4    1    3    3    0  502 -0.27011141922E+03  0.11811782077E+03 -0.13692599150E+04  0.14006378284E+04  0.12699999809E+01 0. -1.
</event>
<event>
 5   0  0.1483326E-02  0.8943642E+03  0.7818609E-02  0.9432654E-01
       -2   -1    0    0    0  501  0.00000000000E+00  0.00000000000E+00  0.13368943449E+03  0.13368943452E+03  0.25500000920E-02 0. -1.
        2   -1    0    0  501    0  0.00000000000E+00  0.00000000000E+00 -0.14957936902E+04  0.14957936902E+04  0.25500000920E-02 0.  1.
    10030    2    1    2    0    0  0.00000000000E+00  0.00000000000E+00 -0.13621042557E+04  0.16294831247E+04  0.89436415980E+03 0.  0.
        1    1    3    3  502    0  0.38863411283E+03  0.15209483125E+03 -0.38839009600E+03  0.57010190146E+03  0.50400001928E-02 0. -1.
       -1    1    3    3    0  502 -0.38863411283E+03 -0.15209483125E+03 -0.97371415972E+03  0.10593812233E+04  0.50400001928E-02 0.  1.
</event>
<event>
 5   0  0.5770125E-03  0.9109347E+03  0.7818609E-02  0.9412015E-01
       -3   -1    0    0    0  501  0.00000000000E+00  0.00000000000E+00  0.73308154918E+03  0.73308155614E+03  0.10100000352E+00 0. -1.
        3   -1    0    0  501    0  0.00000000000E+00  0.00000000000E+00 -0.28298421111E+03  0.28298422914E+03  0.10100000352E+00 0.  1.
    10030    2    1    2    0    0  0.00000000000E+00  0.00000000000E+00  0.45009733807E+03  0.10160657853E+04  0.91093472119E+03 0.  0.
        5    1    3    3  502    0 -0.54990138188E+02  0.32688907359E+02 -0.27792083326E+03  0.28522720683E+03  0.46999998093E+01 0.  1.
       -5    1    3    3    0  502  0.54990138188E+02 -0.32688907359E+02  0.72801817133E+03  0.73083857844E+03  0.46999998093E+01 0. -1.
</event>
<event>
 5   0  0.1454652E-02  0.8999457E+03  0.7818609E-02  0.9425649E-01
       -2   -1    0    0    0  501  0.00000000000E+00  0.00000000000E+00  0.29667537611E+03  0.29667537612E+03  0.25500000920E-02 0. -1.
        2   -1    0    0  501    0  0.00000000000E+00  0.00000000000E+00 -0.68248190214E+03  0.68248190215E+03  0.25500000920E-02 0.  1.
    10030    2    1    2    0    0  0.00000000000E+00  0.00000000000E+00 -0.38580652603E+03  0.97915727826E+03  0.89994572061E+03 0.  0.
        4    1    3    3  502    0  0.56800353090E+02 -0.44613576222E+03 -0.20869128995E+03  0.49579942098E+03  0.12699999809E+01 0. -1.
       -4    1    3    3    0  502 -0.56800353090E+02  0.44613576222E+03 -0.17711523608E+03  0.48335785728E+03  0.12699999809E+01 0.  1.
</event>
<event>
 5   0  0.8738044E-03  0.8933210E+03  0.7818609E-02  0.9433969E-01
        1   -1    0    0  501    0  0.00000000000E+00  0.00000000000E+00  0.14157101440E+04  0.14157101440E+04  0.50400001928E-02 0. -1.
       -1   -1    0    0    0  501  0.00000000000E+00  0.00000000000E+00 -0.14092264509E+03  0.14092264518E+03  0.50400001928E-02 0.  1.
    10030    2    1    2    0    0  0.00000000000E+00  0.00000000000E+00  0.12747874989E+04  0.15566327892E+04  0.89332103580E+03 0.  0.
        3    1    3    3  502    0 -0.34823363574E+03  0.25762414515E+03  0.44755670090E+03  0.62285140760E+03  0.10100000352E+00 0.  1.
       -3    1    3    3    0  502  0.34823363574E+03 -0.25762414515E+03  0.82723079802E+03  0.93378138159E+03  0.10100000352E+00 0. -1.
</event>
<event>
 5   0  0.1441195E-02  0.9023585E+03  0.7818609E-02  0.9422638E-01
        2   -1    0    0  501    0  0.00000000000E+00  0.00000000000E+00  0.47359978566E+03  0.47359978567E+03  0.25500000920E-02 0. -1.
       -2   -1    0    0    0  501  0.00000000000E+00  0.00000000000E+00 -0.42982014011E+03  0.42982014012E+03  0.25500000920E-02 0.  1.
    10030    2    1    2    0    0  0.00000000000E+00  0.00000000000E+00  0.43779645551E+02  0.90341992579E+03  0.90235852351E+03 0.  0.
        5    1    3    3  502    0  0.35280688843E+03  0.64172663243E+02  0.29598146553E+03  0.46499241840E+03  0.46999998093E+01 0. -1.
       -5    1    3    3    0  502 -0.35280688843E+03 -0.64172663243E+02 -0.25220181998E+03  0.43842750739E+03  0.46999998093E+01 0.  1.
</event>
<event>
 5   0  0.8738044E-03  0.8957849E+03  0.7818609E-02  0.9430866E-01
        1   -1    0    0  501    0  0.00000000000E+00  0.00000000000E+00  0.57920811846E+03  0.57920811848E+03  0.50400001928E-02 0.  1.
       -1   -1    0    0    0  501  0.00000000000E+00  0.00000000000E+00 -0.34634810762E+03  0.34634810766E+03  0.50400001928E-02 0. -1.
    10030    2    1    2    0    0  0.00000000000E+00  0.00000000000E+00  0.23286001084E+03  0.92555622614E+03  0.89578487546E+03 0.  0.
        3    1    3    3  502    0 -0.10732477380E+03 -0.25682933106E+03  0.47898758423E+03  0.55399370792E+03  0.10100000352E+00 0.  1.
       -3    1    3    3    0  502  0.10732477380E+03  0.25682933106E+03 -0.24612757339E+03  0.37156251822E+03  0.10100000352E+00 0. -1.
</event>
<event>
 5   0  0.8738044E-03  0.8977601E+03  0.7818609E-02  0.9428386E-01
        1   -1    0    0  501    0  0.00000000000E+00  0.00000000000E+00  0.15962078110E+03  0.15962078118E+03  0.50400001928E-02 0.  1.
       -1   -1    0    0    0  501  0.00000000000E+00  0.00000000000E+00 -0.12623249771E+04  0.12623249771E+04  0.50400001928E-02 0. -1.
    10030    2    1    2    0    0  0.00000000000E+00  0.00000000000E+00 -0.11027041960E+04  0.14219457583E+04  0.89776009916E+03 0.  0.
        3    1    3    3  502    0 -0.15976779142E+03 -0.32867468483E+03 -0.13850705161E+03  0.39081582512E+03  0.10100000352E+00 0.  1.
       -3    1    3    3    0  502  0.15976779142E+03  0.32867468483E+03 -0.96419714439E+03  0.10311299332E+04  0.10100000352E+00 0. -1.
</event>
<event>
 5   0  0.1440615E-02  0.9024298E+03  0.7818609E-02  0.9422549E-01
        2   -1    0    0  501    0  0.00000000000E+00  0.00000000000E+00  0.74978505005E+03  0.74978505005E+03  0.25500000920E-02 0. -1.
       -2   -1    0    0    0  501  0.00000000000E+00  0.00000000000E+00 -0.27153768275E+03  0.27153768276E+03  0.25500000920E-02 0.  1.
    10030    2    1    2    0    0  0.00000000000E+00  0.00000000000E+00  0.47824736730E+03  0.10213227328E+04  0.90242982011E+03 0.  0.
        3    1    3    3  502    0  0.38501836429E+03 -0.16824942911E+03  0.52993791773E+02  0.42350367579E+03  0.10100000352E+00 0. -1.
       -3    1    3    3    0  502 -0.38501836429E+03  0.16824942911E+03  0.42525357553E+03  0.59781905702E+03  0.10100000352E+00 0.  1.
</event>
<event>
 5   0  0.8291252E-03  0.8932577E+03  0.7818609E-02  0.9434049E-01
        1   -1    0    0  501    0  0.00000000000E+00  0.00000000000E+00  0.20896026514E+03  0.20896026520E+03  0.50400001928E-02 0. -1.
       -1   -1    0    0    0  501  0.00000000000E+00  0.00000000000E+00 -0.95461851539E+03  0.95461851540E+03  0.50400001928E-02 0.  1.
    10030    2    1    2    0    0  0.00000000000E+00  0.00000000000E+00 -0.74565825025E+03  0.11635787806E+04  0.89325771897E+03 0.  0.
        1    1    3    3  502    0 -0.31776769746E+03 -0.24120096260E+01  0.35985639120E+02  0.31980790107E+03  0.50400001928E-02 0. -1.
       -1    1    3    3    0  502  0.31776769746E+03  0.24120096260E+01 -0.78164388937E+03  0.84377087953E+03  0.50400001928E-02 0.  1.
</event>
<event>
 5   0  0.8612969E-03  0.8457247E+03  0.7818609E-02  0.9496093E-01
       -1   -1    0    0    0  501  0.00000000000E+00  0.00000000000E+00  0.95286467246E+02  0.95286467379E+02  0.50400001928E-02 0.  1.
        1   -1    0    0  501    0  0.00000000000E+00  0.00000000000E+00 -0.18765786368E+04  0.18765786368E+04  0.50400001928E-02 0. -1.
    10030    2    1    2    0    0  0.00000000000E+00  0.00000000000E+00 -0.17812921696E+04  0.19718651042E+04  0.84572465720E+03 0.  0.
        4    1    3    3  502    0  0.36905390720E+03 -0.15121128546E+03 -0.56301881583E+03  0.68996915811E+03  0.12699999809E+01 0. -1.
       -4    1    3    3    0  502 -0.36905390720E+03  0.15121128546E+03 -0.12182733537E+04  0.12818959461E+04  0.12699999809E+01 0.  1.
</event>
<event>
 5   0  0.8524692E-03  0.9015622E+03  0.7818609E-02  0.9423631E-01
       -1   -1    0    0    0  501  0.00000000000E+00  0.00000000000E+00  0.21517636363E+03  0.21517636369E+03  0.50400001928E-02 0. -1.
        1   -1    0    0  501    0  0.00000000000E+00  0.00000000000E+00 -0.94435828708E+03  0.94435828710E+03  0.50400001928E-02 0.  1.
    10030    2    1    2    0    0  0.00000000000E+00  0.00000000000E+00 -0.72918192345E+03  0.11595346508E+04  0.90156216030E+03 0.  0.
        5    1    3    3  502    0  0.20263373120E+03 -0.14230763537E+03  0.11984093189E+03  0.27512875360E+03  0.46999998093E+01 0. -1.
       -5    1    3    3    0  502 -0.20263373120E+03  0.14230763537E+03 -0.84902285534E+03  0.88440589719E+03  0.46999998093E+01 0.  1.
</event>
<event>
 5   0  0.8612969E-03  0.9139557E+03  0.7818609E-02  0.9408302E-01
       -1   -1    0    0    0  501  0.00000000000E+00  0.00000000000E+00  0.37071075035E+03  0.37071075038E+03  0.50400001928E-02 0. -1.
        1   -1    0    0  501    0  0.00000000000E+00  0.00000000000E+00 -0.56331993438E+03  0.56331993440E+03  0.50400001928E-02 0.  1.
    10030    2    1    2    0    0  0.00000000000E+00  0.00000000000E+00 -0.19260918403E+03  0.93403068478E+03  0.91395570043E+03 0.  0.
        4    1    3    3  502    0 -0.21023931025E+03  0.80937678862E+02 -0.50262488206E+03  0.55080383114E+03  0.12699999809E+01 0.  1.
       -4    1    3    3    0  502  0.21023931025E+03 -0.80937678862E+02  0.31001569802E+03  0.38322685365E+03  0.12699999809E+01 0. -1.
</event>
<event>
 5   0  0.8291252E-03  0.8896790E+03  0.7818609E-02  0.9438576E-01
       -1   -1    0    0    0  501  0.00000000000E+00  0.00000000000E+00  0.84479765056E+03  0.84479765058E+03  0.50400001928E-02 0.  1.
        1   -1    0    0  501    0  0.00000000000E+00  0.00000000000E+00 -0.23423619589E+03  0.23423619595E+03  0.50400001928E-02 0. -1.
    10030    2    1    2    0    0  0.00000000000E+00  0.00000000000E+00  0.61056145467E+03  0.10790338465E+04  0.88967901629E+03 0.  0.
        1    1    3    3  502    0 -0.28034316836E+03 -0.17344186859E+03 -0.56964914408E+02  0.33454353278E+03  0.50400001928E-02 0. -1.
       -1    1    3    3    0  502  0.28034316836E+03  0.17344186859E+03  0.66752636908E+03  0.74449031375E+03  0.50400001928E-02 0.  1.
</event>
<event>
 5   0  0.1454652E-02  0.8962072E+03  0.7818609E-02  0.9430335E-01
        2   -1    0    0  501    0  0.00000000000E+00  0.00000000000E+00  0.81303813710E+03  0.81303813710E+03  0.25500000920E-02 0.  1.
       -2   -1    0    0    0  501  0.00000000000E+00  0.00000000000E+00 -0.24697096856E+03  0.24697096857E+03  0.25500000920E-02 0. -1.
    10030    2    1    2    0    0  0.00000000000E+00  0.00000000000E+00  0.56606716854E+03  0.10600091057E+04  0.89620715508E+03 0.  0.
        4    1    3    3  502    0 -0.30503673667E+03 -0.53575219588E+02 -0.10000482780E+03  0.32545398039E+03  0.12699999809E+01 0. -1.
       -4    1    3    3    0  502  0.30503673667E+03  0.53575219588E+02  0.66607199634E+03  0.73455512528E+03  0.12699999809E+01 0.  1.
</event>
<event>
 5   0  0.8612969E-03  0.8990263E+03  0.7818609E-02  0.9426799E-01
        1   -1    0    0  501    0  0.00000000000E+00  0.00000000000E+00  0.91369324165E+03  0.91369324166E+03  0.50400001928E-02 0. -1.
       -1   -1    0    0    0  501  0.00000000000E+00  0.00000000000E+00 -0.22114868100E+03  0.22114868106E+03  0.50400001928E-02 0.  1.
    10030    2    1    2    0    0  0.00000000000E+00  0.00000000000E+00  0.69254456064E+03  0.11348419227E+04  0.89902626273E+03 0.  0.
        4    1    3    3  502    0  0.35933679854E+03 -0.19489757771E+03  0.11027785035E+03  0.42340384713E+03  0.12699999809E+01 0.  1.
       -4    1    3    3    0  502 -0.35933679854E+03  0.19489757771E+03  0.58226671030E+03  0.71143807559E+03  0.12699999809E+01 0. -1.
</event>
<event>
 5   0  0.8612969E-03  0.9179551E+03  0.7818609E-02  0.9403411E-01
       -1   -1    0    0    0  501  0.00000000000E+00  0.00000000000E+00  0.19318916041E+03  0.19318916048E+03  0.50400001928E-02 0.  1.
        1   -1    0    0  501    0  0.00000000000E+00  0.00000000000E+00 -0.10904357963E+04  0.10904357964E+04  0.50400001928E-02 0. -1.
    10030    2    1    2    0    0  0.00000000000E+00  0.00000000000E+00 -0.89724663593E+03  0.12836249568E+04  0.91795506650E+03 0.  0.
        4    1    3    3  502    0 -0.43882100326E+03  0.12763043882E+03 -0.50803868643E+03  0.68334348729E+03  0.12699999809E+01 0.  1.
       -4    1    3    3    0  502  0.43882100326E+03 -0.12763043882E+03 -0.38920794950E+03  0.60028146954E+03  0.12699999809E+01 0. -1.
</event>
<event>
 5   0  0.8738044E-03  0.8885245E+03  0.7818609E-02  0.9440041E-01
        1   -1    0    0  501    0  0.00000000000E+00  0.00000000000E+00  0.60438189518E+03  0.60438189520E+03  0.50400001928E-02 0.  1.
       -1   -1    0    0    0  501  0.00000000000E+00  0.00000000000E+00 -0.32656333713E+03  0.32656333717E+03  0.50400001928E-02 0. -1.
    10030    2    1    2    0    0  0.00000000000E+00  0.00000000000E+00  0.27781855805E+03  0.93094523237E+03  0.88852454916E+03 0.  0.
        3    1    3    3  502    0 -0.23006510232E+03  0.18301701451E+02 -0.25882479731E+03  0.34677830020E+03  0.10100000352E+00 0. -1.
       -3    1    3    3    0  502  0.23006510232E+03 -0.18301701451E+02  0.53664335536E+03  0.58416693217E+03  0.10100000352E+00 0.  1.
</event>
<event>
 5   0  0.8738044E-03  0.9073882E+03  0.7818609E-02  0.9416393E-01
        1   -1    0    0  501    0  0.00000000000E+00  0.00000000000E+00  0.88180790442E+03  0.88180790444E+03  0.50400001928E-02 0. -1.
       -1   -1    0    0    0  501  0.00000000000E+00  0.00000000000E+00 -0.23342764456E+03  0.23342764461E+03  0.50400001928E-02 0.  1.
    10030    2    1    2    0    0  0.00000000000E+00  0.00000000000E+00  0.64838025986E+03  0.11152355490E+04  0.90738821267E+03 0.  0.
        3    1    3    3  502    0 -0.73041681556E+02 -0.24185132833E+03  0.78735406886E+03  0.82689394254E+03  0.10100000352E+00 0. -1.
       -3    1    3    3    0  502  0.73041681556E+02  0.24185132833E+03 -0.13897380900E+03  0.28834160651E+03  0.10100000352E+00 0.  1.
</event>
<event>
 5   0  0.5770125E-03  0.8955202E+03  0.7818609E-02  0.9431199E-01
        3   -1    0    0  501    0  0.00000000000E+00  0.00000000000E+00  0.10897300348E+04  0.10897300395E+04  0.10100000352E+00 0. -1.
       -3   -1    0    0    0  501  0.00000000000E+00  0.00000000000E+00 -0.18398049240E+03  0.18398052012E+03  0.10100000352E+00 0.  1.
    10030    2    1    2    0    0  0.00000000000E+00  0.00000000000E+00  0.90574954241E+03  0.12737105596E+04  0.89552015951E+03 0.  0.
        5    1    3    3  502    0  0.30192623752E+03 -0.29081065514E+03  0.67657495567E+03  0.79593093337E+03  0.46999998093E+01 0. -1.
       -5    1    3    3    0  502 -0.30192623752E+03  0.29081065514E+03  0.22917458674E+03  0.47777962625E+03  0.46999998093E+01 0.  1.
</event>
<event>
 5   0  0.1454652E-02  0.8892631E+03  0.7818609E-02  0.9439103E-01
        2   -1    0    0  501    0  0.00000000000E+00  0.00000000000E+00  0.13006529799E+04  0.13006529799E+04  0.25500000920E-02 0. -1.
       -2   -1    0    0    0  501  0.00000000000E+00  0.00000000000E+00 -0.15199843355E+03  0.15199843357E+03  0.25500000920E-02 0.  1.
    10030    2    1    2    0    0  0.00000000000E+00  0.00000000000E+00  0.11486545463E+04  0.14526514135E+04  0.88926310067E+03 0.  0.
        4    1    3    3  502    0 -0.17720963811E+03  0.80895932397E+02 -0.78576410432E+02  0.21005540435E+03  0.12699999809E+01 0.  1.
       -4    1    3    3    0  502  0.17720963811E+03 -0.80895932397E+02  0.12272309568E+04  0.12425960091E+04  0.12699999809E+01 0. -1.
</event>
<event>
 5   0  0.8885324E-03  0.8789799E+03  0.7818609E-02  0.9452246E-01
        1   -1    0    0  501    0  0.00000000000E+00  0.00000000000E+00  0.17119412270E+03  0.17119412278E+03  0.50400001928E-02 0. -1.
       -1   -1    0    0    0  501  0.00000000000E+00  0.00000000000E+00 -0.11282596321E+04  0.11282596321E+04  0.50400001928E-02 0.  1.
    10030    2    1    2    0    0  0.00000000000E+00  0.00000000000E+00 -0.95706550938E+03  0.12994537549E+04  0.87897990410E+03 0.  0.
        2    1    3    3  502    0 -0.22399350888E+03  0.31173193230E+03 -0.16214339667E+03  0.41670177673E+03  0.25500000920E-02 0. -1.
       -2    1    3    3    0  502  0.22399350888E+03 -0.31173193230E+03 -0.79492211270E+03  0.88275197814E+03  0.25500000920E-02 0.  1.
</event>
<event>
 5   0  0.8612969E-03  0.8909199E+03  0.7818609E-02  0.9437004E-01
       -1   -1    0    0    0  501  0.00000000000E+00  0.00000000000E+00  0.91418626086E+02  0.91418626225E+02  0.50400001928E-02 0. -1.
        1   -1    0    0  501    0  0.00000000000E+00  0.00000000000E+00 -0.21706142855E+04  0.21706142855E+04  0.50400001928E-02 0.  1.
    10030    2    1    2    0    0  0.00000000000E+00  0.00000000000E+00 -0.20791956594E+04  0.22620329117E+04  0.89091991987E+03 0.  0.
        4    1    3    3  502    0  0.43640608356E+03  0.73431244518E+01 -0.81351727597E+03  0.92320970665E+03  0.12699999809E+01 0. -1.
       -4    1    3    3    0  502 -0.43640608356E+03 -0.73431244518E+01 -0.12656783834E+04  0.13388232051E+04  0.12699999809E+01 0.  1.
</event>
<event>
 5   0  0.1454652E-02  0.9164928E+03  0.7818609E-02  0.9405196E-01
       -2   -1    0    0    0  501  0.00000000000E+00  0.00000000000E+00  0.20026677313E+03  0.20026677315E+03  0.25500000920E-02 0.  1.
        2   -1    0    0  501    0  0.00000000000E+00  0.00000000000E+00 -0.10485501972E+04  0.10485501972E+04  0.25500000920E-02 0. -1.
    10030    2    1    2    0    0  0.00000000000E+00  0.00000000000E+00 -0.84828342406E+03  0.12488169703E+04  0.91649280296E+03 0.  0.
        4    1    3    3  502    0 -0.50824211016E+01 -0.34644945814E+03 -0.15507872604E+02  0.34683593393E+03  0.12699999809E+01 0.  1.
       -4    1    3    3    0  502  0.50824211016E+01  0.34644945814E+03 -0.83277555146E+03  0.90198103642E+03  0.12699999809E+01 0. -1.
</event>
<event>
 5   0  0.1441195E-02  0.9184702E+03  0.7818609E-02  0.9402783E-01
       -2   -1    0    0    0  501  0.00000000000E+00  0.00000000000E+00  0.34512269043E+03  0.34512269044E+03  0.25500000920E-02 0.  1.
        2   -1    0    0  501    0  0.00000000000E+00  0.00000000000E+00 -0.61107794479E+03  0.61107794480E+03  0.25500000920E-02 0. -1.
    10030    2    1    2    0    0  0.00000000000E+00  0.00000000000E+00 -0.26595525436E+03  0.95620063524E+03  0.91847017236E+03 0.  0.
        5    1    3    3  502    0  0.23152000814E+03 -0.17430249564E+03 -0.50382987986E+03  0.58124823612E+03  0.46999998093E+01 0. -1.
       -5    1    3    3    0  502 -0.23152000814E+03  0.17430249564E+03  0.23787462550E+03  0.37495239912E+03  0.46999998093E+01 0.  1.
</event>
<event>
 5   0  0.8612969E-03  0.8979528E+03  0.7818609E-02  0.9428144E-01
       -1   -1    0    0    0  501  0.00000000000E+00  0.00000000000E+00  0.21710855437E+03  0.21710855443E+03  0.50400001928E-02 0.  1.
        1   -1    0    0  501    0  0.00000000000E+00  0.00000000000E+00 -0.92847472808E+03  0.92847472809E+03  0.50400001928E-02 0. -1.
    10030    2    1    2    0    0  0.00000000000E+00  0.00000000000E+00 -0.71136617370E+03  0.11455832825E+04  0.89795279614E+03 0.  0.
        4    1    3    3  502    0  0.10266570313E+03 -0.36941361000E+03 -0.57655661936E+02  0.38772728832E+03  0.12699999809E+01 0.  1.
       -4    1    3    3    0  502 -0.10266570313E+03  0.36941361000E+03 -0.65371051177E+03  0.75785599420E+03  0.12699999809E+01 0. -1.
</event>
<event>
 5   0  0.1454652E-02  0.9192811E+03  0.7818609E-02  0.9401795E-01
       -2   -1    0    0    0  501  0.00000000000E+00  0.00000000000E+00  0.24013181238E+03  0.24013181239E+03  0.25500000920E-02 0.  1.
        2   -1    0    0  501    0  0.00000000000E+00  0.00000000000E+00 -0.87980601258E+03  0.87980601259E+03  0.25500000920E-02 0. -1.
    10030    2    1    2    0    0  0.00000000000E+00  0.00000000000E+00 -0.63967420021E+03  0.11199378250E+04  0.91928105028E+03 0.  0.
        4    1    3    3  502    0  0.34720914926E+03  0.29990430402E+03 -0.35366514450E+03  0.57929045585E+03  0.12699999809E+01 0. -1.
       -4    1    3    3    0  502 -0.34720914926E+03 -0.29990430402E+03 -0.28600905571E+03  0.54064736913E+03  0.12699999809E+01 0.  1.
</event>
<event>
 5   0  0.1440615E-02  0.9181242E+03  0.7818609E-02  0.9403205E-01
       -2   -1    0    0    0  501  0.00000000000E+00  0.00000000000E+00  0.14111152646E+03  0.14111152648E+03  0.25500000920E-02 0. -1.
        2   -1    0    0  501    0  0.00000000000E+00  0.00000000000E+00 -0.14934145398E+04  0.14934145398E+04  0.25500000920E-02 0.  1.
    10030    2    1    2    0    0  0.00000000000E+00  0.00000000000E+00 -0.13523030133E+04  0.16345260663E+04  0.91812418628E+03 0.  0.
        3    1    3    3  502    0  0.91310844611E+02 -0.33006673583E+03 -0.13190624668E+03  0.36698908507E+03  0.10100000352E+00 0. -1.
       -3    1    3    3    0  502 -0.91310844611E+02  0.33006673583E+03 -0.12203967666E+04  0.12675369812E+04  0.10100000352E+00 0.  1.
</event>
<event>
 5   0  0.8524692E-03  0.9011663E+03  0.7818609E-02  0.9424125E-01
        1   -1    0    0  501    0  0.00000000000E+00  0.00000000000E+00  0.43679778172E+03  0.43679778175E+03  0.50400001928E-02 0.  1.
       -1   -1    0    0    0  501  0.00000000000E+00  0.00000000000E+00 -0.46480356270E+03  0.46480356272E+03  0.50400001928E-02 0. -1.
    10030    2    1    2    0    0  0.00000000000E+00  0.00000000000E+00 -0.28005780979E+02  0.90160134447E+03  0.90116627799E+03 0.  0.
        5    1    3    3  502    0  0.16696502859E+03  0.40153907105E+03 -0.13192466864E+03  0.45446358990E+03  0.46999998093E+01 0.  1.
       -5    1    3    3    0  502 -0.16696502859E+03 -0.40153907105E+03  0.10391888766E+03  0.44713775457E+03  0.46999998093E+01 0. -1.
</event>
<event>
 5   0  0.1535906E-02  0.8865747E+03  0.7818609E-02  0.9442521E-01
        2   -1    0    0  501    0  0.00000000000E+00  0.00000000000E+00  0.13179400150E+04  0.13179400150E+04  0.25500000920E-02 0. -1.
       -2   -1    0    0    0  501  0.00000000000E+00  0.00000000000E+00 -0.14909910340E+03  0.14909910342E+03  0.25500000920E-02 0.  1.
    10030    2    1    2    0    0  0.00000000000E+00  0.00000000000E+00  0.11688409116E+04  0.14670391184E+04  0.88657469979E+03 0.  0.
        2    1    3    3  502    0  0.31286345932E+03 -0.11751087578E+03  0.10252449791E+03  0.34957634758E+03  0.25500000920E-02 0.  1.
       -2    1    3    3    0  502 -0.31286345932E+03  0.11751087578E+03  0.10663164136E+04  0.11174627708E+04  0.25500000920E-02 0. -1.
</event>
<event>
 5   0  0.8524692E-03  0.8997467E+03  0.7818609E-02  0.9425898E-01
        1   -1    0    0  501    0  0.00000000000E+00  0.00000000000E+00  0.88244492422E+03  0.88244492424E+03  0.50400001928E-02 0. -1.
       -1   -1    0    0    0  501  0.00000000000E+00  0.00000000000E+00 -0.22934692651E+03  0.22934692657E+03  0.50400001928E-02 0.  1.
    10030    2    1    2    0    0  0.00000000000E+00  0.00000000000E+00  0.65309799771E+03  0.11117918508E+04  0.89974670041E+03 0.  0.
        5    1    3    3  502    0  0.27990252372E+03  0.28116120225E+03  0.58857819380E+03  0.70981929014E+03  0.46999998093E+01 0. -1.
       -5    1    3    3    0  502 -0.27990252372E+03 -0.28116120225E+03  0.64519803912E+02  0.40197256067E+03  0.46999998093E+01 0.  1.
</event>
<event>
 5   0  0.1535906E-02  0.8296980E+03  0.7818609E-02  0.9517998E-01
        2   -1    0    0  501    0  0.00000000000E+00  0.00000000000E+00  0.71659893281E+03  0.71659893281E+03  0.25500000920E-02 0. -1.
       -2   -1    0    0    0  501  0.00000000000E+00  0.00000000000E+00 -0.24016183279E+03  0.24016183281E+03  0.25500000920E-02 0.  1.
    10030    2    1    2    0    0  0.00000000000E+00  0.00000000000E+00  0.47643710001E+03  0.95676076562E+03  0.82969804890E+03 0.  0.
        2    1    3    3  502    0  0.15355941680E+03 -0.26270504519E+03  0.56336668599E+03  0.64029404038E+03  0.25500000920E-02 0. -1.
       -2    1    3    3    0  502 -0.15355941680E+03  0.26270504519E+03 -0.86929585977E+02  0.31646672524E+03  0.25500000920E-02 0.  1.
</event>
<event>
 5   0  0.8738044E-03  0.9332684E+03  0.7818609E-02  0.9384924E-01
       -1   -1    0    0    0  501  0.00000000000E+00  0.00000000000E+00  0.22259085039E+03  0.22259085044E+03  0.50400001928E-02 0.  1.
        1   -1    0    0  501    0  0.00000000000E+00  0.00000000000E+00 -0.97824100135E+03  0.97824100136E+03  0.50400001928E-02 0. -1.
    10030    2    1    2    0    0  0.00000000000E+00  0.00000000000E+00 -0.75565015096E+03  0.12008318518E+04  0.93326844244E+03 0.  0.
        3    1    3    3  502    0 -0.28982736196E+03  0.12444449090E+03  0.64658012721E+02  0.32197360120E+03  0.10100000352E+00 0.  1.
       -3    1    3    3    0  502  0.28982736196E+03 -0.12444449090E+03 -0.82030816368E+03  0.87885825061E+03  0.10100000352E+00 0. -1.
</event>
<event>
 5   0  0.1440615E-02  0.9215907E+03  0.7818609E-02  0.9398987E-01
       -2   -1    0    0    0  501  0.00000000000E+00  0.00000000000E+00  0.39510844941E+03  0.39510844941E+03  0.25500000920E-02 0.  1.
        2   -1    0    0  501    0  0.00000000000E+00  0.00000000000E+00 -0.53740277395E+03  0.53740277395E+03  0.25500000920E-02 0. -1.
    10030    2    1    2    0    0  0.00000000000E+00  0.00000000000E+00 -0.14229432454E+03  0.93251122337E+03  0.92159074806E+03 0.  0.
        3    1    3    3  502    0 -0.36542308610E+03 -0.81314556120E+02 -0.34300589312E+03  0.50773924588E+03  0.10100000352E+00 0. -1.
       -3    1    3    3    0  502  0.36542308610E+03  0.81314556120E+02  0.20071156858E+03  0.42477197748E+03  0.10100000352E+00 0.  1.
</event>
<event>
 5   0  0.8885324E-03  0.8918050E+03  0.7818609E-02  0.9435884E-01
        1   -1    0    0  501    0  0.00000000000E+00  0.00000000000E+00  0.49987545825E+03  0.49987545828E+03  0.50400001928E-02 0. -1.
       -1   -1    0    0    0  501  0.00000000000E+00  0.00000000000E+00 -0.39775710936E+03  0.39775710939E+03  0.50400001928E-02 0.  1.
    10030    2    1    2    0    0  0.00000000000E+00  0.00000000000E+00  0.10211834889E+03  0.89763256767E+03  0.89180495029E+03 0.  0.
        2    1    3    3  502    0  0.27396715380E+03  0.34580150375E+03  0.11623053125E+03  0.45623044370E+03  0.25500000920E-02 0.  1.
       -2    1    3    3    0  502 -0.27396715380E+03 -0.34580150375E+03 -0.14112182359E+02  0.44140212398E+03  0.25500000920E-02 0. -1.
</event>
<event>
 5   0  0.8291252E-03  0.8896889E+03  0.7818609E-02  0.9438563E-01
        1   -1    0    0  501    0  0.00000000000E+00  0.00000000000E+00  0.12362862724E+04  0.12362862724E+04  0.50400001928E-02 0. -1.
       -1   -1    0    0    0  501  0.00000000000E+00  0.00000000000E+00 -0.16006535121E+03  0.16006535129E+03  0.50400001928E-02 0.  1.
    10030    2    1    2    0    0  0.00000000000E+00  0.00000000000E+00  0.10762209212E+04  0.13963516237E+04  0.88968892642E+03 0.  0.
        1    1    3    3  502    0  0.12104436444E+03  0.11360586788E+03 -0.10962899670E+03  0.19893855414E+03  0.50400001928E-02 0.  1.
       -1    1    3    3    0  502 -0.12104436444E+03 -0.11360586788E+03  0.11858499179E+04  0.11974130696E+04  0.50400001928E-02 0. -1.
</event>
<event>
 5   0  0.1535906E-02  0.9075925E+03  0.7818609E-02  0.9416140E-01
       -2   -1    0    0    0  501  0.00000000000E+00  0.00000000000E+00  0.56481880860E+03  0.56481880860E+03  0.25500000920E-02 0.  1.
        2   -1    0    0  501    0  0.00000000000E+00  0.00000000000E+00 -0.36459661787E+03  0.36459661787E+03  0.25500000920E-02 0. -1.
    10030    2    1    2    0    0  0.00000000000E+00  0.00000000000E+00  0.20022219073E+03  0.92941542648E+03  0.90759247976E+03 0.  0.
        2    1    3    3  502    0 -0.30470211082E+03  0.33585983675E+03  0.82798344186E+02  0.46097806031E+03  0.25500000920E-02 0. -1.
       -2    1    3    3    0  502  0.30470211082E+03 -0.33585983675E+03  0.11742384655E+03  0.46843736617E+03  0.25500000920E-02 0.  1.
</event>
<event>
 5   0  0.8738044E-03  0.8715684E+03  0.7818609E-02  0.9461837E-01
        1   -1    0    0  501    0  0.00000000000E+00  0.00000000000E+00  0.19026580364E+04  0.19026580364E+04  0.50400001928E-02 0. -1.
       -1   -1    0    0    0  501  0.00000000000E+00  0.00000000000E+00 -0.99811867577E+02  0.99811867704E+02  0.50400001928E-02 0.  1.
    10030    2    1    2    0    0  0.00000000000E+00  0.00000000000E+00  0.18028461688E+04  0.20024699041E+04  0.87156836130E+03 0.  0.
        3    1    3    3  502    0 -0.19145108612E+03  0.35709110395E+03  0.53280973025E+03  0.66936820492E+03  0.10100000352E+00 0.  1.
       -3    1    3    3    0  502  0.19145108612E+03 -0.35709110395E+03  0.12700364386E+04  0.13331016992E+04  0.10100000352E+00 0. -1.
</event>
<event>
 5   0  0.1454652E-02  0.8991883E+03  0.7818609E-02  0.9426597E-01
        2   -1    0    0  501    0  0.00000000000E+00  0.00000000000E+00  0.33288697661E+03  0.33288697662E+03  0.25500000920E-02 0.  1.
       -2   -1    0    0    0  501  0.00000000000E+00  0.00000000000E+00 -0.60721781315E+03  0.60721781316E+03  0.25500000920E-02 0. -1.
    10030    2    1    2    0    0  0.00000000000E+00  0.00000000000E+00 -0.27433083654E+03  0.94010478978E+03  0.89918830503E+03 0.  0.
        4    1    3    3  502    0 -0.18176951626E+03 -0.22973488096E+03  0.21940352089E+03  0.36600244596E+03  0.12699999809E+01 0. -1.
       -4    1    3    3    0  502  0.18176951626E+03  0.22973488096E+03 -0.49373435743E+03  0.57410234382E+03  0.12699999809E+01 0.  1.
</event>
<event>
 5   0  0.1440615E-02  0.9087847E+03  0.7818609E-02  0.9414666E-01
        2   -1    0    0  501    0  0.00000000000E+00  0.00000000000E+00  0.21834158258E+04  0.21834158258E+04  0.25500000920E-02 0. -1.
       -2   -1    0    0    0  501  0.00000000000E+00  0.00000000000E+00 -0.94563932222E+02  0.94563932256E+02  0.25500000920E-02 0.  1.
    10030    2    1    2    0    0  0.00000000000E+00  0.00000000000E+00  0.20888518936E+04  0.22779797581E+04  0.90878465261E+03 0.  0.
        3    1    3    3  502    0  0.31083259534E+03  0.27805907087E+03  0.14965821432E+04  0.15536060861E+04  0.10100000352E+00 0. -1.
       -3    1    3    3    0  502 -0.31083259534E+03 -0.27805907087E+03  0.59226975038E+03  0.72437367196E+03  0.10100000352E+00 0.  1.
</event>
<event>
 5   0  0.1441195E-02  0.8866697E+03  0.7818609E-02  0.9442400E-01
        2   -1    0    0  501    0  0.00000000000E+00  0.00000000000E+00  0.83175580598E+03  0.83175580599E+03  0.25500000920E-02 0.  1.
       -2   -1    0    0    0  501  0.00000000000E+00  0.00000000000E+00 -0.23630227795E+03  0.23630227796E+03  0.25500000920E-02 0. -1.
    10030    2    1    2    0    0  0.00000000000E+00  0.00000000000E+00  0.59545352803E+03  0.10680580839E+04  0.88666970549E+03 0.  0.
        5    1    3    3  502    0 -0.42108841695E+02 -0.39678138190E+03  0.65038113013E+02  0.40430269071E+03  0.46999998093E+01 0. -1.
       -5    1    3    3    0  502  0.42108841695E+02  0.39678138190E+03  0.53041541502E+03  0.66375539324E+03  0.46999998093E+01 0.  1.
</event>
<event>
 5   0  0.8612969E-03  0.8820237E+03  0.7818609E-02  0.9448336E-01
        1   -1    0    0  501    0  0.00000000000E+00  0.00000000000E+00  0.96761036607E+03  0.96761036609E+03  0.50400001928E-02 0. -1.
       -1   -1    0    0    0  501  0.00000000000E+00  0.00000000000E+00 -0.20100182174E+03  0.20100182180E+03  0.50400001928E-02 0.  1.
    10030    2    1    2    0    0  0.00000000000E+00  0.00000000000E+00  0.76660854433E+03  0.11686121879E+04  0.88202368757E+03 0.  0.
        4    1    3    3  502    0 -0.15783621039E+01  0.11333956388E+03  0.94797813409E+03  0.95473163956E+03  0.12699999809E+01 0. -1.
       -4    1    3    3    0  502  0.15783621039E+01 -0.11333956388E+03 -0.18136958975E+03  0.21388054833E+03  0.12699999809E+01 0.  1.
</event>
<event>
 5   0  0.8291252E-03  0.9375701E+03  0.7818609E-02  0.9379798E-01
       -1   -1    0    0    0  501  0.00000000000E+00  0.00000000000E+00  0.10813038828E+03  0.10813038840E+03  0.50400001928E-02 0. -1.
        1   -1    0    0  501    0  0.00000000000E+00  0.00000000000E+00 -0.20323559213E+04  0.20323559213E+04  0.50400001928E-02 0.  1.
    10030    2    1    2    0    0  0.00000000000E+00  0.00000000000E+00 -0.19242255331E+04  0.21404863097E+04  0.93757012543E+03 0.  0.
        1    1    3    3  502    0 -0.50948879302E+02  0.38829224652E+03 -0.15503724897E+04  0.15990689522E+04  0.50400001928E-02 0.  1.
       -1    1    3    3    0  502  0.50948879302E+02 -0.38829224652E+03 -0.37385304339E+03  0.54141735758E+03  0.50400001928E-02 0. -1.
</event>
<event>
 5   0  0.8524692E-03  0.8941200E+03  0.7818609E-02  0.9432962E-01
       -1   -1    0    0    0  501  0.00000000000E+00  0.00000000000E+00  0.36670095861E+03  0.36670095865E+03  0.50400001928E-02 0. -1.
        1   -1    0    0  501    0  0.00000000000E+00  0.00000000000E+00 -0.54502891069E+03  0.54502891071E+03  0.50400001928E-02 0.  1.
    10030    2    1    2    0    0  0.00000000000E+00  0.00000000000E+00 -0.17832795207E+03  0.91172986936E+03  0.89411995626E+03 0.  0.
        5    1    3    3  502    0  0.21808984218E+03 -0.73665555100E+02  0.30159455261E+03  0.37943531390E+03  0.46999998093E+01 0. -1.
       -5    1    3    3    0  502 -0.21808984218E+03  0.73665555100E+02 -0.47992250469E+03  0.53229455546E+03  0.46999998093E+01 0.  1.
</event>
<event>
 5   0  0.1454652E-02  0.8955553E+03  0.7818609E-02  0.9431155E-01
        2   -1    0    0  501    0  0.00000000000E+00  0.00000000000E+00  0.69512822669E+03  0.69512822670E+03  0.25500000920E-02 0.  1.
       -2   -1    0    0    0  501  0.00000000000E+00  0.00000000000E+00 -0.28844294887E+03  0.28844294888E+03  0.25500000920E-02 0. -1.
    10030    2    1    2    0    0  0.00000000000E+00  0.00000000000E+00  0.40668527782E+03  0.98357117558E+03  0.89555532617E+03 0.  0.
        4    1    3    3  502    0  0.31565794807E+03  0.13069946316E+03  0.52123930071E+03  0.62322893976E+03  0.12699999809E+01 0.  1.
       -4    1    3    3    0  502 -0.31565794807E+03 -0.13069946316E+03 -0.11455402289E+03  0.36034223581E+03  0.12699999809E+01 0. -1.
</event>
<event>
 5   0  0.1483326E-02  0.8968606E+03  0.7818609E-02  0.9429514E-01
       -2   -1    0    0    0  501  0.00000000000E+00  0.00000000000E+00  0.44949057804E+03  0.44949057804E+03  0.25500000920E-02 0. -1.
        2   -1    0    0  501    0  0.00000000000E+00  0.00000000000E+00 -0.44737250252E+03  0.44737250253E+03  0.25500000920E-02 0.  1.
    10030    2    1    2    0    0  0.00000000000E+00  0.00000000000E+00  0.21180755191E+01  0.89686308057E+03  0.89686057949E+03 0.  0.
        1    1    3    3  502    0 -0.10876680065E+03  0.13647937241E+03 -0.41201945407E+03  0.44745599401E+03  0.50400001928E-02 0.  1.
       -1    1    3    3    0  502  0.10876680065E+03 -0.13647937241E+03  0.41413752959E+03  0.44940708656E+03  0.50400001928E-02 0. -1.
</event>
<event>
 5   0  0.1441195E-02  0.8982611E+03  0.7818609E-02  0.9427758E-01
       -2   -1    0    0    0  501  0.00000000000E+00  0.00000000000E+00  0.49175007820E+03  0.49175007820E+03  0.25500000920E-02 0.  1.
        2   -1    0    0  501    0  0.00000000000E+00  0.00000000000E+00 -0.41020477565E+03  0.41020477566E+03  0.25500000920E-02 0. -1.
    10030    2    1    2    0    0  0.00000000000E+00  0.00000000000E+00  0.81545302546E+02  0.90195485387E+03  0.89826105451E+03 0.  0.
        5    1    3    3  502    0  0.32261913342E+03 -0.89846102908E+02  0.34123669220E+03  0.47814223570E+03  0.46999998093E+01 0.  1.
       -5    1    3    3    0  502 -0.32261913342E+03  0.89846102908E+02 -0.25969138965E+03  0.42381261817E+03  0.46999998093E+01 0. -1.
</event>
<event>
 5   0  0.1454652E-02  0.9092826E+03  0.7818609E-02  0.9414052E-01
        2   -1    0    0  501    0  0.00000000000E+00  0.00000000000E+00  0.40378099202E+03  0.40378099203E+03  0.25500000920E-02 0. -1.
       -2   -1    0    0    0  501  0.00000000000E+00  0.00000000000E+00 -0.51190795772E+03  0.51190795772E+03  0.25500000920E-02 0.  1.
    10030    2    1    2    0    0  0.00000000000E+00  0.00000000000E+00 -0.10812696570E+03  0.91568894975E+03  0.90928258093E+03 0.  0.
        4    1    3    3  502    0  0.12962519237E+03 -0.37708193271E+01  0.38475905002E+03  0.40602715309E+03  0.12699999809E+01 0. -1.
       -4    1    3    3    0  502 -0.12962519237E+03  0.37708193271E+01 -0.49288601572E+03  0.50966179666E+03  0.12699999809E+01 0.  1.
</event>
<event>
 5   0  0.1535906E-02  0.9021347E+03  0.7818609E-02  0.9422917E-01
        2   -1    0    0  501    0  0.00000000000E+00  0.00000000000E+00  0.12555330606E+04  0.12555330606E+04  0.25500000920E-02 0.  1.
       -2   -1    0    0    0  501  0.00000000000E+00  0.00000000000E+00 -0.16205208377E+03  0.16205208379E+03  0.25500000920E-02 0. -1.
    10030    2    1    2    0    0  0.00000000000E+00  0.00000000000E+00  0.10934809768E+04  0.14175851444E+04  0.90213468779E+03 0.  0.
        2    1    3    3  502    0 -0.34426890730E+03 -0.25126160304E+03  0.31468682502E+03  0.52979361222E+03  0.25500000920E-02 0. -1.
       -2    1    3    3    0  502  0.34426890730E+03  0.25126160304E+03  0.77879415182E+03  0.88779153218E+03  0.25500000920E-02 0.  1.
</event>
<event>
 5   0  0.1441195E-02  0.9346910E+03  0.7818609E-02  0.9383226E-01
        2   -1    0    0  501    0  0.00000000000E+00  0.00000000000E+00  0.19051980271E+04  0.19051980271E+04  0.25500000920E-02 0. -1.
       -2   -1    0    0    0  501  0.00000000000E+00  0.00000000000E+00 -0.11463995642E+03  0.11463995645E+03  0.25500000920E-02 0.  1.
    10030    2    1    2    0    0  0.00000000000E+00  0.00000000000E+00  0.17905580707E+04  0.20198379836E+04  0.93469100527E+03 0.  0.
        5    1    3    3  502    0  0.59577980405E+02 -0.72247212422E+02 -0.94106102819E+02  0.13284292995E+03  0.46999998093E+01 0.  1.
       -5    1    3    3    0  502 -0.59577980405E+02  0.72247212422E+02  0.18846641735E+04  0.18869950536E+04  0.46999998093E+01 0. -1.
</event>
<event>
 5   0  0.1441195E-02  0.9032530E+03  0.7818609E-02  0.9421524E-01
        2   -1    0    0  501    0  0.00000000000E+00  0.00000000000E+00  0.39343545670E+03  0.39343545671E+03  0.25500000920E-02 0.  1.
       -2   -1    0    0    0  501  0.00000000000E+00  0.00000000000E+00 -0.51842424064E+03  0.51842424065E+03  0.25500000920E-02 0. -1.
    10030    2    1    2    0    0  0.00000000000E+00  0.00000000000E+00 -0.12498878395E+03  0.91185969736E+03  0.90325296100E+03 0.  0.
        5    1    3    3  502    0  0.10686246467E+03 -0.19012826676E+03 -0.46170653027E+03  0.51064993319E+03  0.46999998093E+01 0. -1.
       -5    1    3    3    0  502 -0.10686246467E+03  0.19012826676E+03  0.33671774633E+03  0.40120976417E+03  0.46999998093E+01 0.  1.
</event>
<event>
 5   0  0.8885324E-03  0.9068307E+03  0.7818609E-02  0.9417083E-01
       -1   -1    0    0    0  501  0.00000000000E+00  0.00000000000E+00  0.24626652406E+03  0.24626652412E+03  0.50400001928E-02 0. -1.
        1   -1    0    0  501    0  0.00000000000E+00  0.00000000000E+00 -0.83480892955E+03  0.83480892957E+03  0.50400001928E-02 0.  1.
    10030    2    1    2    0    0  0.00000000000E+00  0.00000000000E+00 -0.58854240549E+03  0.10810754537E+04  0.90683073035E+03 0.  0.
        2    1    3    3  502    0  0.39363252968E+03 -0.48458562873E+02 -0.55624719558E+03  0.68315865166E+03  0.25500000920E-02 0.  1.
       -2    1    3    3    0  502 -0.39363252968E+03  0.48458562873E+02 -0.32295209905E+02  0.39791680202E+03  0.25500000920E-02 0. -1.
</event>
<event>
 5   0  0.8885324E-03  0.8899901E+03  0.7818609E-02  0.9438181E-01
        1   -1    0    0  501    0  0.00000000000E+00  0.00000000000E+00  0.37225020080E+03  0.37225020083E+03  0.50400001928E-02 0.  1.
       -1   -1    0    0    0  501  0.00000000000E+00  0.00000000000E+00 -0.53195566271E+03  0.53195566274E+03  0.50400001928E-02 0. -1.
    10030    2    1    2    0    0  0.00000000000E+00  0.00000000000E+00 -0.15970546192E+03  0.90420586357E+03  0.88999011744E+03 0.  0.
        2    1    3    3  502    0  0.35787735474E+03 -0.27053506978E+02  0.18743217328E+03  0.40489370564E+03  0.25500000920E-02 0.  1.
       -2    1    3    3    0  502 -0.35787735474E+03  0.27053506978E+02 -0.34713763520E+03  0.49931215793E+03  0.25500000920E-02 0. -1.
</event>
<event>
 5   0  0.5770125E-03  0.8975564E+03  0.7818609E-02  0.9428641E-01
       -4   -1    0    0    0  501  0.00000000000E+00  0.00000000000E+00  0.19839081538E+03  0.19839488029E+03  0.12699999809E+01 0. -1.
        4   -1    0    0  501    0  0.00000000000E+00  0.00000000000E+00 -0.10151626268E+04  0.10151634212E+04  0.12699999809E+01 0.  1.
    10030    2    1    2    0    0  0.00000000000E+00  0.00000000000E+00 -0.81677181144E+03  0.12135583015E+04  0.89755643790E+03 0.  0.
        4    1    3    3  502    0  0.23816213460E+03  0.29281097805E+03 -0.73663755221E+03  0.82770524189E+03  0.12699999809E+01 0.  1.
       -4    1    3    3    0  502 -0.23816213460E+03 -0.29281097805E+03 -0.80134259231E+02  0.38585305963E+03  0.12699999809E+01 0. -1.
</event>
<event>
 5   0  0.8738044E-03  0.8838290E+03  0.7818609E-02  0.9446025E-01
       -1   -1    0    0    0  501  0.00000000000E+00  0.00000000000E+00  0.89367305492E+02  0.89367305634E+02  0.50400001928E-02 0. -1.
        1   -1    0    0  501    0  0.00000000000E+00  0.00000000000E+00 -0.21852334452E+04  0.21852334452E+04  0.50400001928E-02 0.  1.
    10030    2    1    2    0    0  0.00000000000E+00  0.00000000000E+00 -0.20958661397E+04  0.22746007508E+04  0.88382899938E+03 0.  0.
        3    1    3    3  502    0 -0.88897418873E+02 -0.40634437925E+03 -0.14319904847E+04  0.14911791522E+04  0.10100000352E+00 0.  1.
       -3    1    3    3    0  502  0.88897418873E+02  0.40634437925E+03 -0.66387565502E+03  0.78342159861E+03  0.10100000352E+00 0. -1.
</event>
<event>
 5   0  0.1440615E-02  0.9356477E+03  0.7818609E-02  0.9382085E-01
        2   -1    0    0  501    0  0.00000000000E+00  0.00000000000E+00  0.21404357184E+04  0.21404357184E+04  0.25500000920E-02 0.  1.
       -2   -1    0    0    0  501  0.00000000000E+00  0.00000000000E+00 -0.10224980387E+03  0.10224980390E+03  0.25500000920E-02 0. -1.
    10030    2    1    2    0    0  0.00000000000E+00  0.00000000000E+00  0.20381859145E+04  0.22426855223E+04  0.93564765258E+03 0.  0.
        3    1    3    3  502    0 -0.34508871854E+02 -0.29393103675E+03  0.18875401803E+04  0.19106004970E+04  0.10100000352E+00 0.  1.
       -3    1    3    3    0  502  0.34508871854E+02  0.29393103675E+03  0.15064573421E+03  0.33208502531E+03  0.10100000352E+00 0. -1.
</event>
<event>
 5   0  0.8291252E-03  0.8904602E+03  0.7818609E-02  0.9437586E-01
        1   -1    0    0  501    0  0.00000000000E+00  0.00000000000E+00  0.52606500270E+03  0.52606500272E+03  0.50400001928E-02 0. -1.
       -1   -1    0    0    0  501  0.00000000000E+00  0.00000000000E+00 -0.37681623502E+03  0.37681623505E+03  0.50400001928E-02 0.  1.
    10030    2    1    2    0    0  0.00000000000E+00  0.00000000000E+00  0.14924876768E+03  0.90288123777E+03  0.89046018152E+03 0.  0.
        1    1    3    3  502    0 -0.26729290201E+03 -0.20188120905E+02 -0.28582954510E+03  0.39185658674E+03  0.50400001928E-02 0.  1.
       -1    1    3    3    0  502  0.26729290201E+03  0.20188120905E+02  0.43507831278E+03  0.51102465104E+03  0.50400001928E-02 0. -1.
</event>
<event>
 5   0  0.8885324E-03  0.7368560E+03  0.7818609E-02  0.9656200E-01
       -1   -1    0    0    0  501  0.00000000000E+00  0.00000000000E+00  0.41930299409E+03  0.41930299412E+03  0.50400001928E-02 0. -1.
        1   -1    0    0  501    0  0.00000000000E+00  0.00000000000E+00 -0.32372581245E+03  0.32372581249E+03  0.50400001928E-02 0.  1.
    10030    2    1    2    0    0  0.00000000000E+00  0.00000000000E+00  0.95577181635E+02  0.74302880661E+03  0.73685603058E+03 0.  0.
        2    1    3    3  502    0 -0.34013214290E+03 -0.92964917391E+01  0.19026234166E+03  0.38984106768E+03  0.25500000920E-02 0. -1.
       -2    1    3    3    0  502  0.34013214290E+03  0.92964917391E+01 -0.94685160029E+02  0.35318773893E+03  0.25500000920E-02 0.  1.
</event>
<event>
 5   0  0.8524692E-03  0.8900498E+03  0.7818609E-02  0.9438106E-01
       -1   -1    0    0    0  501  0.00000000000E+00  0.00000000000E+00  0.29410922639E+03  0.29410922643E+03  0.50400001928E-02 0.  1.
        1   -1    0    0  501    0  0.00000000000E+00  0.00000000000E+00 -0.67337963355E+03  0.67337963357E+03  0.50400001928E-02 0. -1.
    10030    2    1    2    0    0  0.00000000000E+00  0.00000000000E+00 -0.37927040716E+03  0.96748886000E+03  0.89004980337E+03 0.  0.
        5    1    3    3  502    0 -0.40701134567E+03  0.51225785189E+02 -0.21693072457E+01  0.41025493594E+03  0.46999998093E+01 0.  1.
       -5    1    3    3    0  502  0.40701134567E+03 -0.51225785189E+02 -0.37710109991E+03  0.55723392406E+03  0.46999998093E+01 0. -1.
</event>
<event>
 5   0  0.1535906E-02  0.8131843E+03  0.7818609E-02  0.9541127E-01
       -2   -1    0    0    0  501  0.00000000000E+00  0.00000000000E+00  0.45977686172E+03  0.45977686173E+03  0.25500000920E-02 0.  1.
        2   -1    0    0  501    0  0.00000000000E+00  0.00000000000E+00 -0.35955961123E+03  0.35955961124E+03  0.25500000920E-02 0. -1.
    10030    2    1    2    0    0  0.00000000000E+00  0.00000000000E+00  0.10021725049E+03  0.81933647297E+03  0.81318433251E+03 0.  0.
        2    1    3    3  502    0 -0.49353563011E+02 -0.34277920589E+03 -0.16453790101E+03  0.38341371786E+03  0.25500000920E-02 0. -1.
       -2    1    3    3    0  502  0.49353563011E+02  0.34277920589E+03  0.26475515150E+03  0.43592275511E+03  0.25500000920E-02 0.  1.
</event>
<event>
 5   0  0.1454652E-02  0.9164239E+03  0.7818609E-02  0.9405281E-01
        2   -1    0    0  501    0  0.00000000000E+00  0.00000000000E+00  0.81531492031E+03  0.81531492031E+03  0.25500000920E-02 0.  1.
       -2   -1    0    0    0  501  0.00000000000E+00  0.00000000000E+00 -0.25751789117E+03  0.25751789118E+03  0.25500000920E-02 0. -1.
    10030    2    1    2    0    0  0.00000000000E+00  0.00000000000E+00  0.55779702914E+03  0.10728328115E+04  0.91642387338E+03 0.  0.
        4    1    3    3  502    0  0.21344787247E+03 -0.60807456232E+02  0.74818956719E+03  0.78041449394E+03  0.12699999809E+01 0.  1.
       -4    1    3    3    0  502 -0.21344787247E+03  0.60807456232E+02 -0.19039253805E+03  0.29241831755E+03  0.12699999809E+01 0. -1.
</event>
<event>
 5   0  0.8738044E-03  0.9016931E+03  0.7818609E-02  0.9423467E-01
        1   -1    0    0  501    0  0.00000000000E+00  0.00000000000E+00  0.47576641744E+03  0.47576641747E+03  0.50400001928E-02 0.  1.
       -1   -1    0    0    0  501  0.00000000000E+00  0.00000000000E+00 -0.42723197645E+03  0.42723197648E+03  0.50400001928E-02 0. -1.
    10030    2    1    2    0    0  0.00000000000E+00  0.00000000000E+00  0.48534440990E+02  0.90299839396E+03  0.90169313379E+03 0.  0.
        3    1    3    3  502    0  0.33944412609E+03 -0.38531803993E+02 -0.27036199269E+03  0.43566343884E+03  0.10100000352E+00 0. -1.
       -3    1    3    3    0  502 -0.33944412609E+03  0.38531803993E+02  0.31889643368E+03  0.46733495511E+03  0.10100000352E+00 0.  1.
</event>
<event>
 5   0  0.1535906E-02  0.8498638E+03  0.7818609E-02  0.9490520E-01
       -2   -1    0    0    0  501  0.00000000000E+00  0.00000000000E+00  0.93599478988E+02  0.93599479023E+02  0.25500000920E-02 0.  1.
        2   -1    0    0  501    0  0.00000000000E+00  0.00000000000E+00 -0.19291464860E+04  0.19291464860E+04  0.25500000920E-02 0. -1.
    10030    2    1    2    0    0  0.00000000000E+00  0.00000000000E+00 -0.18355470070E+04  0.20227459650E+04  0.84986376794E+03 0.  0.
        2    1    3    3  502    0  0.24685161011E+03  0.68589102881E+02 -0.17246422984E+04  0.17435685360E+04  0.25500000920E-02 0. -1.
       -2    1    3    3    0  502 -0.24685161011E+03 -0.68589102881E+02 -0.11090470860E+03  0.27917742896E+03  0.25500000920E-02 0.  1.
</event>
<event>
 5   0  0.8524692E-03  0.9021565E+03  0.7818609E-02  0.9422890E-01
        1   -1    0    0  501    0  0.00000000000E+00  0.00000000000E+00  0.68616785135E+03  0.68616785137E+03  0.50400001928E-02 0.  1.
       -1   -1    0    0    0  501  0.00000000000E+00  0.00000000000E+00 -0.29653326209E+03  0.29653326213E+03  0.50400001928E-02 0. -1.
    10030    2    1    2    0    0  0.00000000000E+00  0.00000000000E+00  0.38963458926E+03  0.98270111351E+03  0.90215650823E+03 0.  0.
        5    1    3    3  502    0  0.11081780949E+03  0.84113225641E+02  0.66218557797E+03  0.67665903622E+03  0.46999998093E+01 0.  1.
       -5    1    3    3    0  502 -0.11081780949E+03 -0.84113225641E+02 -0.27255098871E+03  0.30604207729E+03  0.46999998093E+01 0. -1.
</event>
<event>
 5   0  0.5770125E-03  0.8837382E+03  0.7818609E-02  0.9446141E-01
        3   -1    0    0  501    0  0.00000000000E+00  0.00000000000E+00  0.42122461999E+03  0.42122463210E+03  0.10100000352E+00 0.  1.
       -3   -1    0    0    0  501  0.00000000000E+00  0.00000000000E+00 -0.46352534301E+03  0.46352535401E+03  0.10100000352E+00 0. -1.
    10030    2    1    2    0    0  0.00000000000E+00  0.00000000000E+00 -0.42300723019E+02  0.88474998611E+03  0.88373818903E+03 0.  0.
        2    1    3    3  502    0 -0.48039887601E+02 -0.43580961812E+03 -0.76080680389E+02  0.44500126289E+03  0.25500000920E-02 0. -1.
       -2    1    3    3    0  502  0.48039887601E+02  0.43580961812E+03  0.33779957370E+02  0.43974872321E+03  0.25500000920E-02 0.  1.
</event>
<event>
 5   0  0.8612969E-03  0.8977902E+03  0.7818609E-02  0.9428348E-01
       -1   -1    0    0    0  501  0.00000000000E+00  0.00000000000E+00  0.54023956540E+03  0.54023956543E+03  0.50400001928E-02 0.  1.
        1   -1    0    0  501    0  0.00000000000E+00  0.00000000000E+00 -0.37299528764E+03  0.37299528767E+03  0.50400001928E-02 0. -1.
    10030    2    1    2    0    0  0.00000000000E+00  0.00000000000E+00  0.16724427776E+03  0.91323485310E+03  0.89779020293E+03 0.  0.
        4    1    3    3  502    0 -0.34904542674E+03  0.87985673895E+02 -0.18919126010E+03  0.40665603959E+03  0.12699999809E+01 0. -1.
       -4    1    3    3    0  502  0.34904542674E+03 -0.87985673895E+02  0.35643553787E+03  0.50657881351E+03  0.12699999809E+01 0.  1.
</event>
<event>
 5   0  0.8885324E-03  0.9053403E+03  0.7818609E-02  0.9418930E-01
        1   -1    0    0  501    0  0.00000000000E+00  0.00000000000E+00  0.67392069084E+03  0.67392069086E+03  0.50400001928E-02 0.  1.
       -1   -1    0    0    0  501  0.00000000000E+00  0.00000000000E+00 -0.30405695028E+03  0.30405695032E+03  0.50400001928E-02 0. -1.
    10030    2    1    2    0    0  0.00000000000E+00  0.00000000000E+00  0.36986374055E+03  0.97797764118E+03  0.90534031175E+03 0.  0.
        2    1    3    3  502    0  0.40812939432E+03  0.11842329444E+03  0.35338086015E+03  0.55269495339E+03  0.25500000920E-02 0.  1.
       -2    1    3    3    0  502 -0.40812939432E+03 -0.11842329444E+03  0.16482880401E+02  0.42528268779E+03  0.25500000920E-02 0. -1.
</event>
<event>
 5   0  0.8524692E-03  0.8955200E+03  0.7818609E-02  0.9431199E-01
       -1   -1    0    0    0  501  0.00000000000E+00  0.00000000000E+00  0.37118435722E+03  0.37118435726E+03  0.50400001928E-02 0.  1.
        1   -1    0    0  501    0  0.00000000000E+00  0.00000000000E+00 -0.54013322780E+03  0.54013322782E+03  0.50400001928E-02 0. -1.
    10030    2    1    2    0    0  0.00000000000E+00  0.00000000000E+00 -0.16894887057E+03  0.91131758508E+03  0.89551997186E+03 0.  0.
        5    1    3    3  502    0  0.15227819551E+03  0.38131476774E+03 -0.26616623862E+03  0.48934257684E+03  0.46999998093E+01 0.  1.
       -5    1    3    3    0  502 -0.15227819551E+03 -0.38131476774E+03  0.97217368048E+02  0.42197500824E+03  0.46999998093E+01 0. -1.
</event>
<event>
 5   0  0.8291252E-03  0.8964613E+03  0.7818609E-02  0.9430016E-01
       -1   -1    0    0    0  501  0.00000000000E+00  0.00000000000E+00  0.54577028568E+03  0.54577028570E+03  0.50400001928E-02 0.  1.
        1   -1    0    0  501    0  0.00000000000E+00  0.00000000000E+00 -0.36812320092E+03  0.36812320095E+03  0.50400001928E-02 0. -1.
    10030    2    1    2    0    0  0.00000000000E+00  0.00000000000E+00  0.17764708476E+03  0.91389348665E+03  0.89646127536E+03 0.  0.
        1    1    3    3  502    0 -0.38390007041E+03 -0.89943867241E+02 -0.12849189309E+03  0.41470390634E+03  0.50400001928E-02 0.  1.
       -1    1    3    3    0  502  0.38390007041E+03  0.89943867241E+02  0.30613897785E+03  0.49918958032E+03  0.50400001928E-02 0. -1.
</event>
<event>
 5   0  0.1440615E-02  0.9051211E+03  0.7818609E-02  0.9419202E-01
       -2   -1    0    0    0  501  0.00000000000E+00  0.00000000000E+00  0.43009228675E+03  0.43009228676E+03  0.25500000920E-02 0.  1.
        2   -1    0    0  501    0  0.00000000000E+00  0.00000000000E+00 -0.47620261441E+03  0.47620261441E+03  0.25500000920E-02 0. -1.
    10030    2    1    2    0    0  0.00000000000E+00  0.00000000000E+00 -0.46110327653E+02  0.90629490118E+03  0.90512114415E+03 0.  0.
        3    1    3    3  502    0 -0.39650599900E+03  0.59416842017E+02 -0.23324091532E+03  0.46384124778E+03  0.10100000352E+00 0. -1.
       -3    1    3    3    0  502  0.39650599900E+03 -0.59416842017E+02  0.18713058767E+03  0.44245365340E+03  0.10100000352E+00 0.  1.
</event>
<event>
 5   0  0.1440615E-02  0.9055532E+03  0.7818609E-02  0.9418666E-01
        2   -1    0    0  501    0  0.00000000000E+00  0.00000000000E+00  0.11176762674E+04  0.11176762674E+04  0.25500000920E-02 0. -1.
       -2   -1    0    0    0  501  0.00000000000E+00  0.00000000000E+00 -0.18342221878E+03  0.18342221880E+03  0.25500000920E-02 0.  1.
    10030    2    1    2    0    0  0.00000000000E+00  0.00000000000E+00  0.93425404861E+03  0.13010984862E+04  0.90555322506E+03 0.  0.
        3    1    3    3  502    0  0.36336361329E+03  0.26671698841E+03  0.52868484504E+03  0.69475084955E+03  0.10100000352E+00 0. -1.
       -3    1    3    3    0  502 -0.36336361329E+03 -0.26671698841E+03  0.40556920357E+03  0.60634763664E+03  0.10100000352E+00 0.  1.
</event>
<event>
 5   0  0.8524692E-03  0.8803159E+03  0.7818609E-02  0.9450528E-01
       -1   -1    0    0    0  501  0.00000000000E+00  0.00000000000E+00  0.13945316013E+03  0.13945316022E+03  0.50400001928E-02 0.  1.
        1   -1    0    0  501    0  0.00000000000E+00  0.00000000000E+00 -0.13892766531E+04  0.13892766531E+04  0.50400001928E-02 0. -1.
    10030    2    1    2    0    0  0.00000000000E+00  0.00000000000E+00 -0.12498234929E+04  0.15287298133E+04  0.88031589705E+03 0.  0.
        5    1    3    3  502    0 -0.66909537028E+02 -0.12684861606E+03  0.97696272311E+02  0.17359178887E+03  0.46999998093E+01 0.  1.
       -5    1    3    3    0  502  0.66909537028E+02  0.12684861606E+03 -0.13475197653E+04  0.13551380244E+04  0.46999998093E+01 0. -1.
</event>
<event>
 5   0  0.8738044E-03  0.8992422E+03  0.7818609E-02  0.9426529E-01
        1   -1    0    0  501    0  0.00000000000E+00  0.00000000000E+00  0.58899657607E+03  0.58899657609E+03  0.50400001928E-02 0.  1.
       -1   -1    0    0    0  501  0.00000000000E+00  0.00000000000E+00 -0.34322630111E+03  0.34322630114E+03  0.50400001928E-02 0. -1.
    10030    2    1    2    0    0  0.00000000000E+00  0.00000000000E+00  0.24577027497E+03  0.93222287723E+03  0.89924216137E+03 0.  0.
        3    1    3    3  502    0  0.24778305562E+02 -0.25323243437E+03  0.50718095625E+03  0.56742679072E+03  0.10100000352E+00 0.  1.
       -3    1    3    3    0  502 -0.24778305562E+02  0.25323243437E+03 -0.26141068129E+03  0.36479608651E+03  0.10100000352E+00 0. -1.
</event>
<event>
 5   0  0.8738044E-03  0.8839403E+03  0.7818609E-02  0.9445883E-01
       -1   -1    0    0    0  501  0.00000000000E+00  0.00000000000E+00  0.43563459812E+03  0.43563459815E+03  0.50400001928E-02 0. -1.
        1   -1    0    0  501    0  0.00000000000E+00  0.00000000000E+00 -0.44839784755E+03  0.44839784758E+03  0.50400001928E-02 0.  1.
    10030    2    1    2    0    0  0.00000000000E+00  0.00000000000E+00 -0.12763249433E+02  0.88403244572E+03  0.88394030599E+03 0.  0.
        3    1    3    3  502    0 -0.14795164432E+03  0.45447618267E+02  0.40764513974E+03  0.43603869693E+03  0.10100000352E+00 0. -1.
       -3    1    3    3    0  502  0.14795164432E+03 -0.45447618267E+02 -0.42040838918E+03  0.44799374879E+03  0.10100000352E+00 0.  1.
</event>
<event>
 5   0  0.1535906E-02  0.8994846E+03  0.7818609E-02  0.9426226E-01
        2   -1    0    0  501    0  0.00000000000E+00  0.00000000000E+00  0.57479934553E+03  0.57479934553E+03  0.25500000920E-02 0.  1.
       -2   -1    0    0    0  501  0.00000000000E+00  0.00000000000E+00 -0.35189346133E+03  0.35189346134E+03  0.25500000920E-02 0. -1.
    10030    2    1    2    0    0  0.00000000000E+00  0.00000000000E+00  0.22290588420E+03  0.92669280687E+03  0.89948458858E+03 0.  0.
        2    1    3    3  502    0 -0.23796446282E+03  0.16197960471E+03 -0.24454777498E+03  0.37771429965E+03  0.25500000920E-02 0. -1.
       -2    1    3    3    0  502  0.23796446282E+03 -0.16197960471E+03  0.46745365918E+03  0.54897850722E+03  0.25500000920E-02 0.  1.
</event>
<event>
 5   0  0.1535906E-02  0.9115556E+03  0.7818609E-02  0.9411251E-01
        2   -1    0    0  501    0  0.00000000000E+00  0.00000000000E+00  0.14324598728E+04  0.14324598728E+04  0.25500000920E-02 0. -1.
       -2   -1    0    0    0  501  0.00000000000E+00  0.00000000000E+00 -0.14501865089E+03  0.14501865091E+03  0.25500000920E-02 0.  1.
    10030    2    1    2    0    0  0.00000000000E+00  0.00000000000E+00  0.12874412219E+04  0.15774785237E+04  0.91155558960E+03 0.  0.
        2    1    3    3  502    0 -0.83071964901E+02 -0.31393198754E+03  0.90276385357E+02  0.33705202850E+03  0.25500000920E-02 0.  1.
       -2    1    3    3    0  502  0.83071964901E+02  0.31393198754E+03  0.11971648366E+04  0.12404264952E+04  0.25500000920E-02 0. -1.
</event>
<event>
 5   0  0.8612969E-03  0.8953736E+03  0.7818609E-02  0.9431383E-01
        1   -1    0    0  501    0  0.00000000000E+00  0.00000000000E+00  0.17792772871E+04  0.17792772871E+04  0.50400001928E-02 0. -1.
       -1   -1    0    0    0  501  0.00000000000E+00  0.00000000000E+00 -0.11264317944E+03  0.11264317956E+03  0.50400001928E-02 0.  1.
    10030    2    1    2    0    0  0.00000000000E+00  0.00000000000E+00  0.16666341077E+04  0.18919204667E+04  0.89537355521E+03 0.  0.
        4    1    3    3  502    0 -0.39708756520E+01 -0.15298703815E+03  0.17222858489E+04  0.17290722831E+04  0.12699999809E+01 0. -1.
       -4    1    3    3    0  502  0.39708756520E+01  0.15298703815E+03 -0.55651741284E+02  0.16284818360E+03  0.12699999809E+01 0.  1.
</event>
<event>
 5   0  0.1483326E-02  0.9062677E+03  0.7818609E-02  0.9417780E-01
        2   -1    0    0  501    0  0.00000000000E+00  0.00000000000E+00  0.16964672548E+04  0.16964672548E+04  0.25500000920E-02 0.  1.
       -2   -1    0    0    0  501  0.00000000000E+00  0.00000000000E+00 -0.12103402755E+03  0.12103402757E+03  0.25500000920E-02 0. -1.
    10030    2    1    2    0    0  0.00000000000E+00  0.00000000000E+00  0.15754332273E+04  0.18175012824E+04  0.90626765247E+03 0.  0.
        1    1    3    3  502    0 -0.43359377122E+02  0.14806304159E+03 -0.66739059416E+02  0.16809759649E+03  0.50400001928E-02 0. -1.
       -1    1    3    3    0  502  0.43359377122E+02 -0.14806304159E+03  0.16421722867E+04  0.16494036859E+04  0.50400001928E-02 0.  1.
</event>
<event>
 5   0  0.5770125E-03  0.8950534E+03  0.7818609E-02  0.9431786E-01
       -3   -1    0    0    0  501  0.00000000000E+00  0.00000000000E+00  0.32540076427E+03  0.32540077995E+03  0.10100000352E+00 0. -1.
        3   -1    0    0  501    0  0.00000000000E+00  0.00000000000E+00 -0.61548756331E+03  0.61548757160E+03  0.10100000352E+00 0.  1.
    10030    2    1    2    0    0  0.00000000000E+00  0.00000000000E+00 -0.29008679904E+03  0.94088835155E+03  0.89505337221E+03 0.  0.
        2    1    3    3  502    0 -0.21440818502E+03  0.15201715041E+03 -0.52580764505E+03  0.58783821194E+03  0.25500000920E-02 0.  1.
       -2    1    3    3    0  502  0.21440818502E+03 -0.15201715041E+03  0.23572084601E+03  0.35305013960E+03  0.25500000920E-02 0. -1.
</event>
<event>
 5   0  0.1441195E-02  0.9001635E+03  0.7818609E-02  0.9425377E-01
       -2   -1    0    0    0  501  0.00000000000E+00  0.00000000000E+00  0.81086469348E+02  0.81086469388E+02  0.25500000920E-02 0. -1.
        2   -1    0    0  501    0  0.00000000000E+00  0.00000000000E+00 -0.24982417540E+04  0.24982417540E+04  0.25500000920E-02 0.  1.
    10030    2    1    2    0    0  0.00000000000E+00  0.00000000000E+00 -0.24171552847E+04  0.25793282234E+04  0.90016354839E+03 0.  0.
        5    1    3    3  502    0 -0.10773660311E+03  0.29564385433E+03 -0.28656415478E+03  0.42562139169E+03  0.46999998093E+01 0. -1.
       -5    1    3    3    0  502  0.10773660311E+03 -0.29564385433E+03 -0.21305911299E+04  0.21537068317E+04  0.46999998093E+01 0.  1.
</event>
<event>
 5   0  0.1441195E-02  0.9002807E+03  0.7818609E-02  0.9425231E-01
        2   -1    0    0  501    0  0.00000000000E+00  0.00000000000E+00  0.51238651530E+03  0.51238651530E+03  0.25500000920E-02 0.  1.
       -2   -1    0    0    0  501  0.00000000000E+00  0.00000000000E+00 -0.39545602555E+03  0.39545602555E+03  0.25500000920E-02 0. -1.
    10030    2    1    2    0    0  0.00000000000E+00  0.00000000000E+00  0.11693048975E+03  0.90784254086E+03  0.90028070043E+03 0.  0.
        5    1    3    3  502    0 -0.39928335946E+03  0.10995376975E+03 -0.11933136621E+03  0.43102099436E+03  0.46999998093E+01 0. -1.
       -5    1    3    3    0  502  0.39928335946E+03 -0.10995376975E+03  0.23626185596E+03  0.47682154650E+03  0.46999998093E+01 0.  1.
</event>
<event>
 5   0  0.5770125E-03  0.8665857E+03  0.7818609E-02  0.9468343E-01
       -3   -1    0    0    0  501  0.00000000000E+00  0.00000000000E+00  0.80860097217E+03  0.80860097848E+03  0.10100000352E+00 0. -1.
        3   -1    0    0  501    0  0.00000000000E+00  0.00000000000E+00 -0.23218211165E+03  0.23218213361E+03  0.10100000352E+00 0.  1.
    10030    2    1    2    0    0  0.00000000000E+00  0.00000000000E+00  0.57641886052E+03  0.10407831121E+04  0.86658570473E+03 0.  0.
        5    1    3    3  502    0  0.12029614840E+03 -0.21390251930E+03  0.71704969597E+03  0.75789696369E+03  0.46999998093E+01 0. -1.
       -5    1    3    3    0  502 -0.12029614840E+03  0.21390251930E+03 -0.14063083544E+03  0.28288614840E+03  0.46999998093E+01 0.  1.
</event>
<event>
 5   0  0.1535906E-02  0.9113082E+03  0.7818609E-02  0.9411555E-01
        2   -1    0    0  501    0  0.00000000000E+00  0.00000000000E+00  0.88935316026E+03  0.88935316026E+03  0.25500000920E-02 0. -1.
       -2   -1    0    0    0  501  0.00000000000E+00  0.00000000000E+00 -0.23345128661E+03  0.23345128663E+03  0.25500000920E-02 0.  1.
    10030    2    1    2    0    0  0.00000000000E+00  0.00000000000E+00  0.65590187365E+03  0.11228044469E+04  0.91130815760E+03 0.  0.
        2    1    3    3  502    0  0.37167581805E+03 -0.76880848072E+02  0.17312685821E+02  0.37993855769E+03  0.25500000920E-02 0.  1.
       -2    1    3    3    0  502 -0.37167581805E+03  0.76880848072E+02  0.63858918783E+03  0.74286588920E+03  0.25500000920E-02 0. -1.
</event>
<event>
 5   0  0.8524692E-03  0.9240828E+03  0.7818609E-02  0.9395968E-01
       -1   -1    0    0    0  501  0.00000000000E+00  0.00000000000E+00  0.54356053509E+03  0.54356053511E+03  0.50400001928E-02 0. -1.
        1   -1    0    0  501    0  0.00000000000E+00  0.00000000000E+00 -0.39274786733E+03  0.39274786736E+03  0.50400001928E-02 0.  1.
    10030    2    1    2    0    0  0.00000000000E+00  0.00000000000E+00  0.15081266776E+03  0.93630840247E+03  0.92408276890E+03 0.  0.
        5    1    3    3  502    0 -0.34588630214E+03 -0.22095896626E+03 -0.13953209732E+03  0.43353372990E+03  0.46999998093E+01 0.  1.
       -5    1    3    3    0  502  0.34588630214E+03  0.22095896626E+03  0.29034476507E+03  0.50277467257E+03  0.46999998093E+01 0. -1.
</event>
<event>
 5   0  0.1440615E-02  0.8902129E+03  0.7818609E-02  0.9437899E-01
       -2   -1    0    0    0  501  0.00000000000E+00  0.00000000000E+00  0.75388717965E+03  0.75388717965E+03  0.25500000920E-02 0. -1.
        2   -1    0    0  501    0  0.00000000000E+00  0.00000000000E+00 -0.26279762516E+03  0.26279762517E+03  0.25500000920E-02 0.  1.
    10030    2    1    2    0    0  0.00000000000E+00  0.00000000000E+00  0.49108955448E+03  0.10166848048E+04  0.89021291938E+03 0.  0.
        3    1    3    3  502    0  0.12922991318E+03 -0.16989744195E+03  0.69161638335E+03  0.72380849896E+03  0.10100000352E+00 0. -1.
       -3    1    3    3    0  502 -0.12922991318E+03  0.16989744195E+03 -0.20052682887E+03  0.29287630587E+03  0.10100000352E+00 0.  1.
</event>
<event>
 5   0  0.8738044E-03  0.8730578E+03  0.7818609E-02  0.9459902E-01
        1   -1    0    0  501    0  0.00000000000E+00  0.00000000000E+00  0.96575796518E+03  0.96575796519E+03  0.50400001928E-02 0.  1.
       -1   -1    0    0    0  501  0.00000000000E+00  0.00000000000E+00 -0.19731390703E+03  0.19731390709E+03  0.50400001928E-02 0. -1.
    10030    2    1    2    0    0  0.00000000000E+00  0.00000000000E+00  0.76844405815E+03  0.11630718723E+04  0.87305779281E+03 0.  0.
        3    1    3    3  502    0  0.15915968759E+03  0.17288627552E+03  0.87430568893E+03  0.90533525189E+03  0.10100000352E+00 0.  1.
       -3    1    3    3    0  502 -0.15915968759E+03 -0.17288627552E+03 -0.10586163078E+03  0.25773662039E+03  0.10100000352E+00 0. -1.
</event>
<event>
 5   0  0.1454652E-02  0.8971809E+03  0.7818609E-02  0.9429112E-01
        2   -1    0    0  501    0  0.00000000000E+00  0.00000000000E+00  0.12659168888E+04  0.12659168888E+04  0.25500000920E-02 0.  1.
       -2   -1    0    0    0  501  0.00000000000E+00  0.00000000000E+00 -0.15896256279E+03  0.15896256281E+03  0.25500000920E-02 0. -1.
    10030    2    1    2    0    0  0.00000000000E+00  0.00000000000E+00  0.11069543260E+04  0.14248794516E+04  0.89718090248E+03 0.  0.
        4    1    3    3  502    0 -0.87745914014E+02  0.41188933302E+03  0.79889817106E+03  0.90310136125E+03  0.12699999809E+01 0.  1.
       -4    1    3    3    0  502  0.87745914014E+02 -0.41188933302E+03  0.30805615499E+03  0.52177809039E+03  0.12699999809E+01 0. -1.
</event>
<event>
 5   0  0.8885324E-03  0.9197688E+03  0.7818609E-02  0.9401201E-01
       -1   -1    0    0    0  501  0.00000000000E+00  0.00000000000E+00  0.20652709708E+03  0.20652709714E+03  0.50400001928E-02 0. -1.
        1   -1    0    0  501    0  0.00000000000E+00  0.00000000000E+00 -0.10240480646E+04  0.10240480646E+04  0.50400001928E-02 0.  1.
    10030    2    1    2    0    0  0.00000000000E+00  0.00000000000E+00 -0.81752096753E+03  0.12305751618E+04  0.91976882769E+03 0.  0.
        2    1    3    3  502    0 -0.21954448420E+03  0.17584874058E+03 -0.89553302323E+03  0.93867031263E+03  0.25500000920E-02 0.  1.
       -2    1    3    3    0  502  0.21954448420E+03 -0.17584874058E+03  0.78012055700E+02  0.29190484913E+03  0.25500000920E-02 0. -1.
</event>
<event>
 5   0  0.8291252E-03  0.9768933E+03  0.7818609E-02  0.9334257E-01
        1   -1    0    0  501    0  0.00000000000E+00  0.00000000000E+00  0.57485522305E+03  0.57485522307E+03  0.50400001928E-02 0.  1.
       -1   -1    0    0    0  501  0.00000000000E+00  0.00000000000E+00 -0.41502642177E+03  0.41502642180E+03  0.50400001928E-02 0. -1.
    10030    2    1    2    0    0  0.00000000000E+00  0.00000000000E+00  0.15982880128E+03  0.98988164487E+03  0.97689325165E+03 0.  0.
        1    1    3    3  502    0 -0.37275138659E+03  0.67616988246E+02 -0.23251021088E+03  0.44449595217E+03  0.50400001928E-02 0. -1.
       -1    1    3    3    0  502  0.37275138659E+03 -0.67616988246E+02  0.39233901217E+03  0.54538569270E+03  0.50400001928E-02 0.  1.
</event>
<event>
 5   0  0.1441195E-02  0.8634362E+03  0.7818609E-02  0.9472479E-01
       -2   -1    0    0    0  501  0.00000000000E+00  0.00000000000E+00  0.14175819731E+03  0.14175819733E+03  0.25500000920E-02 0. -1.
        2   -1    0    0  501    0  0.00000000000E+00  0.00000000000E+00 -0.13147776224E+04  0.13147776225E+04  0.25500000920E-02 0.  1.
    10030    2    1    2    0    0  0.00000000000E+00  0.00000000000E+00 -0.11730194251E+04  0.14565358198E+04  0.86343617168E+03 0.  0.
        5    1    3    3  502    0  0.54835648753E+01 -0.20819120922E+03 -0.12243850577E+04  0.12419800758E+04  0.46999998093E+01 0.  1.
       -5    1    3    3    0  502 -0.54835648753E+01  0.20819120922E+03  0.51365632574E+02  0.21455574401E+03  0.46999998093E+01 0. -1.
</event>
<event>
 5   0  0.8524692E-03  0.9020015E+03  0.7818609E-02  0.9423083E-01
       -1   -1    0    0    0  501  0.00000000000E+00  0.00000000000E+00  0.11316773202E+03  0.11316773213E+03  0.50400001928E-02 0.  1.
        1   -1    0    0  501    0  0.00000000000E+00  0.00000000000E+00 -0.17973470459E+04  0.17973470459E+04  0.50400001928E-02 0. -1.
    10030    2    1    2    0    0  0.00000000000E+00  0.00000000000E+00 -0.16841793139E+04  0.19105147781E+04  0.90200152760E+03 0.  0.
        5    1    3    3  502    0  0.17680671425E+03 -0.82650647316E+01  0.36470121321E+02  0.18077910622E+03  0.46999998093E+01 0.  1.
       -5    1    3    3    0  502 -0.17680671425E+03  0.82650647316E+01 -0.17206494352E+04  0.17297356718E+04  0.46999998093E+01 0. -1.
</event>
<event>
 5   0  0.1440615E-02  0.8433786E+03  0.7818609E-02  0.9499267E-01
        2   -1    0    0  501    0  0.00000000000E+00  0.00000000000E+00  0.77879723766E+03  0.77879723767E+03  0.25500000920E-02 0. -1.
       -2   -1    0    0    0  501  0.00000000000E+00  0.00000000000E+00 -0.22832885733E+03  0.22832885735E+03  0.25500000920E-02 0.  1.
    10030    2    1    2    0    0  0.00000000000E+00  0.00000000000E+00  0.55046838033E+03  0.10071260950E+04  0.84337864184E+03 0.  0.
        3    1    3    3  502    0 -0.31017608089E+03 -0.94337977277E+02  0.59724269018E+03  0.67956434301E+03  0.10100000352E+00 0. -1.
       -3    1    3    3    0  502  0.31017608089E+03  0.94337977277E+02 -0.46774309853E+02  0.32756175201E+03  0.10100000352E+00 0.  1.
</event>
<event>
 5   0  0.1483326E-02  0.8976632E+03  0.7818609E-02  0.9428507E-01
       -2   -1    0    0    0  501  0.00000000000E+00  0.00000000000E+00  0.19406303762E+03  0.19406303764E+03  0.25500000920E-02 0. -1.
        2   -1    0    0  501    0  0.00000000000E+00  0.00000000000E+00 -0.10380637250E+04  0.10380637250E+04  0.25500000920E-02 0.  1.
    10030    2    1    2    0    0  0.00000000000E+00  0.00000000000E+00 -0.84400068742E+03  0.12321267627E+04  0.89766318792E+03 0.  0.
        1    1    3    3  502    0  0.55250521253E+02 -0.15164243714E+03 -0.99685616989E+03  0.10098367553E+04  0.50400001928E-02 0.  1.
       -1    1    3    3    0  502 -0.55250521253E+02  0.15164243714E+03  0.15285548248E+03  0.22229000740E+03  0.50400001928E-02 0. -1.
</event>
<event>
 5   0  0.8885324E-03  0.8873244E+03  0.7818609E-02  0.9441567E-01
        1   -1    0    0  501    0  0.00000000000E+00  0.00000000000E+00  0.19592319421E+04  0.19592319421E+04  0.50400001928E-02 0. -1.
       -1   -1    0    0    0  501  0.00000000000E+00  0.00000000000E+00 -0.10046598533E+03  0.10046598545E+03  0.50400001928E-02 0.  1.
    10030    2    1    2    0    0  0.00000000000E+00  0.00000000000E+00  0.18587659568E+04  0.20596979276E+04  0.88732444503E+03 0.  0.
        2    1    3    3  502    0  0.57720926321E+02 -0.10782999752E+03 -0.60559957128E+02  0.13647901712E+03  0.25500000920E-02 0.  1.
       -2    1    3    3    0  502 -0.57720926321E+02  0.10782999752E+03  0.19193259139E+04  0.19232189105E+04  0.25500000920E-02 0. -1.
</event>
<event>
 5   0  0.8885324E-03  0.8997779E+03  0.7818609E-02  0.9425859E-01
       -1   -1    0    0    0  501  0.00000000000E+00  0.00000000000E+00  0.37122692016E+03  0.37122692019E+03  0.50400001928E-02 0.  1.
        1   -1    0    0  501    0  0.00000000000E+00  0.00000000000E+00 -0.54521928412E+03  0.54521928414E+03  0.50400001928E-02 0. -1.
    10030    2    1    2    0    0  0.00000000000E+00  0.00000000000E+00 -0.17399236396E+03  0.91644620433E+03  0.89977791855E+03 0.  0.
        2    1    3    3  502    0  0.38965078261E+03  0.18590017861E+03 -0.21588472928E+03  0.48269330339E+03  0.25500000920E-02 0. -1.
       -2    1    3    3    0  502 -0.38965078261E+03 -0.18590017861E+03  0.41892365323E+02  0.43375290094E+03  0.25500000920E-02 0.  1.
</event>
<event>
 5   0  0.1440615E-02  0.8931311E+03  0.7818609E-02  0.9434209E-01
        2   -1    0    0  501    0  0.00000000000E+00  0.00000000000E+00  0.30502466939E+03  0.30502466940E+03  0.25500000920E-02 0. -1.
       -2   -1    0    0    0  501  0.00000000000E+00  0.00000000000E+00 -0.65378575768E+03  0.65378575769E+03  0.25500000920E-02 0.  1.
    10030    2    1    2    0    0  0.00000000000E+00  0.00000000000E+00 -0.34876108830E+03  0.95881042708E+03  0.89313108689E+03 0.  0.
        3    1    3    3  502    0 -0.32627827957E+03 -0.28999634359E+03 -0.27546077033E+03  0.51617249172E+03  0.10100000352E+00 0.  1.
       -3    1    3    3    0  502  0.32627827957E+03  0.28999634359E+03 -0.73300317963E+02  0.44263793537E+03  0.10100000352E+00 0. -1.
</event>
<event>
 5   0  0.1440615E-02  0.8939208E+03  0.7818609E-02  0.9433213E-01
       -2   -1    0    0    0  501  0.00000000000E+00  0.00000000000E+00  0.21936542063E+03  0.21936542065E+03  0.25500000920E-02 0.  1.
        2   -1    0    0  501    0  0.00000000000E+00  0.00000000000E+00 -0.91068861271E+03  0.91068861271E+03  0.25500000920E-02 0. -1.
    10030    2    1    2    0    0  0.00000000000E+00  0.00000000000E+00 -0.69132319208E+03  0.11300540334E+04  0.89392078084E+03 0.  0.
        3    1    3    3  502    0  0.33530305992E+03  0.82248221306E+02  0.13190600855E+02  0.34549517226E+03  0.10100000352E+00 0.  1.
       -3    1    3    3    0  502 -0.33530305992E+03 -0.82248221306E+02 -0.70451379293E+03  0.78455886110E+03  0.10100000352E+00 0. -1.
</event>
<event>
 5   0  0.8612969E-03  0.9626240E+03  0.7818609E-02  0.9350516E-01
       -1   -1    0    0    0  501  0.00000000000E+00  0.00000000000E+00  0.72387869595E+03  0.72387869597E+03  0.50400001928E-02 0. -1.
        1   -1    0    0  501    0  0.00000000000E+00  0.00000000000E+00 -0.32002769306E+03  0.32002769310E+03  0.50400001928E-02 0.  1.
    10030    2    1    2    0    0  0.00000000000E+00  0.00000000000E+00  0.40385100288E+03  0.10439063891E+04  0.96262397467E+03 0.  0.
        4    1    3    3  502    0 -0.16341330868E+03 -0.16744207365E+02  0.69253690696E+03  0.71175365004E+03  0.12699999809E+01 0. -1.
       -4    1    3    3    0  502  0.16341330868E+03  0.16744207365E+02 -0.28868590408E+03  0.33215273903E+03  0.12699999809E+01 0.  1.
</event>
<event>
 5   0  0.8612969E-03  0.8939702E+03  0.7818609E-02  0.9433150E-01
       -1   -1    0    0    0  501  0.00000000000E+00  0.00000000000E+00  0.59560142813E+03  0.59560142815E+03  0.50400001928E-02 0. -1.
        1   -1    0    0  501    0  0.00000000000E+00  0.00000000000E+00 -0.33545199821E+03  0.33545199825E+03  0.50400001928E-02 0.  1.
    10030    2    1    2    0    0  0.00000000000E+00  0.00000000000E+00  0.26014942992E+03  0.93105342641E+03  0.89397022150E+03 0.  0.
        4    1    3    3  502    0  0.24184873368E+03 -0.36165481115E+03  0.23684086121E+03  0.49535867697E+03  0.12699999809E+01 0.  1.
       -4    1    3    3    0  502 -0.24184873368E+03  0.36165481115E+03  0.23308568706E+02  0.43569474943E+03  0.12699999809E+01 0. -1.
</event>
<event>
 5   0  0.8291252E-03  0.8882013E+03  0.7818609E-02  0.9440452E-01
        1   -1    0    0  501    0  0.00000000000E+00  0.00000000000E+00  0.31711237912E+03  0.31711237916E+03  0.50400001928E-02 0.  1.
       -1   -1    0    0    0  501  0.00000000000E+00  0.00000000000E+00 -0.62194166840E+03  0.62194166842E+03  0.50400001928E-02 0. -1.
    10030    2    1    2    0    0  0.00000000000E+00  0.00000000000E+00 -0.30482928927E+03  0.93905404758E+03  0.88820133341E+03 0.  0.
        1    1    3    3  502    0 -0.31157728342E+03  0.76931355421E+02 -0.47695286337E+03  0.57487639619E+03  0.50400001928E-02 0. -1.
       -1    1    3    3    0  502  0.31157728342E+03 -0.76931355421E+02  0.17212357410E+03  0.36417765139E+03  0.50400001928E-02 0.  1.
</event>
<event>
 5   0  0.8291252E-03  0.8729306E+03  0.7818609E-02  0.9460067E-01
        1   -1    0    0  501    0  0.00000000000E+00  0.00000000000E+00  0.33852569848E+03  0.33852569852E+03  0.50400001928E-02 0. -1.
       -1   -1    0    0    0  501  0.00000000000E+00  0.00000000000E+00 -0.56273998174E+03  0.56273998177E+03  0.50400001928E-02 0.  1.
    10030    2    1    2    0    0  0.00000000000E+00  0.00000000000E+00 -0.22421428327E+03  0.90126568028E+03  0.87293057091E+03 0.  0.
        1    1    3    3  502    0  0.50883932576E+02 -0.98225185465E+02  0.32381172442E+03  0.34218619865E+03  0.50400001928E-02 0. -1.
       -1    1    3    3    0  502 -0.50883932576E+02  0.98225185465E+02 -0.54802600768E+03  0.55907948163E+03  0.50400001928E-02 0.  1.
</event>
<event>
 5   0  0.8885324E-03  0.8432671E+03  0.7818609E-02  0.9499418E-01
        1   -1    0    0  501    0  0.00000000000E+00  0.00000000000E+00  0.34792055248E+03  0.34792055251E+03  0.50400001928E-02 0.  1.
       -1   -1    0    0    0  501  0.00000000000E+00  0.00000000000E+00 -0.51096388567E+03  0.51096388569E+03  0.50400001928E-02 0. -1.
    10030    2    1    2    0    0  0.00000000000E+00  0.00000000000E+00 -0.16304333319E+03  0.85888443821E+03  0.84326706902E+03 0.  0.
        2    1    3    3  502    0  0.48431551754E+01 -0.41138901862E+03  0.12438986033E+02  0.41160552617E+03  0.25500000920E-02 0. -1.
       -2    1    3    3    0  502 -0.48431551754E+01  0.41138901862E+03 -0.17548231923E+03  0.44727891204E+03  0.25500000920E-02 0.  1.
</event>
<event>
 5   0  0.8524692E-03  0.8900031E+03  0.7818609E-02  0.9438165E-01
       -1   -1    0    0    0  501  0.00000000000E+00  0.00000000000E+00  0.37346114589E+03  0.37346114593E+03  0.50400001928E-02 0.  1.
        1   -1    0    0  501    0  0.00000000000E+00  0.00000000000E+00 -0.53024622276E+03  0.53024622278E+03  0.50400001928E-02 0. -1.
    10030    2    1    2    0    0  0.00000000000E+00  0.00000000000E+00 -0.15678507687E+03  0.90370736871E+03  0.89000306063E+03 0.  0.
        5    1    3    3  502    0  0.91629687551E+02  0.31074605264E+03  0.23133742703E+03  0.39811832917E+03  0.46999998093E+01 0.  1.
       -5    1    3    3    0  502 -0.91629687551E+02 -0.31074605264E+03 -0.38812250390E+03  0.50558903954E+03  0.46999998093E+01 0. -1.
</event>
<event>
 5   0  0.5770125E-03  0.9125085E+03  0.7818609E-02  0.9410079E-01
       -3   -1    0    0    0  501  0.00000000000E+00  0.00000000000E+00  0.15869482762E+03  0.15869485976E+03  0.10100000352E+00 0. -1.
        3   -1    0    0  501    0  0.00000000000E+00  0.00000000000E+00 -0.13117497012E+04  0.13117497050E+04  0.10100000352E+00 0.  1.
    10030    2    1    2    0    0  0.00000000000E+00  0.00000000000E+00 -0.11530548735E+04  0.14704445648E+04  0.91250845298E+03 0.  0.
        3    1    3    3  502    0 -0.45195433536E+02 -0.24224470560E+03 -0.11952892765E+04  0.12204268062E+04  0.10100000352E+00 0.  1.
       -3    1    3    3    0  502  0.45195433536E+02  0.24224470560E+03  0.42234402985E+02  0.25001775857E+03  0.10100000352E+00 0. -1.
</event>
<event>
 5   0  0.8885324E-03  0.8800352E+03  0.7818609E-02  0.9450888E-01
        1   -1    0    0  501    0  0.00000000000E+00  0.00000000000E+00  0.19219970941E+04  0.19219970941E+04  0.50400001928E-02 0.  1.
       -1   -1    0    0    0  501  0.00000000000E+00  0.00000000000E+00 -0.10073661324E+03  0.10073661337E+03  0.50400001928E-02 0. -1.
    10030    2    1    2    0    0  0.00000000000E+00  0.00000000000E+00  0.18212604809E+04  0.20227337075E+04  0.88003517671E+03 0.  0.
        2    1    3    3  502    0 -0.29507950845E+03 -0.20756604121E+02  0.16190510396E+03  0.33721805351E+03  0.25500000920E-02 0. -1.
       -2    1    3    3    0  502  0.29507950845E+03  0.20756604121E+02  0.16593553769E+04  0.16855156540E+04  0.25500000920E-02 0.  1.
</event>
<event>
 5   0  0.1483326E-02  0.9111444E+03  0.7818609E-02  0.9411757E-01
       -2   -1    0    0    0  501  0.00000000000E+00  0.00000000000E+00  0.14998847749E+03  0.14998847751E+03  0.25500000920E-02 0. -1.
        2   -1    0    0  501    0  0.00000000000E+00  0.00000000000E+00 -0.13837464699E+04  0.13837464699E+04  0.25500000920E-02 0.  1.
    10030    2    1    2    0    0  0.00000000000E+00  0.00000000000E+00 -0.12337579924E+04  0.15337349474E+04  0.91114439309E+03 0.  0.
        1    1    3    3  502    0  0.10652870596E+02 -0.18242714181E+03 -0.13193500569E+04  0.13319450883E+04  0.50400001928E-02 0.  1.
       -1    1    3    3    0  502 -0.10652870596E+02  0.18242714181E+03  0.85592064431E+02  0.20178985911E+03  0.50400001928E-02 0. -1.
</event>
<event>
 5   0  0.1483326E-02  0.8083658E+03  0.7818609E-02  0.9547986E-01
       -2   -1    0    0    0  501  0.00000000000E+00  0.00000000000E+00  0.15909291591E+03  0.15909291593E+03  0.25500000920E-02 0. -1.
        2   -1    0    0  501    0  0.00000000000E+00  0.00000000000E+00 -0.10268452212E+04  0.10268452212E+04  0.25500000920E-02 0.  1.
    10030    2    1    2    0    0  0.00000000000E+00  0.00000000000E+00 -0.86775230530E+03  0.11859381371E+04  0.80836575991E+03 0.  0.
        1    1    3    3  502    0  0.27286697882E+03  0.25305454763E+03 -0.66524190573E+03  0.76225965745E+03  0.50400001928E-02 0.  1.
       -1    1    3    3    0  502 -0.27286697882E+03 -0.25305454763E+03 -0.20251039957E+03  0.42367847970E+03  0.50400001928E-02 0. -1.
</event>
<event>
 5   0  0.1535906E-02  0.8845196E+03  0.7818609E-02  0.9445142E-01
       -2   -1    0    0    0  501  0.00000000000E+00  0.00000000000E+00  0.38321132410E+03  0.38321132411E+03  0.25500000920E-02 0.  1.
        2   -1    0    0  501    0  0.00000000000E+00  0.00000000000E+00 -0.51040701946E+03  0.51040701946E+03  0.25500000920E-02 0. -1.
    10030    2    1    2    0    0  0.00000000000E+00  0.00000000000E+00 -0.12719569536E+03  0.89361834358E+03  0.88451964312E+03 0.  0.
        2    1    3    3  502    0 -0.23720380570E+03 -0.17575826660E+03  0.26908745300E+03  0.39945546821E+03  0.25500000920E-02 0.  1.
       -2    1    3    3    0  502  0.23720380570E+03  0.17575826660E+03 -0.39628314835E+03  0.49416287537E+03  0.25500000920E-02 0. -1.
</event>
<event>
 5   0  0.8612969E-03  0.8585496E+03  0.7818609E-02  0.9478933E-01
       -1   -1    0    0    0  501  0.00000000000E+00  0.00000000000E+00  0.19047847114E+03  0.19047847120E+03  0.50400001928E-02 0. -1.
        1   -1    0    0  501    0  0.00000000000E+00  0.00000000000E+00 -0.96744186153E+03  0.96744186154E+03  0.50400001928E-02 0.  1.
    10030    2    1    2    0    0  0.00000000000E+00  0.00000000000E+00 -0.77696339039E+03  0.11579203327E+04  0.85854958330E+03 0.  0.
        4    1    3    3  502    0  0.24104187752E+03  0.11663667982E+03 -0.84098786000E+03  0.88259135242E+03  0.12699999809E+01 0.  1.
       -4    1    3    3    0  502 -0.24104187752E+03 -0.11663667982E+03  0.64024469611E+02  0.27532898033E+03  0.12699999809E+01 0. -1.
</event>
<event>
 5   0  0.8612969E-03  0.9641039E+03  0.7818609E-02  0.9348815E-01
        1   -1    0    0  501    0  0.00000000000E+00  0.00000000000E+00  0.52802134816E+03  0.52802134819E+03  0.50400001928E-02 0.  1.
       -1   -1    0    0    0  501  0.00000000000E+00  0.00000000000E+00 -0.44008466436E+03  0.44008466439E+03  0.50400001928E-02 0. -1.
    10030    2    1    2    0    0  0.00000000000E+00  0.00000000000E+00  0.87936683807E+02  0.96810601258E+03  0.96410393176E+03 0.  0.
        4    1    3    3  502    0  0.68701251964E+02 -0.66376252086E+02 -0.43048302288E+03  0.44095681733E+03  0.12699999809E+01 0. -1.
       -4    1    3    3    0  502 -0.68701251964E+02  0.66376252086E+02  0.51841970669E+03  0.52714919524E+03  0.12699999809E+01 0.  1.
</event>
<event>
 5   0  0.8291252E-03  0.9078362E+03  0.7818609E-02  0.9415838E-01
        1   -1    0    0  501    0  0.00000000000E+00  0.00000000000E+00  0.74774241499E+03  0.74774241500E+03  0.50400001928E-02 0. -1.
       -1   -1    0    0    0  501  0.00000000000E+00  0.00000000000E+00 -0.27555165121E+03  0.27555165125E+03  0.50400001928E-02 0.  1.
    10030    2    1    2    0    0  0.00000000000E+00  0.00000000000E+00  0.47219076378E+03  0.10232940663E+04  0.90783623449E+03 0.  0.
        1    1    3    3  502    0  0.23425683292E+03  0.12832786716E+03  0.64978295185E+03  0.70253981368E+03  0.50400001928E-02 0. -1.
       -1    1    3    3    0  502 -0.23425683292E+03 -0.12832786716E+03 -0.17759218808E+03  0.32075425258E+03  0.50400001928E-02 0.  1.
</event>
<event>
 5   0  0.8885324E-03  0.9100719E+03  0.7818609E-02  0.9413078E-01
       -1   -1    0    0    0  501  0.00000000000E+00  0.00000000000E+00  0.18834226265E+03  0.18834226272E+03  0.50400001928E-02 0. -1.
        1   -1    0    0  501    0  0.00000000000E+00  0.00000000000E+00 -0.10993692797E+04  0.10993692797E+04  0.50400001928E-02 0.  1.
    10030    2    1    2    0    0  0.00000000000E+00  0.00000000000E+00 -0.91102701702E+03  0.12877115424E+04  0.91007186017E+03 0.  0.
        2    1    3    3  502    0  0.25899114405E+03 -0.32375042082E+03 -0.19016890813E+03  0.45613042137E+03  0.25500000920E-02 0. -1.
       -2    1    3    3    0  502 -0.25899114405E+03  0.32375042082E+03 -0.72085810890E+03  0.83158112102E+03  0.25500000920E-02 0.  1.
</event>
<event>
 5   0  0.5770125E-03  0.8944546E+03  0.7818609E-02  0.9432540E-01
       -4   -1    0    0    0  501  0.00000000000E+00  0.00000000000E+00  0.36540682987E+03  0.36540903686E+03  0.12699999809E+01 0.  1.
        4   -1    0    0  501    0  0.00000000000E+00  0.00000000000E+00 -0.54736403907E+03  0.54736551241E+03  0.12699999809E+01 0. -1.
    10030    2    1    2    0    0  0.00000000000E+00  0.00000000000E+00 -0.18195720920E+03  0.91277454926E+03  0.89445455547E+03 0.  0.
        5    1    3    3  502    0 -0.37953386843E+03 -0.20695627569E+03  0.25880104629E+02  0.43309205390E+03  0.46999998093E+01 0.  1.
       -5    1    3    3    0  502  0.37953386843E+03  0.20695627569E+03 -0.20783731383E+03  0.47968249536E+03  0.46999998093E+01 0. -1.
</event>
<event>
 5   0  0.1440615E-02  0.9205204E+03  0.7818609E-02  0.9400287E-01
       -2   -1    0    0    0  501  0.00000000000E+00  0.00000000000E+00  0.25303929604E+03  0.25303929605E+03  0.25500000920E-02 0.  1.
        2   -1    0    0  501    0  0.00000000000E+00  0.00000000000E+00 -0.83718013807E+03  0.83718013808E+03  0.25500000920E-02 0. -1.
    10030    2    1    2    0    0  0.00000000000E+00  0.00000000000E+00 -0.58414084203E+03  0.10902194341E+04  0.92052044584E+03 0.  0.
        3    1    3    3  502    0  0.93015463471E+02 -0.96995955055E+02 -0.81342627110E+03  0.82445278850E+03  0.10100000352E+00 0. -1.
       -3    1    3    3    0  502 -0.93015463471E+02  0.96995955055E+02  0.22928542907E+03  0.26576664563E+03  0.10100000352E+00 0.  1.
</event>
<event>
 5   0  0.1483326E-02  0.9320291E+03  0.7818609E-02  0.9386406E-01
        2   -1    0    0  501    0  0.00000000000E+00  0.00000000000E+00  0.32927524189E+03  0.32927524190E+03  0.25500000920E-02 0. -1.
       -2   -1    0    0    0  501  0.00000000000E+00  0.00000000000E+00 -0.65953806733E+03  0.65953806734E+03  0.25500000920E-02 0.  1.
    10030    2    1    2    0    0  0.00000000000E+00  0.00000000000E+00 -0.33026282544E+03  0.98881330924E+03  0.93202909110E+03 0.  0.
        1    1    3    3  502    0 -0.34623703184E+01 -0.40933596724E+03  0.71151779389E+02  0.41548826436E+03  0.50400001928E-02 0. -1.
       -1    1    3    3    0  502  0.34623703184E+01  0.40933596724E+03 -0.40141460483E+03  0.57332504488E+03  0.50400001928E-02 0.  1.
</event>
<event>
 5   0  0.1440615E-02  0.9543518E+03  0.7818609E-02  0.9360078E-01
        2   -1    0    0  501    0  0.00000000000E+00  0.00000000000E+00  0.39330782617E+03  0.39330782618E+03  0.25500000920E-02 0.  1.
       -2   -1    0    0    0  501  0.00000000000E+00  0.00000000000E+00 -0.57892779347E+03  0.57892779347E+03  0.25500000920E-02 0. -1.
    10030    2    1    2    0    0  0.00000000000E+00  0.00000000000E+00 -0.18561996730E+03  0.97223561965E+03  0.95435178412E+03 0.  0.
        3    1    3    3  502    0 -0.42274035475E+03  0.18815179984E+03  0.25934616482E+02  0.46344700005E+03  0.10100000352E+00 0.  1.
       -3    1    3    3    0  502  0.42274035475E+03 -0.18815179984E+03 -0.21155458378E+03  0.50878861960E+03  0.10100000352E+00 0. -1.
</event>
<event>
 5   0  0.8612969E-03  0.8972291E+03  0.7818609E-02  0.9429052E-01
        1   -1    0    0  501    0  0.00000000000E+00  0.00000000000E+00  0.64106678123E+03  0.64106678125E+03  0.50400001928E-02 0. -1.
       -1   -1    0    0    0  501  0.00000000000E+00  0.00000000000E+00 -0.31393765047E+03  0.31393765051E+03  0.50400001928E-02 0.  1.
    10030    2    1    2    0    0  0.00000000000E+00  0.00000000000E+00  0.32712913075E+03  0.95500443176E+03  0.89722906579E+03 0.  0.
        4    1    3    3  502    0  0.12562748130E+03 -0.18746906140E+03 -0.24912148312E+03  0.33613991029E+03  0.12699999809E+01 0.  1.
       -4    1    3    3    0  502 -0.12562748130E+03  0.18746906140E+03  0.57625061387E+03  0.61886452147E+03  0.12699999809E+01 0. -1.
</event>
<event>
 5   0  0.1535906E-02  0.9121136E+03  0.7818609E-02  0.9410564E-01
        2   -1    0    0  501    0  0.00000000000E+00  0.00000000000E+00  0.15808495794E+04  0.15808495794E+04  0.25500000920E-02 0. -1.
       -2   -1    0    0    0  501  0.00000000000E+00  0.00000000000E+00 -0.13156710598E+03  0.13156710600E+03  0.25500000920E-02 0.  1.
    10030    2    1    2    0    0  0.00000000000E+00  0.00000000000E+00  0.14492824734E+04  0.17124166854E+04  0.91211359855E+03 0.  0.
        2    1    3    3  502    0  0.35389500264E+03 -0.21536754231E+03  0.10826470613E+04  0.11592021008E+04  0.25500000920E-02 0. -1.
       -2    1    3    3    0  502 -0.35389500264E+03  0.21536754231E+03  0.36663541212E+03  0.55321458459E+03  0.25500000920E-02 0.  1.
</event>
<event>
 5   0  0.1535906E-02  0.9045586E+03  0.7818609E-02  0.9419901E-01
        2   -1    0    0  501    0  0.00000000000E+00  0.00000000000E+00  0.10708742048E+04  0.10708742048E+04  0.25500000920E-02 0. -1.
       -2   -1    0    0    0  501  0.00000000000E+00  0.00000000000E+00 -0.19101828539E+03  0.19101828541E+03  0.25500000920E-02 0.  1.
    10030    2    1    2    0    0  0.00000000000E+00  0.00000000000E+00  0.87985591943E+03  0.12618924902E+04  0.90455857629E+03 0.  0.
        2    1    3    3  502    0  0.37539677283E+02  0.45051540987E+03  0.42104632483E+03  0.61778100454E+03  0.25500000920E-02 0.  1.
       -2    1    3    3    0  502 -0.37539677283E+02 -0.45051540987E+03  0.45880959460E+03  0.64411148570E+03  0.25500000920E-02 0. -1.
</event>
<event>
 5   0  0.8612969E-03  0.9042274E+03  0.7818609E-02  0.9420312E-01
        1   -1    0    0  501    0  0.00000000000E+00  0.00000000000E+00  0.13330727088E+04  0.13330727088E+04  0.50400001928E-02 0.  1.
       -1   -1    0    0    0  501  0.00000000000E+00  0.00000000000E+00 -0.15333506248E+03  0.15333506256E+03  0.50400001928E-02 0. -1.
    10030    2    1    2    0    0  0.00000000000E+00  0.00000000000E+00  0.11797376463E+04  0.14864077714E+04  0.90422737662E+03 0.  0.
        4    1    3    3  502    0  0.28064422865E+03 -0.25900082082E+03  0.98767393942E+03  0.10589353294E+04  0.12699999809E+01 0.  1.
       -4    1    3    3    0  502 -0.28064422865E+03  0.25900082082E+03  0.19206370689E+03  0.42747244199E+03  0.12699999809E+01 0. -1.
</event>
<event>
 5   0  0.8885324E-03  0.8814088E+03  0.7818609E-02  0.9449124E-01
       -1   -1    0    0    0  501  0.00000000000E+00  0.00000000000E+00  0.13535109302E+03  0.13535109311E+03  0.50400001928E-02 0.  1.
        1   -1    0    0  501    0  0.00000000000E+00  0.00000000000E+00 -0.14349376690E+04  0.14349376690E+04  0.50400001928E-02 0. -1.
    10030    2    1    2    0    0  0.00000000000E+00  0.00000000000E+00 -0.12995865760E+04  0.15702887621E+04  0.88140883134E+03 0.  0.
        2    1    3    3  502    0 -0.10653684523E+03  0.12885790608E+03  0.76653400414E+02  0.18392988651E+03  0.25500000920E-02 0.  1.
       -2    1    3    3    0  502  0.10653684523E+03 -0.12885790608E+03 -0.13762399764E+04  0.13863588756E+04  0.25500000920E-02 0. -1.
</event>
<event>
 5   0  0.8524692E-03  0.9617663E+03  0.7818609E-02  0.9351502E-01
        1   -1    0    0  501    0  0.00000000000E+00  0.00000000000E+00  0.77695112170E+03  0.77695112172E+03  0.50400001928E-02 0. -1.
       -1   -1    0    0    0  501  0.00000000000E+00  0.00000000000E+00 -0.29763595470E+03  0.29763595475E+03  0.50400001928E-02 0.  1.
    10030    2    1    2    0    0  0.00000000000E+00  0.00000000000E+00  0.47931516700E+03  0.10745870765E+04  0.96176626869E+03 0.  0.
        5    1    3    3  502    0 -0.34379419291E+03 -0.22323735752E+03 -0.41222382383E+02  0.41200817914E+03  0.46999998093E+01 0.  1.
       -5    1    3    3    0  502  0.34379419291E+03  0.22323735752E+03  0.52053754938E+03  0.66257889733E+03  0.46999998093E+01 0. -1.
</event>
<event>
 5   0  0.1454652E-02  0.8865649E+03  0.7818609E-02  0.9442533E-01
       -2   -1    0    0    0  501  0.00000000000E+00  0.00000000000E+00  0.42789503560E+03  0.42789503561E+03  0.25500000920E-02 0. -1.
        2   -1    0    0  501    0  0.00000000000E+00  0.00000000000E+00 -0.45922325190E+03  0.45922325191E+03  0.25500000920E-02 0.  1.
    10030    2    1    2    0    0  0.00000000000E+00  0.00000000000E+00 -0.31328216304E+02  0.88711828751E+03  0.88656494342E+03 0.  0.
        4    1    3    3  502    0 -0.23843692150E+03 -0.29971259704E+03  0.20767450694E+03  0.43567203271E+03  0.12699999809E+01 0. -1.
       -4    1    3    3    0  502  0.23843692150E+03  0.29971259704E+03 -0.23900272325E+03  0.45144625480E+03  0.12699999809E+01 0.  1.
</event>
<event>
 5   0  0.8524692E-03  0.8881984E+03  0.7818609E-02  0.9440455E-01
       -1   -1    0    0    0  501  0.00000000000E+00  0.00000000000E+00  0.60251018265E+03  0.60251018267E+03  0.50400001928E-02 0. -1.
        1   -1    0    0  501    0  0.00000000000E+00  0.00000000000E+00 -0.32733739578E+03  0.32733739582E+03  0.50400001928E-02 0.  1.
    10030    2    1    2    0    0  0.00000000000E+00  0.00000000000E+00  0.27517278687E+03  0.92984757849E+03  0.88819843311E+03 0.  0.
        5    1    3    3  502    0 -0.10089622466E+03 -0.11720139943E+03  0.57338241334E+03  0.59389030814E+03  0.46999998093E+01 0. -1.
       -5    1    3    3    0  502  0.10089622466E+03  0.11720139943E+03 -0.29820962647E+03  0.33595727034E+03  0.46999998093E+01 0.  1.
</event>
<event>
 5   0  0.1483326E-02  0.8926822E+03  0.7818609E-02  0.9434775E-01
       -2   -1    0    0    0  501  0.00000000000E+00  0.00000000000E+00  0.27836125479E+03  0.27836125481E+03  0.25500000920E-02 0.  1.
        2   -1    0    0  501    0  0.00000000000E+00  0.00000000000E+00 -0.71569010101E+03  0.71569010101E+03  0.25500000920E-02 0. -1.
    10030    2    1    2    0    0  0.00000000000E+00  0.00000000000E+00 -0.43732884622E+03  0.99405135582E+03  0.89268223813E+03 0.  0.
        1    1    3    3  502    0 -0.26630815860E+03  0.32176690171E+03 -0.43420266066E+02  0.41992772461E+03  0.50400001928E-02 0.  1.
       -1    1    3    3    0  502  0.26630815860E+03 -0.32176690171E+03 -0.39390858015E+03  0.57412363121E+03  0.50400001928E-02 0. -1.
</event>
<event>
 5   0  0.8524692E-03  0.9044366E+03  0.7818609E-02  0.9420052E-01
       -1   -1    0    0    0  501  0.00000000000E+00  0.00000000000E+00  0.10965232145E+03  0.10965232156E+03  0.50400001928E-02 0.  1.
        1   -1    0    0  501    0  0.00000000000E+00  0.00000000000E+00 -0.18649984569E+04  0.18649984569E+04  0.50400001928E-02 0. -1.
    10030    2    1    2    0    0  0.00000000000E+00  0.00000000000E+00 -0.17553461354E+04  0.19746507785E+04  0.90443664326E+03 0.  0.
        5    1    3    3  502    0 -0.16004743091E+03  0.32730658824E+03 -0.14624312438E+04  0.15071403437E+04  0.46999998093E+01 0. -1.
       -5    1    3    3    0  502  0.16004743091E+03 -0.32730658824E+03 -0.29291489165E+03  0.46751043474E+03  0.46999998093E+01 0.  1.
</event>
<event>
 5   0  0.8291252E-03  0.8844288E+03  0.7818609E-02  0.9445258E-01
        1   -1    0    0  501    0  0.00000000000E+00  0.00000000000E+00  0.56924136049E+03  0.56924136051E+03  0.50400001928E-02 0. -1.
       -1   -1    0    0    0  501  0.00000000000E+00  0.00000000000E+00 -0.34353370635E+03  0.34353370639E+03  0.50400001928E-02 0.  1.
    10030    2    1    2    0    0  0.00000000000E+00  0.00000000000E+00  0.22570765414E+03  0.91277506690E+03  0.88442884260E+03 0.  0.
        1    1    3    3  502    0  0.12496660465E+03 -0.41903249651E+03  0.18091211872E+03  0.47321673695E+03  0.50400001928E-02 0.  1.
       -1    1    3    3    0  502 -0.12496660465E+03  0.41903249651E+03  0.44795535421E+02  0.43955832995E+03  0.50400001928E-02 0. -1.
</event>
<event>
 5   0  0.8738044E-03  0.9020497E+03  0.7818609E-02  0.9423023E-01
       -1   -1    0    0    0  501  0.00000000000E+00  0.00000000000E+00  0.21797204741E+03  0.21797204747E+03  0.50400001928E-02 0. -1.
        1   -1    0    0  501    0  0.00000000000E+00  0.00000000000E+00 -0.93325463776E+03  0.93325463777E+03  0.50400001928E-02 0.  1.
    10030    2    1    2    0    0  0.00000000000E+00  0.00000000000E+00 -0.71528259034E+03  0.11512266852E+04  0.90204971968E+03 0.  0.
        3    1    3    3  502    0 -0.16175906060E+02  0.10169487744E+03 -0.91805184891E+03  0.92380880896E+03  0.10100000352E+00 0.  1.
       -3    1    3    3    0  502  0.16175906060E+02 -0.10169487744E+03  0.20276925856E+03  0.22741787628E+03  0.10100000352E+00 0. -1.
</event>
<event>
 5   0  0.8524692E-03  0.8896304E+03  0.7818609E-02  0.9438638E-01
        1   -1    0    0  501    0  0.00000000000E+00  0.00000000000E+00  0.10847323411E+04  0.10847323411E+04  0.50400001928E-02 0. -1.
       -1   -1    0    0    0  501  0.00000000000E+00  0.00000000000E+00 -0.18240496019E+03  0.18240496026E+03  0.50400001928E-02 0.  1.
    10030    2    1    2    0    0  0.00000000000E+00  0.00000000000E+00  0.90232738088E+03  0.12671373013E+04  0.88963039414E+03 0.  0.
        5    1    3    3  502    0  0.36569552624E+03  0.97308406800E+02  0.78409512780E+03  0.87064884046E+03  0.46999998093E+01 0. -1.
       -5    1    3    3    0  502 -0.36569552624E+03 -0.97308406800E+02  0.11823225308E+03  0.39648846088E+03  0.46999998093E+01 0.  1.
</event>
<event>
 5   0  0.1454652E-02  0.9069487E+03  0.7818609E-02  0.9416937E-01
        2   -1    0    0  501    0  0.00000000000E+00  0.00000000000E+00  0.50976006637E+03  0.50976006637E+03  0.25500000920E-02 0.  1.
       -2   -1    0    0    0  501  0.00000000000E+00  0.00000000000E+00 -0.40340348215E+03  0.40340348215E+03  0.25500000920E-02 0. -1.
    10030    2    1    2    0    0  0.00000000000E+00  0.00000000000E+00  0.10635658422E+03  0.91316354853E+03  0.90694869940E+03 0.  0.
        4    1    3    3  502    0 -0.44108407091E+02  0.11147383880E+03  0.49351415375E+03  0.50786789736E+03  0.12699999809E+01 0.  1.
       -4    1    3    3    0  502  0.44108407091E+02 -0.11147383880E+03 -0.38715756953E+03  0.40529565117E+03  0.12699999809E+01 0. -1.
</event>
<event>
 5   0  0.1440615E-02  0.9027348E+03  0.7818609E-02  0.9422169E-01
       -2   -1    0    0    0  501  0.00000000000E+00  0.00000000000E+00  0.12780639748E+03  0.12780639750E+03  0.25500000920E-02 0.  1.
        2   -1    0    0  501    0  0.00000000000E+00  0.00000000000E+00 -0.15940713906E+04  0.15940713906E+04  0.25500000920E-02 0. -1.
    10030    2    1    2    0    0  0.00000000000E+00  0.00000000000E+00 -0.14662649931E+04  0.17218777881E+04  0.90273478228E+03 0.  0.
        3    1    3    3  502    0  0.21465353266E+03  0.29332964539E+03 -0.12435686080E+04  0.12956007537E+04  0.10100000352E+00 0. -1.
       -3    1    3    3    0  502 -0.21465353266E+03 -0.29332964539E+03 -0.22269638517E+03  0.42627703447E+03  0.10100000352E+00 0.  1.
</event>
<event>
 5   0  0.1535906E-02  0.8917229E+03  0.7818609E-02  0.9435988E-01
       -2   -1    0    0    0  501  0.00000000000E+00  0.00000000000E+00  0.93850046493E+03  0.93850046493E+03  0.25500000920E-02 0. -1.
        2   -1    0    0  501    0  0.00000000000E+00  0.00000000000E+00 -0.21181923357E+03  0.21181923358E+03  0.25500000920E-02 0.  1.
    10030    2    1    2    0    0  0.00000000000E+00  0.00000000000E+00  0.72668123136E+03  0.11503196985E+04  0.89172293723E+03 0.  0.
        2    1    3    3  502    0 -0.99398016329E+02  0.35609568981E+03  0.68482774538E+03  0.77825005416E+03  0.25500000920E-02 0. -1.
       -2    1    3    3    0  502  0.99398016329E+02 -0.35609568981E+03  0.41853485979E+02  0.37206964435E+03  0.25500000920E-02 0.  1.
</event>
<event>
 5   0  0.1483326E-02  0.8922042E+03  0.7818609E-02  0.9435379E-01
        2   -1    0    0  501    0  0.00000000000E+00  0.00000000000E+00  0.85883844363E+03  0.85883844363E+03  0.25500000920E-02 0. -1.
       -2   -1    0    0    0  501  0.00000000000E+00  0.00000000000E+00 -0.23171656220E+03  0.23171656222E+03  0.25500000920E-02 0.  1.
    10030    2    1    2    0    0  0.00000000000E+00  0.00000000000E+00  0.62712188142E+03  0.10905550058E+04  0.89220421800E+03 0.  0.
        1    1    3    3  502    0  0.43150619644E+03  0.72764852284E+02  0.20760113344E+03  0.48434548818E+03  0.50400001928E-02 0.  1.
       -1    1    3    3    0  502 -0.43150619644E+03 -0.72764852284E+02  0.41952074798E+03  0.60620951766E+03  0.50400001928E-02 0. -1.
</event>
<event>
 5   0  0.1441195E-02  0.9056522E+03  0.7818609E-02  0.9418543E-01
       -2   -1    0    0    0  501  0.00000000000E+00  0.00000000000E+00  0.13225378060E+03  0.13225378062E+03  0.25500000920E-02 0.  1.
        2   -1    0    0  501    0  0.00000000000E+00  0.00000000000E+00 -0.15504393228E+04  0.15504393228E+04  0.25500000920E-02 0. -1.
    10030    2    1    2    0    0  0.00000000000E+00  0.00000000000E+00 -0.14181855422E+04  0.16826931034E+04  0.90565216733E+03 0.  0.
        5    1    3    3  502    0  0.26011948434E+03  0.20664512146E+03 -0.13743218691E+03  0.35954700437E+03  0.46999998093E+01 0.  1.
       -5    1    3    3    0  502 -0.26011948434E+03 -0.20664512146E+03 -0.12807533553E+04  0.13231460990E+04  0.46999998093E+01 0. -1.
</event>
<event>
 5   0  0.1440615E-02  0.9610579E+03  0.7818609E-02  0.9352318E-01
        2   -1    0    0  501    0  0.00000000000E+00  0.00000000000E+00  0.46179861895E+03  0.46179861896E+03  0.25500000920E-02 0.  1.
       -2   -1    0    0    0  501  0.00000000000E+00  0.00000000000E+00 -0.50001896956E+03  0.50001896957E+03  0.25500000920E-02 0. -1.
    10030    2    1    2    0    0  0.00000000000E+00  0.00000000000E+00 -0.38220350609E+02  0.96181758852E+03  0.96105789544E+03 0.  0.
        3    1    3    3  502    0 -0.18393948027E+03  0.13044624131E+03  0.40555779006E+03  0.46403349616E+03  0.10100000352E+00 0.  1.
       -3    1    3    3    0  502  0.18393948027E+03 -0.13044624131E+03 -0.44377814067E+03  0.49778409237E+03  0.10100000352E+00 0. -1.
</event>
<event>
 5   0  0.8291252E-03  0.7802130E+03  0.7818609E-02  0.9589108E-01
        1   -1    0    0  501    0  0.00000000000E+00  0.00000000000E+00  0.73146493312E+03  0.73146493313E+03  0.50400001928E-02 0. -1.
       -1   -1    0    0    0  501  0.00000000000E+00  0.00000000000E+00 -0.20805245396E+03  0.20805245402E+03  0.50400001928E-02 0.  1.
    10030    2    1    2    0    0  0.00000000000E+00  0.00000000000E+00  0.52341247916E+03  0.93951738715E+03  0.78021298209E+03 0.  0.
        1    1    3    3  502    0  0.12824638560E+03  0.25010055024E+03  0.58747139366E+03  0.65124500692E+03  0.50400001928E-02 0. -1.
       -1    1    3    3    0  502 -0.12824638560E+03 -0.25010055024E+03 -0.64058914501E+02  0.28827238023E+03  0.50400001928E-02 0.  1.
</event>
<event>
 5   0  0.8738044E-03  0.9033712E+03  0.7818609E-02  0.9421377E-01
        1   -1    0    0  501    0  0.00000000000E+00  0.00000000000E+00  0.97012746032E+03  0.97012746034E+03  0.50400001928E-02 0.  1.
       -1   -1    0    0    0  501  0.00000000000E+00  0.00000000000E+00 -0.21030212805E+03  0.21030212811E+03  0.50400001928E-02 0. -1.
    10030    2    1    2    0    0  0.00000000000E+00  0.00000000000E+00  0.75982533227E+03  0.11804295884E+04  0.90337117384E+03 0.  0.
        3    1    3    3  502    0  0.30729233187E+03  0.17209513716E+03  0.10382625589E+02  0.35235368960E+03  0.10100000352E+00 0. -1.
       -3    1    3    3    0  502 -0.30729233187E+03 -0.17209513716E+03  0.74944270668E+03  0.82807589885E+03  0.10100000352E+00 0.  1.
</event>
<event>
 5   0  0.8524692E-03  0.8978039E+03  0.7818609E-02  0.9428331E-01
       -1   -1    0    0    0  501  0.00000000000E+00  0.00000000000E+00  0.12747174576E+04  0.12747174576E+04  0.50400001928E-02 0.  1.
        1   -1    0    0  501    0  0.00000000000E+00  0.00000000000E+00 -0.15808439779E+03  0.15808439787E+03  0.50400001928E-02 0. -1.
    10030    2    1    2    0    0  0.00000000000E+00  0.00000000000E+00  0.11166330598E+04  0.14328018555E+04  0.89780385765E+03 0.  0.
        5    1    3    3  502    0 -0.33785836210E+03  0.14573115034E+03  0.14799731225E+03  0.39662467832E+03  0.46999998093E+01 0. -1.
       -5    1    3    3    0  502  0.33785836210E+03 -0.14573115034E+03  0.96863574757E+03  0.10361771772E+04  0.46999998093E+01 0.  1.
</event>
<event>
 5   0  0.8738044E-03  0.8933988E+03  0.7818609E-02  0.9433871E-01
        1   -1    0    0  501    0  0.00000000000E+00  0.00000000000E+00  0.98397280656E+03  0.98397280657E+03  0.50400001928E-02 0.  1.
       -1   -1    0    0    0  501  0.00000000000E+00  0.00000000000E+00 -0.20279050977E+03  0.20279050983E+03  0.50400001928E-02 0. -1.
    10030    2    1    2    0    0  0.00000000000E+00  0.00000000000E+00  0.78118229680E+03  0.11867633164E+04  0.89339878460E+03 0.  0.
        3    1    3    3  502    0  0.17013426090E+03 -0.53362761171E+02  0.93465046086E+03  0.95150656603E+03  0.10100000352E+00 0.  1.
       -3    1    3    3    0  502 -0.17013426090E+03  0.53362761171E+02 -0.15346816407E+03  0.23525675037E+03  0.10100000352E+00 0. -1.
</event>
<event>
 5   0  0.1535906E-02  0.8808863E+03  0.7818609E-02  0.9449795E-01
       -2   -1    0    0    0  501  0.00000000000E+00  0.00000000000E+00  0.66945667012E+03  0.66945667013E+03  0.25500000920E-02 0.  1.
        2   -1    0    0  501    0  0.00000000000E+00  0.00000000000E+00 -0.28977256632E+03  0.28977256633E+03  0.25500000920E-02 0. -1.
    10030    2    1    2    0    0  0.00000000000E+00  0.00000000000E+00  0.37968410381E+03  0.95922923646E+03  0.88088632035E+03 0.  0.
        2    1    3    3  502    0 -0.64187756329E+02  0.18887873327E+03 -0.23775784651E+03  0.31036114049E+03  0.25500000920E-02 0. -1.
       -2    1    3    3    0  502  0.64187756329E+02 -0.18887873327E+03  0.61744195032E+03  0.64886809597E+03  0.25500000920E-02 0.  1.
</event>
<event>
 5   0  0.1440615E-02  0.8982059E+03  0.7818609E-02  0.9427827E-01
        2   -1    0    0  501    0  0.00000000000E+00  0.00000000000E+00  0.23708622928E+04  0.23708622928E+04  0.25500000920E-02 0. -1.
       -2   -1    0    0    0  501  0.00000000000E+00  0.00000000000E+00 -0.85071774824E+02  0.85071774863E+02  0.25500000920E-02 0.  1.
    10030    2    1    2    0    0  0.00000000000E+00  0.00000000000E+00  0.22857905180E+04  0.24559340677E+04  0.89820590772E+03 0.  0.
        3    1    3    3  502    0 -0.18642236548E+03  0.26250335676E+03  0.19989963352E+04  0.20247586694E+04  0.10100000352E+00 0. -1.
       -3    1    3    3    0  502  0.18642236548E+03 -0.26250335676E+03  0.28679418277E+03  0.43117539834E+03  0.10100000352E+00 0.  1.
</event>
<event>
 5   0  0.8738044E-03  0.8942947E+03  0.7818609E-02  0.9432742E-01
        1   -1    0    0  501    0  0.00000000000E+00  0.00000000000E+00  0.25479699144E+03  0.25479699149E+03  0.50400001928E-02 0.  1.
       -1   -1    0    0    0  501  0.00000000000E+00  0.00000000000E+00 -0.78470607045E+03  0.78470607046E+03  0.50400001928E-02 0. -1.
    10030    2    1    2    0    0  0.00000000000E+00  0.00000000000E+00 -0.52990907901E+03  0.10395030619E+04  0.89429468509E+03 0.  0.
        3    1    3    3  502    0  0.21817991197E+03  0.36297415526E+03 -0.98171278879E+02  0.43473017099E+03  0.10100000352E+00 0. -1.
       -3    1    3    3    0  502 -0.21817991197E+03 -0.36297415526E+03 -0.43173780013E+03  0.60477289096E+03  0.10100000352E+00 0.  1.
</event>
<event>
 5   0  0.8885324E-03  0.9126742E+03  0.7818609E-02  0.9409875E-01
        1   -1    0    0  501    0  0.00000000000E+00  0.00000000000E+00  0.12194885209E+04  0.12194885209E+04  0.50400001928E-02 0. -1.
       -1   -1    0    0    0  501  0.00000000000E+00  0.00000000000E+00 -0.17076302494E+03  0.17076302502E+03  0.50400001928E-02 0.  1.
    10030    2    1    2    0    0  0.00000000000E+00  0.00000000000E+00  0.10487254960E+04  0.13902515459E+04  0.91267419987E+03 0.  0.
        2    1    3    3  502    0 -0.36013583332E+03  0.15176220910E+03  0.16545839503E+03  0.42438905151E+03  0.25500000920E-02 0.  1.
       -2    1    3    3    0  502  0.36013583332E+03 -0.15176220910E+03  0.88326710095E+03  0.96586249444E+03  0.25500000920E-02 0. -1.
</event>
<event>
 5   0  0.1535906E-02  0.9113666E+03  0.7818609E-02  0.9411483E-01
        2   -1    0    0  501    0  0.00000000000E+00  0.00000000000E+00  0.14270422356E+04  0.14270422356E+04  0.25500000920E-02 0.  1.
       -2   -1    0    0    0  501  0.00000000000E+00  0.00000000000E+00 -0.14550883819E+03  0.14550883821E+03  0.25500000920E-02 0. -1.
    10030    2    1    2    0    0  0.00000000000E+00  0.00000000000E+00  0.12815333974E+04  0.15725510738E+04  0.91136657337E+03 0.  0.
        2    1    3    3  502    0 -0.10048040031E+03 -0.99758976876E+02 -0.10658845111E+03  0.17722658443E+03  0.25500000920E-02 0. -1.
       -2    1    3    3    0  502  0.10048040031E+03  0.99758976876E+02  0.13881218485E+04  0.13953244893E+04  0.25500000920E-02 0.  1.
</event>
<event>
 5   0  0.8885324E-03  0.8953250E+03  0.7818609E-02  0.9431444E-01
       -1   -1    0    0    0  501  0.00000000000E+00  0.00000000000E+00  0.32174207580E+03  0.32174207584E+03  0.50400001928E-02 0.  1.
        1   -1    0    0  501    0  0.00000000000E+00  0.00000000000E+00 -0.62286444715E+03  0.62286444717E+03  0.50400001928E-02 0. -1.
    10030    2    1    2    0    0  0.00000000000E+00  0.00000000000E+00 -0.30112237135E+03  0.94460652301E+03  0.89532496938E+03 0.  0.
        2    1    3    3  502    0 -0.18486270507E+03  0.20811233979E+03  0.21933150606E+03  0.35438859358E+03  0.25500000920E-02 0.  1.
       -2    1    3    3    0  502  0.18486270507E+03 -0.20811233979E+03 -0.52045387742E+03  0.59021792943E+03  0.25500000920E-02 0. -1.
</event>
<event>
 5   0  0.5770125E-03  0.9043359E+03  0.7818609E-02  0.9420178E-01
        3   -1    0    0  501    0  0.00000000000E+00  0.00000000000E+00  0.15558305791E+04  0.15558305823E+04  0.10100000352E+00 0. -1.
       -3   -1    0    0    0  501  0.00000000000E+00  0.00000000000E+00 -0.13141264382E+03  0.13141268263E+03  0.10100000352E+00 0.  1.
    10030    2    1    2    0    0  0.00000000000E+00  0.00000000000E+00  0.14244179352E+04  0.16872432650E+04  0.90433587840E+03 0.  0.
        4    1    3    3  502    0  0.47961149238E+02  0.43980869098E+03  0.53796295428E+03  0.69651827656E+03  0.12699999809E+01 0.  1.
       -4    1    3    3    0  502 -0.47961149238E+02 -0.43980869098E+03  0.88645498097E+03  0.99072498842E+03  0.12699999809E+01 0. -1.
</event>
<event>
 5   0  0.1483326E-02  0.9088934E+03  0.7818609E-02  0.9414532E-01
        2   -1    0    0  501    0  0.00000000000E+00  0.00000000000E+00  0.45145546675E+03  0.45145546676E+03  0.25500000920E-02 0.  1.
       -2   -1    0    0    0  501  0.00000000000E+00  0.00000000000E+00 -0.45745777682E+03  0.45745777683E+03  0.25500000920E-02 0. -1.
    10030    2    1    2    0    0  0.00000000000E+00  0.00000000000E+00 -0.60023100692E+01  0.90891324359E+03  0.90889342425E+03 0.  0.
        1    1    3    3  502    0 -0.40656409257E+03 -0.20002018257E+03  0.31919218853E+02  0.45422601352E+03  0.50400001928E-02 0.  1.
       -1    1    3    3    0  502  0.40656409257E+03  0.20002018257E+03 -0.37921528922E+02  0.45468723006E+03  0.50400001928E-02 0. -1.
</event>
<event>
 5   0  0.8612969E-03  0.8994288E+03  0.7818609E-02  0.9426296E-01
       -1   -1    0    0    0  501  0.00000000000E+00  0.00000000000E+00  0.14913858582E+03  0.14913858590E+03  0.50400001928E-02 0.  1.
        1   -1    0    0  501    0  0.00000000000E+00  0.00000000000E+00 -0.13560745126E+04  0.13560745126E+04  0.50400001928E-02 0. -1.
    10030    2    1    2    0    0  0.00000000000E+00  0.00000000000E+00 -0.12069359267E+04  0.15052130985E+04  0.89942878570E+03 0.  0.
        4    1    3    3  502    0 -0.44188007263E+02  0.43648672183E+03 -0.43806696747E+03  0.61998187006E+03  0.12699999809E+01 0. -1.
       -4    1    3    3    0  502  0.44188007263E+02 -0.43648672183E+03 -0.76886895927E+03  0.88523122841E+03  0.12699999809E+01 0.  1.
</event>
<event>
 5   0  0.8291252E-03  0.8517359E+03  0.7818609E-02  0.9488010E-01
        1   -1    0    0  501    0  0.00000000000E+00  0.00000000000E+00  0.19963673513E+03  0.19963673519E+03  0.50400001928E-02 0.  1.
       -1   -1    0    0    0  501  0.00000000000E+00  0.00000000000E+00 -0.90846764227E+03  0.90846764229E+03  0.50400001928E-02 0. -1.
    10030    2    1    2    0    0  0.00000000000E+00  0.00000000000E+00 -0.70883090715E+03  0.11081043775E+04  0.85173590769E+03 0.  0.
        1    1    3    3  502    0 -0.36332936926E+03  0.13317374493E+01 -0.64344000530E+03  0.73893507464E+03  0.50400001928E-02 0. -1.
       -1    1    3    3    0  502  0.36332936926E+03 -0.13317374493E+01 -0.65390901854E+02  0.36916930284E+03  0.50400001928E-02 0.  1.
</event>
<event>
 5   0  0.8885324E-03  0.9045684E+03  0.7818609E-02  0.9419889E-01
       -1   -1    0    0    0  501  0.00000000000E+00  0.00000000000E+00  0.10755803019E+03  0.10755803031E+03  0.50400001928E-02 0. -1.
        1   -1    0    0  501    0  0.00000000000E+00  0.00000000000E+00 -0.19018664871E+04  0.19018664871E+04  0.50400001928E-02 0.  1.
    10030    2    1    2    0    0  0.00000000000E+00  0.00000000000E+00 -0.17943084569E+04  0.20094245174E+04  0.90456843446E+03 0.  0.
        2    1    3    3  502    0 -0.15642644880E+03 -0.41958666708E+03 -0.75597952760E+03  0.87865081302E+03  0.25500000920E-02 0. -1.
       -2    1    3    3    0  502  0.15642644880E+03  0.41958666708E+03 -0.10383289293E+04  0.11307737043E+04  0.25500000920E-02 0.  1.
</event>
<event>
 5   0  0.1483326E-02  0.8658458E+03  0.7818609E-02  0.9469313E-01
        2   -1    0    0  501    0  0.00000000000E+00  0.00000000000E+00  0.14991098784E+04  0.14991098784E+04  0.25500000920E-02 0.  1.
       -2   -1    0    0    0  501  0.00000000000E+00  0.00000000000E+00 -0.12502234184E+03  0.12502234186E+03  0.25500000920E-02 0. -1.
    10030    2    1    2    0    0  0.00000000000E+00  0.00000000000E+00  0.13740875365E+04  0.16241322202E+04  0.86584577769E+03 0.  0.
        1    1    3    3  502    0 -0.34556682258E+03 -0.26733630560E+02  0.20045767716E+03  0.40039280242E+03  0.50400001928E-02 0. -1.
       -1    1    3    3    0  502  0.34556682258E+03  0.26733630560E+02  0.11736298594E+04  0.12237394178E+04  0.50400001928E-02 0.  1.
</event>
<event>
 5   0  0.1441195E-02  0.9057090E+03  0.7818609E-02  0.9418473E-01
        2   -1    0    0  501    0  0.00000000000E+00  0.00000000000E+00  0.14053953219E+04  0.14053953219E+04  0.25500000920E-02 0.  1.
       -2   -1    0    0    0  501  0.00000000000E+00  0.00000000000E+00 -0.14592135701E+03  0.14592135704E+03  0.25500000920E-02 0. -1.
    10030    2    1    2    0    0  0.00000000000E+00  0.00000000000E+00  0.12594739649E+04  0.15513166790E+04  0.90570898756E+03 0.  0.
        5    1    3    3  502    0 -0.14262795506E+03 -0.51104501411E+02  0.13606531877E+04  0.13690703381E+04  0.46999998093E+01 0.  1.
       -5    1    3    3    0  502  0.14262795506E+03  0.51104501411E+02 -0.10117922276E+03  0.18224634083E+03  0.46999998093E+01 0. -1.
</event>
<event>
 5   0  0.8738044E-03  0.9183842E+03  0.7818609E-02  0.9402888E-01
        1   -1    0    0  501    0  0.00000000000E+00  0.00000000000E+00  0.36950501489E+03  0.36950501492E+03  0.50400001928E-02 0.  1.
       -1   -1    0    0    0  501  0.00000000000E+00  0.00000000000E+00 -0.57064825569E+03  0.57064825571E+03  0.50400001928E-02 0. -1.
    10030    2    1    2    0    0  0.00000000000E+00  0.00000000000E+00 -0.20114324080E+03  0.94015327063E+03  0.91838421642E+03 0.  0.
        3    1    3    3  502    0  0.13071978607E+03  0.73642951815E+02  0.34370448122E+03  0.37502496908E+03  0.10100000352E+00 0.  1.
       -3    1    3    3    0  502 -0.13071978607E+03 -0.73642951815E+02 -0.54484772202E+03  0.56512830155E+03  0.10100000352E+00 0. -1.
</event>
<event>
 5   0  0.1454652E-02  0.9013926E+03  0.7818609E-02  0.9423842E-01
        2   -1    0    0  501    0  0.00000000000E+00  0.00000000000E+00  0.12722766431E+04  0.12722766431E+04  0.25500000920E-02 0.  1.
       -2   -1    0    0    0  501  0.00000000000E+00  0.00000000000E+00 -0.15965644349E+03  0.15965644351E+03  0.25500000920E-02 0. -1.
    10030    2    1    2    0    0  0.00000000000E+00  0.00000000000E+00  0.11126201997E+04  0.14319330867E+04  0.90139262033E+03 0.  0.
        4    1    3    3  502    0  0.97019965617E+02 -0.19624358480E+03 -0.69519599775E+02  0.22969328670E+03  0.12699999809E+01 0. -1.
       -4    1    3    3    0  502 -0.97019965617E+02  0.19624358480E+03  0.11821397994E+04  0.12022398000E+04  0.12699999809E+01 0.  1.
</event>
<event>
 5   0  0.8612969E-03  0.9023777E+03  0.7818609E-02  0.9422614E-01
        1   -1    0    0  501    0  0.00000000000E+00  0.00000000000E+00  0.66665709565E+03  0.66665709567E+03  0.50400001928E-02 0.  1.
       -1   -1    0    0    0  501  0.00000000000E+00  0.00000000000E+00 -0.30536142506E+03  0.30536142510E+03  0.50400001928E-02 0. -1.
    10030    2    1    2    0    0  0.00000000000E+00  0.00000000000E+00  0.36129567059E+03  0.97201852078E+03  0.90237766104E+03 0.  0.
        4    1    3    3  502    0 -0.41374706490E+01 -0.17682330811E+03 -0.26645907655E+03  0.31982128342E+03  0.12699999809E+01 0. -1.
       -4    1    3    3    0  502  0.41374706490E+01  0.17682330811E+03  0.62775474714E+03  0.65219723735E+03  0.12699999809E+01 0.  1.
</event>
<event>
 5   0  0.8524692E-03  0.8505624E+03  0.7818609E-02  0.9489582E-01
        1   -1    0    0  501    0  0.00000000000E+00  0.00000000000E+00  0.11581155015E+04  0.11581155015E+04  0.50400001928E-02 0.  1.
       -1   -1    0    0    0  501  0.00000000000E+00  0.00000000000E+00 -0.15617102199E+03  0.15617102208E+03  0.50400001928E-02 0. -1.
    10030    2    1    2    0    0  0.00000000000E+00  0.00000000000E+00  0.10019444795E+04  0.13142865235E+04  0.85056235870E+03 0.  0.
        5    1    3    3  502    0  0.37624475282E+03  0.19789887117E+03  0.51775127867E+03  0.66993473846E+03  0.46999998093E+01 0.  1.
       -5    1    3    3    0  502 -0.37624475282E+03 -0.19789887117E+03  0.48419320079E+03  0.64435178507E+03  0.46999998093E+01 0. -1.
</event>
<event>
 5   0  0.8885324E-03  0.9163701E+03  0.7818609E-02  0.9405346E-01
       -1   -1    0    0    0  501  0.00000000000E+00  0.00000000000E+00  0.28683923266E+03  0.28683923270E+03  0.50400001928E-02 0.  1.
        1   -1    0    0  501    0  0.00000000000E+00  0.00000000000E+00 -0.73188568514E+03  0.73188568515E+03  0.50400001928E-02 0. -1.
    10030    2    1    2    0    0  0.00000000000E+00  0.00000000000E+00 -0.44504645248E+03  0.10187249179E+04  0.91637007448E+03 0.  0.
        2    1    3    3  502    0  0.35107827188E+03  0.17615282727E+03 -0.48476982366E+03  0.62392912537E+03  0.25500000920E-02 0. -1.
       -2    1    3    3    0  502 -0.35107827188E+03 -0.17615282727E+03  0.39723371188E+02  0.39479579249E+03  0.25500000920E-02 0.  1.
</event>
<event>
 5   0  0.8885324E-03  0.8831436E+03  0.7818609E-02  0.9446902E-01
       -1   -1    0    0    0  501  0.00000000000E+00  0.00000000000E+00  0.17147977172E+03  0.17147977179E+03  0.50400001928E-02 0. -1.
        1   -1    0    0  501    0  0.00000000000E+00  0.00000000000E+00 -0.11370766691E+04  0.11370766691E+04  0.50400001928E-02 0.  1.
    10030    2    1    2    0    0  0.00000000000E+00  0.00000000000E+00 -0.96559689738E+03  0.13085564409E+04  0.88314358447E+03 0.  0.
        2    1    3    3  502    0  0.66509269388E+02  0.28594028746E+03 -0.97153657665E+03  0.10149229777E+04  0.25500000920E-02 0.  1.
       -2    1    3    3    0  502 -0.66509269388E+02 -0.28594028746E+03  0.59396792699E+01  0.29363346319E+03  0.25500000920E-02 0. -1.
</event>
<event>
 5   0  0.8524692E-03  0.8994911E+03  0.7818609E-02  0.9426218E-01
        1   -1    0    0  501    0  0.00000000000E+00  0.00000000000E+00  0.16161652586E+03  0.16161652594E+03  0.50400001928E-02 0.  1.
       -1   -1    0    0    0  501  0.00000000000E+00  0.00000000000E+00 -0.12515494236E+04  0.12515494236E+04  0.50400001928E-02 0. -1.
    10030    2    1    2    0    0  0.00000000000E+00  0.00000000000E+00 -0.10899328978E+04  0.14131659496E+04  0.89949112246E+03 0.  0.
        5    1    3    3  502    0  0.19258058954E+02 -0.18558453473E+03 -0.11878337487E+04  0.12024074172E+04  0.46999998093E+01 0. -1.
       -5    1    3    3    0  502 -0.19258058954E+02  0.18558453473E+03  0.97900850924E+02  0.21075853239E+03  0.46999998093E+01 0.  1.
</event>
<event>
 5   0  0.8524692E-03  0.8930431E+03  0.7818609E-02  0.9434320E-01
        1   -1    0    0  501    0  0.00000000000E+00  0.00000000000E+00  0.32825924711E+03  0.32825924715E+03  0.50400001928E-02 0.  1.
       -1   -1    0    0    0  501  0.00000000000E+00  0.00000000000E+00 -0.60739037166E+03  0.60739037168E+03  0.50400001928E-02 0. -1.
    10030    2    1    2    0    0  0.00000000000E+00  0.00000000000E+00 -0.27913112455E+03  0.93564961883E+03  0.89304312579E+03 0.  0.
        5    1    3    3  502    0 -0.43848025138E+03  0.50956760825E+02 -0.20983159148E+03  0.48878718182E+03  0.46999998093E+01 0.  1.
       -5    1    3    3    0  502  0.43848025138E+03 -0.50956760825E+02 -0.69299533070E+02  0.44686243701E+03  0.46999998093E+01 0. -1.
</event>
<event>
 5   0  0.8885324E-03  0.9055614E+03  0.7818609E-02  0.9418656E-01
       -1   -1    0    0    0  501  0.00000000000E+00  0.00000000000E+00  0.22348992051E+03  0.22348992056E+03  0.50400001928E-02 0.  1.
        1   -1    0    0  501    0  0.00000000000E+00  0.00000000000E+00 -0.91731369544E+03  0.91731369545E+03  0.50400001928E-02 0. -1.
    10030    2    1    2    0    0  0.00000000000E+00  0.00000000000E+00 -0.69382377493E+03  0.11408036160E+04  0.90556140578E+03 0.  0.
        2    1    3    3  502    0  0.79696126191E+02 -0.18279891119E+03 -0.85901228332E+03  0.88185544017E+03  0.25500000920E-02 0. -1.
       -2    1    3    3    0  502 -0.79696126191E+02  0.18279891119E+03  0.16518850839E+03  0.25894817584E+03  0.25500000920E-02 0.  1.
</event>
<event>
 5   0  0.8885324E-03  0.8880176E+03  0.7818609E-02  0.9440685E-01
        1   -1    0    0  501    0  0.00000000000E+00  0.00000000000E+00  0.11198553675E+04  0.11198553675E+04  0.50400001928E-02 0.  1.
       -1   -1    0    0    0  501  0.00000000000E+00  0.00000000000E+00 -0.17604400461E+03  0.17604400468E+03  0.50400001928E-02 0. -1.
    10030    2    1    2    0    0  0.00000000000E+00  0.00000000000E+00  0.94381136292E+03  0.12958993722E+04  0.88801762041E+03 0.  0.
        2    1    3    3  502    0 -0.16661030358E+02 -0.11309801688E+03  0.10980107014E+04  0.11039457649E+04  0.25500000920E-02 0.  1.
       -2    1    3    3    0  502  0.16661030358E+02  0.11309801688E+03 -0.15419933853E+03  0.19195360732E+03  0.25500000920E-02 0. -1.
</event>
<event>
 5   0  0.5770125E-03  0.9001593E+03  0.7818609E-02  0.9425382E-01
       -4   -1    0    0    0  501  0.00000000000E+00  0.00000000000E+00  0.11549820426E+04  0.11549827408E+04  0.12699999809E+01 0. -1.
        4   -1    0    0  501    0  0.00000000000E+00  0.00000000000E+00 -0.17538644177E+03  0.17539103985E+03  0.12699999809E+01 0.  1.
    10030    2    1    2    0    0  0.00000000000E+00  0.00000000000E+00  0.97959560080E+03  0.13303737807E+04  0.90015934987E+03 0.  0.
        4    1    3    3  502    0 -0.52707453286E+02 -0.29546425491E+02  0.11489602379E+04  0.11505486987E+04  0.12699999809E+01 0. -1.
       -4    1    3    3    0  502  0.52707453286E+02  0.29546425491E+02 -0.16936463712E+03  0.17982508195E+03  0.12699999809E+01 0.  1.
</event>
<event>
 5   0  0.1483326E-02  0.9136161E+03  0.7818609E-02  0.9408719E-01
        2   -1    0    0  501    0  0.00000000000E+00  0.00000000000E+00  0.13398143510E+04  0.13398143510E+04  0.25500000920E-02 0. -1.
       -2   -1    0    0    0  501  0.00000000000E+00  0.00000000000E+00 -0.15574813273E+03  0.15574813276E+03  0.25500000920E-02 0.  1.
    10030    2    1    2    0    0  0.00000000000E+00  0.00000000000E+00  0.11840662183E+04  0.14955624838E+04  0.91361607560E+03 0.  0.
        1    1    3    3  502    0 -0.21506740505E+03  0.80241139649E+02 -0.54478929186E+02  0.23592495196E+03  0.50400001928E-02 0.  1.
       -1    1    3    3    0  502  0.21506740505E+03 -0.80241139649E+02  0.12385451475E+04  0.12596375318E+04  0.50400001928E-02 0. -1.
</event>
<event>
 5   0  0.8524692E-03  0.8473434E+03  0.7818609E-02  0.9493910E-01
       -1   -1    0    0    0  501  0.00000000000E+00  0.00000000000E+00  0.31872194295E+03  0.31872194299E+03  0.50400001928E-02 0.  1.
        1   -1    0    0  501    0  0.00000000000E+00  0.00000000000E+00 -0.56317958511E+03  0.56317958513E+03  0.50400001928E-02 0. -1.
    10030    2    1    2    0    0  0.00000000000E+00  0.00000000000E+00 -0.24445764216E+03  0.88190152812E+03  0.84734335809E+03 0.  0.
        5    1    3    3  502    0  0.20111060876E+02  0.23284305267E+03  0.24553083676E+03  0.33901006437E+03  0.46999998093E+01 0.  1.
       -5    1    3    3    0  502 -0.20111060876E+02 -0.23284305267E+03 -0.48998847892E+03  0.54289146375E+03  0.46999998093E+01 0. -1.
</event>
<event>
 5   0  0.8885324E-03  0.9450997E+03  0.7818609E-02  0.9370897E-01
        1   -1    0    0  501    0  0.00000000000E+00  0.00000000000E+00  0.80795425618E+03  0.80795425620E+03  0.50400001928E-02 0. -1.
       -1   -1    0    0    0  501  0.00000000000E+00  0.00000000000E+00 -0.27638117344E+03  0.27638117348E+03  0.50400001928E-02 0.  1.
    10030    2    1    2    0    0  0.00000000000E+00  0.00000000000E+00  0.53157308274E+03  0.10843354297E+04  0.94509966763E+03 0.  0.
        2    1    3    3  502    0 -0.23224171244E+03  0.38751356092E+03  0.10680713707E+03  0.46423134043E+03  0.25500000920E-02 0.  1.
       -2    1    3    3    0  502  0.23224171244E+03 -0.38751356092E+03  0.42476594567E+03  0.62010408925E+03  0.25500000920E-02 0. -1.
</event>
<event>
 5   0  0.8291252E-03  0.9621276E+03  0.7818609E-02  0.9351086E-01
        1   -1    0    0  501    0  0.00000000000E+00  0.00000000000E+00  0.59858218325E+03  0.59858218327E+03  0.50400001928E-02 0.  1.
       -1   -1    0    0    0  501  0.00000000000E+00  0.00000000000E+00 -0.38661757559E+03  0.38661757562E+03  0.50400001928E-02 0. -1.
    10030    2    1    2    0    0  0.00000000000E+00  0.00000000000E+00  0.21196460766E+03  0.98519975889E+03  0.96212762668E+03 0.  0.
        1    1    3    3  502    0 -0.10534142669E+03 -0.42253843503E+03 -0.10333802789E+03  0.44756484813E+03  0.50400001928E-02 0. -1.
       -1    1    3    3    0  502  0.10534142669E+03  0.42253843503E+03  0.31530263555E+03  0.53763491076E+03  0.50400001928E-02 0.  1.
</event>
<event>
 5   0  0.1441195E-02  0.9302555E+03  0.7818609E-02  0.9388531E-01
        2   -1    0    0  501    0  0.00000000000E+00  0.00000000000E+00  0.12555498820E+04  0.12555498820E+04  0.25500000920E-02 0.  1.
       -2   -1    0    0    0  501  0.00000000000E+00  0.00000000000E+00 -0.17231002455E+03  0.17231002457E+03  0.25500000920E-02 0. -1.
    10030    2    1    2    0    0  0.00000000000E+00  0.00000000000E+00  0.10832398574E+04  0.14278599066E+04  0.93025551545E+03 0.  0.
        5    1    3    3  502    0 -0.58349791984E+02 -0.37766654725E+02  0.12474968876E+04  0.12494405120E+04  0.46999998093E+01 0.  1.
       -5    1    3    3    0  502  0.58349791984E+02  0.37766654725E+02 -0.16425703012E+03  0.17841939462E+03  0.46999998093E+01 0. -1.
</event>
<event>
 5   0  0.1441195E-02  0.8759198E+03  0.7818609E-02  0.9456194E-01
       -2   -1    0    0    0  501  0.00000000000E+00  0.00000000000E+00  0.47376455244E+03  0.47376455245E+03  0.25500000920E-02 0.  1.
        2   -1    0    0  501    0  0.00000000000E+00  0.00000000000E+00 -0.40486120276E+03  0.40486120277E+03  0.25500000920E-02 0. -1.
    10030    2    1    2    0    0  0.00000000000E+00  0.00000000000E+00  0.68903349679E+02  0.87862575522E+03  0.87591982860E+03 0.  0.
        5    1    3    3  502    0  0.21980861444E+03 -0.23600262282E+03 -0.26272988160E+03  0.41600738653E+03  0.46999998093E+01 0. -1.
       -5    1    3    3    0  502 -0.21980861444E+03  0.23600262282E+03  0.33163323127E+03  0.46261836869E+03  0.46999998093E+01 0.  1.
</event>
<event>
 5   0  0.1454652E-02  0.9003056E+03  0.7818609E-02  0.9425200E-01
        2   -1    0    0  501    0  0.00000000000E+00  0.00000000000E+00  0.37855522526E+03  0.37855522527E+03  0.25500000920E-02 0.  1.
       -2   -1    0    0    0  501  0.00000000000E+00  0.00000000000E+00 -0.53529188165E+03  0.53529188166E+03  0.25500000920E-02 0. -1.
    10030    2    1    2    0    0  0.00000000000E+00  0.00000000000E+00 -0.15673665639E+03  0.91384710693E+03  0.90030559000E+03 0.  0.
        4    1    3    3  502    0  0.38860524857E+03  0.33831692888E+02 -0.30641916338E+03  0.49603723575E+03  0.12699999809E+01 0. -1.
       -4    1    3    3    0  502 -0.38860524857E+03 -0.33831692888E+02  0.14968250699E+03  0.41780987118E+03  0.12699999809E+01 0.  1.
</event>
<event>
 5   0  0.8524692E-03  0.9065964E+03  0.7818609E-02  0.9417373E-01
        1   -1    0    0  501    0  0.00000000000E+00  0.00000000000E+00  0.72383306403E+03  0.72383306405E+03  0.50400001928E-02 0.  1.
       -1   -1    0    0    0  501  0.00000000000E+00  0.00000000000E+00 -0.28387658986E+03  0.28387658990E+03  0.50400001928E-02 0. -1.
    10030    2    1    2    0    0  0.00000000000E+00  0.00000000000E+00  0.43995647417E+03  0.10077096540E+04  0.90659640828E+03 0.  0.
        5    1    3    3  502    0  0.33952163747E+02 -0.35625951202E+03  0.52918276215E+03  0.63885058901E+03  0.46999998093E+01 0.  1.
       -5    1    3    3    0  502 -0.33952163747E+02  0.35625951202E+03 -0.89226287976E+02  0.36885906494E+03  0.46999998093E+01 0. -1.
</event>
<event>
 5   0  0.1535906E-02  0.8937146E+03  0.7818609E-02  0.9433473E-01
        2   -1    0    0  501    0  0.00000000000E+00  0.00000000000E+00  0.25981939844E+03  0.25981939845E+03  0.25500000920E-02 0. -1.
       -2   -1    0    0    0  501  0.00000000000E+00  0.00000000000E+00 -0.76853946735E+03  0.76853946736E+03  0.25500000920E-02 0.  1.
    10030    2    1    2    0    0  0.00000000000E+00  0.00000000000E+00 -0.50872006892E+03  0.10283588658E+04  0.89371463475E+03 0.  0.
        2    1    3    3  502    0 -0.19002605089E+03  0.35570615575E+02 -0.71792809614E+03  0.74350246801E+03  0.25500000920E-02 0.  1.
       -2    1    3    3    0  502  0.19002605089E+03 -0.35570615575E+02  0.20920802722E+03  0.28485639780E+03  0.25500000920E-02 0. -1.
</event>
<event>
 5   0  0.8885324E-03  0.9001011E+03  0.7818609E-02  0.9425455E-01
        1   -1    0    0  501    0  0.00000000000E+00  0.00000000000E+00  0.64830888348E+03  0.64830888349E+03  0.50400001928E-02 0. -1.
       -1   -1    0    0    0  501  0.00000000000E+00  0.00000000000E+00 -0.31242127598E+03  0.31242127602E+03  0.50400001928E-02 0.  1.
    10030    2    1    2    0    0  0.00000000000E+00  0.00000000000E+00  0.33588760750E+03  0.96073015951E+03  0.90010108017E+03 0.  0.
        2    1    3    3  502    0  0.62028468860E+02  0.15102695789E+03  0.61558418180E+03  0.63686777108E+03  0.25500000920E-02 0. -1.
       -2    1    3    3    0  502 -0.62028468860E+02 -0.15102695789E+03 -0.27969657430E+03  0.32386238843E+03  0.25500000920E-02 0.  1.
</event>
<event>
 5   0  0.1535906E-02  0.8883269E+03  0.7818609E-02  0.9440292E-01
        2   -1    0    0  501    0  0.00000000000E+00  0.00000000000E+00  0.42870111858E+03  0.42870111859E+03  0.25500000920E-02 0. -1.
       -2   -1    0    0    0  501  0.00000000000E+00  0.00000000000E+00 -0.46018343498E+03  0.46018343499E+03  0.25500000920E-02 0.  1.
    10030    2    1    2    0    0  0.00000000000E+00  0.00000000000E+00 -0.31482316405E+02  0.88888455358E+03  0.88832686177E+03 0.  0.
        2    1    3    3  502    0 -0.15282953762E+03 -0.29631522206E+03  0.27790785536E+03  0.43404188101E+03  0.25500000920E-02 0. -1.
       -2    1    3    3    0  502  0.15282953762E+03  0.29631522206E+03 -0.30939017177E+03  0.45484267257E+03  0.25500000920E-02 0.  1.
</event>
<event>
 5   0  0.8524692E-03  0.8913252E+03  0.7818609E-02  0.9436491E-01
       -1   -1    0    0    0  501  0.00000000000E+00  0.00000000000E+00  0.17409921517E+03  0.17409921524E+03  0.50400001928E-02 0. -1.
        1   -1    0    0  501    0  0.00000000000E+00  0.00000000000E+00 -0.11408157775E+04  0.11408157775E+04  0.50400001928E-02 0.  1.
    10030    2    1    2    0    0  0.00000000000E+00  0.00000000000E+00 -0.96671656229E+03  0.13149149927E+04  0.89132515182E+03 0.  0.
        5    1    3    3  502    0 -0.36592056087E+03  0.16468226485E+03 -0.76932180635E+03  0.86769593577E+03  0.46999998093E+01 0.  1.
       -5    1    3    3    0  502  0.36592056087E+03 -0.16468226485E+03 -0.19739475594E+03  0.44721905694E+03  0.46999998093E+01 0. -1.
</event>
<event>
 5   0  0.1454652E-02  0.8842333E+03  0.7818609E-02  0.9445508E-01
        2   -1    0    0  501    0  0.00000000000E+00  0.00000000000E+00  0.17895669167E+04  0.17895669167E+04  0.25500000920E-02 0.  1.
       -2   -1    0    0    0  501  0.00000000000E+00  0.00000000000E+00 -0.10922594187E+03  0.10922594190E+03  0.25500000920E-02 0. -1.
    10030    2    1    2    0    0  0.00000000000E+00  0.00000000000E+00  0.16803409749E+04  0.18987928586E+04  0.88423329963E+03 0.  0.
        4    1    3    3  502    0 -0.20733106400E+03  0.23834502246E+03  0.15043735576E+04  0.15371844175E+04  0.12699999809E+01 0.  1.
       -4    1    3    3    0  502  0.20733106400E+03 -0.23834502246E+03  0.17596741728E+03  0.36160844110E+03  0.12699999809E+01 0. -1.
</event>
<event>
 5   0  0.8291252E-03  0.9365950E+03  0.7818609E-02  0.9380958E-01
        1   -1    0    0  501    0  0.00000000000E+00  0.00000000000E+00  0.14089501394E+04  0.14089501394E+04  0.50400001928E-02 0.  1.
       -1   -1    0    0    0  501  0.00000000000E+00  0.00000000000E+00 -0.15564960032E+03  0.15564960040E+03  0.50400001928E-02 0. -1.
    10030    2    1    2    0    0  0.00000000000E+00  0.00000000000E+00  0.12533005391E+04  0.15645997398E+04  0.93659495223E+03 0.  0.
        1    1    3    3  502    0 -0.52714647763E+02 -0.22617505393E+03 -0.52675177086E+02  0.23813580877E+03  0.50400001928E-02 0. -1.
       -1    1    3    3    0  502  0.52714647763E+02  0.22617505393E+03  0.13059757162E+04  0.13264639310E+04  0.50400001928E-02 0.  1.
</event>
<event>
 5   0  0.8524692E-03  0.9260890E+03  0.7818609E-02  0.9393544E-01
        1   -1    0    0  501    0  0.00000000000E+00  0.00000000000E+00  0.16036322305E+04  0.16036322305E+04  0.50400001928E-02 0.  1.
       -1   -1    0    0    0  501  0.00000000000E+00  0.00000000000E+00 -0.13370286761E+03  0.13370286770E+03  0.50400001928E-02 0. -1.
    10030    2    1    2    0    0  0.00000000000E+00  0.00000000000E+00  0.14699293629E+04  0.17373350982E+04  0.92608904085E+03 0.  0.
        5    1    3    3  502    0  0.22698334878E+03 -0.39603844187E+03  0.58940600229E+03  0.74551285274E+03  0.46999998093E+01 0.  1.
       -5    1    3    3    0  502 -0.22698334878E+03  0.39603844187E+03  0.88052336058E+03  0.99182224546E+03  0.46999998093E+01 0. -1.
</event>
<event>
 5   0  0.8612969E-03  0.9118110E+03  0.7818609E-02  0.9410936E-01
        1   -1    0    0  501    0  0.00000000000E+00  0.00000000000E+00  0.77215014591E+03  0.77215014593E+03  0.50400001928E-02 0.  1.
       -1   -1    0    0    0  501  0.00000000000E+00  0.00000000000E+00 -0.26918317039E+03  0.26918317043E+03  0.50400001928E-02 0. -1.
    10030    2    1    2    0    0  0.00000000000E+00  0.00000000000E+00  0.50296697552E+03  0.10413333164E+04  0.91181099867E+03 0.  0.
        4    1    3    3  502    0 -0.27114409562E+02  0.45212932387E+03  0.19222779161E+03  0.49204598715E+03  0.12699999809E+01 0.  1.
       -4    1    3    3    0  502  0.27114409562E+02 -0.45212932387E+03  0.31073918391E+03  0.54928732921E+03  0.12699999809E+01 0. -1.
</event>
<event>
 5   0  0.1535906E-02  0.9041481E+03  0.7818609E-02  0.9420411E-01
        2   -1    0    0  501    0  0.00000000000E+00  0.00000000000E+00  0.23844942289E+03  0.23844942291E+03  0.25500000920E-02 0.  1.
       -2   -1    0    0    0  501  0.00000000000E+00  0.00000000000E+00 -0.85708298243E+03  0.85708298243E+03  0.25500000920E-02 0. -1.
    10030    2    1    2    0    0  0.00000000000E+00  0.00000000000E+00 -0.61863355953E+03  0.10955324053E+04  0.90414809083E+03 0.  0.
        2    1    3    3  502    0  0.38492651974E+03 -0.18384487324E+01 -0.59656045986E+03  0.70996914564E+03  0.25500000920E-02 0. -1.
       -2    1    3    3    0  502 -0.38492651974E+03  0.18384487324E+01 -0.22073099676E+02  0.38556325969E+03  0.25500000920E-02 0.  1.
</event>
<event>
 5   0  0.1440615E-02  0.9046836E+03  0.7818609E-02  0.9419746E-01
       -2   -1    0    0    0  501  0.00000000000E+00  0.00000000000E+00  0.41053547923E+03  0.41053547923E+03  0.25500000920E-02 0. -1.
        2   -1    0    0  501    0  0.00000000000E+00  0.00000000000E+00 -0.49840545820E+03  0.49840545820E+03  0.25500000920E-02 0.  1.
    10030    2    1    2    0    0  0.00000000000E+00  0.00000000000E+00 -0.87869978971E+02  0.90894093744E+03  0.90468364335E+03 0.  0.
        3    1    3    3  502    0 -0.13970326447E+03 -0.42538437799E+03  0.20743742185E+02  0.44821778655E+03  0.10100000352E+00 0.  1.
       -3    1    3    3    0  502  0.13970326447E+03  0.42538437799E+03 -0.10861372116E+03  0.46072315089E+03  0.10100000352E+00 0. -1.
</event>
<event>
 5   0  0.8524692E-03  0.8995647E+03  0.7818609E-02  0.9426126E-01
       -1   -1    0    0    0  501  0.00000000000E+00  0.00000000000E+00  0.12580233095E+03  0.12580233105E+03  0.50400001928E-02 0. -1.
        1   -1    0    0  501    0  0.00000000000E+00  0.00000000000E+00 -0.16081114084E+04  0.16081114084E+04  0.50400001928E-02 0.  1.
    10030    2    1    2    0    0  0.00000000000E+00  0.00000000000E+00 -0.14823090774E+04  0.17339137395E+04  0.89956470295E+03 0.  0.
        5    1    3    3  502    0  0.18378784899E+03 -0.18302882550E+03 -0.32932750894E+02  0.26150369114E+03  0.46999998093E+01 0. -1.
       -5    1    3    3    0  502 -0.18378784899E+03  0.18302882550E+03 -0.14493763266E+04  0.14724100483E+04  0.46999998093E+01 0.  1.
</event>
<event>
 5   0  0.1441195E-02  0.8949172E+03  0.7818609E-02  0.9431958E-01
        2   -1    0    0  501    0  0.00000000000E+00  0.00000000000E+00  0.81818272646E+03  0.81818272647E+03  0.25500000920E-02 0.  1.
       -2   -1    0    0    0  501  0.00000000000E+00  0.00000000000E+00 -0.24471210113E+03  0.24471210114E+03  0.25500000920E-02 0. -1.
    10030    2    1    2    0    0  0.00000000000E+00  0.00000000000E+00  0.57347062533E+03  0.10628948276E+04  0.89491723441E+03 0.  0.
        5    1    3    3  502    0 -0.36291167261E+03  0.18296964792E+03  0.50897952283E+03  0.65135629177E+03  0.46999998093E+01 0.  1.
       -5    1    3    3    0  502  0.36291167261E+03 -0.18296964792E+03  0.64491102505E+02  0.41153853584E+03  0.46999998093E+01 0. -1.
</event>
<event>
 5   0  0.1441195E-02  0.9199838E+03  0.7818609E-02  0.9400940E-01
       -2   -1    0    0    0  501  0.00000000000E+00  0.00000000000E+00  0.26290714680E+03  0.26290714681E+03  0.25500000920E-02 0. -1.
        2   -1    0    0  501    0  0.00000000000E+00  0.00000000000E+00 -0.80481847075E+03  0.80481847075E+03  0.25500000920E-02 0.  1.
    10030    2    1    2    0    0  0.00000000000E+00  0.00000000000E+00 -0.54191132395E+03  0.10677256176E+04  0.91998375603E+03 0.  0.
        5    1    3    3  502    0  0.65213265505E+02 -0.16871002338E+02 -0.79903518824E+03  0.80188323512E+03  0.46999998093E+01 0.  1.
       -5    1    3    3    0  502 -0.65213265505E+02  0.16871002338E+02  0.25712386429E+03  0.26584238244E+03  0.46999998093E+01 0. -1.
</event>
<event>
 5   0  0.1441195E-02  0.9672676E+03  0.7818609E-02  0.9345192E-01
       -2   -1    0    0    0  501  0.00000000000E+00  0.00000000000E+00  0.11815073996E+03  0.11815073999E+03  0.25500000920E-02 0. -1.
        2   -1    0    0  501    0  0.00000000000E+00  0.00000000000E+00 -0.19796883016E+04  0.19796883016E+04  0.25500000920E-02 0.  1.
    10030    2    1    2    0    0  0.00000000000E+00  0.00000000000E+00 -0.18615375616E+04  0.20978390416E+04  0.96726756951E+03 0.  0.
        5    1    3    3  502    0 -0.76520324148E+02 -0.35274844027E+02  0.10205871349E+03  0.13243015377E+03  0.46999998093E+01 0. -1.
       -5    1    3    3    0  502  0.76520324148E+02  0.35274844027E+02 -0.19635962751E+04  0.19654088878E+04  0.46999998093E+01 0.  1.
</event>
<event>
 5   0  0.8612969E-03  0.9380374E+03  0.7818609E-02  0.9379243E-01
        1   -1    0    0  501    0  0.00000000000E+00  0.00000000000E+00  0.68263390261E+03  0.68263390263E+03  0.50400001928E-02 0.  1.
       -1   -1    0    0    0  501  0.00000000000E+00  0.00000000000E+00 -0.32224966791E+03  0.32224966795E+03  0.50400001928E-02 0. -1.
    10030    2    1    2    0    0  0.00000000000E+00  0.00000000000E+00  0.36038423470E+03  0.10048835706E+04  0.93803741599E+03 0.  0.
        4    1    3    3  502    0 -0.23413286660E+03 -0.40030941568E+03  0.10511884817E+03  0.47551804661E+03  0.12699999809E+01 0. -1.
       -4    1    3    3    0  502  0.23413286660E+03  0.40030941568E+03  0.25526538653E+03  0.52936552397E+03  0.12699999809E+01 0.  1.
</event>
<event>
 5   0  0.1454652E-02  0.9036615E+03  0.7818609E-02  0.9421016E-01
       -2   -1    0    0    0  501  0.00000000000E+00  0.00000000000E+00  0.80850184069E+02  0.80850184109E+02  0.25500000920E-02 0.  1.
        2   -1    0    0  501    0  0.00000000000E+00  0.00000000000E+00 -0.25250530995E+04  0.25250530995E+04  0.25500000920E-02 0. -1.
    10030    2    1    2    0    0  0.00000000000E+00  0.00000000000E+00 -0.24442029154E+04  0.26059032836E+04  0.90366145858E+03 0.  0.
        4    1    3    3  502    0 -0.42689549406E+03 -0.30747678190E+02 -0.16396354226E+04  0.16945769721E+04  0.12699999809E+01 0. -1.
       -4    1    3    3    0  502  0.42689549406E+03  0.30747678190E+02 -0.80456749284E+03  0.91132631148E+03  0.12699999809E+01 0.  1.
</event>
<event>
 5   0  0.8291252E-03  0.9267640E+03  0.7818609E-02  0.9392730E-01
       -1   -1    0    0    0  501  0.00000000000E+00  0.00000000000E+00  0.25381694578E+03  0.25381694583E+03  0.50400001928E-02 0.  1.
        1   -1    0    0  501    0  0.00000000000E+00  0.00000000000E+00 -0.84597530094E+03  0.84597530096E+03  0.50400001928E-02 0. -1.
    10030    2    1    2    0    0  0.00000000000E+00  0.00000000000E+00 -0.59215835516E+03  0.10997922468E+04  0.92676397670E+03 0.  0.
        1    1    3    3  502    0  0.10356789347E+03 -0.35027185619E+03  0.42299744017E+02  0.36770361729E+03  0.50400001928E-02 0.  1.
       -1    1    3    3    0  502 -0.10356789347E+03  0.35027185619E+03 -0.63445809918E+03  0.73208862950E+03  0.50400001928E-02 0. -1.
</event>
<event>
 5   0  0.5770125E-03  0.8959419E+03  0.7818609E-02  0.9430668E-01
       -3   -1    0    0    0  501  0.00000000000E+00  0.00000000000E+00  0.16454143891E+03  0.16454146991E+03  0.10100000352E+00 0. -1.
        3   -1    0    0  501    0  0.00000000000E+00  0.00000000000E+00 -0.12196195595E+04  0.12196195637E+04  0.10100000352E+00 0.  1.
    10030    2    1    2    0    0  0.00000000000E+00  0.00000000000E+00 -0.10550781206E+04  0.13841610336E+04  0.89594192131E+03 0.  0.
        1    1    3    3  502    0  0.27333267378E+03 -0.17195163450E+03 -0.47866387482E+02  0.32644954623E+03  0.50400001928E-02 0. -1.
       -1    1    3    3    0  502 -0.27333267378E+03  0.17195163450E+03 -0.10072117331E+04  0.10577114873E+04  0.50400001928E-02 0.  1.
</event>
<event>
 5   0  0.8291252E-03  0.8809418E+03  0.7818609E-02  0.9449724E-01
       -1   -1    0    0    0  501  0.00000000000E+00  0.00000000000E+00  0.37635843365E+03  0.37635843368E+03  0.50400001928E-02 0.  1.
        1   -1    0    0  501    0  0.00000000000E+00  0.00000000000E+00 -0.51550494734E+03  0.51550494737E+03  0.50400001928E-02 0. -1.
    10030    2    1    2    0    0  0.00000000000E+00  0.00000000000E+00 -0.13914651370E+03  0.89186338105E+03  0.88094184722E+03 0.  0.
        1    1    3    3  502    0  0.53155361583E+02 -0.37862784604E+03 -0.29098554463E+03  0.48047593641E+03  0.50400001928E-02 0. -1.
       -1    1    3    3    0  502 -0.53155361583E+02  0.37862784604E+03  0.15183903093E+03  0.41138744464E+03  0.50400001928E-02 0.  1.
</event>
<event>
 5   0  0.8885324E-03  0.8835640E+03  0.7818609E-02  0.9446364E-01
        1   -1    0    0  501    0  0.00000000000E+00  0.00000000000E+00  0.11969090831E+04  0.11969090831E+04  0.50400001928E-02 0.  1.
       -1   -1    0    0    0  501  0.00000000000E+00  0.00000000000E+00 -0.16306278496E+03  0.16306278504E+03  0.50400001928E-02 0. -1.
    10030    2    1    2    0    0  0.00000000000E+00  0.00000000000E+00  0.10338462981E+04  0.13599718681E+04  0.88356398406E+03 0.  0.
        2    1    3    3  502    0  0.40159088074E+03 -0.17367795993E+03  0.42289320386E+03  0.60850466813E+03  0.25500000920E-02 0.  1.
       -2    1    3    3    0  502 -0.40159088074E+03  0.17367795993E+03  0.61095309424E+03  0.75146719997E+03  0.25500000920E-02 0. -1.
</event>
<event>
 5   0  0.1454652E-02  0.8800871E+03  0.7818609E-02  0.9450822E-01
       -2   -1    0    0    0  501  0.00000000000E+00  0.00000000000E+00  0.29700377357E+03  0.29700377358E+03  0.25500000920E-02 0.  1.
        2   -1    0    0  501    0  0.00000000000E+00  0.00000000000E+00 -0.65197259083E+03  0.65197259084E+03  0.25500000920E-02 0. -1.
    10030    2    1    2    0    0  0.00000000000E+00  0.00000000000E+00 -0.35496881726E+03  0.94897636442E+03  0.88008708603E+03 0.  0.
        4    1    3    3  502    0 -0.37046272300E+02 -0.51025964881E+02  0.29210505459E+03  0.29883616113E+03  0.12699999809E+01 0.  1.
       -4    1    3    3    0  502  0.37046272300E+02  0.51025964881E+02 -0.64707387186E+03  0.65014020328E+03  0.12699999809E+01 0. -1.
</event>
<event>
 5   0  0.8612969E-03  0.8958975E+03  0.7818609E-02  0.9430724E-01
        1   -1    0    0  501    0  0.00000000000E+00  0.00000000000E+00  0.17516230467E+04  0.17516230467E+04  0.50400001928E-02 0.  1.
       -1   -1    0    0    0  501  0.00000000000E+00  0.00000000000E+00 -0.11455550593E+03  0.11455550604E+03  0.50400001928E-02 0. -1.
    10030    2    1    2    0    0  0.00000000000E+00  0.00000000000E+00  0.16370675408E+04  0.18661785528E+04  0.89589745935E+03 0.  0.
        4    1    3    3  502    0  0.90705256948E+02  0.10745146380E+03  0.17044527260E+04  0.17102438331E+04  0.12699999809E+01 0.  1.
       -4    1    3    3    0  502 -0.90705256948E+02 -0.10745146380E+03 -0.67385185182E+02  0.15593471965E+03  0.12699999809E+01 0. -1.
</event>
<event>
 5   0  0.8291252E-03  0.8994393E+03  0.7818609E-02  0.9426283E-01
       -1   -1    0    0    0  501  0.00000000000E+00  0.00000000000E+00  0.53591148184E+03  0.53591148186E+03  0.50400001928E-02 0.  1.
        1   -1    0    0  501    0  0.00000000000E+00  0.00000000000E+00 -0.37739022688E+03  0.37739022692E+03  0.50400001928E-02 0. -1.
    10030    2    1    2    0    0  0.00000000000E+00  0.00000000000E+00  0.15852125496E+03  0.91330170878E+03  0.89943928255E+03 0.  0.
        1    1    3    3  502    0  0.25084062379E+03  0.35795055065E+03  0.18671284298E+03  0.47530127395E+03  0.50400001928E-02 0.  1.
       -1    1    3    3    0  502 -0.25084062379E+03 -0.35795055065E+03 -0.28191588022E+02  0.43800043483E+03  0.50400001928E-02 0. -1.
</event>
<event>
 5   0  0.1483326E-02  0.8926519E+03  0.7818609E-02  0.9434814E-01
        2   -1    0    0  501    0  0.00000000000E+00  0.00000000000E+00  0.30821252068E+04  0.30821252068E+04  0.25500000920E-02 0. -1.
       -2   -1    0    0    0  501  0.00000000000E+00  0.00000000000E+00 -0.64632953275E+02  0.64632953325E+02  0.25500000920E-02 0.  1.
    10030    2    1    2    0    0  0.00000000000E+00  0.00000000000E+00  0.30174922536E+04  0.31467581602E+04  0.89265190206E+03 0.  0.
        1    1    3    3  502    0  0.31148625022E+03 -0.64074720270E+02  0.40475356109E+03  0.51473750504E+03  0.50400001928E-02 0.  1.
       -1    1    3    3    0  502 -0.31148625022E+03  0.64074720270E+02  0.26127386925E+04  0.26320206551E+04  0.50400001928E-02 0. -1.
</event>
<event>
 5   0  0.1441195E-02  0.9138077E+03  0.7818609E-02  0.9408484E-01
       -2   -1    0    0    0  501  0.00000000000E+00  0.00000000000E+00  0.13138284295E+03  0.13138284297E+03  0.25500000920E-02 0.  1.
        2   -1    0    0  501    0  0.00000000000E+00  0.00000000000E+00 -0.15889525795E+04  0.15889525795E+04  0.25500000920E-02 0. -1.
    10030    2    1    2    0    0  0.00000000000E+00  0.00000000000E+00 -0.14575697366E+04  0.17203354225E+04  0.91380765422E+03 0.  0.
        5    1    3    3  502    0 -0.20747175827E+03  0.26062957398E+03 -0.13174303908E+04  0.13589029509E+04  0.46999998093E+01 0. -1.
       -5    1    3    3    0  502  0.20747175827E+03 -0.26062957398E+03 -0.14013934580E+03  0.36143247164E+03  0.46999998093E+01 0.  1.
</event>
<event>
 5   0  0.8612969E-03  0.8868673E+03  0.7818609E-02  0.9442148E-01
       -1   -1    0    0    0  501  0.00000000000E+00  0.00000000000E+00  0.28956885859E+03  0.28956885863E+03  0.50400001928E-02 0.  1.
        1   -1    0    0  501    0  0.00000000000E+00  0.00000000000E+00 -0.67905576941E+03  0.67905576942E+03  0.50400001928E-02 0. -1.
    10030    2    1    2    0    0  0.00000000000E+00  0.00000000000E+00 -0.38948691081E+03  0.96862462806E+03  0.88686730484E+03 0.  0.
        4    1    3    3  502    0  0.42623461669E+03 -0.27344062981E+00 -0.32831108597E+03  0.53802026477E+03  0.12699999809E+01 0.  1.
       -4    1    3    3    0  502 -0.42623461669E+03  0.27344062981E+00 -0.61175824843E+02  0.43060436328E+03  0.12699999809E+01 0. -1.
</event>
<event>
 5   0  0.1454652E-02  0.8079197E+03  0.7818609E-02  0.9548624E-01
       -2   -1    0    0    0  501  0.00000000000E+00  0.00000000000E+00  0.15291081565E+03  0.15291081568E+03  0.25500000920E-02 0.  1.
        2   -1    0    0  501    0  0.00000000000E+00  0.00000000000E+00 -0.10671813150E+04  0.10671813151E+04  0.25500000920E-02 0. -1.
    10030    2    1    2    0    0  0.00000000000E+00  0.00000000000E+00 -0.91427049939E+03  0.12200921307E+04  0.80791971222E+03 0.  0.
        4    1    3    3  502    0  0.39613188093E+03  0.28688298870E+00 -0.57663314388E+03  0.69959126989E+03  0.12699999809E+01 0.  1.
       -4    1    3    3    0  502 -0.39613188093E+03 -0.28688298870E+00 -0.33763735551E+03  0.52050086083E+03  0.12699999809E+01 0. -1.
</event>
<event>
 5   0  0.1535906E-02  0.9020871E+03  0.7818609E-02  0.9422976E-01
        2   -1    0    0  501    0  0.00000000000E+00  0.00000000000E+00  0.25687450476E+04  0.25687450476E+04  0.25500000920E-02 0.  1.
       -2   -1    0    0    0  501  0.00000000000E+00  0.00000000000E+00 -0.79198324271E+02  0.79198324312E+02  0.25500000920E-02 0. -1.
    10030    2    1    2    0    0  0.00000000000E+00  0.00000000000E+00  0.24895467233E+04  0.26479433719E+04  0.90208714280E+03 0.  0.
        2    1    3    3  502    0 -0.24268140537E+03 -0.22452256458E+02  0.13072338577E+03  0.27656278117E+03  0.25500000920E-02 0. -1.
       -2    1    3    3    0  502  0.24268140537E+03  0.22452256458E+02  0.23588233375E+04  0.23713805907E+04  0.25500000920E-02 0.  1.
</event>
<event>
 5   0  0.8291252E-03  0.8979825E+03  0.7818609E-02  0.9428107E-01
       -1   -1    0    0    0  501  0.00000000000E+00  0.00000000000E+00  0.18891062199E+03  0.18891062205E+03  0.50400001928E-02 0. -1.
        1   -1    0    0  501    0  0.00000000000E+00  0.00000000000E+00 -0.10671350116E+04  0.10671350116E+04  0.50400001928E-02 0.  1.
    10030    2    1    2    0    0  0.00000000000E+00  0.00000000000E+00 -0.87822438957E+03  0.12560456336E+04  0.89798249165E+03 0.  0.
        1    1    3    3  502    0 -0.29471743915E+03  0.13874653630E+03 -0.87133057785E+03  0.93022897514E+03  0.50400001928E-02 0.  1.
       -1    1    3    3    0  502  0.29471743915E+03 -0.13874653630E+03 -0.68938117178E+01  0.32581665848E+03  0.50400001928E-02 0. -1.
</event>
<event>
 5   0  0.1535906E-02  0.9120537E+03  0.7818609E-02  0.9410638E-01
        2   -1    0    0  501    0  0.00000000000E+00  0.00000000000E+00  0.91154043383E+03  0.91154043383E+03  0.25500000920E-02 0. -1.
       -2   -1    0    0    0  501  0.00000000000E+00  0.00000000000E+00 -0.22814181505E+03  0.22814181507E+03  0.25500000920E-02 0.  1.
    10030    2    1    2    0    0  0.00000000000E+00  0.00000000000E+00  0.68339861878E+03  0.11396822489E+04  0.91205370254E+03 0.  0.
        2    1    3    3  502    0 -0.17620148646E+03  0.35013222720E+03  0.63293664309E+03  0.74447856553E+03  0.25500000920E-02 0. -1.
       -2    1    3    3    0  502  0.17620148646E+03 -0.35013222720E+03  0.50461975683E+02  0.39520368337E+03  0.25500000920E-02 0.  1.
</event>
<event>
 5   0  0.8885324E-03  0.8911338E+03  0.7818609E-02  0.9436733E-01
        1   -1    0    0  501    0  0.00000000000E+00  0.00000000000E+00  0.33332323469E+03  0.33332323472E+03  0.50400001928E-02 0.  1.
       -1   -1    0    0    0  501  0.00000000000E+00  0.00000000000E+00 -0.59560764749E+03  0.59560764751E+03  0.50400001928E-02 0. -1.
    10030    2    1    2    0    0  0.00000000000E+00  0.00000000000E+00 -0.26228441280E+03  0.92893088223E+03  0.89113381193E+03 0.  0.
        2    1    3    3  502    0 -0.41932156343E+03  0.10915003815E+03 -0.22883733903E+02  0.43389857071E+03  0.25500000920E-02 0. -1.
       -2    1    3    3    0  502  0.41932156343E+03 -0.10915003815E+03 -0.23940067890E+03  0.49503231152E+03  0.25500000920E-02 0.  1.
</event>
<event>
 5   0  0.8612969E-03  0.8877311E+03  0.7818609E-02  0.9441049E-01
       -1   -1    0    0    0  501  0.00000000000E+00  0.00000000000E+00  0.16037851796E+03  0.16037851804E+03  0.50400001928E-02 0. -1.
        1   -1    0    0  501    0  0.00000000000E+00  0.00000000000E+00 -0.12284476606E+04  0.12284476606E+04  0.50400001928E-02 0.  1.
    10030    2    1    2    0    0  0.00000000000E+00  0.00000000000E+00 -0.10680691426E+04  0.13888261787E+04  0.88773107474E+03 0.  0.
        4    1    3    3  502    0 -0.38128085504E+03  0.22528023065E+03 -0.48739534905E+03  0.65854545168E+03  0.12699999809E+01 0.  1.
       -4    1    3    3    0  502  0.38128085504E+03 -0.22528023065E+03 -0.58067379358E+03  0.73028072698E+03  0.12699999809E+01 0. -1.
</event>
<event>
 5   0  0.1483326E-02  0.8761259E+03  0.7818609E-02  0.9455927E-01
        2   -1    0    0  501    0  0.00000000000E+00  0.00000000000E+00  0.14944227573E+04  0.14944227574E+04  0.25500000920E-02 0. -1.
       -2   -1    0    0    0  501  0.00000000000E+00  0.00000000000E+00 -0.12841022922E+03  0.12841022924E+03  0.25500000920E-02 0.  1.
    10030    2    1    2    0    0  0.00000000000E+00  0.00000000000E+00  0.13660125281E+04  0.16228329866E+04  0.87612594720E+03 0.  0.
        1    1    3    3  502    0 -0.27648585296E+03 -0.27247520199E+03  0.10590333791E+04  0.11279356633E+04  0.50400001928E-02 0. -1.
       -1    1    3    3    0  502  0.27648585296E+03  0.27247520199E+03  0.30697914906E+03  0.49489732326E+03  0.50400001928E-02 0.  1.
</event>
<event>
 5   0  0.1535906E-02  0.9278443E+03  0.7818609E-02  0.9391429E-01
       -2   -1    0    0    0  501  0.00000000000E+00  0.00000000000E+00  0.15068533512E+03  0.15068533514E+03  0.25500000920E-02 0.  1.
        2   -1    0    0  501    0  0.00000000000E+00  0.00000000000E+00 -0.14282992230E+04  0.14282992230E+04  0.25500000920E-02 0. -1.
    10030    2    1    2    0    0  0.00000000000E+00  0.00000000000E+00 -0.12776138879E+04  0.15789845582E+04  0.92784426946E+03 0.  0.
        2    1    3    3  502    0 -0.33956694399E+03 -0.22108250018E+03 -0.25433864800E+03  0.47840498451E+03  0.25500000920E-02 0.  1.
       -2    1    3    3    0  502  0.33956694399E+03  0.22108250018E+03 -0.10232752399E+04  0.11005795737E+04  0.25500000920E-02 0. -1.
</event>
<event>
 5   0  0.8291252E-03  0.9101942E+03  0.7818609E-02  0.9412927E-01
       -1   -1    0    0    0  501  0.00000000000E+00  0.00000000000E+00  0.32933375205E+03  0.32933375209E+03  0.50400001928E-02 0. -1.
        1   -1    0    0  501    0  0.00000000000E+00  0.00000000000E+00 -0.62888600914E+03  0.62888600916E+03  0.50400001928E-02 0.  1.
    10030    2    1    2    0    0  0.00000000000E+00  0.00000000000E+00 -0.29955225709E+03  0.95821976124E+03  0.91019424087E+03 0.  0.
        1    1    3    3  502    0 -0.31987802084E+01 -0.38148431229E+03  0.11145550159E+03  0.39744539446E+03  0.50400001928E-02 0. -1.
       -1    1    3    3    0  502  0.31987802084E+01  0.38148431229E+03 -0.41100775867E+03  0.56077436678E+03  0.50400001928E-02 0.  1.
</event>
<event>
 5   0  0.8885324E-03  0.9010478E+03  0.7818609E-02  0.9424273E-01
       -1   -1    0    0    0  501  0.00000000000E+00  0.00000000000E+00  0.38759810583E+03  0.38759810586E+03  0.50400001928E-02 0. -1.
        1   -1    0    0  501    0  0.00000000000E+00  0.00000000000E+00 -0.52366557831E+03  0.52366557833E+03  0.50400001928E-02 0.  1.
    10030    2    1    2    0    0  0.00000000000E+00  0.00000000000E+00 -0.13606747248E+03  0.91126368419E+03  0.90104780398E+03 0.  0.
        2    1    3    3  502    0  0.73650200931E+01  0.44209239184E+03 -0.15545369314E+03  0.46868515782E+03  0.25500000920E-02 0.  1.
       -2    1    3    3    0  502 -0.73650200931E+01 -0.44209239184E+03  0.19386220656E+02  0.44257852637E+03  0.25500000920E-02 0. -1.
</event>
<event>
 5   0  0.1483326E-02  0.8948217E+03  0.7818609E-02  0.9432078E-01
       -2   -1    0    0    0  501  0.00000000000E+00  0.00000000000E+00  0.96903648310E+02  0.96903648343E+02  0.25500000920E-02 0. -1.
        2   -1    0    0  501    0  0.00000000000E+00  0.00000000000E+00 -0.20657268350E+04  0.20657268350E+04  0.25500000920E-02 0.  1.
    10030    2    1    2    0    0  0.00000000000E+00  0.00000000000E+00 -0.19688231867E+04  0.21626304834E+04  0.89482169568E+03 0.  0.
        1    1    3    3  502    0  0.41025418699E+03  0.10197602554E+02 -0.14151496618E+04  0.14734520875E+04  0.50400001928E-02 0. -1.
       -1    1    3    3    0  502 -0.41025418699E+03 -0.10197602554E+02 -0.55367352498E+03  0.68917839587E+03  0.50400001928E-02 0.  1.
</event>
<event>
 5   0  0.8885324E-03  0.9015428E+03  0.7818609E-02  0.9423655E-01
        1   -1    0    0  501    0  0.00000000000E+00  0.00000000000E+00  0.45194036728E+03  0.45194036731E+03  0.50400001928E-02 0. -1.
       -1   -1    0    0    0  501  0.00000000000E+00  0.00000000000E+00 -0.44960545144E+03  0.44960545147E+03  0.50400001928E-02 0.  1.
    10030    2    1    2    0    0  0.00000000000E+00  0.00000000000E+00  0.23349158400E+01  0.90154581877E+03  0.90154279517E+03 0.  0.
        2    1    3    3  502    0  0.15730827811E+03 -0.24613606515E+03 -0.34214986839E+03  0.44988375096E+03  0.25500000920E-02 0.  1.
       -2    1    3    3    0  502 -0.15730827811E+03  0.24613606515E+03  0.34448478423E+03  0.45166206782E+03  0.25500000920E-02 0. -1.
</event>
<event>
 5   0  0.8291252E-03  0.8576173E+03  0.7818609E-02  0.9480170E-01
        1   -1    0    0  501    0  0.00000000000E+00  0.00000000000E+00  0.87343393629E+03  0.87343393631E+03  0.50400001928E-02 0. -1.
       -1   -1    0    0    0  501  0.00000000000E+00  0.00000000000E+00 -0.21052175201E+03  0.21052175207E+03  0.50400001928E-02 0.  1.
    10030    2    1    2    0    0  0.00000000000E+00  0.00000000000E+00  0.66291218428E+03  0.10839556884E+04  0.85761726329E+03 0.  0.
        1    1    3    3  502    0  0.64944743937E+02  0.42187796383E+03  0.38323046218E+03  0.57364137168E+03  0.50400001928E-02 0. -1.
       -1    1    3    3    0  502 -0.64944743937E+02 -0.42187796383E+03  0.27968172210E+03  0.51031431670E+03  0.50400001928E-02 0.  1.
</event>
<event>
 5   0  0.1454652E-02  0.9098827E+03  0.7818609E-02  0.9413311E-01
       -2   -1    0    0    0  501  0.00000000000E+00  0.00000000000E+00  0.12368632091E+03  0.12368632094E+03  0.25500000920E-02 0.  1.
        2   -1    0    0  501    0  0.00000000000E+00  0.00000000000E+00 -0.16733589996E+04  0.16733589996E+04  0.25500000920E-02 0. -1.
    10030    2    1    2    0    0  0.00000000000E+00  0.00000000000E+00 -0.15496726787E+04  0.17970453205E+04  0.90988266989E+03 0.  0.
        4    1    3    3  502    0  0.49467005545E+01 -0.20359622916E+03  0.28624860041E+02  0.20566207693E+03  0.12699999809E+01 0.  1.
       -4    1    3    3    0  502 -0.49467005545E+01  0.20359622916E+03 -0.15782975387E+04  0.15913832436E+04  0.12699999809E+01 0. -1.
</event>
<event>
 5   0  0.1454652E-02  0.8967814E+03  0.7818609E-02  0.9429614E-01
        2   -1    0    0  501    0  0.00000000000E+00  0.00000000000E+00  0.42466243382E+03  0.42466243383E+03  0.25500000920E-02 0. -1.
       -2   -1    0    0    0  501  0.00000000000E+00  0.00000000000E+00 -0.47344477296E+03  0.47344477297E+03  0.25500000920E-02 0.  1.
    10030    2    1    2    0    0  0.00000000000E+00  0.00000000000E+00 -0.48782339139E+02  0.89810720680E+03  0.89678137709E+03 0.  0.
        4    1    3    3  502    0  0.26368310639E+03 -0.36266169058E+03 -0.23829749675E+02  0.44902310885E+03  0.12699999809E+01 0.  1.
       -4    1    3    3    0  502 -0.26368310639E+03  0.36266169058E+03 -0.24952589464E+02  0.44908409795E+03  0.12699999809E+01 0. -1.
</event>
<event>
 5   0  0.1454652E-02  0.8807130E+03  0.7818609E-02  0.9450018E-01
       -2   -1    0    0    0  501  0.00000000000E+00  0.00000000000E+00  0.93538807614E+02  0.93538807649E+02  0.25500000920E-02 0.  1.
        2   -1    0    0  501    0  0.00000000000E+00  0.00000000000E+00 -0.20730843190E+04  0.20730843190E+04  0.25500000920E-02 0. -1.
    10030    2    1    2    0    0  0.00000000000E+00  0.00000000000E+00 -0.19795455113E+04  0.21666231266E+04  0.88071297326E+03 0.  0.
        4    1    3    3  502    0  0.71288221447E+01 -0.18092882094E+03 -0.22843282060E+01  0.18108807086E+03  0.12699999809E+01 0.  1.
       -4    1    3    3    0  502 -0.71288221447E+01  0.18092882094E+03 -0.19772611831E+04  0.19855350557E+04  0.12699999809E+01 0. -1.
</event>
<event>
 5   0  0.1440615E-02  0.8885320E+03  0.7818609E-02  0.9440032E-01
        2   -1    0    0  501    0  0.00000000000E+00  0.00000000000E+00  0.19513048027E+03  0.19513048029E+03  0.25500000920E-02 0.  1.
       -2   -1    0    0    0  501  0.00000000000E+00  0.00000000000E+00 -0.10114886863E+04  0.10114886863E+04  0.25500000920E-02 0. -1.
    10030    2    1    2    0    0  0.00000000000E+00  0.00000000000E+00 -0.81635820599E+03  0.12066191666E+04  0.88853198739E+03 0.  0.
        3    1    3    3  502    0 -0.23461297594E+03  0.37205572863E+03 -0.32333396022E+03  0.54590619498E+03  0.10100000352E+00 0.  1.
       -3    1    3    3    0  502  0.23461297594E+03 -0.37205572863E+03 -0.49302424576E+03  0.66071297157E+03  0.10100000352E+00 0. -1.
</event>
<event>
 5   0  0.8291252E-03  0.9113442E+03  0.7818609E-02  0.9411511E-01
       -1   -1    0    0    0  501  0.00000000000E+00  0.00000000000E+00  0.75482964221E+03  0.75482964223E+03  0.50400001928E-02 0.  1.
        1   -1    0    0  501    0  0.00000000000E+00  0.00000000000E+00 -0.27507803536E+03  0.27507803541E+03  0.50400001928E-02 0. -1.
    10030    2    1    2    0    0  0.00000000000E+00  0.00000000000E+00  0.47975160685E+03  0.10299076776E+04  0.91134418316E+03 0.  0.
        1    1    3    3  502    0  0.15980891022E+03  0.28319551940E+03 -0.12086867353E+03  0.34691184220E+03  0.50400001928E-02 0. -1.
       -1    1    3    3    0  502 -0.15980891022E+03 -0.28319551940E+03  0.60062028037E+03  0.68299583543E+03  0.50400001928E-02 0.  1.
</event>
<event>
 5   0  0.1535906E-02  0.9028405E+03  0.7818609E-02  0.9422038E-01
       -2   -1    0    0    0  501  0.00000000000E+00  0.00000000000E+00  0.27633487681E+03  0.27633487682E+03  0.25500000920E-02 0.  1.
        2   -1    0    0  501    0  0.00000000000E+00  0.00000000000E+00 -0.73743941232E+03  0.73743941233E+03  0.25500000920E-02 0. -1.
    10030    2    1    2    0    0  0.00000000000E+00  0.00000000000E+00 -0.46110453552E+03  0.10137742891E+04  0.90284047132E+03 0.  0.
        2    1    3    3  502    0 -0.23432423441E+03 -0.34033757313E+03 -0.26440454872E+02  0.41404904078E+03  0.25500000920E-02 0. -1.
       -2    1    3    3    0  502  0.23432423441E+03  0.34033757313E+03 -0.43466408064E+03  0.59972524836E+03  0.25500000920E-02 0.  1.
</event>
<event>
 5   0  0.1483326E-02  0.9202470E+03  0.7818609E-02  0.9400620E-01
       -2   -1    0    0    0  501  0.00000000000E+00  0.00000000000E+00  0.11566483811E+03  0.11566483814E+03  0.25500000920E-02 0. -1.
        2   -1    0    0  501    0  0.00000000000E+00  0.00000000000E+00 -0.18304063785E+04  0.18304063785E+04  0.25500000920E-02 0.  1.
    10030    2    1    2    0    0  0.00000000000E+00  0.00000000000E+00 -0.17147415404E+04  0.19460712167E+04  0.92024704830E+03 0.  0.
        1    1    3    3  502    0 -0.15338047488E+03  0.56201601639E+02 -0.17670216533E+04  0.17745562018E+04  0.50400001928E-02 0.  1.
       -1    1    3    3    0  502  0.15338047488E+03 -0.56201601639E+02  0.52280112870E+02  0.17151501488E+03  0.50400001928E-02 0. -1.
</event>
<event>
 5   0  0.8885324E-03  0.8991039E+03  0.7818609E-02  0.9426702E-01
       -1   -1    0    0    0  501  0.00000000000E+00  0.00000000000E+00  0.21243956294E+03  0.21243956300E+03  0.50400001928E-02 0.  1.
        1   -1    0    0  501    0  0.00000000000E+00  0.00000000000E+00 -0.95131510087E+03  0.95131510088E+03  0.50400001928E-02 0. -1.
    10030    2    1    2    0    0  0.00000000000E+00  0.00000000000E+00 -0.73887553793E+03  0.11637546639E+04  0.89910391899E+03 0.  0.
        2    1    3    3  502    0  0.30518204631E+02  0.20595744299E+03  0.14627097145E+03  0.25445043964E+03  0.25500000920E-02 0.  1.
       -2    1    3    3    0  502 -0.30518204631E+02 -0.20595744299E+03 -0.88514650938E+03  0.90930422424E+03  0.25500000920E-02 0. -1.
</event>
<event>
 5   0  0.8885324E-03  0.8960895E+03  0.7818609E-02  0.9430483E-01
        1   -1    0    0  501    0  0.00000000000E+00  0.00000000000E+00  0.87519312578E+03  0.87519312579E+03  0.50400001928E-02 0.  1.
       -1   -1    0    0    0  501  0.00000000000E+00  0.00000000000E+00 -0.22937120116E+03  0.22937120121E+03  0.50400001928E-02 0. -1.
    10030    2    1    2    0    0  0.00000000000E+00  0.00000000000E+00  0.64582192462E+03  0.11045643270E+04  0.89608950120E+03 0.  0.
        2    1    3    3  502    0 -0.39356621005E+02  0.26354877071E+03 -0.12107770507E+03  0.29268875761E+03  0.25500000920E-02 0. -1.
       -2    1    3    3    0  502  0.39356621005E+02 -0.26354877071E+03  0.76689962969E+03  0.81187556940E+03  0.25500000920E-02 0.  1.
</event>
<event>
 5   0  0.1483326E-02  0.8579442E+03  0.7818609E-02  0.9479736E-01
        2   -1    0    0  501    0  0.00000000000E+00  0.00000000000E+00  0.61958120150E+03  0.61958120150E+03  0.25500000920E-02 0.  1.
       -2   -1    0    0    0  501  0.00000000000E+00  0.00000000000E+00 -0.29700236360E+03  0.29700236361E+03  0.25500000920E-02 0. -1.
    10030    2    1    2    0    0  0.00000000000E+00  0.00000000000E+00  0.32257883790E+03  0.91658356511E+03  0.85794424362E+03 0.  0.
        1    1    3    3  502    0 -0.20851604259E+03 -0.37069677300E+03  0.10159516999E+03  0.43728322186E+03  0.50400001928E-02 0. -1.
       -1    1    3    3    0  502  0.20851604259E+03  0.37069677300E+03  0.22098366791E+03  0.47930034325E+03  0.50400001928E-02 0.  1.
</event>
<event>
 5   0  0.1454652E-02  0.9017028E+03  0.7818609E-02  0.9423455E-01
        2   -1    0    0  501    0  0.00000000000E+00  0.00000000000E+00  0.52725639320E+03  0.52725639321E+03  0.25500000920E-02 0.  1.
       -2   -1    0    0    0  501  0.00000000000E+00  0.00000000000E+00 -0.38551832406E+03  0.38551832407E+03  0.25500000920E-02 0. -1.
    10030    2    1    2    0    0  0.00000000000E+00  0.00000000000E+00  0.14173806915E+03  0.91277471728E+03  0.90170283589E+03 0.  0.
        4    1    3    3  502    0  0.16207825536E+03  0.37799864017E+03 -0.11609603520E+03  0.42735492875E+03  0.12699999809E+01 0. -1.
       -4    1    3    3    0  502 -0.16207825536E+03 -0.37799864017E+03  0.25783410435E+03  0.48541978853E+03  0.12699999809E+01 0.  1.
</event>
<event>
 5   0  0.1454652E-02  0.8274772E+03  0.7818609E-02  0.9521075E-01
       -2   -1    0    0    0  501  0.00000000000E+00  0.00000000000E+00  0.23531699639E+03  0.23531699641E+03  0.25500000920E-02 0.  1.
        2   -1    0    0  501    0  0.00000000000E+00  0.00000000000E+00 -0.72744267121E+03  0.72744267121E+03  0.25500000920E-02 0. -1.
    10030    2    1    2    0    0  0.00000000000E+00  0.00000000000E+00 -0.49212567482E+03  0.96275966762E+03  0.82747718868E+03 0.  0.
        4    1    3    3  502    0 -0.54646545680E+02 -0.37297146801E+03 -0.44448460044E+03  0.58280539962E+03  0.12699999809E+01 0.  1.
       -4    1    3    3    0  502  0.54646545680E+02  0.37297146801E+03 -0.47641074379E+02  0.37995426800E+03  0.12699999809E+01 0. -1.
</event>
<event>
 5   0  0.8738044E-03  0.8986321E+03  0.7818609E-02  0.9427293E-01
        1   -1    0    0  501    0  0.00000000000E+00  0.00000000000E+00  0.45089225461E+03  0.45089225464E+03  0.50400001928E-02 0.  1.
       -1   -1    0    0    0  501  0.00000000000E+00  0.00000000000E+00 -0.44774531697E+03  0.44774531700E+03  0.50400001928E-02 0. -1.
    10030    2    1    2    0    0  0.00000000000E+00  0.00000000000E+00  0.31469376360E+01  0.89863757164E+03  0.89863206149E+03 0.  0.
        3    1    3    3  502    0 -0.11907256031E+03 -0.34463252093E+03  0.26412990383E+03  0.45023823183E+03  0.10100000352E+00 0.  1.
       -3    1    3    3    0  502  0.11907256031E+03  0.34463252093E+03 -0.26098296619E+03  0.44839933981E+03  0.10100000352E+00 0. -1.
</event>
<event>
 5   0  0.5770125E-03  0.9012732E+03  0.7818609E-02  0.9423991E-01
        3   -1    0    0  501    0  0.00000000000E+00  0.00000000000E+00  0.47891745091E+03  0.47891746156E+03  0.10100000352E+00 0.  1.
       -3   -1    0    0    0  501  0.00000000000E+00  0.00000000000E+00 -0.42402575253E+03  0.42402576456E+03  0.10100000352E+00 0. -1.
    10030    2    1    2    0    0  0.00000000000E+00  0.00000000000E+00  0.54891698378E+02  0.90294322612E+03  0.90127319446E+03 0.  0.
        1    1    3    3  502    0  0.26350937014E+02  0.18622141361E+03 -0.38282554851E+03  0.42653040617E+03  0.50400001928E-02 0. -1.
       -1    1    3    3    0  502 -0.26350937014E+02 -0.18622141361E+03  0.43771724689E+03  0.47641281995E+03  0.50400001928E-02 0.  1.
</event>
<event>
 5   0  0.8738044E-03  0.9029498E+03  0.7818609E-02  0.9421902E-01
        1   -1    0    0  501    0  0.00000000000E+00  0.00000000000E+00  0.18479808083E+04  0.18479808083E+04  0.50400001928E-02 0. -1.
       -1   -1    0    0    0  501  0.00000000000E+00  0.00000000000E+00 -0.11029853259E+03  0.11029853271E+03  0.50400001928E-02 0.  1.
    10030    2    1    2    0    0  0.00000000000E+00  0.00000000000E+00  0.17376822757E+04  0.19582793410E+04  0.90294976945E+03 0.  0.
        3    1    3    3  502    0 -0.11261684730E+03 -0.42548583692E+03  0.65078864325E+03  0.78565044397E+03  0.10100000352E+00 0.  1.
       -3    1    3    3    0  502  0.11261684730E+03  0.42548583692E+03  0.10868936325E+04  0.11726288971E+04  0.10100000352E+00 0. -1.
</event>
<event>
 5   0  0.1535906E-02  0.8829485E+03  0.7818609E-02  0.9447151E-01
       -2   -1    0    0    0  501  0.00000000000E+00  0.00000000000E+00  0.33969526447E+03  0.33969526448E+03  0.25500000920E-02 0.  1.
        2   -1    0    0  501    0  0.00000000000E+00  0.00000000000E+00 -0.57374812594E+03  0.57374812595E+03  0.25500000920E-02 0. -1.
    10030    2    1    2    0    0  0.00000000000E+00  0.00000000000E+00 -0.23405286148E+03  0.91344339043E+03  0.88294851806E+03 0.  0.
        2    1    3    3  502    0  0.35290066409E+03 -0.89192201542E+01  0.15723548194E+03  0.38644718655E+03  0.25500000920E-02 0.  1.
       -2    1    3    3    0  502 -0.35290066409E+03  0.89192201542E+01 -0.39128834342E+03  0.52699620388E+03  0.25500000920E-02 0. -1.
</event>
<event>
 5   0  0.8885324E-03  0.8972467E+03  0.7818609E-02  0.9429030E-01
        1   -1    0    0  501    0  0.00000000000E+00  0.00000000000E+00  0.15742041725E+03  0.15742041734E+03  0.50400001928E-02 0.  1.
       -1   -1    0    0    0  501  0.00000000000E+00  0.00000000000E+00 -0.12785056847E+04  0.12785056847E+04  0.50400001928E-02 0. -1.
    10030    2    1    2    0    0  0.00000000000E+00  0.00000000000E+00 -0.11210852675E+04  0.14359261021E+04  0.89724667381E+03 0.  0.
        2    1    3    3  502    0  0.62497937940E+02  0.33299795012E+03 -0.10311417777E+04  0.10853787324E+04  0.25500000920E-02 0. -1.
       -2    1    3    3    0  502 -0.62497937940E+02 -0.33299795012E+03 -0.89943489796E+02  0.35054736969E+03  0.25500000920E-02 0.  1.
</event>
<event>
 5   0  0.8885324E-03  0.9273171E+03  0.7818609E-02  0.9392064E-01
       -1   -1    0    0    0  501  0.00000000000E+00  0.00000000000E+00  0.70364088146E+03  0.70364088148E+03  0.50400001928E-02 0. -1.
        1   -1    0    0  501    0  0.00000000000E+00  0.00000000000E+00 -0.30552409605E+03  0.30552409609E+03  0.50400001928E-02 0.  1.
    10030    2    1    2    0    0  0.00000000000E+00  0.00000000000E+00  0.39811678542E+03  0.10091649776E+04  0.92731708554E+03 0.  0.
        2    1    3    3  502    0 -0.36805742827E+01 -0.83680878869E+02  0.69533883755E+03  0.70036571527E+03  0.25500000920E-02 0. -1.
       -2    1    3    3    0  502  0.36805742827E+01  0.83680878869E+02 -0.29722205214E+03  0.30879926230E+03  0.25500000920E-02 0.  1.
</event>
<event>
 5   0  0.8291252E-03  0.8957127E+03  0.7818609E-02  0.9430957E-01
        1   -1    0    0  501    0  0.00000000000E+00  0.00000000000E+00  0.51235175776E+03  0.51235175779E+03  0.50400001928E-02 0. -1.
       -1   -1    0    0    0  501  0.00000000000E+00  0.00000000000E+00 -0.39147968357E+03  0.39147968361E+03  0.50400001928E-02 0.  1.
    10030    2    1    2    0    0  0.00000000000E+00  0.00000000000E+00  0.12087207419E+03  0.90383144140E+03  0.89571268615E+03 0.  0.
        1    1    3    3  502    0  0.44263047397E+03 -0.55714368175E+02  0.10015622047E+03  0.45722761928E+03  0.50400001928E-02 0. -1.
       -1    1    3    3    0  502 -0.44263047397E+03  0.55714368175E+02  0.20715853717E+02  0.44660382212E+03  0.50400001928E-02 0.  1.
</event>
<event>
 5   0  0.1535906E-02  0.9023739E+03  0.7818609E-02  0.9422619E-01
        2   -1    0    0  501    0  0.00000000000E+00  0.00000000000E+00  0.40469266180E+03  0.40469266181E+03  0.25500000920E-02 0. -1.
       -2   -1    0    0    0  501  0.00000000000E+00  0.00000000000E+00 -0.50302285996E+03  0.50302285997E+03  0.25500000920E-02 0.  1.
    10030    2    1    2    0    0  0.00000000000E+00  0.00000000000E+00 -0.98330198158E+02  0.90771552177E+03  0.90237389180E+03 0.  0.
        2    1    3    3  502    0 -0.82513333215E+02 -0.99493298951E+02 -0.48399968307E+03  0.50096213421E+03  0.25500000920E-02 0.  1.
       -2    1    3    3    0  502  0.82513333215E+02  0.99493298951E+02  0.38566948491E+03  0.40675338756E+03  0.25500000920E-02 0. -1.
</event>
<event>
 5   0  0.1454652E-02  0.8989531E+03  0.7818609E-02  0.9426891E-01
       -2   -1    0    0    0  501  0.00000000000E+00  0.00000000000E+00  0.21678607838E+03  0.21678607840E+03  0.25500000920E-02 0.  1.
        2   -1    0    0  501    0  0.00000000000E+00  0.00000000000E+00 -0.93192860069E+03  0.93192860069E+03  0.25500000920E-02 0. -1.
    10030    2    1    2    0    0  0.00000000000E+00  0.00000000000E+00 -0.71514252231E+03  0.11487146791E+04  0.89895305036E+03 0.  0.
        4    1    3    3  502    0 -0.19163313679E+02 -0.84539049210E+02  0.20600148025E+03  0.22350012572E+03  0.12699999809E+01 0.  1.
       -4    1    3    3    0  502  0.19163313679E+02  0.84539049210E+02 -0.92114400255E+03  0.92521455337E+03  0.12699999809E+01 0. -1.
</event>
<event>
 5   0  0.8291252E-03  0.8991293E+03  0.7818609E-02  0.9426670E-01
       -1   -1    0    0    0  501  0.00000000000E+00  0.00000000000E+00  0.53638769469E+03  0.53638769471E+03  0.50400001928E-02 0. -1.
        1   -1    0    0  501    0  0.00000000000E+00  0.00000000000E+00 -0.37679532427E+03  0.37679532431E+03  0.50400001928E-02 0.  1.
    10030    2    1    2    0    0  0.00000000000E+00  0.00000000000E+00  0.15959237042E+03  0.91318301902E+03  0.89912930189E+03 0.  0.
        1    1    3    3  502    0  0.19185260036E+02 -0.33655465948E+03  0.38188649031E+03  0.50938630186E+03  0.50400001928E-02 0. -1.
       -1    1    3    3    0  502 -0.19185260036E+02  0.33655465948E+03 -0.22229411990E+03  0.40379671715E+03  0.50400001928E-02 0.  1.
</event>
<event>
 5   0  0.1483326E-02  0.8980491E+03  0.7818609E-02  0.9428023E-01
       -2   -1    0    0    0  501  0.00000000000E+00  0.00000000000E+00  0.13053461317E+03  0.13053461319E+03  0.25500000920E-02 0. -1.
        2   -1    0    0  501    0  0.00000000000E+00  0.00000000000E+00 -0.15445946264E+04  0.15445946264E+04  0.25500000920E-02 0.  1.
    10030    2    1    2    0    0  0.00000000000E+00  0.00000000000E+00 -0.14140600133E+04  0.16751292396E+04  0.89804913470E+03 0.  0.
        1    1    3    3  502    0  0.40736458858E+03  0.11856513360E+03 -0.43276482733E+03  0.60604372345E+03  0.50400001928E-02 0.  1.
       -1    1    3    3    0  502 -0.40736458858E+03 -0.11856513360E+03 -0.98129518594E+03  0.10690855162E+04  0.50400001928E-02 0. -1.
</event>
<event>
 5   0  0.8885324E-03  0.9117456E+03  0.7818609E-02  0.9411017E-01
        1   -1    0    0  501    0  0.00000000000E+00  0.00000000000E+00  0.62973454660E+03  0.62973454662E+03  0.50400001928E-02 0.  1.
       -1   -1    0    0    0  501  0.00000000000E+00  0.00000000000E+00 -0.33001208764E+03  0.33001208768E+03  0.50400001928E-02 0. -1.
    10030    2    1    2    0    0  0.00000000000E+00  0.00000000000E+00  0.29972245895E+03  0.95974663430E+03  0.91174560577E+03 0.  0.
        2    1    3    3  502    0  0.30835809160E+03 -0.22249217536E+03 -0.11483832112E+03  0.39720941675E+03  0.25500000920E-02 0. -1.
       -2    1    3    3    0  502 -0.30835809160E+03  0.22249217536E+03  0.41456078007E+03  0.56253721755E+03  0.25500000920E-02 0.  1.
</event>
<event>
 5   0  0.8612969E-03  0.9007201E+03  0.7818609E-02  0.9424682E-01
        1   -1    0    0  501    0  0.00000000000E+00  0.00000000000E+00  0.10315800438E+04  0.10315800438E+04  0.50400001928E-02 0.  1.
       -1   -1    0    0    0  501  0.00000000000E+00  0.00000000000E+00 -0.19661505955E+03  0.19661505962E+03  0.50400001928E-02 0. -1.
    10030    2    1    2    0    0  0.00000000000E+00  0.00000000000E+00  0.83496498427E+03  0.12281951034E+04  0.90072009369E+03 0.  0.
        4    1    3    3  502    0  0.21600019531E+03 -0.41177611520E+02 -0.11843856197E+03  0.24976185843E+03  0.12699999809E+01 0. -1.
       -4    1    3    3    0  502 -0.21600019531E+03  0.41177611520E+02  0.95340354624E+03  0.97843324501E+03  0.12699999809E+01 0.  1.
</event>
<event>
 5   0  0.8291252E-03  0.9074017E+03  0.7818609E-02  0.9416376E-01
       -1   -1    0    0    0  501  0.00000000000E+00  0.00000000000E+00  0.30727647851E+03  0.30727647855E+03  0.50400001928E-02 0. -1.
        1   -1    0    0  501    0  0.00000000000E+00  0.00000000000E+00 -0.66989982115E+03  0.66989982117E+03  0.50400001928E-02 0.  1.
    10030    2    1    2    0    0  0.00000000000E+00  0.00000000000E+00 -0.36262334264E+03  0.97717629971E+03  0.90740169280E+03 0.  0.
        1    1    3    3  502    0  0.13389565492E+03  0.40454640314E+03 -0.13583358108E+02  0.42634533696E+03  0.50400001928E-02 0.  1.
       -1    1    3    3    0  502 -0.13389565492E+03 -0.40454640314E+03 -0.34903998454E+03  0.55083096276E+03  0.50400001928E-02 0. -1.
</event>
<event>
 5   0  0.8291252E-03  0.9042313E+03  0.7818609E-02  0.9420307E-01
       -1   -1    0    0    0  501  0.00000000000E+00  0.00000000000E+00  0.26422875829E+03  0.26422875834E+03  0.50400001928E-02 0.  1.
        1   -1    0    0  501    0  0.00000000000E+00  0.00000000000E+00 -0.77360458184E+03  0.77360458185E+03  0.50400001928E-02 0. -1.
    10030    2    1    2    0    0  0.00000000000E+00  0.00000000000E+00 -0.50937582354E+03  0.10378333402E+04  0.90423133788E+03 0.  0.
        1    1    3    3  502    0 -0.36135529939E+03  0.44559928029E+02 -0.56233114115E+03  0.66991010734E+03  0.50400001928E-02 0. -1.
       -1    1    3    3    0  502  0.36135529939E+03 -0.44559928029E+02  0.52955317608E+02  0.36792323285E+03  0.50400001928E-02 0.  1.
</event>
<event>
 5   0  0.8291252E-03  0.9142335E+03  0.7818609E-02  0.9407962E-01
        1   -1    0    0  501    0  0.00000000000E+00  0.00000000000E+00  0.24745694502E+03  0.24745694507E+03  0.50400001928E-02 0.  1.
       -1   -1    0    0    0  501  0.00000000000E+00  0.00000000000E+00 -0.84441235230E+03  0.84441235231E+03  0.50400001928E-02 0. -1.
    10030    2    1    2    0    0  0.00000000000E+00  0.00000000000E+00 -0.59695540728E+03  0.10918692974E+04  0.91423345175E+03 0.  0.
        1    1    3    3  502    0 -0.44512112363E+03  0.25047720020E+02 -0.41906950135E+03  0.61186554893E+03  0.50400001928E-02 0. -1.
       -1    1    3    3    0  502  0.44512112363E+03 -0.25047720020E+02 -0.17788590593E+03  0.48000374846E+03  0.50400001928E-02 0.  1.
</event>
<event>
 5   0  0.8885324E-03  0.9033291E+03  0.7818609E-02  0.9421429E-01
        1   -1    0    0  501    0  0.00000000000E+00  0.00000000000E+00  0.13718419482E+04  0.13718419482E+04  0.50400001928E-02 0. -1.
       -1   -1    0    0    0  501  0.00000000000E+00  0.00000000000E+00 -0.14870581002E+03  0.14870581010E+03  0.50400001928E-02 0.  1.
    10030    2    1    2    0    0  0.00000000000E+00  0.00000000000E+00  0.12231361381E+04  0.15205477583E+04  0.90332910546E+03 0.  0.
        2    1    3    3  502    0  0.25593059018E+01  0.12356538363E+03  0.13428247224E+04  0.13485003483E+04  0.25500000920E-02 0. -1.
       -2    1    3    3    0  502 -0.25593059018E+01 -0.12356538363E+03 -0.11968858429E+03  0.17204741002E+03  0.25500000920E-02 0.  1.
</event>
<event>
 5   0  0.8612969E-03  0.8965018E+03  0.7818609E-02  0.9429965E-01
       -1   -1    0    0    0  501  0.00000000000E+00  0.00000000000E+00  0.31114274646E+03  0.31114274650E+03  0.50400001928E-02 0. -1.
        1   -1    0    0  501    0  0.00000000000E+00  0.00000000000E+00 -0.64577706385E+03  0.64577706387E+03  0.50400001928E-02 0.  1.
    10030    2    1    2    0    0  0.00000000000E+00  0.00000000000E+00 -0.33463431739E+03  0.95691981037E+03  0.89650175521E+03 0.  0.
        4    1    3    3  502    0 -0.77720441379E+02 -0.39779047647E+03 -0.37165954705E+03  0.54991832301E+03  0.12699999809E+01 0.  1.
       -4    1    3    3    0  502  0.77720441379E+02  0.39779047647E+03  0.37025229653E+02  0.40700148735E+03  0.12699999809E+01 0. -1.
</event>
<event>
 5   0  0.1535906E-02  0.8817291E+03  0.7818609E-02  0.9448714E-01
       -2   -1    0    0    0  501  0.00000000000E+00  0.00000000000E+00  0.20958229701E+03  0.20958229702E+03  0.25500000920E-02 0. -1.
        2   -1    0    0  501    0  0.00000000000E+00  0.00000000000E+00 -0.92737590661E+03  0.92737590662E+03  0.25500000920E-02 0.  1.
    10030    2    1    2    0    0  0.00000000000E+00  0.00000000000E+00 -0.71779360960E+03  0.11369582036E+04  0.88172914823E+03 0.  0.
        2    1    3    3  502    0 -0.40445433517E+03 -0.17394490777E+03 -0.32945202169E+03  0.54988978421E+03  0.25500000920E-02 0.  1.
       -2    1    3    3    0  502  0.40445433517E+03  0.17394490777E+03 -0.38834158791E+03  0.58706841943E+03  0.25500000920E-02 0. -1.
</event>
<event>
 5   0  0.8885324E-03  0.8955337E+03  0.7818609E-02  0.9431182E-01
        1   -1    0    0  501    0  0.00000000000E+00  0.00000000000E+00  0.23530478666E+03  0.23530478672E+03  0.50400001928E-02 0.  1.
       -1   -1    0    0    0  501  0.00000000000E+00  0.00000000000E+00 -0.85206575870E+03  0.85206575872E+03  0.50400001928E-02 0. -1.
    10030    2    1    2    0    0  0.00000000000E+00  0.00000000000E+00 -0.61676097204E+03  0.10873705454E+04  0.89553369922E+03 0.  0.
        2    1    3    3  502    0 -0.10154854252E+03 -0.92785863652E+02  0.20901454931E+03  0.25021671569E+03  0.25500000920E-02 0.  1.
       -2    1    3    3    0  502  0.10154854252E+03  0.92785863652E+02 -0.82577552135E+03  0.83715382974E+03  0.25500000920E-02 0. -1.
</event>
<event>
 5   0  0.8524692E-03  0.9126541E+03  0.7818609E-02  0.9409900E-01
       -1   -1    0    0    0  501  0.00000000000E+00  0.00000000000E+00  0.18560337679E+03  0.18560337686E+03  0.50400001928E-02 0.  1.
        1   -1    0    0  501    0  0.00000000000E+00  0.00000000000E+00 -0.11219321658E+04  0.11219321658E+04  0.50400001928E-02 0. -1.
    10030    2    1    2    0    0  0.00000000000E+00  0.00000000000E+00 -0.93632878898E+03  0.13075355426E+04  0.91265414818E+03 0.  0.
        5    1    3    3  502    0 -0.23588726877E+03  0.35336329069E+03 -0.70662555121E+03  0.82453027743E+03  0.46999998093E+01 0.  1.
       -5    1    3    3    0  502  0.23588726877E+03 -0.35336329069E+03 -0.22970323777E+03  0.48300526521E+03  0.46999998093E+01 0. -1.
</event>
<event>
 5   0  0.1483326E-02  0.9207882E+03  0.7818609E-02  0.9399962E-01
        2   -1    0    0  501    0  0.00000000000E+00  0.00000000000E+00  0.74842047150E+03  0.74842047150E+03  0.25500000920E-02 0.  1.
       -2   -1    0    0    0  501  0.00000000000E+00  0.00000000000E+00 -0.28321341932E+03  0.28321341933E+03  0.25500000920E-02 0. -1.
    10030    2    1    2    0    0  0.00000000000E+00  0.00000000000E+00  0.46520705218E+03  0.10316338908E+04  0.92078818591E+03 0.  0.
        1    1    3    3  502    0  0.22573467709E+03 -0.22649948920E+02 -0.21623968691E+03  0.31341468831E+03  0.50400001928E-02 0. -1.
       -1    1    3    3    0  502 -0.22573467709E+03  0.22649948920E+02  0.68144673909E+03  0.71821920252E+03  0.50400001928E-02 0.  1.
</event>
<event>
 5   0  0.1483326E-02  0.9863632E+03  0.7818609E-02  0.9323629E-01
       -2   -1    0    0    0  501  0.00000000000E+00  0.00000000000E+00  0.22231445967E+03  0.22231445969E+03  0.25500000920E-02 0.  1.
        2   -1    0    0  501    0  0.00000000000E+00  0.00000000000E+00 -0.10940722837E+04  0.10940722837E+04  0.25500000920E-02 0. -1.
    10030    2    1    2    0    0  0.00000000000E+00  0.00000000000E+00 -0.87175782399E+03  0.13163867434E+04  0.98636319598E+03 0.  0.
        1    1    3    3  502    0  0.39710362137E+03  0.29169717693E+03 -0.40758192458E+03  0.63945410656E+03  0.50400001928E-02 0. -1.
       -1    1    3    3    0  502 -0.39710362137E+03 -0.29169717693E+03 -0.46417589941E+03  0.67693263679E+03  0.50400001928E-02 0.  1.
</event>
<event>
 5   0  0.1535906E-02  0.9246445E+03  0.7818609E-02  0.9395288E-01
       -2   -1    0    0    0  501  0.00000000000E+00  0.00000000000E+00  0.15687213348E+03  0.15687213350E+03  0.25500000920E-02 0. -1.
        2   -1    0    0  501    0  0.00000000000E+00  0.00000000000E+00 -0.13625227880E+04  0.13625227880E+04  0.25500000920E-02 0.  1.
    10030    2    1    2    0    0  0.00000000000E+00  0.00000000000E+00 -0.12056506545E+04  0.15193949215E+04  0.92464448668E+03 0.  0.
        2    1    3    3  502    0  0.24794305463E+03  0.20499019345E+03 -0.11484268467E+04  0.11926361390E+04  0.25500000920E-02 0.  1.
       -2    1    3    3    0  502 -0.24794305463E+03 -0.20499019345E+03 -0.57223807775E+02  0.32675878249E+03  0.25500000920E-02 0. -1.
</event>
<event>
 5   0  0.1441195E-02  0.8218178E+03  0.7818609E-02  0.9528963E-01
        2   -1    0    0  501    0  0.00000000000E+00  0.00000000000E+00  0.11955784336E+04  0.11955784336E+04  0.25500000920E-02 0. -1.
       -2   -1    0    0    0  501  0.00000000000E+00  0.00000000000E+00 -0.14122545665E+03  0.14122545667E+03  0.25500000920E-02 0.  1.
    10030    2    1    2    0    0  0.00000000000E+00  0.00000000000E+00  0.10543529770E+04  0.13368038903E+04  0.82181776634E+03 0.  0.
        5    1    3    3  502    0 -0.10912271089E+03 -0.25166326557E+03  0.29567748363E+02  0.27593206955E+03  0.46999998093E+01 0.  1.
       -5    1    3    3    0  502  0.10912271089E+03  0.25166326557E+03  0.10247852286E+04  0.10608718208E+04  0.46999998093E+01 0. -1.
</event>
<event>
 5   0  0.8612969E-03  0.9093115E+03  0.7818609E-02  0.9414016E-01
        1   -1    0    0  501    0  0.00000000000E+00  0.00000000000E+00  0.10104685173E+04  0.10104685173E+04  0.50400001928E-02 0.  1.
       -1   -1    0    0    0  501  0.00000000000E+00  0.00000000000E+00 -0.20457029949E+03  0.20457029955E+03  0.50400001928E-02 0. -1.
    10030    2    1    2    0    0  0.00000000000E+00  0.00000000000E+00  0.80589821784E+03  0.12150388169E+04  0.90931149175E+03 0.  0.
        4    1    3    3  502    0 -0.20898142095E+03  0.12342705365E+03 -0.11076175296E+03  0.26679064956E+03  0.12699999809E+01 0. -1.
       -4    1    3    3    0  502  0.20898142095E+03 -0.12342705365E+03  0.91665997079E+03  0.94824816732E+03  0.12699999809E+01 0.  1.
</event>
<event>
 5   0  0.1483326E-02  0.8980187E+03  0.7818609E-02  0.9428061E-01
        2   -1    0    0  501    0  0.00000000000E+00  0.00000000000E+00  0.39605927416E+03  0.39605927417E+03  0.25500000920E-02 0. -1.
       -2   -1    0    0    0  501  0.00000000000E+00  0.00000000000E+00 -0.50903849349E+03  0.50903849350E+03  0.25500000920E-02 0.  1.
    10030    2    1    2    0    0  0.00000000000E+00  0.00000000000E+00 -0.11297921933E+03  0.90509776767E+03  0.89801874426E+03 0.  0.
        1    1    3    3  502    0  0.14743704426E+03 -0.16965146558E+03 -0.44825684973E+03  0.50145139859E+03  0.50400001928E-02 0.  1.
       -1    1    3    3    0  502 -0.14743704426E+03  0.16965146558E+03  0.33527763041E+03  0.40364636908E+03  0.50400001928E-02 0. -1.
</event>
<event>
 5   0  0.8291252E-03  0.8954437E+03  0.7818609E-02  0.9431295E-01
        1   -1    0    0  501    0  0.00000000000E+00  0.00000000000E+00  0.15422252981E+04  0.15422252982E+04  0.50400001928E-02 0. -1.
       -1   -1    0    0    0  501  0.00000000000E+00  0.00000000000E+00 -0.12997768294E+03  0.12997768304E+03  0.50400001928E-02 0.  1.
    10030    2    1    2    0    0  0.00000000000E+00  0.00000000000E+00  0.14122476152E+04  0.16722029812E+04  0.89544373563E+03 0.  0.
        1    1    3    3  502    0  0.29522772617E+03 -0.32588642336E+03  0.86340651167E+03  0.96893352488E+03  0.50400001928E-02 0. -1.
       -1    1    3    3    0  502 -0.29522772617E+03  0.32588642336E+03  0.54884110354E+03  0.70326945632E+03  0.50400001928E-02 0.  1.
</event>
<event>
 5   0  0.5770125E-03  0.8957784E+03  0.7818609E-02  0.9430874E-01
       -4   -1    0    0    0  501  0.00000000000E+00  0.00000000000E+00  0.27522368751E+03  0.27522661766E+03  0.12699999809E+01 0. -1.
        4   -1    0    0  501    0  0.00000000000E+00  0.00000000000E+00 -0.72887159404E+03  0.72887270048E+03  0.12699999809E+01 0.  1.
    10030    2    1    2    0    0  0.00000000000E+00  0.00000000000E+00 -0.45364790653E+03  0.10040993181E+04  0.89577844224E+03 0.  0.
        3    1    3    3  502    0  0.15051589572E+03 -0.37961186603E+03 -0.20608894291E+02  0.40888255089E+03  0.10100000352E+00 0. -1.
       -3    1    3    3    0  502 -0.15051589572E+03  0.37961186603E+03 -0.43303901224E+03  0.59521676725E+03  0.10100000352E+00 0.  1.
</event>
<event>
 5   0  0.8291252E-03  0.8866342E+03  0.7818609E-02  0.9442445E-01
        1   -1    0    0  501    0  0.00000000000E+00  0.00000000000E+00  0.10236816436E+04  0.10236816436E+04  0.50400001928E-02 0. -1.
       -1   -1    0    0    0  501  0.00000000000E+00  0.00000000000E+00 -0.19198358617E+03  0.19198358624E+03  0.50400001928E-02 0.  1.
    10030    2    1    2    0    0  0.00000000000E+00  0.00000000000E+00  0.83169805741E+03  0.12156652298E+04  0.88663424946E+03 0.  0.
        1    1    3    3  502    0 -0.41623886904E+03 -0.11930953700E+03  0.28548253373E+03  0.51864230334E+03  0.50400001928E-02 0.  1.
       -1    1    3    3    0  502  0.41623886904E+03  0.11930953700E+03  0.54621552368E+03  0.69702292649E+03  0.50400001928E-02 0. -1.
</event>
<event>
 5   0  0.8524692E-03  0.9187247E+03  0.7818609E-02  0.9402473E-01
       -1   -1    0    0    0  501  0.00000000000E+00  0.00000000000E+00  0.17166297779E+03  0.17166297786E+03  0.50400001928E-02 0.  1.
        1   -1    0    0  501    0  0.00000000000E+00  0.00000000000E+00 -0.12292329231E+04  0.12292329231E+04  0.50400001928E-02 0. -1.
    10030    2    1    2    0    0  0.00000000000E+00  0.00000000000E+00 -0.10575699453E+04  0.14008959010E+04  0.91872473360E+03 0.  0.
        5    1    3    3  502    0 -0.25229937824E+02 -0.11931770694E+03 -0.12040583982E+04  0.12102280700E+04  0.46999998093E+01 0. -1.
       -5    1    3    3    0  502  0.25229937824E+02  0.11931770694E+03  0.14648845291E+03  0.19066783102E+03  0.46999998093E+01 0.  1.
</event>
<event>
 5   0  0.5770125E-03  0.7479231E+03  0.7818609E-02  0.9638614E-01
       -4   -1    0    0    0  501  0.00000000000E+00  0.00000000000E+00  0.70293457691E+03  0.70293572417E+03  0.12699999809E+01 0.  1.
        4   -1    0    0  501    0  0.00000000000E+00  0.00000000000E+00 -0.19894440125E+03  0.19894845486E+03  0.12699999809E+01 0. -1.
    10030    2    1    2    0    0  0.00000000000E+00  0.00000000000E+00  0.50399017565E+03  0.90188417902E+03  0.74792310783E+03 0.  0.
        5    1    3    3  502    0 -0.87093506444E+02  0.47271190224E+02 -0.18278972131E+03  0.20797599983E+03  0.46999998093E+01 0. -1.
       -5    1    3    3    0  502  0.87093506444E+02 -0.47271190224E+02  0.68677989696E+03  0.69390817920E+03  0.46999998093E+01 0.  1.
</event>
<event>
 5   0  0.1483326E-02  0.8985168E+03  0.7818609E-02  0.9427437E-01
        2   -1    0    0  501    0  0.00000000000E+00  0.00000000000E+00  0.24845382660E+03  0.24845382662E+03  0.25500000920E-02 0.  1.
       -2   -1    0    0    0  501  0.00000000000E+00  0.00000000000E+00 -0.81235661942E+03  0.81235661943E+03  0.25500000920E-02 0. -1.
    10030    2    1    2    0    0  0.00000000000E+00  0.00000000000E+00 -0.56390279282E+03  0.10608104460E+04  0.89851680156E+03 0.  0.
        1    1    3    3  502    0 -0.36581769958E+03 -0.26002449102E+03 -0.25840437395E+03  0.51788815951E+03  0.50400001928E-02 0.  1.
       -1    1    3    3    0  502  0.36581769958E+03  0.26002449102E+03 -0.30549841887E+03  0.54292228653E+03  0.50400001928E-02 0. -1.
</event>
<event>
 5   0  0.1440615E-02  0.9012554E+03  0.7818609E-02  0.9424013E-01
        2   -1    0    0  501    0  0.00000000000E+00  0.00000000000E+00  0.14335225244E+03  0.14335225246E+03  0.25500000920E-02 0.  1.
       -2   -1    0    0    0  501  0.00000000000E+00  0.00000000000E+00 -0.14165479931E+04  0.14165479931E+04  0.25500000920E-02 0. -1.
    10030    2    1    2    0    0  0.00000000000E+00  0.00000000000E+00 -0.12731957406E+04  0.15599002456E+04  0.90125544774E+03 0.  0.
        3    1    3    3  502    0 -0.11051269738E+03 -0.24247905202E+03 -0.12655655112E+04  0.12933155919E+04  0.10100000352E+00 0. -1.
       -3    1    3    3    0  502  0.11051269738E+03  0.24247905202E+03 -0.76302294384E+01  0.26658465363E+03  0.10100000352E+00 0.  1.
</event>
<event>
 5   0  0.8291252E-03  0.8568757E+03  0.7818609E-02  0.9481155E-01
       -1   -1    0    0    0  501  0.00000000000E+00  0.00000000000E+00  0.54851451197E+03  0.54851451199E+03  0.50400001928E-02 0. -1.
        1   -1    0    0  501    0  0.00000000000E+00  0.00000000000E+00 -0.33464748034E+03  0.33464748038E+03  0.50400001928E-02 0.  1.
    10030    2    1    2    0    0  0.00000000000E+00  0.00000000000E+00  0.21386703163E+03  0.88316199237E+03  0.85687571885E+03 0.  0.
        1    1    3    3  502    0 -0.38115751322E+03  0.86968188189E+02 -0.73698256831E+02  0.39783909904E+03  0.50400001928E-02 0.  1.
       -1    1    3    3    0  502  0.38115751322E+03 -0.86968188189E+02  0.28756528846E+03  0.48532289333E+03  0.50400001928E-02 0. -1.
</event>
<event>
 5   0  0.8885324E-03  0.1016899E+04  0.7818609E-02  0.9290202E-01
        1   -1    0    0  501    0  0.00000000000E+00  0.00000000000E+00  0.12168191151E+04  0.12168191151E+04  0.50400001928E-02 0.  1.
       -1   -1    0    0    0  501  0.00000000000E+00  0.00000000000E+00 -0.21245616780E+03  0.21245616786E+03  0.50400001928E-02 0. -1.
    10030    2    1    2    0    0  0.00000000000E+00  0.00000000000E+00  0.10043629473E+04  0.14292752829E+04  0.10168986698E+04 0.  0.
        2    1    3    3  502    0 -0.17628722742E+03 -0.33214192548E+03  0.98320190882E+03  0.10526544726E+04  0.25500000920E-02 0.  1.
       -2    1    3    3    0  502  0.17628722742E+03  0.33214192548E+03  0.21161038462E+02  0.37662081032E+03  0.25500000920E-02 0. -1.
</event>
<event>
 5   0  0.5770125E-03  0.9040294E+03  0.7818609E-02  0.9420558E-01
        3   -1    0    0  501    0  0.00000000000E+00  0.00000000000E+00  0.59652941932E+03  0.59652942787E+03  0.10100000352E+00 0. -1.
       -3   -1    0    0    0  501  0.00000000000E+00  0.00000000000E+00 -0.34250996402E+03  0.34250997892E+03  0.10100000352E+00 0.  1.
    10030    2    1    2    0    0  0.00000000000E+00  0.00000000000E+00  0.25401945530E+03  0.93903940679E+03  0.90402938217E+03 0.  0.
        4    1    3    3  502    0 -0.29676321127E+03 -0.27623974321E+03  0.33459624926E+03  0.52567391244E+03  0.12699999809E+01 0. -1.
       -4    1    3    3    0  502  0.29676321127E+03  0.27623974321E+03 -0.80576793963E+02  0.41336549435E+03  0.12699999809E+01 0.  1.
</event>
<event>
 5   0  0.8612969E-03  0.8972405E+03  0.7818609E-02  0.9429038E-01
        1   -1    0    0  501    0  0.00000000000E+00  0.00000000000E+00  0.63905557712E+03  0.63905557714E+03  0.50400001928E-02 0.  1.
       -1   -1    0    0    0  501  0.00000000000E+00  0.00000000000E+00 -0.31493365422E+03  0.31493365426E+03  0.50400001928E-02 0. -1.
    10030    2    1    2    0    0  0.00000000000E+00  0.00000000000E+00  0.32412192290E+03  0.95398923140E+03  0.89724045424E+03 0.  0.
        4    1    3    3  502    0 -0.29746742850E+03 -0.23950286824E+03 -0.88220511599E+02  0.39196041443E+03  0.12699999809E+01 0. -1.
       -4    1    3    3    0  502  0.29746742850E+03  0.23950286824E+03  0.41234243450E+03  0.56202881697E+03  0.12699999809E+01 0.  1.
</event>
<event>
 5   0  0.8885324E-03  0.7864628E+03  0.7818609E-02  0.9579821E-01
       -1   -1    0    0    0  501  0.00000000000E+00  0.00000000000E+00  0.69816908404E+03  0.69816908405E+03  0.50400001928E-02 0.  1.
        1   -1    0    0  501    0  0.00000000000E+00  0.00000000000E+00 -0.22148065825E+03  0.22148065831E+03  0.50400001928E-02 0. -1.
    10030    2    1    2    0    0  0.00000000000E+00  0.00000000000E+00  0.47668842578E+03  0.91964974236E+03  0.78646283660E+03 0.  0.
        2    1    3    3  502    0  0.15336587615E+03  0.85800704602E+01 -0.18494768660E+03  0.24041704674E+03  0.25500000920E-02 0. -1.
       -2    1    3    3    0  502 -0.15336587615E+03 -0.85800704602E+01  0.66163611239E+03  0.67923269562E+03  0.25500000920E-02 0.  1.
</event>
<event>
 5   0  0.8738044E-03  0.8492996E+03  0.7818609E-02  0.9491277E-01
        1   -1    0    0  501    0  0.00000000000E+00  0.00000000000E+00  0.46058314356E+03  0.46058314359E+03  0.50400001928E-02 0. -1.
       -1   -1    0    0    0  501  0.00000000000E+00  0.00000000000E+00 -0.39151988364E+03  0.39151988368E+03  0.50400001928E-02 0.  1.
    10030    2    1    2    0    0  0.00000000000E+00  0.00000000000E+00  0.69063259921E+02  0.85210302727E+03  0.84929961451E+03 0.  0.
        3    1    3    3  502    0 -0.37005623326E+03  0.35781261292E+02  0.24040528356E+03  0.44273764805E+03  0.10100000352E+00 0. -1.
       -3    1    3    3    0  502  0.37005623326E+03 -0.35781261292E+02 -0.17134202364E+03  0.40936537922E+03  0.10100000352E+00 0.  1.
</event>
<event>
 5   0  0.1483326E-02  0.7704496E+03  0.7818609E-02  0.9603803E-01
        2   -1    0    0  501    0  0.00000000000E+00  0.00000000000E+00  0.15273560293E+04  0.15273560293E+04  0.25500000920E-02 0.  1.
       -2   -1    0    0    0  501  0.00000000000E+00  0.00000000000E+00 -0.97160153536E+02  0.97160153570E+02  0.25500000920E-02 0. -1.
    10030    2    1    2    0    0  0.00000000000E+00  0.00000000000E+00  0.14301958758E+04  0.16245161829E+04  0.77044959950E+03 0.  0.
        1    1    3    3  502    0  0.36048994210E+03  0.90938453811E+02  0.92779152327E+03  0.99950983557E+03  0.50400001928E-02 0.  1.
       -1    1    3    3    0  502 -0.36048994210E+03 -0.90938453811E+02  0.50240435251E+03  0.62500634731E+03  0.50400001928E-02 0. -1.
</event>
<event>
 5   0  0.8524692E-03  0.9010654E+03  0.7818609E-02  0.9424251E-01
        1   -1    0    0  501    0  0.00000000000E+00  0.00000000000E+00  0.11047362686E+04  0.11047362687E+04  0.50400001928E-02 0. -1.
       -1   -1    0    0    0  501  0.00000000000E+00  0.00000000000E+00 -0.18373591434E+03  0.18373591441E+03  0.50400001928E-02 0.  1.
    10030    2    1    2    0    0  0.00000000000E+00  0.00000000000E+00  0.92100035430E+03  0.12884721831E+04  0.90106543266E+03 0.  0.
        5    1    3    3  502    0  0.10861732312E+03 -0.11521451632E+03  0.10635997623E+04  0.10753318799E+04  0.46999998093E+01 0. -1.
       -5    1    3    3    0  502 -0.10861732312E+03  0.11521451632E+03 -0.14259940801E+03  0.21314030312E+03  0.46999998093E+01 0.  1.
</event>
<event>
 5   0  0.1535906E-02  0.9078030E+03  0.7818609E-02  0.9415880E-01
       -2   -1    0    0    0  501  0.00000000000E+00  0.00000000000E+00  0.81323913466E+03  0.81323913466E+03  0.25500000920E-02 0. -1.
        2   -1    0    0  501    0  0.00000000000E+00  0.00000000000E+00 -0.25334067681E+03  0.25334067683E+03  0.25500000920E-02 0.  1.
    10030    2    1    2    0    0  0.00000000000E+00  0.00000000000E+00  0.55989845784E+03  0.10665798115E+04  0.90780295834E+03 0.  0.
        2    1    3    3  502    0 -0.17680737060E+02 -0.22507168598E+03  0.74259330583E+03  0.77615377997E+03  0.25500000920E-02 0. -1.
       -2    1    3    3    0  502  0.17680737060E+02  0.22507168598E+03 -0.18269484799E+03  0.29042603151E+03  0.25500000920E-02 0.  1.
</event>
<event>
 5   0  0.8885324E-03  0.9005518E+03  0.7818609E-02  0.9424892E-01
       -1   -1    0    0    0  501  0.00000000000E+00  0.00000000000E+00  0.12216250412E+03  0.12216250422E+03  0.50400001928E-02 0. -1.
        1   -1    0    0  501    0  0.00000000000E+00  0.00000000000E+00 -0.16596613412E+04  0.16596613412E+04  0.50400001928E-02 0.  1.
    10030    2    1    2    0    0  0.00000000000E+00  0.00000000000E+00 -0.15374988371E+04  0.17818238454E+04  0.90055179869E+03 0.  0.
        2    1    3    3  502    0  0.26472257231E+03  0.20942956049E+03 -0.17911064190E+03  0.38212485282E+03  0.25500000920E-02 0. -1.
       -2    1    3    3    0  502 -0.26472257231E+03 -0.20942956049E+03 -0.13583881952E+04  0.13996989926E+04  0.25500000920E-02 0.  1.
</event>
<event>
 5   0  0.1440615E-02  0.8957360E+03  0.7818609E-02  0.9430927E-01
       -2   -1    0    0    0  501  0.00000000000E+00  0.00000000000E+00  0.23996883369E+03  0.23996883370E+03  0.25500000920E-02 0. -1.
        2   -1    0    0  501    0  0.00000000000E+00  0.00000000000E+00 -0.83588240716E+03  0.83588240716E+03  0.25500000920E-02 0.  1.
    10030    2    1    2    0    0  0.00000000000E+00  0.00000000000E+00 -0.59591357347E+03  0.10758512409E+04  0.89573595743E+03 0.  0.
        3    1    3    3  502    0 -0.19481236229E+03 -0.13302502524E+02  0.18615014560E+03  0.26977898358E+03  0.10100000352E+00 0. -1.
       -3    1    3    3    0  502  0.19481236229E+03  0.13302502524E+02 -0.78206371907E+03  0.80607225728E+03  0.10100000352E+00 0.  1.
</event>
<event>
 5   0  0.8291252E-03  0.8975255E+03  0.7818609E-02  0.9428680E-01
       -1   -1    0    0    0  501  0.00000000000E+00  0.00000000000E+00  0.23322826768E+03  0.23322826773E+03  0.50400001928E-02 0.  1.
        1   -1    0    0  501    0  0.00000000000E+00  0.00000000000E+00 -0.86348023148E+03  0.86348023150E+03  0.50400001928E-02 0. -1.
    10030    2    1    2    0    0  0.00000000000E+00  0.00000000000E+00 -0.63025196380E+03  0.10967084992E+04  0.89752548398E+03 0.  0.
        1    1    3    3  502    0  0.95216877183E+01  0.43306952488E+03 -0.17185239966E+03  0.46601837219E+03  0.50400001928E-02 0.  1.
       -1    1    3    3    0  502 -0.95216877183E+01 -0.43306952488E+03 -0.45839956414E+03  0.63069012704E+03  0.50400001928E-02 0. -1.
</event>
<event>
 5   0  0.1440615E-02  0.8949298E+03  0.7818609E-02  0.9431942E-01
        2   -1    0    0  501    0  0.00000000000E+00  0.00000000000E+00  0.86944151402E+03  0.86944151402E+03  0.25500000920E-02 0. -1.
       -2   -1    0    0    0  501  0.00000000000E+00  0.00000000000E+00 -0.23029132199E+03  0.23029132201E+03  0.25500000920E-02 0.  1.
    10030    2    1    2    0    0  0.00000000000E+00  0.00000000000E+00  0.63915019203E+03  0.10997328360E+04  0.89492979762E+03 0.  0.
        3    1    3    3  502    0 -0.25103035407E+03 -0.23925257799E+03  0.66707369452E+03  0.75182801149E+03  0.10100000352E+00 0. -1.
       -3    1    3    3    0  502  0.25103035407E+03  0.23925257799E+03 -0.27923502493E+02  0.34790482454E+03  0.10100000352E+00 0.  1.
</event>
<event>
 5   0  0.8738044E-03  0.9017883E+03  0.7818609E-02  0.9423349E-01
       -1   -1    0    0    0  501  0.00000000000E+00  0.00000000000E+00  0.17759730359E+03  0.17759730366E+03  0.50400001928E-02 0.  1.
        1   -1    0    0  501    0  0.00000000000E+00  0.00000000000E+00 -0.11447557932E+04  0.11447557932E+04  0.50400001928E-02 0. -1.
    10030    2    1    2    0    0  0.00000000000E+00  0.00000000000E+00 -0.96715848964E+03  0.13223530969E+04  0.90178831707E+03 0.  0.
        3    1    3    3  502    0  0.28844682699E+02 -0.23972658915E+03  0.74805879318E+02  0.25277813008E+03  0.10100000352E+00 0.  1.
       -3    1    3    3    0  502 -0.28844682699E+02  0.23972658915E+03 -0.10419643690E+04  0.10695749668E+04  0.10100000352E+00 0. -1.
</event>
<event>
 5   0  0.8524692E-03  0.8907206E+03  0.7818609E-02  0.9437256E-01
        1   -1    0    0  501    0  0.00000000000E+00  0.00000000000E+00  0.60447264394E+03  0.60447264396E+03  0.50400001928E-02 0. -1.
       -1   -1    0    0    0  501  0.00000000000E+00  0.00000000000E+00 -0.32813034208E+03  0.32813034211E+03  0.50400001928E-02 0.  1.
    10030    2    1    2    0    0  0.00000000000E+00  0.00000000000E+00  0.27634230186E+03  0.93260298608E+03  0.89072064186E+03 0.  0.
        5    1    3    3  502    0 -0.37492489936E+03 -0.22636468683E+03  0.53666303117E+02  0.44126161593E+03  0.46999998093E+01 0.  1.
       -5    1    3    3    0  502  0.37492489936E+03  0.22636468683E+03  0.22267599875E+03  0.49134137015E+03  0.46999998093E+01 0. -1.
</event>
<event>
 5   0  0.8738044E-03  0.8947215E+03  0.7818609E-02  0.9432204E-01
       -1   -1    0    0    0  501  0.00000000000E+00  0.00000000000E+00  0.62600114455E+03  0.62600114457E+03  0.50400001928E-02 0. -1.
        1   -1    0    0  501    0  0.00000000000E+00  0.00000000000E+00 -0.31969848891E+03  0.31969848895E+03  0.50400001928E-02 0.  1.
    10030    2    1    2    0    0  0.00000000000E+00  0.00000000000E+00  0.30630265564E+03  0.94569963352E+03  0.89472145385E+03 0.  0.
        3    1    3    3  502    0 -0.28168267566E+03 -0.87217217087E+02  0.50874131064E+03  0.58802185680E+03  0.10100000352E+00 0. -1.
       -3    1    3    3    0  502  0.28168267566E+03  0.87217217087E+02 -0.20243865499E+03  0.35767777672E+03  0.10100000352E+00 0.  1.
</event>
<event>
 5   0  0.1441195E-02  0.8825101E+03  0.7818609E-02  0.9447713E-01
       -2   -1    0    0    0  501  0.00000000000E+00  0.00000000000E+00  0.18997323622E+03  0.18997323624E+03  0.25500000920E-02 0.  1.
        2   -1    0    0  501    0  0.00000000000E+00  0.00000000000E+00 -0.10249129259E+04  0.10249129259E+04  0.25500000920E-02 0. -1.
    10030    2    1    2    0    0  0.00000000000E+00  0.00000000000E+00 -0.83493968967E+03  0.12148861621E+04  0.88251011413E+03 0.  0.
        5    1    3    3  502    0  0.42177729934E+03 -0.63381813695E+02 -0.26190144329E+03  0.50052752226E+03  0.46999998093E+01 0. -1.
       -5    1    3    3    0  502 -0.42177729934E+03  0.63381813695E+02 -0.57303824637E+03  0.71435863986E+03  0.46999998093E+01 0.  1.
</event>
<event>
 5   0  0.1483326E-02  0.9006119E+03  0.7818609E-02  0.9424817E-01
        2   -1    0    0  501    0  0.00000000000E+00  0.00000000000E+00  0.71558000083E+03  0.71558000083E+03  0.25500000920E-02 0.  1.
       -2   -1    0    0    0  501  0.00000000000E+00  0.00000000000E+00 -0.28337214489E+03  0.28337214491E+03  0.25500000920E-02 0. -1.
    10030    2    1    2    0    0  0.00000000000E+00  0.00000000000E+00  0.43220785593E+03  0.99895214574E+03  0.90061188019E+03 0.  0.
        1    1    3    3  502    0 -0.13731534704E+03 -0.12457716536E+02 -0.25938247820E+03  0.29375154341E+03  0.50400001928E-02 0. -1.
       -1    1    3    3    0  502  0.13731534704E+03  0.12457716536E+02  0.69159033413E+03  0.70520060233E+03  0.50400001928E-02 0.  1.
</event>
<event>
 5   0  0.1483326E-02  0.8749328E+03  0.7818609E-02  0.9457471E-01
       -2   -1    0    0    0  501  0.00000000000E+00  0.00000000000E+00  0.30680599307E+03  0.30680599308E+03  0.25500000920E-02 0.  1.
        2   -1    0    0  501    0  0.00000000000E+00  0.00000000000E+00 -0.62377150737E+03  0.62377150738E+03  0.25500000920E-02 0. -1.
    10030    2    1    2    0    0  0.00000000000E+00  0.00000000000E+00 -0.31696551430E+03  0.93057750046E+03  0.87493276719E+03 0.  0.
        1    1    3    3  502    0 -0.43599449030E+03  0.51581165243E+01 -0.19622231175E+03  0.47814328124E+03  0.50400001928E-02 0. -1.
       -1    1    3    3    0  502  0.43599449030E+03 -0.51581165243E+01 -0.12074320254E+03  0.45243421922E+03  0.50400001928E-02 0.  1.
</event>
<event>
 5   0  0.8885324E-03  0.9044015E+03  0.7818609E-02  0.9420096E-01
       -1   -1    0    0    0  501  0.00000000000E+00  0.00000000000E+00  0.27745190230E+03  0.27745190234E+03  0.50400001928E-02 0.  1.
        1   -1    0    0  501    0  0.00000000000E+00  0.00000000000E+00 -0.73701252983E+03  0.73701252984E+03  0.50400001928E-02 0. -1.
    10030    2    1    2    0    0  0.00000000000E+00  0.00000000000E+00 -0.45956062753E+03  0.10144644322E+04  0.90440152244E+03 0.  0.
        2    1    3    3  502    0 -0.26892956275E+03 -0.22149081638E+03  0.93580302177E+02  0.36074723065E+03  0.25500000920E-02 0.  1.
       -2    1    3    3    0  502  0.26892956275E+03  0.22149081638E+03 -0.55314092971E+03  0.65371720154E+03  0.25500000920E-02 0. -1.
</event>
<event>
 5   0  0.5770125E-03  0.9140244E+03  0.7818609E-02  0.9408218E-01
       -4   -1    0    0    0  501  0.00000000000E+00  0.00000000000E+00  0.69242194815E+03  0.69242311283E+03  0.12699999809E+01 0.  1.
        4   -1    0    0  501    0  0.00000000000E+00  0.00000000000E+00 -0.30163437980E+03  0.30163705339E+03  0.12699999809E+01 0. -1.
    10030    2    1    2    0    0  0.00000000000E+00  0.00000000000E+00  0.39078756835E+03  0.99406016621E+03  0.91402444742E+03 0.  0.
        2    1    3    3  502    0  0.33231380586E+03 -0.31038714743E+03  0.14570358008E+03  0.47749573832E+03  0.25500000920E-02 0. -1.
       -2    1    3    3    0  502 -0.33231380586E+03  0.31038714743E+03  0.24508398827E+03  0.51656442790E+03  0.25500000920E-02 0.  1.
</event>
<event>
 5   0  0.1535906E-02  0.9262475E+03  0.7818609E-02  0.9393353E-01
        2   -1    0    0  501    0  0.00000000000E+00  0.00000000000E+00  0.13487642639E+04  0.13487642639E+04  0.25500000920E-02 0.  1.
       -2   -1    0    0    0  501  0.00000000000E+00  0.00000000000E+00 -0.15902230862E+03  0.15902230864E+03  0.25500000920E-02 0. -1.
    10030    2    1    2    0    0  0.00000000000E+00  0.00000000000E+00  0.11897419553E+04  0.15077865725E+04  0.92624749833E+03 0.  0.
        2    1    3    3  502    0  0.11989382907E+03  0.38005184900E+03  0.21079058018E+03  0.45082879997E+03  0.25500000920E-02 0. -1.
       -2    1    3    3    0  502 -0.11989382907E+03 -0.38005184900E+03  0.97895137509E+03  0.10569577726E+04  0.25500000920E-02 0.  1.
</event>
<event>
 5   0  0.8524692E-03  0.9048819E+03  0.7818609E-02  0.9419499E-01
        1   -1    0    0  501    0  0.00000000000E+00  0.00000000000E+00  0.56348578602E+03  0.56348578604E+03  0.50400001928E-02 0. -1.
       -1   -1    0    0    0  501  0.00000000000E+00  0.00000000000E+00 -0.36327949827E+03  0.36327949831E+03  0.50400001928E-02 0.  1.
    10030    2    1    2    0    0  0.00000000000E+00  0.00000000000E+00  0.20020628774E+03  0.92676528435E+03  0.90488194513E+03 0.  0.
        5    1    3    3  502    0  0.13329845348E+03  0.29219768748E+03  0.42645115283E+03  0.53388261071E+03  0.46999998093E+01 0. -1.
       -5    1    3    3    0  502 -0.13329845348E+03 -0.29219768748E+03 -0.22624486509E+03  0.39288267364E+03  0.46999998093E+01 0.  1.
</event>
<event>
 5   0  0.8612969E-03  0.9078988E+03  0.7818609E-02  0.9415761E-01
       -1   -1    0    0    0  501  0.00000000000E+00  0.00000000000E+00  0.20949638961E+03  0.20949638967E+03  0.50400001928E-02 0. -1.
        1   -1    0    0  501    0  0.00000000000E+00  0.00000000000E+00 -0.98364493128E+03  0.98364493130E+03  0.50400001928E-02 0.  1.
    10030    2    1    2    0    0  0.00000000000E+00  0.00000000000E+00 -0.77414854168E+03  0.11931413210E+04  0.90789880891E+03 0.  0.
        4    1    3    3  502    0  0.41466153250E+03 -0.11995440139E+03 -0.57169278429E+03  0.71635710190E+03  0.12699999809E+01 0.  1.
       -4    1    3    3    0  502 -0.41466153250E+03  0.11995440139E+03 -0.20245575739E+03  0.47678421906E+03  0.12699999809E+01 0. -1.
</event>
<event>
 5   0  0.8738044E-03  0.9113619E+03  0.7818609E-02  0.9411489E-01
        1   -1    0    0  501    0  0.00000000000E+00  0.00000000000E+00  0.16518534606E+04  0.16518534606E+04  0.50400001928E-02 0. -1.
       -1   -1    0    0    0  501  0.00000000000E+00  0.00000000000E+00 -0.12570434007E+03  0.12570434017E+03  0.50400001928E-02 0.  1.
    10030    2    1    2    0    0  0.00000000000E+00  0.00000000000E+00  0.15261491206E+04  0.17775578008E+04  0.91136194621E+03 0.  0.
        3    1    3    3  502    0  0.27166124251E+03  0.22797150781E+03  0.20498147615E+03  0.40961964653E+03  0.10100000352E+00 0.  1.
       -3    1    3    3    0  502 -0.27166124251E+03 -0.22797150781E+03  0.13211676444E+04  0.13679381543E+04  0.10100000352E+00 0. -1.
</event>
<event>
 5   0  0.8738044E-03  0.9031378E+03  0.7818609E-02  0.9421668E-01
       -1   -1    0    0    0  501  0.00000000000E+00  0.00000000000E+00  0.18810461834E+03  0.18810461841E+03  0.50400001928E-02 0.  1.
        1   -1    0    0  501    0  0.00000000000E+00  0.00000000000E+00 -0.10840481471E+04  0.10840481471E+04  0.50400001928E-02 0. -1.
    10030    2    1    2    0    0  0.00000000000E+00  0.00000000000E+00 -0.89594352880E+03  0.12721527656E+04  0.90313778136E+03 0.  0.
        3    1    3    3  502    0 -0.23270749997E+03 -0.48266747262E+02  0.92883578746E+02  0.25516627684E+03  0.10100000352E+00 0.  1.
       -3    1    3    3    0  502  0.23270749997E+03  0.48266747262E+02 -0.98882710754E+03  0.10169864887E+04  0.10100000352E+00 0. -1.
</event>
<event>
 5   0  0.1535906E-02  0.8999231E+03  0.7818609E-02  0.9425677E-01
       -2   -1    0    0    0  501  0.00000000000E+00  0.00000000000E+00  0.56857844575E+03  0.56857844576E+03  0.25500000920E-02 0.  1.
        2   -1    0    0  501    0  0.00000000000E+00  0.00000000000E+00 -0.35609056273E+03  0.35609056274E+03  0.25500000920E-02 0. -1.
    10030    2    1    2    0    0  0.00000000000E+00  0.00000000000E+00  0.21248788302E+03  0.92466900850E+03  0.89992314942E+03 0.  0.
        2    1    3    3  502    0 -0.14154451490E+03  0.27394341422E+03 -0.23046438121E+03  0.38495931591E+03  0.25500000920E-02 0. -1.
       -2    1    3    3    0  502  0.14154451490E+03 -0.27394341422E+03  0.44295226422E+03  0.53970969259E+03  0.25500000920E-02 0.  1.
</event>
<event>
 5   0  0.1535906E-02  0.8834448E+03  0.7818609E-02  0.9446516E-01
        2   -1    0    0  501    0  0.00000000000E+00  0.00000000000E+00  0.58201923139E+03  0.58201923139E+03  0.25500000920E-02 0. -1.
       -2   -1    0    0    0  501  0.00000000000E+00  0.00000000000E+00 -0.33524436289E+03  0.33524436290E+03  0.25500000920E-02 0.  1.
    10030    2    1    2    0    0  0.00000000000E+00  0.00000000000E+00  0.24677486850E+03  0.91726359429E+03  0.88344477229E+03 0.  0.
        2    1    3    3  502    0  0.39860000472E+02  0.83689015780E+02  0.57180687727E+03  0.57927176343E+03  0.25500000920E-02 0. -1.
       -2    1    3    3    0  502 -0.39860000472E+02 -0.83689015780E+02 -0.32503200877E+03  0.33799183087E+03  0.25500000920E-02 0.  1.
</event>
<event>
 5   0  0.8612969E-03  0.8125482E+03  0.7818609E-02  0.9542030E-01
       -1   -1    0    0    0  501  0.00000000000E+00  0.00000000000E+00  0.27230044418E+03  0.27230044423E+03  0.50400001928E-02 0.  1.
        1   -1    0    0  501    0  0.00000000000E+00  0.00000000000E+00 -0.60616372239E+03  0.60616372241E+03  0.50400001928E-02 0. -1.
    10030    2    1    2    0    0  0.00000000000E+00  0.00000000000E+00 -0.33386327821E+03  0.87846416664E+03  0.81254821613E+03 0.  0.
        4    1    3    3  502    0 -0.27300279015E+03 -0.21373217505E+03 -0.39587722362E+03  0.52624362719E+03  0.12699999809E+01 0. -1.
       -4    1    3    3    0  502  0.27300279015E+03  0.21373217505E+03  0.62013945411E+02  0.35222053945E+03  0.12699999809E+01 0.  1.
</event>
<event>
 5   0  0.8291252E-03  0.9042406E+03  0.7818609E-02  0.9420296E-01
       -1   -1    0    0    0  501  0.00000000000E+00  0.00000000000E+00  0.29697080800E+03  0.29697080804E+03  0.50400001928E-02 0.  1.
        1   -1    0    0  501    0  0.00000000000E+00  0.00000000000E+00 -0.68832605862E+03  0.68832605863E+03  0.50400001928E-02 0. -1.
    10030    2    1    2    0    0  0.00000000000E+00  0.00000000000E+00 -0.39135525062E+03  0.98529686668E+03  0.90424055610E+03 0.  0.
        1    1    3    3  502    0 -0.31077363698E+03  0.10426919346E+03  0.14361965709E+03  0.35788115915E+03  0.50400001928E-02 0.  1.
       -1    1    3    3    0  502  0.31077363698E+03 -0.10426919346E+03 -0.53497490771E+03  0.62741570753E+03  0.50400001928E-02 0. -1.
</event>
<event>
 5   0  0.8291252E-03  0.8962984E+03  0.7818609E-02  0.9430221E-01
       -1   -1    0    0    0  501  0.00000000000E+00  0.00000000000E+00  0.12143750254E+04  0.12143750254E+04  0.50400001928E-02 0.  1.
        1   -1    0    0  501    0  0.00000000000E+00  0.00000000000E+00 -0.16538357563E+03  0.16538357570E+03  0.50400001928E-02 0. -1.
    10030    2    1    2    0    0  0.00000000000E+00  0.00000000000E+00  0.10489914497E+04  0.13797586011E+04  0.89629835190E+03 0.  0.
        1    1    3    3  502    0 -0.12727628950E+03  0.29641068823E+03  0.10033919103E+04  0.10539705289E+04  0.50400001928E-02 0.  1.
       -1    1    3    3    0  502  0.12727628950E+03 -0.29641068823E+03  0.45599539391E+02  0.32578807220E+03  0.50400001928E-02 0. -1.
</event>
<event>
 5   0  0.5770125E-03  0.8874803E+03  0.7818609E-02  0.9441368E-01
        3   -1    0    0  501    0  0.00000000000E+00  0.00000000000E+00  0.16046002659E+03  0.16046005837E+03  0.10100000352E+00 0. -1.
       -3   -1    0    0    0  501  0.00000000000E+00  0.00000000000E+00 -0.12271299169E+04  0.12271299211E+04  0.10100000352E+00 0.  1.
    10030    2    1    2    0    0  0.00000000000E+00  0.00000000000E+00 -0.10666698903E+04  0.13875899794E+04  0.88748030745E+03 0.  0.
        5    1    3    3  502    0 -0.29456000248E+03 -0.29766570830E+03 -0.76265949358E+03  0.87008164106E+03  0.46999998093E+01 0.  1.
       -5    1    3    3    0  502  0.29456000248E+03  0.29766570830E+03 -0.30401039674E+03  0.51750833837E+03  0.46999998093E+01 0. -1.
</event>
<event>
 5   0  0.5770125E-03  0.9006665E+03  0.7818609E-02  0.9424749E-01
       -3   -1    0    0    0  501  0.00000000000E+00  0.00000000000E+00  0.15597229574E+04  0.15597229607E+04  0.10100000352E+00 0.  1.
        3   -1    0    0  501    0  0.00000000000E+00  0.00000000000E+00 -0.13002309225E+03  0.13002313148E+03  0.10100000352E+00 0. -1.
    10030    2    1    2    0    0  0.00000000000E+00  0.00000000000E+00  0.14296998652E+04  0.16897460922E+04  0.90066650407E+03 0.  0.
        4    1    3    3  502    0  0.69611084618E+01 -0.23290745486E+03 -0.81306608402E+01  0.23315672863E+03  0.12699999809E+01 0. -1.
       -4    1    3    3    0  502 -0.69611084618E+01  0.23290745486E+03  0.14378305260E+04  0.14565893636E+04  0.12699999809E+01 0.  1.
</event>
<event>
 5   0  0.8524692E-03  0.8615998E+03  0.7818609E-02  0.9474899E-01
       -1   -1    0    0    0  501  0.00000000000E+00  0.00000000000E+00  0.31173418379E+03  0.31173418383E+03  0.50400001928E-02 0.  1.
        1   -1    0    0  501    0  0.00000000000E+00  0.00000000000E+00 -0.59534225912E+03  0.59534225914E+03  0.50400001928E-02 0. -1.
    10030    2    1    2    0    0  0.00000000000E+00  0.00000000000E+00 -0.28360807534E+03  0.90707644297E+03  0.86159975220E+03 0.  0.
        5    1    3    3  502    0  0.35907376366E+02 -0.29019150427E+03  0.19122459997E+03  0.34941291685E+03  0.46999998093E+01 0.  1.
       -5    1    3    3    0  502 -0.35907376366E+02  0.29019150427E+03 -0.47483267531E+03  0.55766352612E+03  0.46999998093E+01 0. -1.
</event>
<event>
 5   0  0.1483326E-02  0.8936429E+03  0.7818609E-02  0.9433563E-01
        2   -1    0    0  501    0  0.00000000000E+00  0.00000000000E+00  0.10876630025E+04  0.10876630025E+04  0.25500000920E-02 0. -1.
       -2   -1    0    0    0  501  0.00000000000E+00  0.00000000000E+00 -0.18355816776E+03  0.18355816778E+03  0.25500000920E-02 0.  1.
    10030    2    1    2    0    0  0.00000000000E+00  0.00000000000E+00  0.90410483469E+03  0.12712211702E+04  0.89364294411E+03 0.  0.
        1    1    3    3  502    0 -0.34518604896E+03 -0.18518823894E+03  0.75781500941E+03  0.85307190831E+03  0.50400001928E-02 0. -1.
       -1    1    3    3    0  502  0.34518604896E+03  0.18518823894E+03  0.14628982528E+03  0.41814926192E+03  0.50400001928E-02 0.  1.
</event>
<event>
 5   0  0.1440615E-02  0.8954072E+03  0.7818609E-02  0.9431341E-01
        2   -1    0    0  501    0  0.00000000000E+00  0.00000000000E+00  0.54095744631E+03  0.54095744632E+03  0.25500000920E-02 0. -1.
       -2   -1    0    0    0  501  0.00000000000E+00  0.00000000000E+00 -0.37052544416E+03  0.37052544417E+03  0.25500000920E-02 0.  1.
    10030    2    1    2    0    0  0.00000000000E+00  0.00000000000E+00  0.17043200215E+03  0.91148289049E+03  0.89540716565E+03 0.  0.
        3    1    3    3  502    0 -0.53077299677E+02 -0.43808455010E+03  0.83405227892E+01  0.44136702109E+03  0.10100000352E+00 0.  1.
       -3    1    3    3    0  502  0.53077299677E+02  0.43808455010E+03  0.16209147936E+03  0.47011586940E+03  0.10100000352E+00 0. -1.
</event>
<event>
 5   0  0.1483326E-02  0.9006263E+03  0.7818609E-02  0.9424799E-01
        2   -1    0    0  501    0  0.00000000000E+00  0.00000000000E+00  0.28130612192E+03  0.28130612193E+03  0.25500000920E-02 0.  1.
       -2   -1    0    0    0  501  0.00000000000E+00  0.00000000000E+00 -0.72085859027E+03  0.72085859028E+03  0.25500000920E-02 0. -1.
    10030    2    1    2    0    0  0.00000000000E+00  0.00000000000E+00 -0.43955246836E+03  0.10021647122E+04  0.90062630317E+03 0.  0.
        1    1    3    3  502    0 -0.48500000377E+00 -0.42527819818E+03 -0.38452276357E+03  0.57334068127E+03  0.50400001928E-02 0.  1.
       -1    1    3    3    0  502  0.48500000377E+00  0.42527819818E+03 -0.55029704783E+02  0.42882403093E+03  0.50400001928E-02 0. -1.
</event>
<event>
 5   0  0.5770125E-03  0.8942231E+03  0.7818609E-02  0.9432832E-01
       -3   -1    0    0    0  501  0.00000000000E+00  0.00000000000E+00  0.39941655741E+03  0.39941657018E+03  0.10100000352E+00 0.  1.
        3   -1    0    0  501    0  0.00000000000E+00  0.00000000000E+00 -0.50050180546E+03  0.50050181565E+03  0.10100000352E+00 0. -1.
    10030    2    1    2    0    0  0.00000000000E+00  0.00000000000E+00 -0.10108524805E+03  0.89991838584E+03  0.89422305595E+03 0.  0.
        3    1    3    3  502    0 -0.23729285267E+03  0.35331800686E+03 -0.18840855582E+03  0.46544527714E+03  0.10100000352E+00 0. -1.
       -3    1    3    3    0  502  0.23729285267E+03 -0.35331800686E+03  0.87323307770E+02  0.43447310870E+03  0.10100000352E+00 0.  1.
</event>
<event>
 5   0  0.1440615E-02  0.8991983E+03  0.7818609E-02  0.9426584E-01
        2   -1    0    0  501    0  0.00000000000E+00  0.00000000000E+00  0.10279329968E+04  0.10279329968E+04  0.25500000920E-02 0.  1.
       -2   -1    0    0    0  501  0.00000000000E+00  0.00000000000E+00 -0.19664647858E+03  0.19664647860E+03  0.25500000920E-02 0. -1.
    10030    2    1    2    0    0  0.00000000000E+00  0.00000000000E+00  0.83128651818E+03  0.12245794754E+04  0.89919831860E+03 0.  0.
        3    1    3    3  502    0 -0.22029649236E+03  0.37143989295E+03  0.58596390337E+03  0.72790922846E+03  0.10100000352E+00 0.  1.
       -3    1    3    3    0  502  0.22029649236E+03 -0.37143989295E+03  0.24532261481E+03  0.49667024691E+03  0.10100000352E+00 0. -1.
</event>
<event>
 5   0  0.1441195E-02  0.9056384E+03  0.7818609E-02  0.9418560E-01
       -2   -1    0    0    0  501  0.00000000000E+00  0.00000000000E+00  0.18143163744E+03  0.18143163746E+03  0.25500000920E-02 0.  1.
        2   -1    0    0  501    0  0.00000000000E+00  0.00000000000E+00 -0.11301514664E+04  0.11301514664E+04  0.25500000920E-02 0. -1.
    10030    2    1    2    0    0  0.00000000000E+00  0.00000000000E+00 -0.94871982891E+03  0.13115831038E+04  0.90563840712E+03 0.  0.
        5    1    3    3  502    0 -0.99400827841E+02 -0.33796395603E+03 -0.88634065831E+03  0.95379348537E+03  0.46999998093E+01 0. -1.
       -5    1    3    3    0  502  0.99400827841E+02  0.33796395603E+03 -0.62379170599E+02  0.35778961845E+03  0.46999998093E+01 0.  1.
</event>
<event>
 5   0  0.5770125E-03  0.8680390E+03  0.7818609E-02  0.9466440E-01
        4   -1    0    0  501    0  0.00000000000E+00  0.00000000000E+00  0.37771687984E+03  0.37771901489E+03  0.12699999809E+01 0.  1.
       -4   -1    0    0    0  501  0.00000000000E+00  0.00000000000E+00 -0.49871030234E+03  0.49871191940E+03  0.12699999809E+01 0. -1.
    10030    2    1    2    0    0  0.00000000000E+00  0.00000000000E+00 -0.12099342250E+03  0.87643093430E+03  0.86803903962E+03 0.  0.
        2    1    3    3  502    0 -0.36816802702E+03  0.71051974987E+02 -0.28118905224E+03  0.46868258168E+03  0.25500000920E-02 0. -1.
       -2    1    3    3    0  502  0.36816802702E+03 -0.71051974987E+02  0.16019562974E+03  0.40774835262E+03  0.25500000920E-02 0.  1.
</event>
<event>
 5   0  0.8291252E-03  0.8845320E+03  0.7818609E-02  0.9445126E-01
       -1   -1    0    0    0  501  0.00000000000E+00  0.00000000000E+00  0.16765620054E+03  0.16765620062E+03  0.50400001928E-02 0. -1.
        1   -1    0    0  501    0  0.00000000000E+00  0.00000000000E+00 -0.11666684977E+04  0.11666684977E+04  0.50400001928E-02 0.  1.
    10030    2    1    2    0    0  0.00000000000E+00  0.00000000000E+00 -0.99901229715E+03  0.13343246983E+04  0.88453198398E+03 0.  0.
        1    1    3    3  502    0 -0.36100999664E+03 -0.13482704100E+03 -0.82686537814E+03  0.91225703738E+03  0.50400001928E-02 0.  1.
       -1    1    3    3    0  502  0.36100999664E+03  0.13482704100E+03 -0.17214691901E+03  0.42206766094E+03  0.50400001928E-02 0. -1.
</event>
<event>
 5   0  0.1483326E-02  0.9239268E+03  0.7818609E-02  0.9396156E-01
        2   -1    0    0  501    0  0.00000000000E+00  0.00000000000E+00  0.73800156548E+03  0.73800156548E+03  0.25500000920E-02 0. -1.
       -2   -1    0    0    0  501  0.00000000000E+00  0.00000000000E+00 -0.28917305840E+03  0.28917305841E+03  0.25500000920E-02 0.  1.
    10030    2    1    2    0    0  0.00000000000E+00  0.00000000000E+00  0.44882850708E+03  0.10271746239E+04  0.92392677155E+03 0.  0.
        1    1    3    3  502    0  0.36229030772E+03  0.27546158418E+03  0.13633441489E+03  0.47510043584E+03  0.50400001928E-02 0.  1.
       -1    1    3    3    0  502 -0.36229030772E+03 -0.27546158418E+03  0.31249409219E+03  0.55207418805E+03  0.50400001928E-02 0. -1.
</event>
<event>
 5   0  0.8738044E-03  0.8880757E+03  0.7818609E-02  0.9440611E-01
       -1   -1    0    0    0  501  0.00000000000E+00  0.00000000000E+00  0.25787072506E+03  0.25787072511E+03  0.50400001928E-02 0. -1.
        1   -1    0    0  501    0  0.00000000000E+00  0.00000000000E+00 -0.76460649255E+03  0.76460649257E+03  0.50400001928E-02 0.  1.
    10030    2    1    2    0    0  0.00000000000E+00  0.00000000000E+00 -0.50673576749E+03  0.10224772177E+04  0.88807574148E+03 0.  0.
        3    1    3    3  502    0  0.15034104449E+03  0.16468184964E+02 -0.73403823003E+03  0.74945697950E+03  0.10100000352E+00 0.  1.
       -3    1    3    3    0  502 -0.15034104449E+03 -0.16468184964E+02  0.22730246254E+03  0.27302023817E+03  0.10100000352E+00 0. -1.
</event>
<event>
 5   0  0.8885324E-03  0.9010532E+03  0.7818609E-02  0.9424266E-01
        1   -1    0    0  501    0  0.00000000000E+00  0.00000000000E+00  0.80308108716E+03  0.80308108717E+03  0.50400001928E-02 0.  1.
       -1   -1    0    0    0  501  0.00000000000E+00  0.00000000000E+00 -0.25274438249E+03  0.25274438254E+03  0.50400001928E-02 0. -1.
    10030    2    1    2    0    0  0.00000000000E+00  0.00000000000E+00  0.55033670467E+03  0.10558254697E+04  0.90105323593E+03 0.  0.
        2    1    3    3  502    0 -0.44676584590E+03 -0.58054083468E+02  0.27275672356E+03  0.52665570150E+03  0.25500000920E-02 0. -1.
       -2    1    3    3    0  502  0.44676584590E+03  0.58054083468E+02  0.27757998111E+03  0.52916976821E+03  0.25500000920E-02 0.  1.
</event>
<event>
 5   0  0.8612969E-03  0.8550801E+03  0.7818609E-02  0.9483544E-01
       -1   -1    0    0    0  501  0.00000000000E+00  0.00000000000E+00  0.63764103754E+03  0.63764103756E+03  0.50400001928E-02 0.  1.
        1   -1    0    0  501    0  0.00000000000E+00  0.00000000000E+00 -0.28666677374E+03  0.28666677378E+03  0.50400001928E-02 0. -1.
    10030    2    1    2    0    0  0.00000000000E+00  0.00000000000E+00  0.35097426380E+03  0.92430781134E+03  0.85508011101E+03 0.  0.
        4    1    3    3  502    0  0.61360288313E+02  0.16123354444E+03 -0.24737093909E+03  0.30158802238E+03  0.12699999809E+01 0. -1.
       -4    1    3    3    0  502 -0.61360288313E+02 -0.16123354444E+03  0.59834520289E+03  0.62271978896E+03  0.12699999809E+01 0.  1.
</event>
<event>
 5   0  0.1454652E-02  0.9218290E+03  0.7818609E-02  0.9398698E-01
        2   -1    0    0  501    0  0.00000000000E+00  0.00000000000E+00  0.54567334587E+03  0.54567334588E+03  0.25500000920E-02 0.  1.
       -2   -1    0    0    0  501  0.00000000000E+00  0.00000000000E+00 -0.38932119435E+03  0.38932119436E+03  0.25500000920E-02 0. -1.
    10030    2    1    2    0    0  0.00000000000E+00  0.00000000000E+00  0.15635215152E+03  0.93499454024E+03  0.92182904868E+03 0.  0.
        4    1    3    3  502    0  0.26891570160E+03  0.25781867218E+03  0.35344565611E+03  0.51352854547E+03  0.12699999809E+01 0. -1.
       -4    1    3    3    0  502 -0.26891570160E+03 -0.25781867218E+03 -0.19709350459E+03  0.42146599477E+03  0.12699999809E+01 0.  1.
</event>
<event>
 5   0  0.8524692E-03  0.9008781E+03  0.7818609E-02  0.9424484E-01
       -1   -1    0    0    0  501  0.00000000000E+00  0.00000000000E+00  0.54485905926E+03  0.54485905928E+03  0.50400001928E-02 0.  1.
        1   -1    0    0  501    0  0.00000000000E+00  0.00000000000E+00 -0.37238128261E+03  0.37238128265E+03  0.50400001928E-02 0. -1.
    10030    2    1    2    0    0  0.00000000000E+00  0.00000000000E+00  0.17247777664E+03  0.91724034193E+03  0.90087805025E+03 0.  0.
        5    1    3    3  502    0  0.22633797424E+03 -0.34467367259E+03  0.27076075921E+03  0.49331764400E+03  0.46999998093E+01 0.  1.
       -5    1    3    3    0  502 -0.22633797424E+03  0.34467367259E+03 -0.98282982568E+02  0.42392269793E+03  0.46999998093E+01 0. -1.
</event>
<event>
 5   0  0.8738044E-03  0.8911647E+03  0.7818609E-02  0.9436694E-01
        1   -1    0    0  501    0  0.00000000000E+00  0.00000000000E+00  0.83179980065E+03  0.83179980067E+03  0.50400001928E-02 0. -1.
       -1   -1    0    0    0  501  0.00000000000E+00  0.00000000000E+00 -0.23869163226E+03  0.23869163231E+03  0.50400001928E-02 0.  1.
    10030    2    1    2    0    0  0.00000000000E+00  0.00000000000E+00  0.59310816839E+03  0.10704914330E+04  0.89116474833E+03 0.  0.
        3    1    3    3  502    0 -0.92847630008E+02  0.11682434554E+03  0.80089081402E+03  0.81467460762E+03  0.10100000352E+00 0. -1.
       -3    1    3    3    0  502  0.92847630008E+02 -0.11682434554E+03 -0.20778264563E+03  0.25581682536E+03  0.10100000352E+00 0.  1.
</event>
<event>
 5   0  0.8524692E-03  0.8510580E+03  0.7818609E-02  0.9488918E-01
       -1   -1    0    0    0  501  0.00000000000E+00  0.00000000000E+00  0.65692214223E+03  0.65692214225E+03  0.50400001928E-02 0. -1.
        1   -1    0    0  501    0  0.00000000000E+00  0.00000000000E+00 -0.27564138295E+03  0.27564138300E+03  0.50400001928E-02 0.  1.
    10030    2    1    2    0    0  0.00000000000E+00  0.00000000000E+00  0.38128075927E+03  0.93256352525E+03  0.85105799522E+03 0.  0.
        5    1    3    3  502    0  0.11846431587E+03  0.36472315313E+03  0.39267862875E+03  0.54888556916E+03  0.46999998093E+01 0. -1.
       -5    1    3    3    0  502 -0.11846431587E+03 -0.36472315313E+03 -0.11397869477E+02  0.38367795609E+03  0.46999998093E+01 0.  1.
</event>
<event>
 5   0  0.1441195E-02  0.9154686E+03  0.7818609E-02  0.9406449E-01
       -2   -1    0    0    0  501  0.00000000000E+00  0.00000000000E+00  0.99258937502E+02  0.99258937535E+02  0.25500000920E-02 0.  1.
        2   -1    0    0  501    0  0.00000000000E+00  0.00000000000E+00 -0.21108494675E+04  0.21108494675E+04  0.25500000920E-02 0. -1.
    10030    2    1    2    0    0  0.00000000000E+00  0.00000000000E+00 -0.20115905300E+04  0.22101084050E+04  0.91546856944E+03 0.  0.
        5    1    3    3  502    0 -0.27703852611E+02  0.56158034871E+02  0.88810615741E+02  0.10876876296E+03  0.46999998093E+01 0.  1.
       -5    1    3    3    0  502  0.27703852611E+02 -0.56158034871E+02 -0.21004011457E+04  0.21013396420E+04  0.46999998093E+01 0. -1.
</event>
<event>
 5   0  0.1483326E-02  0.8766550E+03  0.7818609E-02  0.9455244E-01
       -2   -1    0    0    0  501  0.00000000000E+00  0.00000000000E+00  0.21997285704E+04  0.21997285704E+04  0.25500000920E-02 0. -1.
        2   -1    0    0  501    0  0.00000000000E+00  0.00000000000E+00 -0.87343042025E+02  0.87343042062E+02  0.25500000920E-02 0.  1.
    10030    2    1    2    0    0  0.00000000000E+00  0.00000000000E+00  0.21123855284E+04  0.22870716125E+04  0.87665497207E+03 0.  0.
        1    1    3    3  502    0  0.35443005690E+03  0.77328871699E+02  0.16980499804E+04  0.17363680934E+04  0.50400001928E-02 0. -1.
       -1    1    3    3    0  502 -0.35443005690E+03 -0.77328871699E+02  0.41433554798E+03  0.55070351913E+03  0.50400001928E-02 0.  1.
</event>
<event>
 5   0  0.8885324E-03  0.8710168E+03  0.7818609E-02  0.9462555E-01
       -1   -1    0    0    0  501  0.00000000000E+00  0.00000000000E+00  0.42136567597E+03  0.42136567600E+03  0.50400001928E-02 0.  1.
        1   -1    0    0  501    0  0.00000000000E+00  0.00000000000E+00 -0.45012578779E+03  0.45012578782E+03  0.50400001928E-02 0. -1.
    10030    2    1    2    0    0  0.00000000000E+00  0.00000000000E+00 -0.28760111823E+02  0.87149146382E+03  0.87101677796E+03 0.  0.
        2    1    3    3  502    0  0.26484436846E+03 -0.15348337351E+03  0.29557558748E+03  0.42551687789E+03  0.25500000920E-02 0.  1.
       -2    1    3    3    0  502 -0.26484436846E+03  0.15348337351E+03 -0.32433569930E+03  0.44597458593E+03  0.25500000920E-02 0. -1.
</event>
<event>
 5   0  0.1441195E-02  0.8752859E+03  0.7818609E-02  0.9457014E-01
        2   -1    0    0  501    0  0.00000000000E+00  0.00000000000E+00  0.15677028863E+04  0.15677028863E+04  0.25500000920E-02 0.  1.
       -2   -1    0    0    0  501  0.00000000000E+00  0.00000000000E+00 -0.12217324306E+03  0.12217324309E+03  0.25500000920E-02 0. -1.
    10030    2    1    2    0    0  0.00000000000E+00  0.00000000000E+00  0.14455296433E+04  0.16898761294E+04  0.87528588655E+03 0.  0.
        5    1    3    3  502    0 -0.10498553666E+02 -0.38934429054E+03  0.33755144529E+03  0.51542435374E+03  0.46999998093E+01 0. -1.
       -5    1    3    3    0  502  0.10498553666E+02  0.38934429054E+03  0.11079781980E+04  0.11744517757E+04  0.46999998093E+01 0.  1.
</event>
<event>
 5   0  0.1483326E-02  0.8890367E+03  0.7818609E-02  0.9439391E-01
       -2   -1    0    0    0  501  0.00000000000E+00  0.00000000000E+00  0.45574484820E+03  0.45574484820E+03  0.25500000920E-02 0. -1.
        2   -1    0    0  501    0  0.00000000000E+00  0.00000000000E+00 -0.43356840089E+03  0.43356840089E+03  0.25500000920E-02 0.  1.
    10030    2    1    2    0    0  0.00000000000E+00  0.00000000000E+00  0.22176447309E+02  0.88931324910E+03  0.88903670352E+03 0.  0.
        1    1    3    3  502    0  0.26500066463E+03 -0.30780796295E+03 -0.16959318370E+03  0.44015104486E+03  0.50400001928E-02 0.  1.
       -1    1    3    3    0  502 -0.26500066463E+03  0.30780796295E+03  0.19176963101E+03  0.44916220424E+03  0.50400001928E-02 0. -1.
</event>
<event>
 5   0  0.5770125E-03  0.8665888E+03  0.7818609E-02  0.9468339E-01
       -3   -1    0    0    0  501  0.00000000000E+00  0.00000000000E+00  0.64251461134E+03  0.64251461928E+03  0.10100000352E+00 0.  1.
        3   -1    0    0  501    0  0.00000000000E+00  0.00000000000E+00 -0.29220192095E+03  0.29220193841E+03  0.10100000352E+00 0. -1.
    10030    2    1    2    0    0  0.00000000000E+00  0.00000000000E+00  0.35031269039E+03  0.93471655769E+03  0.86658875031E+03 0.  0.
        2    1    3    3  502    0 -0.28459088410E+03  0.71724381749E+02  0.51897553144E+03  0.59621469328E+03  0.25500000920E-02 0.  1.
       -2    1    3    3    0  502  0.28459088410E+03 -0.71724381749E+02 -0.16866284105E+03  0.33850186441E+03  0.25500000920E-02 0. -1.
</event>
<event>
 5   0  0.1483326E-02  0.9031962E+03  0.7818609E-02  0.9421595E-01
       -2   -1    0    0    0  501  0.00000000000E+00  0.00000000000E+00  0.10377744207E+04  0.10377744207E+04  0.25500000920E-02 0. -1.
        2   -1    0    0  501    0  0.00000000000E+00  0.00000000000E+00 -0.19651748798E+03  0.19651748800E+03  0.25500000920E-02 0.  1.
    10030    2    1    2    0    0  0.00000000000E+00  0.00000000000E+00  0.84125693275E+03  0.12342919087E+04  0.90319615204E+03 0.  0.
        1    1    3    3  502    0 -0.30468814392E+03 -0.28548579142E+03  0.18549757973E+03  0.45688768232E+03  0.50400001928E-02 0.  1.
       -1    1    3    3    0  502  0.30468814392E+03  0.28548579142E+03  0.65575935301E+03  0.77740422641E+03  0.50400001928E-02 0. -1.
</event>
<event>
 5   0  0.1440615E-02  0.9018256E+03  0.7818609E-02  0.9423302E-01
       -2   -1    0    0    0  501  0.00000000000E+00  0.00000000000E+00  0.58940375451E+03  0.58940375451E+03  0.25500000920E-02 0. -1.
        2   -1    0    0  501    0  0.00000000000E+00  0.00000000000E+00 -0.34496274755E+03  0.34496274756E+03  0.25500000920E-02 0.  1.
    10030    2    1    2    0    0  0.00000000000E+00  0.00000000000E+00  0.24444100695E+03  0.93436650208E+03  0.90182556757E+03 0.  0.
        3    1    3    3  502    0 -0.20950864104E+03 -0.32056765840E+03  0.36885369743E+03  0.53170532685E+03  0.10100000352E+00 0. -1.
       -3    1    3    3    0  502  0.20950864104E+03  0.32056765840E+03 -0.12441269048E+03  0.40266117523E+03  0.10100000352E+00 0.  1.
</event>
<event>
 5   0  0.8612969E-03  0.8988715E+03  0.7818609E-02  0.9426993E-01
       -1   -1    0    0    0  501  0.00000000000E+00  0.00000000000E+00  0.71250856091E+03  0.71250856093E+03  0.50400001928E-02 0.  1.
        1   -1    0    0  501    0  0.00000000000E+00  0.00000000000E+00 -0.28349484250E+03  0.28349484254E+03  0.50400001928E-02 0. -1.
    10030    2    1    2    0    0  0.00000000000E+00  0.00000000000E+00  0.42901371841E+03  0.99600340347E+03  0.89887151982E+03 0.  0.
        4    1    3    3  502    0 -0.41367342263E+02  0.44450984211E+03  0.15703034701E+03  0.47324454515E+03  0.12699999809E+01 0. -1.
       -4    1    3    3    0  502  0.41367342263E+02 -0.44450984211E+03  0.27198337140E+03  0.52275885832E+03  0.12699999809E+01 0.  1.
</event>
<event>
 5   0  0.8612969E-03  0.8025631E+03  0.7818609E-02  0.9556314E-01
        1   -1    0    0  501    0  0.00000000000E+00  0.00000000000E+00  0.29343179133E+03  0.29343179138E+03  0.50400001928E-02 0.  1.
       -1   -1    0    0    0  501  0.00000000000E+00  0.00000000000E+00 -0.54877111645E+03  0.54877111647E+03  0.50400001928E-02 0. -1.
    10030    2    1    2    0    0  0.00000000000E+00  0.00000000000E+00 -0.25533932511E+03  0.84220290785E+03  0.80256312340E+03 0.  0.
        4    1    3    3  502    0  0.19785596685E+03 -0.22580080471E+03  0.15173718425E+03  0.33639080400E+03  0.12699999809E+01 0. -1.
       -4    1    3    3    0  502 -0.19785596685E+03  0.22580080471E+03 -0.40707650936E+03  0.50581210385E+03  0.12699999809E+01 0.  1.
</event>
<event>
 5   0  0.8291252E-03  0.9005370E+03  0.7818609E-02  0.9424910E-01
       -1   -1    0    0    0  501  0.00000000000E+00  0.00000000000E+00  0.49345293726E+03  0.49345293729E+03  0.50400001928E-02 0. -1.
        1   -1    0    0  501    0  0.00000000000E+00  0.00000000000E+00 -0.41086337394E+03  0.41086337397E+03  0.50400001928E-02 0.  1.
    10030    2    1    2    0    0  0.00000000000E+00  0.00000000000E+00  0.82589563320E+02  0.90431631126E+03  0.90053703690E+03 0.  0.
        1    1    3    3  502    0  0.17355805073E+03 -0.11430133571E+03 -0.35982435059E+03  0.41552467511E+03  0.50400001928E-02 0.  1.
       -1    1    3    3    0  502 -0.17355805073E+03  0.11430133571E+03  0.44241391391E+03  0.48879163615E+03  0.50400001928E-02 0. -1.
</event>
<event>
 5   0  0.1441195E-02  0.9075599E+03  0.7818609E-02  0.9416180E-01
       -2   -1    0    0    0  501  0.00000000000E+00  0.00000000000E+00  0.16579488728E+03  0.16579488730E+03  0.25500000920E-02 0.  1.
        2   -1    0    0  501    0  0.00000000000E+00  0.00000000000E+00 -0.12419938064E+04  0.12419938064E+04  0.25500000920E-02 0. -1.
    10030    2    1    2    0    0  0.00000000000E+00  0.00000000000E+00 -0.10761989191E+04  0.14077886937E+04  0.90755985620E+03 0.  0.
        5    1    3    3  502    0  0.30620379680E+03 -0.46103587905E+02 -0.23612953386E+02  0.31058970936E+03  0.46999998093E+01 0.  1.
       -5    1    3    3    0  502 -0.30620379680E+03  0.46103587905E+02 -0.10525859657E+04  0.10971989843E+04  0.46999998093E+01 0. -1.
</event>
<event>
 5   0  0.8291252E-03  0.9124645E+03  0.7818609E-02  0.9410133E-01
        1   -1    0    0  501    0  0.00000000000E+00  0.00000000000E+00  0.51675763897E+03  0.51675763899E+03  0.50400001928E-02 0.  1.
       -1   -1    0    0    0  501  0.00000000000E+00  0.00000000000E+00 -0.40279589036E+03  0.40279589040E+03  0.50400001928E-02 0. -1.
    10030    2    1    2    0    0  0.00000000000E+00  0.00000000000E+00  0.11396174860E+03  0.91955352939E+03  0.91246447233E+03 0.  0.
        1    1    3    3  502    0  0.34179920025E+03 -0.28216632044E+03 -0.52041524345E+02  0.44626544340E+03  0.50400001928E-02 0. -1.
       -1    1    3    3    0  502 -0.34179920025E+03  0.28216632044E+03  0.16600327295E+03  0.47328808599E+03  0.50400001928E-02 0.  1.
</event>
<event>
 5   0  0.5770125E-03  0.8966531E+03  0.7818609E-02  0.9429775E-01
       -3   -1    0    0    0  501  0.00000000000E+00  0.00000000000E+00  0.32753257771E+03  0.32753259328E+03  0.10100000352E+00 0.  1.
        3   -1    0    0  501    0  0.00000000000E+00  0.00000000000E+00 -0.61366923535E+03  0.61366924366E+03  0.10100000352E+00 0. -1.
    10030    2    1    2    0    0  0.00000000000E+00  0.00000000000E+00 -0.28613665763E+03  0.94120183694E+03  0.89665306056E+03 0.  0.
        4    1    3    3  502    0  0.77512782559E+02  0.82626545192E+02  0.31225680340E+03  0.33217661206E+03  0.12699999809E+01 0.  1.
       -4    1    3    3    0  502 -0.77512782559E+02 -0.82626545192E+02 -0.59839346104E+03  0.60902522488E+03  0.12699999809E+01 0. -1.
</event>
<event>
 5   0  0.1441195E-02  0.9093629E+03  0.7818609E-02  0.9413952E-01
        2   -1    0    0  501    0  0.00000000000E+00  0.00000000000E+00  0.10285939988E+04  0.10285939988E+04  0.25500000920E-02 0.  1.
       -2   -1    0    0    0  501  0.00000000000E+00  0.00000000000E+00 -0.20098815030E+03  0.20098815032E+03  0.25500000920E-02 0. -1.
    10030    2    1    2    0    0  0.00000000000E+00  0.00000000000E+00  0.82760584848E+03  0.12295821491E+04  0.90936286539E+03 0.  0.
        5    1    3    3  502    0 -0.23181946549E+03 -0.36384092259E+03  0.21976961914E+03  0.48419134340E+03  0.46999998093E+01 0. -1.
       -5    1    3    3    0  502  0.23181946549E+03  0.36384092259E+03  0.60783622934E+03  0.74539080570E+03  0.46999998093E+01 0.  1.
</event>
<event>
 5   0  0.1483326E-02  0.8865911E+03  0.7818609E-02  0.9442500E-01
       -2   -1    0    0    0  501  0.00000000000E+00  0.00000000000E+00  0.47075175715E+03  0.47075175716E+03  0.25500000920E-02 0. -1.
        2   -1    0    0  501    0  0.00000000000E+00  0.00000000000E+00 -0.41744072782E+03  0.41744072783E+03  0.25500000920E-02 0.  1.
    10030    2    1    2    0    0  0.00000000000E+00  0.00000000000E+00  0.53311029334E+02  0.88819248498E+03  0.88659112590E+03 0.  0.
        1    1    3    3  502    0 -0.74832289667E+02  0.31969311999E+03 -0.27172030403E+03  0.42618714926E+03  0.50400001928E-02 0.  1.
       -1    1    3    3    0  502  0.74832289667E+02 -0.31969311999E+03  0.32503133336E+03  0.46200533573E+03  0.50400001928E-02 0. -1.
</event>
<event>
 5   0  0.1454652E-02  0.9103308E+03  0.7818609E-02  0.9412759E-01
        2   -1    0    0  501    0  0.00000000000E+00  0.00000000000E+00  0.92412402710E+03  0.92412402710E+03  0.25500000920E-02 0. -1.
       -2   -1    0    0    0  501  0.00000000000E+00  0.00000000000E+00 -0.22418584643E+03  0.22418584645E+03  0.25500000920E-02 0.  1.
    10030    2    1    2    0    0  0.00000000000E+00  0.00000000000E+00  0.69993818066E+03  0.11483098735E+04  0.91033076897E+03 0.  0.
        4    1    3    3  502    0  0.10266728828E+03 -0.24513822791E+02 -0.20853173833E+03  0.23372761579E+03  0.12699999809E+01 0.  1.
       -4    1    3    3    0  502 -0.10266728828E+03  0.24513822791E+02  0.90846991899E+03  0.91458225776E+03  0.12699999809E+01 0. -1.
</event>
<event>
 5   0  0.1441195E-02  0.8989016E+03  0.7818609E-02  0.9426956E-01
       -2   -1    0    0    0  501  0.00000000000E+00  0.00000000000E+00  0.29922662830E+03  0.29922662831E+03  0.25500000920E-02 0. -1.
        2   -1    0    0  501    0  0.00000000000E+00  0.00000000000E+00 -0.67509368090E+03  0.67509368091E+03  0.25500000920E-02 0.  1.
    10030    2    1    2    0    0  0.00000000000E+00  0.00000000000E+00 -0.37586705260E+03  0.97432030921E+03  0.89890156509E+03 0.  0.
        5    1    3    3  502    0 -0.78891001583E+02  0.17355305316E+03 -0.62906853639E+03  0.65733839525E+03  0.46999998093E+01 0.  1.
       -5    1    3    3    0  502  0.78891001583E+02 -0.17355305316E+03  0.25320148379E+03  0.31698191397E+03  0.46999998093E+01 0. -1.
</event>
<event>
 5   0  0.8612969E-03  0.9138971E+03  0.7818609E-02  0.9408374E-01
       -1   -1    0    0    0  501  0.00000000000E+00  0.00000000000E+00  0.27235116077E+03  0.27235116082E+03  0.50400001928E-02 0.  1.
        1   -1    0    0  501    0  0.00000000000E+00  0.00000000000E+00 -0.76666460982E+03  0.76666460983E+03  0.50400001928E-02 0. -1.
    10030    2    1    2    0    0  0.00000000000E+00  0.00000000000E+00 -0.49431344905E+03  0.10390157707E+04  0.91389714178E+03 0.  0.
        4    1    3    3  502    0 -0.14328707319E+02  0.45366050892E+03 -0.30717866107E+03  0.54806341962E+03  0.12699999809E+01 0. -1.
       -4    1    3    3    0  502  0.14328707319E+02 -0.45366050892E+03 -0.18713478798E+03  0.49095235103E+03  0.12699999809E+01 0.  1.
</event>
<event>
 5   0  0.1483326E-02  0.8839196E+03  0.7818609E-02  0.9445909E-01
       -2   -1    0    0    0  501  0.00000000000E+00  0.00000000000E+00  0.21806737762E+03  0.21806737763E+03  0.25500000920E-02 0. -1.
        2   -1    0    0  501    0  0.00000000000E+00  0.00000000000E+00 -0.89572536384E+03  0.89572536385E+03  0.25500000920E-02 0.  1.
    10030    2    1    2    0    0  0.00000000000E+00  0.00000000000E+00 -0.67765798622E+03  0.11137927415E+04  0.88391963700E+03 0.  0.
        1    1    3    3  502    0 -0.47118167245E+02 -0.78785007702E+02 -0.88357962322E+03  0.88833560646E+03  0.50400001928E-02 0.  1.
       -1    1    3    3    0  502  0.47118167245E+02  0.78785007702E+02  0.20592163699E+03  0.22545713502E+03  0.50400001928E-02 0. -1.
</event>
<event>
 5   0  0.8612969E-03  0.9074551E+03  0.7818609E-02  0.9416310E-01
        1   -1    0    0  501    0  0.00000000000E+00  0.00000000000E+00  0.45917755254E+03  0.45917755257E+03  0.50400001928E-02 0. -1.
       -1   -1    0    0    0  501  0.00000000000E+00  0.00000000000E+00 -0.44834219063E+03  0.44834219066E+03  0.50400001928E-02 0.  1.
    10030    2    1    2    0    0  0.00000000000E+00  0.00000000000E+00  0.10835361911E+02  0.90751974323E+03  0.90745505635E+03 0.  0.
        4    1    3    3  502    0 -0.10699288219E+03  0.39998050014E+03 -0.18016273049E+03  0.45154412817E+03  0.12699999809E+01 0.  1.
       -4    1    3    3    0  502  0.10699288219E+03 -0.39998050014E+03  0.19099809240E+03  0.45597561506E+03  0.12699999809E+01 0. -1.
</event>
<event>
 5   0  0.8885324E-03  0.8346954E+03  0.7818609E-02  0.9511112E-01
       -1   -1    0    0    0  501  0.00000000000E+00  0.00000000000E+00  0.17120784573E+03  0.17120784581E+03  0.50400001928E-02 0.  1.
        1   -1    0    0  501    0  0.00000000000E+00  0.00000000000E+00 -0.10173547156E+04  0.10173547156E+04  0.50400001928E-02 0. -1.
    10030    2    1    2    0    0  0.00000000000E+00  0.00000000000E+00 -0.84614686989E+03  0.11885625614E+04  0.83469541573E+03 0.  0.
        2    1    3    3  502    0  0.18620790293E+03 -0.14864857928E+03  0.64842852143E+02  0.24692990648E+03  0.25500000920E-02 0.  1.
       -2    1    3    3    0  502 -0.18620790293E+03  0.14864857928E+03 -0.91098972204E+03  0.94163265497E+03  0.25500000920E-02 0. -1.
</event>
<event>
 5   0  0.5770125E-03  0.9123113E+03  0.7818609E-02  0.9410321E-01
        4   -1    0    0  501    0  0.00000000000E+00  0.00000000000E+00  0.14303745579E+03  0.14304309371E+03  0.12699999809E+01 0. -1.
       -4   -1    0    0    0  501  0.00000000000E+00  0.00000000000E+00 -0.14546751852E+04  0.14546757396E+04  0.12699999809E+01 0.  1.
    10030    2    1    2    0    0  0.00000000000E+00  0.00000000000E+00 -0.13116377294E+04  0.15977188333E+04  0.91231131587E+03 0.  0.
        1    1    3    3  502    0  0.15128440671E+03 -0.26868330655E+03 -0.12445229888E+04  0.12821525497E+04  0.50400001928E-02 0.  1.
       -1    1    3    3    0  502 -0.15128440671E+03  0.26868330655E+03 -0.67114740599E+02  0.31556628363E+03  0.50400001928E-02 0. -1.
</event>
<event>
 5   0  0.8291252E-03  0.7118468E+03  0.7818609E-02  0.9697184E-01
        1   -1    0    0  501    0  0.00000000000E+00  0.00000000000E+00  0.24207730431E+03  0.24207730436E+03  0.50400001928E-02 0. -1.
       -1   -1    0    0    0  501  0.00000000000E+00  0.00000000000E+00 -0.52330991482E+03  0.52330991485E+03  0.50400001928E-02 0.  1.
    10030    2    1    2    0    0  0.00000000000E+00  0.00000000000E+00 -0.28123261052E+03  0.76538721921E+03  0.71184676308E+03 0.  0.
        1    1    3    3  502    0  0.18822939522E+03 -0.17545663334E+03  0.12377717118E+03  0.28554530909E+03  0.50400001928E-02 0. -1.
       -1    1    3    3    0  502 -0.18822939522E+03  0.17545663334E+03 -0.40500978170E+03  0.47984191012E+03  0.50400001928E-02 0.  1.
</event>
<event>
 5   0  0.8612969E-03  0.9171428E+03  0.7818609E-02  0.9404402E-01
       -1   -1    0    0    0  501  0.00000000000E+00  0.00000000000E+00  0.37042933484E+03  0.37042933487E+03  0.50400001928E-02 0.  1.
        1   -1    0    0  501    0  0.00000000000E+00  0.00000000000E+00 -0.56768652265E+03  0.56768652267E+03  0.50400001928E-02 0. -1.
    10030    2    1    2    0    0  0.00000000000E+00  0.00000000000E+00 -0.19725718781E+03  0.93811585754E+03  0.91714282641E+03 0.  0.
        4    1    3    3  502    0  0.92330227937E+02  0.65290605859E+02  0.35594194757E+03  0.37347559110E+03  0.12699999809E+01 0.  1.
       -4    1    3    3    0  502 -0.92330227937E+02 -0.65290605859E+02 -0.55319913538E+03  0.56464026645E+03  0.12699999809E+01 0. -1.
</event>
<event>
 5   0  0.1454652E-02  0.8745466E+03  0.7818609E-02  0.9457971E-01
       -2   -1    0    0    0  501  0.00000000000E+00  0.00000000000E+00  0.32068921114E+03  0.32068921115E+03  0.25500000920E-02 0.  1.
        2   -1    0    0  501    0  0.00000000000E+00  0.00000000000E+00 -0.59624067874E+03  0.59624067874E+03  0.25500000920E-02 0. -1.
    10030    2    1    2    0    0  0.00000000000E+00  0.00000000000E+00 -0.27555146760E+03  0.91692988989E+03  0.87454663208E+03 0.  0.
        4    1    3    3  502    0  0.18213835793E+03  0.12651121736E+03 -0.53290428963E+03  0.57720712431E+03  0.12699999809E+01 0. -1.
       -4    1    3    3    0  502 -0.18213835793E+03 -0.12651121736E+03  0.25735282203E+03  0.33972276558E+03  0.12699999809E+01 0.  1.
</event>
<event>
 5   0  0.1454652E-02  0.8926195E+03  0.7818609E-02  0.9434855E-01
       -2   -1    0    0    0  501  0.00000000000E+00  0.00000000000E+00  0.47937817866E+03  0.47937817867E+03  0.25500000920E-02 0.  1.
        2   -1    0    0  501    0  0.00000000000E+00  0.00000000000E+00 -0.41552247771E+03  0.41552247772E+03  0.25500000920E-02 0. -1.
    10030    2    1    2    0    0  0.00000000000E+00  0.00000000000E+00  0.63855700947E+02  0.89490065639E+03  0.89261953500E+03 0.  0.
        4    1    3    3  502    0 -0.19977794388E+03  0.26337736384E+03  0.33254732188E+03  0.46890105228E+03  0.12699999809E+01 0.  1.
       -4    1    3    3    0  502  0.19977794388E+03 -0.26337736384E+03 -0.26869162093E+03  0.42599960411E+03  0.12699999809E+01 0. -1.
</event>
<event>
 5   0  0.8738044E-03  0.9012593E+03  0.7818609E-02  0.9424009E-01
        1   -1    0    0  501    0  0.00000000000E+00  0.00000000000E+00  0.25707890087E+03  0.25707890092E+03  0.50400001928E-02 0. -1.
       -1   -1    0    0    0  501  0.00000000000E+00  0.00000000000E+00 -0.78990181818E+03  0.78990181819E+03  0.50400001928E-02 0.  1.
    10030    2    1    2    0    0  0.00000000000E+00  0.00000000000E+00 -0.53282291731E+03  0.10469807191E+04  0.90125932172E+03 0.  0.
        3    1    3    3  502    0 -0.27576268698E+03 -0.16202273527E+03 -0.63518177384E+03  0.71116265530E+03  0.10100000352E+00 0.  1.
       -3    1    3    3    0  502  0.27576268698E+03  0.16202273527E+03  0.10235885653E+03  0.33581806382E+03  0.10100000352E+00 0. -1.
</event>
<event>
 5   0  0.1535906E-02  0.8851292E+03  0.7818609E-02  0.9444364E-01
       -2   -1    0    0    0  501  0.00000000000E+00  0.00000000000E+00  0.32276183989E+03  0.32276183990E+03  0.25500000920E-02 0. -1.
        2   -1    0    0  501    0  0.00000000000E+00  0.00000000000E+00 -0.60683573294E+03  0.60683573294E+03  0.25500000920E-02 0.  1.
    10030    2    1    2    0    0  0.00000000000E+00  0.00000000000E+00 -0.28407389304E+03  0.92959757284E+03  0.88512918307E+03 0.  0.
        2    1    3    3  502    0  0.15970918852E+03  0.37767021080E+03 -0.31689977704E+03  0.51823477471E+03  0.25500000920E-02 0. -1.
       -2    1    3    3    0  502 -0.15970918852E+03 -0.37767021080E+03  0.32825883995E+02  0.41136279813E+03  0.25500000920E-02 0.  1.
</event>
<event>
 5   0  0.8524692E-03  0.8906752E+03  0.7818609E-02  0.9437314E-01
        1   -1    0    0  501    0  0.00000000000E+00  0.00000000000E+00  0.33751808593E+03  0.33751808597E+03  0.50400001928E-02 0. -1.
       -1   -1    0    0    0  501  0.00000000000E+00  0.00000000000E+00 -0.58759983885E+03  0.58759983888E+03  0.50400001928E-02 0.  1.
    10030    2    1    2    0    0  0.00000000000E+00  0.00000000000E+00 -0.25008175292E+03  0.92511792485E+03  0.89067518868E+03 0.  0.
        5    1    3    3  502    0 -0.35419161148E+03  0.91542682502E+02  0.13869085033E+03  0.39126589722E+03  0.46999998093E+01 0.  1.
       -5    1    3    3    0  502  0.35419161148E+03 -0.91542682502E+02 -0.38877260325E+03  0.53385202763E+03  0.46999998093E+01 0. -1.
</event>
<event>
 5   0  0.1483326E-02  0.9304265E+03  0.7818609E-02  0.9388326E-01
        2   -1    0    0  501    0  0.00000000000E+00  0.00000000000E+00  0.56131097886E+03  0.56131097887E+03  0.25500000920E-02 0. -1.
       -2   -1    0    0    0  501  0.00000000000E+00  0.00000000000E+00 -0.38556764522E+03  0.38556764522E+03  0.25500000920E-02 0.  1.
    10030    2    1    2    0    0  0.00000000000E+00  0.00000000000E+00  0.17574333365E+03  0.94687862409E+03  0.93042646644E+03 0.  0.
        1    1    3    3  502    0  0.22730132394E+03 -0.54665192174E+02 -0.32144567504E+03  0.39746886309E+03  0.50400001928E-02 0.  1.
       -1    1    3    3    0  502 -0.22730132394E+03  0.54665192174E+02  0.49718900869E+03  0.54940976100E+03  0.50400001928E-02 0. -1.
</event>
<event>
 5   0  0.1454652E-02  0.8878411E+03  0.7818609E-02  0.9440910E-01
        2   -1    0    0  501    0  0.00000000000E+00  0.00000000000E+00  0.95970424470E+03  0.95970424470E+03  0.25500000920E-02 0. -1.
       -2   -1    0    0    0  501  0.00000000000E+00  0.00000000000E+00 -0.20533978789E+03  0.20533978791E+03  0.25500000920E-02 0.  1.
    10030    2    1    2    0    0  0.00000000000E+00  0.00000000000E+00  0.75436445681E+03  0.11650440326E+04  0.88784112555E+03 0.  0.
        4    1    3    3  502    0  0.22991171304E+03  0.94455291236E+02  0.85982759487E+03  0.89503424719E+03  0.12699999809E+01 0. -1.
       -4    1    3    3    0  502 -0.22991171304E+03 -0.94455291236E+02 -0.10546313806E+03  0.27000978542E+03  0.12699999809E+01 0.  1.
</event>
<event>
 5   0  0.8738044E-03  0.9143522E+03  0.7818609E-02  0.9407816E-01
        1   -1    0    0  501    0  0.00000000000E+00  0.00000000000E+00  0.26459139497E+03  0.26459139502E+03  0.50400001928E-02 0.  1.
       -1   -1    0    0    0  501  0.00000000000E+00  0.00000000000E+00 -0.78993494564E+03  0.78993494566E+03  0.50400001928E-02 0. -1.
    10030    2    1    2    0    0  0.00000000000E+00  0.00000000000E+00 -0.52534355067E+03  0.10545263407E+04  0.91435220619E+03 0.  0.
        3    1    3    3  502    0 -0.71057967774E+02 -0.28218855010E+03  0.14398922258E+03  0.32467294161E+03  0.10100000352E+00 0.  1.
       -3    1    3    3    0  502  0.71057967774E+02  0.28218855010E+03 -0.66933277324E+03  0.72985339907E+03  0.10100000352E+00 0. -1.
</event>
<event>
 5   0  0.1454652E-02  0.9085951E+03  0.7818609E-02  0.9414900E-01
       -2   -1    0    0    0  501  0.00000000000E+00  0.00000000000E+00  0.13006371251E+03  0.13006371253E+03  0.25500000920E-02 0. -1.
        2   -1    0    0  501    0  0.00000000000E+00  0.00000000000E+00 -0.15868090873E+04  0.15868090873E+04  0.25500000920E-02 0.  1.
    10030    2    1    2    0    0  0.00000000000E+00  0.00000000000E+00 -0.14567453748E+04  0.17168727998E+04  0.90859513747E+03 0.  0.
        4    1    3    3  502    0  0.12798254534E+03  0.18526605542E+03  0.17193819223E+02  0.22583242353E+03  0.12699999809E+01 0. -1.
       -4    1    3    3    0  502 -0.12798254534E+03 -0.18526605542E+03 -0.14739391940E+04  0.14910403763E+04  0.12699999809E+01 0.  1.
</event>
<event>
 5   0  0.1441195E-02  0.9023870E+03  0.7818609E-02  0.9422602E-01
        2   -1    0    0  501    0  0.00000000000E+00  0.00000000000E+00  0.18718281832E+04  0.18718281832E+04  0.25500000920E-02 0. -1.
       -2   -1    0    0    0  501  0.00000000000E+00  0.00000000000E+00 -0.10875761749E+03  0.10875761752E+03  0.25500000920E-02 0.  1.
    10030    2    1    2    0    0  0.00000000000E+00  0.00000000000E+00  0.17630705657E+04  0.19805858008E+04  0.90238699812E+03 0.  0.
        5    1    3    3  502    0  0.22855143254E+03  0.80280932597E+02  0.46135984384E+02  0.24664023295E+03  0.46999998093E+01 0.  1.
       -5    1    3    3    0  502 -0.22855143254E+03 -0.80280932597E+02  0.17169345814E+04  0.17339455678E+04  0.46999998093E+01 0. -1.
</event>
<event>
 5   0  0.1483326E-02  0.8585545E+03  0.7818609E-02  0.9478927E-01
       -2   -1    0    0    0  501  0.00000000000E+00  0.00000000000E+00  0.86386080846E+02  0.86386080884E+02  0.25500000920E-02 0. -1.
        2   -1    0    0  501    0  0.00000000000E+00  0.00000000000E+00 -0.21332020437E+04  0.21332020437E+04  0.25500000920E-02 0.  1.
    10030    2    1    2    0    0  0.00000000000E+00  0.00000000000E+00 -0.20468159629E+04  0.22195881246E+04  0.85855451604E+03 0.  0.
        1    1    3    3  502    0  0.60322443302E+02  0.61184751830E+02  0.63929227906E+02  0.10709489824E+03  0.50400001928E-02 0. -1.
       -1    1    3    3    0  502 -0.60322443302E+02 -0.61184751830E+02 -0.21107451908E+04  0.21124932264E+04  0.50400001928E-02 0.  1.
</event>
<event>
 5   0  0.8612969E-03  0.9059196E+03  0.7818609E-02  0.9418212E-01
       -1   -1    0    0    0  501  0.00000000000E+00  0.00000000000E+00  0.47278426005E+03  0.47278426008E+03  0.50400001928E-02 0.  1.
        1   -1    0    0  501    0  0.00000000000E+00  0.00000000000E+00 -0.43396663314E+03  0.43396663317E+03  0.50400001928E-02 0. -1.
    10030    2    1    2    0    0  0.00000000000E+00  0.00000000000E+00  0.38817626907E+02  0.90675089325E+03  0.90591962903E+03 0.  0.
        4    1    3    3  502    0  0.34913271413E+03  0.28524341680E+03  0.63192772112E+02  0.45524981960E+03  0.12699999809E+01 0.  1.
       -4    1    3    3    0  502 -0.34913271413E+03 -0.28524341680E+03 -0.24375145205E+02  0.45150107365E+03  0.12699999809E+01 0. -1.
</event>
<event>
 5   0  0.1483326E-02  0.8930733E+03  0.7818609E-02  0.9434282E-01
       -2   -1    0    0    0  501  0.00000000000E+00  0.00000000000E+00  0.74147140221E+03  0.74147140222E+03  0.25500000920E-02 0.  1.
        2   -1    0    0  501    0  0.00000000000E+00  0.00000000000E+00 -0.26891798825E+03  0.26891798826E+03  0.25500000920E-02 0. -1.
    10030    2    1    2    0    0  0.00000000000E+00  0.00000000000E+00  0.47255341396E+03  0.10103893905E+04  0.89307334040E+03 0.  0.
        1    1    3    3  502    0 -0.39577176639E+03  0.16933619404E+03  0.10200656042E+03  0.44239730569E+03  0.50400001928E-02 0.  1.
       -1    1    3    3    0  502  0.39577176639E+03 -0.16933619404E+03  0.37054685355E+03  0.56799208479E+03  0.50400001928E-02 0. -1.
</event>
<event>
 5   0  0.8885324E-03  0.8836139E+03  0.7818609E-02  0.9446300E-01
        1   -1    0    0  501    0  0.00000000000E+00  0.00000000000E+00  0.36323986033E+03  0.36323986037E+03  0.50400001928E-02 0. -1.
       -1   -1    0    0    0  501  0.00000000000E+00  0.00000000000E+00 -0.53736776149E+03  0.53736776152E+03  0.50400001928E-02 0.  1.
    10030    2    1    2    0    0  0.00000000000E+00  0.00000000000E+00 -0.17412790116E+03  0.90060762189E+03  0.88361392171E+03 0.  0.
        2    1    3    3  502    0 -0.62899370439E+02 -0.25102295526E+03 -0.45203518469E+03  0.52086914199E+03  0.25500000920E-02 0.  1.
       -2    1    3    3    0  502  0.62899370439E+02  0.25102295526E+03  0.27790728353E+03  0.37973847990E+03  0.25500000920E-02 0. -1.
</event>
<event>
 5   0  0.1440615E-02  0.9011762E+03  0.7818609E-02  0.9424112E-01
        2   -1    0    0  501    0  0.00000000000E+00  0.00000000000E+00  0.57698404752E+03  0.57698404752E+03  0.25500000920E-02 0.  1.
       -2   -1    0    0    0  501  0.00000000000E+00  0.00000000000E+00 -0.35188083917E+03  0.35188083918E+03  0.25500000920E-02 0. -1.
    10030    2    1    2    0    0  0.00000000000E+00  0.00000000000E+00  0.22510320834E+03  0.92886488670E+03  0.90117618885E+03 0.  0.
        3    1    3    3  502    0 -0.44262767775E+03  0.78690929624E+02  0.81320513635E+02  0.45686383054E+03  0.10100000352E+00 0. -1.
       -3    1    3    3    0  502  0.44262767775E+03 -0.78690929624E+02  0.14378269471E+03  0.47200105616E+03  0.10100000352E+00 0.  1.
</event>
<event>
 5   0  0.8612969E-03  0.8885261E+03  0.7818609E-02  0.9440039E-01
        1   -1    0    0  501    0  0.00000000000E+00  0.00000000000E+00  0.24962397993E+03  0.24962397998E+03  0.50400001928E-02 0.  1.
       -1   -1    0    0    0  501  0.00000000000E+00  0.00000000000E+00 -0.79066781389E+03  0.79066781390E+03  0.50400001928E-02 0. -1.
    10030    2    1    2    0    0  0.00000000000E+00  0.00000000000E+00 -0.54104383395E+03  0.10402917939E+04  0.88852607512E+03 0.  0.
        4    1    3    3  502    0 -0.26642180408E+03  0.29091536674E+03 -0.31276896430E+02  0.39571730496E+03  0.12699999809E+01 0. -1.
       -4    1    3    3    0  502  0.26642180408E+03 -0.29091536674E+03 -0.50976693752E+03  0.64457448893E+03  0.12699999809E+01 0.  1.
</event>
<event>
 5   0  0.8612969E-03  0.8957211E+03  0.7818609E-02  0.9430946E-01
        1   -1    0    0  501    0  0.00000000000E+00  0.00000000000E+00  0.28215127583E+03  0.28215127587E+03  0.50400001928E-02 0. -1.
       -1   -1    0    0    0  501  0.00000000000E+00  0.00000000000E+00 -0.71089194422E+03  0.71089194423E+03  0.50400001928E-02 0.  1.
    10030    2    1    2    0    0  0.00000000000E+00  0.00000000000E+00 -0.42874066839E+03  0.99304322011E+03  0.89572109290E+03 0.  0.
        4    1    3    3  502    0 -0.14062199254E+03  0.37016884066E+03  0.17594961010E+02  0.39637193510E+03  0.12699999809E+01 0. -1.
       -4    1    3    3    0  502  0.14062199254E+03 -0.37016884066E+03 -0.44633562940E+03  0.59667128501E+03  0.12699999809E+01 0.  1.
</event>
<event>
 5   0  0.1483326E-02  0.9188710E+03  0.7818609E-02  0.9402294E-01
        2   -1    0    0  501    0  0.00000000000E+00  0.00000000000E+00  0.11603618944E+04  0.11603618944E+04  0.25500000920E-02 0. -1.
       -2   -1    0    0    0  501  0.00000000000E+00  0.00000000000E+00 -0.18190962570E+03  0.18190962572E+03  0.25500000920E-02 0.  1.
    10030    2    1    2    0    0  0.00000000000E+00  0.00000000000E+00  0.97845226866E+03  0.13422715201E+04  0.91887104187E+03 0.  0.
        1    1    3    3  502    0 -0.21708398502E+03  0.36549291527E+03  0.74379868178E+03  0.85670707171E+03  0.50400001928E-02 0. -1.
       -1    1    3    3    0  502  0.21708398502E+03 -0.36549291527E+03  0.23465358688E+03  0.48556444838E+03  0.50400001928E-02 0.  1.
</event>
<event>
 5   0  0.1454652E-02  0.9122810E+03  0.7818609E-02  0.9410358E-01
        2   -1    0    0  501    0  0.00000000000E+00  0.00000000000E+00  0.12753729532E+04  0.12753729532E+04  0.25500000920E-02 0. -1.
       -2   -1    0    0    0  501  0.00000000000E+00  0.00000000000E+00 -0.16313985165E+03  0.16313985167E+03  0.25500000920E-02 0.  1.
    10030    2    1    2    0    0  0.00000000000E+00  0.00000000000E+00  0.11122331015E+04  0.14385128049E+04  0.91228099707E+03 0.  0.
        4    1    3    3  502    0 -0.25159322694E+03 -0.74963913892E+02 -0.32072634911E+02  0.26447874591E+03  0.12699999809E+01 0.  1.
       -4    1    3    3    0  502  0.25159322694E+03  0.74963913892E+02  0.11443057365E+04  0.11740340590E+04  0.12699999809E+01 0. -1.
</event>
<event>
 5   0  0.8524692E-03  0.9013158E+03  0.7818609E-02  0.9423938E-01
        1   -1    0    0  501    0  0.00000000000E+00  0.00000000000E+00  0.58851178955E+03  0.58851178957E+03  0.50400001928E-02 0. -1.
       -1   -1    0    0    0  501  0.00000000000E+00  0.00000000000E+00 -0.34509511021E+03  0.34509511025E+03  0.50400001928E-02 0.  1.
    10030    2    1    2    0    0  0.00000000000E+00  0.00000000000E+00  0.24341667934E+03  0.93360689982E+03  0.90131579572E+03 0.  0.
        5    1    3    3  502    0  0.39024343269E+03  0.14191795498E+03 -0.59605139559E+02  0.41953010066E+03  0.46999998093E+01 0.  1.
       -5    1    3    3    0  502 -0.39024343269E+03 -0.14191795498E+03  0.30302181890E+03  0.51407679916E+03  0.46999998093E+01 0. -1.
</event>
<event>
 5   0  0.1483326E-02  0.8983954E+03  0.7818609E-02  0.9427589E-01
        2   -1    0    0  501    0  0.00000000000E+00  0.00000000000E+00  0.98151761706E+03  0.98151761706E+03  0.25500000920E-02 0.  1.
       -2   -1    0    0    0  501  0.00000000000E+00  0.00000000000E+00 -0.20557814552E+03  0.20557814554E+03  0.25500000920E-02 0. -1.
    10030    2    1    2    0    0  0.00000000000E+00  0.00000000000E+00  0.77593947153E+03  0.11870957626E+04  0.89839539519E+03 0.  0.
        1    1    3    3  502    0  0.26594751449E+03 -0.29884044328E+03  0.65794243491E+03  0.77001424577E+03  0.50400001928E-02 0.  1.
       -1    1    3    3    0  502 -0.26594751449E+03  0.29884044328E+03  0.11799703663E+03  0.41708151683E+03  0.50400001928E-02 0. -1.
</event>
<event>
 5   0  0.1440615E-02  0.8921099E+03  0.7818609E-02  0.9435498E-01
        2   -1    0    0  501    0  0.00000000000E+00  0.00000000000E+00  0.65753369237E+03  0.65753369237E+03  0.25500000920E-02 0. -1.
       -2   -1    0    0    0  501  0.00000000000E+00  0.00000000000E+00 -0.30259291210E+03  0.30259291211E+03  0.25500000920E-02 0.  1.
    10030    2    1    2    0    0  0.00000000000E+00  0.00000000000E+00  0.35494078027E+03  0.96012660448E+03  0.89210993669E+03 0.  0.
        3    1    3    3  502    0 -0.25644854337E+03  0.35970285603E+03  0.11101274812E+03  0.45549515966E+03  0.10100000352E+00 0.  1.
       -3    1    3    3    0  502  0.25644854337E+03 -0.35970285603E+03  0.24392803215E+03  0.50463144482E+03  0.10100000352E+00 0. -1.
</event>
<event>
 5   0  0.8291252E-03  0.8733087E+03  0.7818609E-02  0.9459576E-01
        1   -1    0    0  501    0  0.00000000000E+00  0.00000000000E+00  0.16706989985E+04  0.16706989985E+04  0.50400001928E-02 0.  1.
       -1   -1    0    0    0  501  0.00000000000E+00  0.00000000000E+00 -0.11412409479E+03  0.11412409490E+03  0.50400001928E-02 0. -1.
    10030    2    1    2    0    0  0.00000000000E+00  0.00000000000E+00  0.15565749037E+04  0.17848230934E+04  0.87330867619E+03 0.  0.
        1    1    3    3  502    0 -0.12973287247E+03  0.27400620436E+03  0.14205481249E+04  0.14525381211E+04  0.50400001928E-02 0.  1.
       -1    1    3    3    0  502  0.12973287247E+03 -0.27400620436E+03  0.13602677887E+03  0.33228497231E+03  0.50400001928E-02 0. -1.
</event>
<event>
 5   0  0.8612969E-03  0.8539397E+03  0.7818609E-02  0.9485064E-01
        1   -1    0    0  501    0  0.00000000000E+00  0.00000000000E+00  0.58391552140E+03  0.58391552143E+03  0.50400001928E-02 0.  1.
       -1   -1    0    0    0  501  0.00000000000E+00  0.00000000000E+00 -0.31220824478E+03  0.31220824482E+03  0.50400001928E-02 0. -1.
    10030    2    1    2    0    0  0.00000000000E+00  0.00000000000E+00  0.27170727662E+03  0.89612376625E+03  0.85393967016E+03 0.  0.
        4    1    3    3  502    0  0.19908181093E+03  0.30371816253E+03  0.37149775435E+03  0.51950984984E+03  0.12699999809E+01 0.  1.
       -4    1    3    3    0  502 -0.19908181093E+03 -0.30371816253E+03 -0.99790477725E+02  0.37661391641E+03  0.12699999809E+01 0. -1.
</event>
<event>
 5   0  0.8738044E-03  0.8865988E+03  0.7818609E-02  0.9442490E-01
        1   -1    0    0  501    0  0.00000000000E+00  0.00000000000E+00  0.22825340433E+04  0.22825340433E+04  0.50400001928E-02 0.  1.
       -1   -1    0    0    0  501  0.00000000000E+00  0.00000000000E+00 -0.86094826465E+02  0.86094826612E+02  0.50400001928E-02 0. -1.
    10030    2    1    2    0    0  0.00000000000E+00  0.00000000000E+00  0.21964392168E+04  0.23686288699E+04  0.88659883270E+03 0.  0.
        3    1    3    3  502    0 -0.33146739627E+03 -0.13874071897E+03  0.40466148042E+03  0.54117515263E+03  0.10100000352E+00 0. -1.
       -3    1    3    3    0  502  0.33146739627E+03  0.13874071897E+03  0.17917777364E+04  0.18274537173E+04  0.10100000352E+00 0.  1.
</event>
<event>
 5   0  0.8524692E-03  0.8962083E+03  0.7818609E-02  0.9430334E-01
        1   -1    0    0  501    0  0.00000000000E+00  0.00000000000E+00  0.64696831295E+03  0.64696831297E+03  0.50400001928E-02 0. -1.
       -1   -1    0    0    0  501  0.00000000000E+00  0.00000000000E+00 -0.31036656047E+03  0.31036656051E+03  0.50400001928E-02 0.  1.
    10030    2    1    2    0    0  0.00000000000E+00  0.00000000000E+00  0.33660175249E+03  0.95733487348E+03  0.89620830179E+03 0.  0.
        5    1    3    3  502    0  0.10047253610E+03  0.70143721007E+02 -0.29209502467E+03  0.31679088614E+03  0.46999998093E+01 0.  1.
       -5    1    3    3    0  502 -0.10047253610E+03 -0.70143721007E+02  0.62869677716E+03  0.64054398734E+03  0.46999998093E+01 0. -1.
</event>
<event>
 5   0  0.5770125E-03  0.8777284E+03  0.7818609E-02  0.9453858E-01
       -3   -1    0    0    0  501  0.00000000000E+00  0.00000000000E+00  0.11159613389E+03  0.11159617959E+03  0.10100000352E+00 0.  1.
        3   -1    0    0  501    0  0.00000000000E+00  0.00000000000E+00 -0.17258817882E+04  0.17258817911E+04  0.10100000352E+00 0. -1.
    10030    2    1    2    0    0  0.00000000000E+00  0.00000000000E+00 -0.16142856543E+04  0.18374779707E+04  0.87772838581E+03 0.  0.
        1    1    3    3  502    0 -0.44809480517E+02 -0.28392005783E+03 -0.15014079568E+04  0.15286740469E+04  0.50400001928E-02 0. -1.
       -1    1    3    3    0  502  0.44809480517E+02  0.28392005783E+03 -0.11287769749E+03  0.30880392387E+03  0.50400001928E-02 0.  1.
</event>
<event>
 5   0  0.8738044E-03  0.8392550E+03  0.7818609E-02  0.9504873E-01
       -1   -1    0    0    0  501  0.00000000000E+00  0.00000000000E+00  0.37290471354E+03  0.37290471358E+03  0.50400001928E-02 0.  1.
        1   -1    0    0  501    0  0.00000000000E+00  0.00000000000E+00 -0.47220442098E+03  0.47220442100E+03  0.50400001928E-02 0. -1.
    10030    2    1    2    0    0  0.00000000000E+00  0.00000000000E+00 -0.99299707434E+02  0.84510913458E+03  0.83925503719E+03 0.  0.
        3    1    3    3  502    0  0.20319385843E+03 -0.17934103506E+03  0.27295382745E+03  0.38464886985E+03  0.10100000352E+00 0.  1.
       -3    1    3    3    0  502 -0.20319385843E+03  0.17934103506E+03 -0.37225353488E+03  0.46046026473E+03  0.10100000352E+00 0. -1.
</event>
<event>
 5   0  0.1454652E-02  0.9065234E+03  0.7818609E-02  0.9417463E-01
        2   -1    0    0  501    0  0.00000000000E+00  0.00000000000E+00  0.96451716292E+03  0.96451716293E+03  0.25500000920E-02 0.  1.
       -2   -1    0    0    0  501  0.00000000000E+00  0.00000000000E+00 -0.21300418322E+03  0.21300418324E+03  0.25500000920E-02 0. -1.
    10030    2    1    2    0    0  0.00000000000E+00  0.00000000000E+00  0.75151297970E+03  0.11775213462E+04  0.90652344813E+03 0.  0.
        4    1    3    3  502    0  0.12931444512E+03 -0.25290808707E+03 -0.83047484327E+02  0.29594462957E+03  0.12699999809E+01 0. -1.
       -4    1    3    3    0  502 -0.12931444512E+03  0.25290808707E+03  0.83456046403E+03  0.88157671659E+03  0.12699999809E+01 0.  1.
</event>
<event>
 5   0  0.1483326E-02  0.8819186E+03  0.7818609E-02  0.9448471E-01
        2   -1    0    0  501    0  0.00000000000E+00  0.00000000000E+00  0.11201057167E+04  0.11201057167E+04  0.25500000920E-02 0. -1.
       -2   -1    0    0    0  501  0.00000000000E+00  0.00000000000E+00 -0.17359530473E+03  0.17359530475E+03  0.25500000920E-02 0.  1.
    10030    2    1    2    0    0  0.00000000000E+00  0.00000000000E+00  0.94651041197E+03  0.12937010215E+04  0.88191857501E+03 0.  0.
        1    1    3    3  502    0 -0.17944722997E+03 -0.27944260085E+03  0.47708740940E+02  0.33550797233E+03  0.50400001928E-02 0.  1.
       -1    1    3    3    0  502  0.17944722997E+03  0.27944260085E+03  0.89880167103E+03  0.95819304912E+03  0.50400001928E-02 0. -1.
</event>
<event>
 5   0  0.8885324E-03  0.8922167E+03  0.7818609E-02  0.9435364E-01
       -1   -1    0    0    0  501  0.00000000000E+00  0.00000000000E+00  0.33210304599E+03  0.33210304603E+03  0.50400001928E-02 0. -1.
        1   -1    0    0  501    0  0.00000000000E+00  0.00000000000E+00 -0.59924970426E+03  0.59924970428E+03  0.50400001928E-02 0.  1.
    10030    2    1    2    0    0  0.00000000000E+00  0.00000000000E+00 -0.26714665826E+03  0.93135275031E+03  0.89221668248E+03 0.  0.
        2    1    3    3  502    0  0.83028923485E+02 -0.21338400922E+02  0.32342392961E+03  0.33459253988E+03  0.25500000920E-02 0. -1.
       -2    1    3    3    0  502 -0.83028923485E+02  0.21338400922E+02 -0.59057058788E+03  0.59676021044E+03  0.25500000920E-02 0.  1.
</event>
<event>
 5   0  0.1441195E-02  0.9086455E+03  0.7818609E-02  0.9414838E-01
        2   -1    0    0  501    0  0.00000000000E+00  0.00000000000E+00  0.34106489604E+03  0.34106489605E+03  0.25500000920E-02 0.  1.
       -2   -1    0    0    0  501  0.00000000000E+00  0.00000000000E+00 -0.60519025655E+03  0.60519025655E+03  0.25500000920E-02 0. -1.
    10030    2    1    2    0    0  0.00000000000E+00  0.00000000000E+00 -0.26412536050E+03  0.94625515261E+03  0.90864547970E+03 0.  0.
        5    1    3    3  502    0 -0.17249222608E+03 -0.40283217339E+03 -0.25685474891E+03  0.50796041186E+03  0.46999998093E+01 0. -1.
       -5    1    3    3    0  502  0.17249222608E+03  0.40283217339E+03 -0.72706115900E+01  0.43829474075E+03  0.46999998093E+01 0.  1.
</event>
<event>
 5   0  0.8885324E-03  0.9128585E+03  0.7818609E-02  0.9409649E-01
        1   -1    0    0  501    0  0.00000000000E+00  0.00000000000E+00  0.30385506080E+03  0.30385506084E+03  0.50400001928E-02 0.  1.
       -1   -1    0    0    0  501  0.00000000000E+00  0.00000000000E+00 -0.68561516609E+03  0.68561516611E+03  0.50400001928E-02 0. -1.
    10030    2    1    2    0    0  0.00000000000E+00  0.00000000000E+00 -0.38176010529E+03  0.98947022695E+03  0.91285845125E+03 0.  0.
        2    1    3    3  502    0  0.20217839650E+03 -0.11460817310E+03 -0.61667987262E+03  0.65901836291E+03  0.25500000920E-02 0. -1.
       -2    1    3    3    0  502 -0.20217839650E+03  0.11460817310E+03  0.23491976734E+03  0.33045186403E+03  0.25500000920E-02 0.  1.
</event>
<event>
 5   0  0.1535906E-02  0.6969210E+03  0.7818609E-02  0.9722512E-01
       -2   -1    0    0    0  501  0.00000000000E+00  0.00000000000E+00  0.38990284294E+03  0.38990284295E+03  0.25500000920E-02 0.  1.
        2   -1    0    0  501    0  0.00000000000E+00  0.00000000000E+00 -0.31142300425E+03  0.31142300426E+03  0.25500000920E-02 0. -1.
    10030    2    1    2    0    0  0.00000000000E+00  0.00000000000E+00  0.78479838687E+02  0.70132584721E+03  0.69692098468E+03 0.  0.
        2    1    3    3  502    0  0.21748712690E+03  0.61506656477E+02  0.30613499371E+03  0.38052904428E+03  0.25500000920E-02 0.  1.
       -2    1    3    3    0  502 -0.21748712690E+03 -0.61506656477E+02 -0.22765515502E+03  0.32079680293E+03  0.25500000920E-02 0. -1.
</event>
<event>
 5   0  0.1440615E-02  0.9028829E+03  0.7818609E-02  0.9421985E-01
       -2   -1    0    0    0  501  0.00000000000E+00  0.00000000000E+00  0.28662351405E+03  0.28662351406E+03  0.25500000920E-02 0. -1.
        2   -1    0    0  501    0  0.00000000000E+00  0.00000000000E+00 -0.71103514274E+03  0.71103514274E+03  0.25500000920E-02 0.  1.
    10030    2    1    2    0    0  0.00000000000E+00  0.00000000000E+00 -0.42441162869E+03  0.99765865681E+03  0.90288291873E+03 0.  0.
        3    1    3    3  502    0 -0.29020662825E+03  0.25703332643E+02  0.16883882581E+03  0.33673002196E+03  0.10100000352E+00 0. -1.
       -3    1    3    3    0  502  0.29020662825E+03 -0.25703332643E+02 -0.59325045450E+03  0.66092863484E+03  0.10100000352E+00 0.  1.
</event>
<event>
 5   0  0.5770125E-03  0.9193523E+03  0.7818609E-02  0.9401708E-01
        3   -1    0    0  501    0  0.00000000000E+00  0.00000000000E+00  0.95402941371E+03  0.95402941906E+03  0.10100000352E+00 0.  1.
       -3   -1    0    0    0  501  0.00000000000E+00  0.00000000000E+00 -0.22148391285E+03  0.22148393588E+03  0.10100000352E+00 0. -1.
    10030    2    1    2    0    0  0.00000000000E+00  0.00000000000E+00  0.73254550086E+03  0.11755133549E+04  0.91935234639E+03 0.  0.
        2    1    3    3  502    0  0.95431735001E+02 -0.16257065668E+02 -0.20830225284E+03  0.22969836041E+03  0.25500000920E-02 0. -1.
       -2    1    3    3    0  502 -0.95431735001E+02  0.16257065668E+02  0.94084775370E+03  0.94581499453E+03  0.25500000920E-02 0.  1.
</event>
<event>
 5   0  0.1483326E-02  0.9092406E+03  0.7818609E-02  0.9414103E-01
       -2   -1    0    0    0  501  0.00000000000E+00  0.00000000000E+00  0.20876612660E+04  0.20876612660E+04  0.25500000920E-02 0. -1.
        2   -1    0    0  501    0  0.00000000000E+00  0.00000000000E+00 -0.99000558535E+02  0.99000558568E+02  0.25500000920E-02 0.  1.
    10030    2    1    2    0    0  0.00000000000E+00  0.00000000000E+00  0.19886607074E+04  0.21866618245E+04  0.90924063130E+03 0.  0.
        1    1    3    3  502    0  0.77328481339E+02  0.23698169309E+03  0.80014533899E+02  0.26180592535E+03  0.50400001928E-02 0.  1.
       -1    1    3    3    0  502 -0.77328481339E+02 -0.23698169309E+03  0.19086461735E+04  0.19248558992E+04  0.50400001928E-02 0. -1.
</event>
<event>
 5   0  0.1454652E-02  0.8931078E+03  0.7818609E-02  0.9434238E-01
        2   -1    0    0  501    0  0.00000000000E+00  0.00000000000E+00  0.11847253614E+04  0.11847253614E+04  0.25500000920E-02 0.  1.
       -2   -1    0    0    0  501  0.00000000000E+00  0.00000000000E+00 -0.16831783066E+03  0.16831783068E+03  0.25500000920E-02 0. -1.
    10030    2    1    2    0    0  0.00000000000E+00  0.00000000000E+00  0.10164075307E+04  0.13530431920E+04  0.89310783843E+03 0.  0.
        4    1    3    3  502    0  0.12060500262E+03  0.36887495282E+03  0.17355196816E+03  0.42513079872E+03  0.12699999809E+01 0. -1.
       -4    1    3    3    0  502 -0.12060500262E+03 -0.36887495282E+03  0.84285556254E+03  0.92791239332E+03  0.12699999809E+01 0.  1.
</event>
<event>
 5   0  0.8524692E-03  0.9063606E+03  0.7818609E-02  0.9417665E-01
       -1   -1    0    0    0  501  0.00000000000E+00  0.00000000000E+00  0.24019965476E+03  0.24019965481E+03  0.50400001928E-02 0.  1.
        1   -1    0    0  501    0  0.00000000000E+00  0.00000000000E+00 -0.85500690752E+03  0.85500690753E+03  0.50400001928E-02 0. -1.
    10030    2    1    2    0    0  0.00000000000E+00  0.00000000000E+00 -0.61480725276E+03  0.10952065623E+04  0.90636055527E+03 0.  0.
        5    1    3    3  502    0  0.72805687742E+02  0.68813458424E+02  0.22662197363E+03  0.24782164788E+03  0.46999998093E+01 0.  1.
       -5    1    3    3    0  502 -0.72805687742E+02 -0.68813458424E+02 -0.84142922639E+03  0.84738491446E+03  0.46999998093E+01 0. -1.
</event>
<event>
 5   0  0.8885324E-03  0.9030960E+03  0.7818609E-02  0.9421720E-01
       -1   -1    0    0    0  501  0.00000000000E+00  0.00000000000E+00  0.22162550913E+03  0.22162550918E+03  0.50400001928E-02 0.  1.
        1   -1    0    0  501    0  0.00000000000E+00  0.00000000000E+00 -0.92000052042E+03  0.92000052043E+03  0.50400001928E-02 0. -1.
    10030    2    1    2    0    0  0.00000000000E+00  0.00000000000E+00 -0.69837501129E+03  0.11416260296E+04  0.90309597225E+03 0.  0.
        2    1    3    3  502    0 -0.20661422270E+03  0.87738889526E+02 -0.84447288941E+03  0.87379746550E+03  0.25500000920E-02 0. -1.
       -2    1    3    3    0  502  0.20661422270E+03 -0.87738889526E+02  0.14609787812E+03  0.26782856412E+03  0.25500000920E-02 0.  1.
</event>
<event>
 5   0  0.8524692E-03  0.9159265E+03  0.7818609E-02  0.9405889E-01
        1   -1    0    0  501    0  0.00000000000E+00  0.00000000000E+00  0.47574444671E+03  0.47574444674E+03  0.50400001928E-02 0.  1.
       -1   -1    0    0    0  501  0.00000000000E+00  0.00000000000E+00 -0.44084666989E+03  0.44084666992E+03  0.50400001928E-02 0. -1.
    10030    2    1    2    0    0  0.00000000000E+00  0.00000000000E+00  0.34897776825E+02  0.91659111665E+03  0.91592653652E+03 0.  0.
        5    1    3    3  502    0 -0.79570388962E+02 -0.33531083724E+03 -0.28433825930E+03  0.44680548349E+03  0.46999998093E+01 0. -1.
       -5    1    3    3    0  502  0.79570388962E+02  0.33531083724E+03  0.31923603613E+03  0.46978563317E+03  0.46999998093E+01 0.  1.
</event>
<event>
 5   0  0.1440615E-02  0.8798312E+03  0.7818609E-02  0.9451151E-01
        2   -1    0    0  501    0  0.00000000000E+00  0.00000000000E+00  0.42384082330E+03  0.42384082331E+03  0.25500000920E-02 0. -1.
       -2   -1    0    0    0  501  0.00000000000E+00  0.00000000000E+00 -0.45660002403E+03  0.45660002404E+03  0.25500000920E-02 0.  1.
    10030    2    1    2    0    0  0.00000000000E+00  0.00000000000E+00 -0.32759200728E+02  0.88044084735E+03  0.87983118861E+03 0.  0.
        3    1    3    3  502    0  0.13115670649E+03  0.37044005586E+03 -0.21424825853E+03  0.44758266625E+03  0.10100000352E+00 0.  1.
       -3    1    3    3    0  502 -0.13115670649E+03 -0.37044005586E+03  0.18148905780E+03  0.43285818110E+03  0.10100000352E+00 0. -1.
</event>
<event>
 5   0  0.1535906E-02  0.9906288E+03  0.7818609E-02  0.9318883E-01
        2   -1    0    0  501    0  0.00000000000E+00  0.00000000000E+00  0.19352215289E+04  0.19352215289E+04  0.25500000920E-02 0. -1.
       -2   -1    0    0    0  501  0.00000000000E+00  0.00000000000E+00 -0.12677429092E+03  0.12677429095E+03  0.25500000920E-02 0.  1.
    10030    2    1    2    0    0  0.00000000000E+00  0.00000000000E+00  0.18084472380E+04  0.20619958199E+04  0.99062876423E+03 0.  0.
        2    1    3    3  502    0 -0.33265618590E+03 -0.23724402165E+02  0.14194655110E+03  0.36245249158E+03  0.25500000920E-02 0.  1.
       -2    1    3    3    0  502  0.33265618590E+03  0.23724402165E+02  0.16665006869E+04  0.16995433283E+04  0.25500000920E-02 0. -1.
</event>
<event>
 5   0  0.1441195E-02  0.9085702E+03  0.7818609E-02  0.9414931E-01
       -2   -1    0    0    0  501  0.00000000000E+00  0.00000000000E+00  0.11914641151E+03  0.11914641154E+03  0.25500000920E-02 0. -1.
        2   -1    0    0  501    0  0.00000000000E+00  0.00000000000E+00 -0.17321123802E+04  0.17321123802E+04  0.25500000920E-02 0.  1.
    10030    2    1    2    0    0  0.00000000000E+00  0.00000000000E+00 -0.16129659687E+04  0.18512587918E+04  0.90857024927E+03 0.  0.
        5    1    3    3  502    0 -0.21591433082E+02  0.44304312521E+03 -0.10061160884E+04  0.10995658571E+04  0.46999998093E+01 0.  1.
       -5    1    3    3    0  502  0.21591433082E+02 -0.44304312521E+03 -0.60684988034E+03  0.75169293468E+03  0.46999998093E+01 0. -1.
</event>
<event>
 5   0  0.8612969E-03  0.9361943E+03  0.7818609E-02  0.9381434E-01
        1   -1    0    0  501    0  0.00000000000E+00  0.00000000000E+00  0.34841681788E+03  0.34841681791E+03  0.50400001928E-02 0. -1.
       -1   -1    0    0    0  501  0.00000000000E+00  0.00000000000E+00 -0.62888744786E+03  0.62888744788E+03  0.50400001928E-02 0.  1.
    10030    2    1    2    0    0  0.00000000000E+00  0.00000000000E+00 -0.28047062998E+03  0.97730426579E+03  0.93619434609E+03 0.  0.
        4    1    3    3  502    0  0.62107334144E+02 -0.43444010539E+02 -0.62243739853E+03  0.62703638730E+03  0.12699999809E+01 0.  1.
       -4    1    3    3    0  502 -0.62107334144E+02  0.43444010539E+02  0.34196676855E+03  0.35026787849E+03  0.12699999809E+01 0. -1.
</event>
<event>
 5   0  0.8291252E-03  0.9005647E+03  0.7818609E-02  0.9424876E-01
        1   -1    0    0  501    0  0.00000000000E+00  0.00000000000E+00  0.88536728898E+03  0.88536728900E+03  0.50400001928E-02 0. -1.
       -1   -1    0    0    0  501  0.00000000000E+00  0.00000000000E+00 -0.22900575495E+03  0.22900575500E+03  0.50400001928E-02 0.  1.
    10030    2    1    2    0    0  0.00000000000E+00  0.00000000000E+00  0.65636153404E+03  0.11143730440E+04  0.90056472162E+03 0.  0.
        1    1    3    3  502    0 -0.29787307334E+03 -0.12172800193E+03  0.71793361765E+03  0.78674948596E+03  0.50400001928E-02 0. -1.
       -1    1    3    3    0  502  0.29787307334E+03  0.12172800193E+03 -0.61572083614E+02  0.32762355804E+03  0.50400001928E-02 0.  1.
</event>
<event>
 5   0  0.1535906E-02  0.9043965E+03  0.7818609E-02  0.9420102E-01
        2   -1    0    0  501    0  0.00000000000E+00  0.00000000000E+00  0.22057597205E+04  0.22057597205E+04  0.25500000920E-02 0. -1.
       -2   -1    0    0    0  501  0.00000000000E+00  0.00000000000E+00 -0.92704221730E+02  0.92704221765E+02  0.25500000920E-02 0.  1.
    10030    2    1    2    0    0  0.00000000000E+00  0.00000000000E+00  0.21130554987E+04  0.22984639422E+04  0.90439645787E+03 0.  0.
        2    1    3    3  502    0 -0.12616845530E+03 -0.35912343477E+03  0.43611004373E+03  0.57886102889E+03  0.25500000920E-02 0.  1.
       -2    1    3    3    0  502  0.12616845530E+03  0.35912343477E+03  0.16769454550E+04  0.17196029133E+04  0.25500000920E-02 0. -1.
</event>
<event>
 5   0  0.8524692E-03  0.8829965E+03  0.7818609E-02  0.9447090E-01
        1   -1    0    0  501    0  0.00000000000E+00  0.00000000000E+00  0.39183586648E+03  0.39183586651E+03  0.50400001928E-02 0. -1.
       -1   -1    0    0    0  501  0.00000000000E+00  0.00000000000E+00 -0.49745493651E+03  0.49745493654E+03  0.50400001928E-02 0.  1.
    10030    2    1    2    0    0  0.00000000000E+00  0.00000000000E+00 -0.10561907003E+03  0.88929080305E+03  0.88299645777E+03 0.  0.
        5    1    3    3  502    0 -0.57427197426E+02 -0.37254721918E+03 -0.28425036248E+03  0.47213310845E+03  0.46999998093E+01 0.  1.
       -5    1    3    3    0  502  0.57427197426E+02  0.37254721918E+03  0.17863129244E+03  0.41715769460E+03  0.46999998093E+01 0. -1.
</event>
<event>
 5   0  0.8612969E-03  0.8914060E+03  0.7818609E-02  0.9436389E-01
        1   -1    0    0  501    0  0.00000000000E+00  0.00000000000E+00  0.13557403723E+04  0.13557403723E+04  0.50400001928E-02 0. -1.
       -1   -1    0    0    0  501  0.00000000000E+00  0.00000000000E+00 -0.14652596258E+03  0.14652596267E+03  0.50400001928E-02 0.  1.
    10030    2    1    2    0    0  0.00000000000E+00  0.00000000000E+00  0.12092144098E+04  0.15022663350E+04  0.89140599759E+03 0.  0.
        4    1    3    3  502    0  0.11624133484E+03  0.24508055374E+02 -0.11935008173E+03  0.16840055704E+03  0.12699999809E+01 0.  1.
       -4    1    3    3    0  502 -0.11624133484E+03 -0.24508055374E+02  0.13285644915E+04  0.13338657780E+04  0.12699999809E+01 0. -1.
</event>
<event>
 5   0  0.1454652E-02  0.6845287E+03  0.7818609E-02  0.9744062E-01
        2   -1    0    0  501    0  0.00000000000E+00  0.00000000000E+00  0.24623493772E+03  0.24623493774E+03  0.25500000920E-02 0. -1.
       -2   -1    0    0    0  501  0.00000000000E+00  0.00000000000E+00 -0.47574430985E+03  0.47574430986E+03  0.25500000920E-02 0.  1.
    10030    2    1    2    0    0  0.00000000000E+00  0.00000000000E+00 -0.22950937213E+03  0.72197924759E+03  0.68452865686E+03 0.  0.
        4    1    3    3  502    0  0.11881791957E+03  0.30997121971E+03 -0.20264059589E+03  0.38892760131E+03  0.12699999809E+01 0.  1.
       -4    1    3    3    0  502 -0.11881791957E+03 -0.30997121971E+03 -0.26868776241E+02  0.33305164629E+03  0.12699999809E+01 0. -1.
</event>
<event>
 5   0  0.8524692E-03  0.9198694E+03  0.7818609E-02  0.9401079E-01
       -1   -1    0    0    0  501  0.00000000000E+00  0.00000000000E+00  0.13339407053E+03  0.13339407063E+03  0.50400001928E-02 0.  1.
        1   -1    0    0  501    0  0.00000000000E+00  0.00000000000E+00 -0.15858270656E+04  0.15858270656E+04  0.50400001928E-02 0. -1.
    10030    2    1    2    0    0  0.00000000000E+00  0.00000000000E+00 -0.14524329950E+04  0.17192211362E+04  0.91986939840E+03 0.  0.
        5    1    3    3  502    0 -0.41574602351E+03 -0.18241985295E+03 -0.58892466294E+03  0.74362363292E+03  0.46999998093E+01 0.  1.
       -5    1    3    3    0  502  0.41574602351E+03  0.18241985295E+03 -0.86350833208E+03  0.97559750328E+03  0.46999998093E+01 0. -1.
</event>
<event>
 5   0  0.1441195E-02  0.9045504E+03  0.7818609E-02  0.9419911E-01
       -2   -1    0    0    0  501  0.00000000000E+00  0.00000000000E+00  0.13019104478E+03  0.13019104481E+03  0.25500000920E-02 0.  1.
        2   -1    0    0  501    0  0.00000000000E+00  0.00000000000E+00 -0.15711746993E+04  0.15711746993E+04  0.25500000920E-02 0. -1.
    10030    2    1    2    0    0  0.00000000000E+00  0.00000000000E+00 -0.14409836545E+04  0.17013657441E+04  0.90455044230E+03 0.  0.
        5    1    3    3  502    0 -0.30918774709E+03 -0.12738757540E+03 -0.12931811895E+04  0.13357261456E+04  0.46999998093E+01 0. -1.
       -5    1    3    3    0  502  0.30918774709E+03  0.12738757540E+03 -0.14780246507E+03  0.36563959851E+03  0.46999998093E+01 0.  1.
</event>
<event>
 5   0  0.1483326E-02  0.8789333E+03  0.7818609E-02  0.9452306E-01
       -2   -1    0    0    0  501  0.00000000000E+00  0.00000000000E+00  0.11743186509E+03  0.11743186511E+03  0.25500000920E-02 0. -1.
        2   -1    0    0  501    0  0.00000000000E+00  0.00000000000E+00 -0.16446212812E+04  0.16446212812E+04  0.25500000920E-02 0.  1.
    10030    2    1    2    0    0  0.00000000000E+00  0.00000000000E+00 -0.15271894161E+04  0.17620531463E+04  0.87893331814E+03 0.  0.
        1    1    3    3  502    0 -0.43316559186E+03 -0.72175171127E+01 -0.91154598411E+03  0.10092574516E+04  0.50400001928E-02 0. -1.
       -1    1    3    3    0  502  0.43316559186E+03  0.72175171127E+01 -0.61564343198E+03  0.75279569465E+03  0.50400001928E-02 0.  1.
</event>
<event>
 5   0  0.8291252E-03  0.9124512E+03  0.7818609E-02  0.9410149E-01
       -1   -1    0    0    0  501  0.00000000000E+00  0.00000000000E+00  0.19370493250E+03  0.19370493256E+03  0.50400001928E-02 0. -1.
        1   -1    0    0  501    0  0.00000000000E+00  0.00000000000E+00 -0.10745302904E+04  0.10745302904E+04  0.50400001928E-02 0.  1.
    10030    2    1    2    0    0  0.00000000000E+00  0.00000000000E+00 -0.88082535790E+03  0.12682352230E+04  0.91245124235E+03 0.  0.
        1    1    3    3  502    0  0.16130368051E+03  0.93856050318E+02  0.13822531180E+03  0.23223710378E+03  0.50400001928E-02 0. -1.
       -1    1    3    3    0  502 -0.16130368051E+03 -0.93856050318E+02 -0.10190506697E+04  0.10359981192E+04  0.50400001928E-02 0.  1.
</event>
<event>
 5   0  0.5770125E-03  0.1007913E+04  0.7818609E-02  0.9299908E-01
       -3   -1    0    0    0  501  0.00000000000E+00  0.00000000000E+00  0.18483778081E+03  0.18483780841E+03  0.10100000352E+00 0. -1.
        3   -1    0    0  501    0  0.00000000000E+00  0.00000000000E+00 -0.13740275337E+04  0.13740275374E+04  0.10100000352E+00 0.  1.
    10030    2    1    2    0    0  0.00000000000E+00  0.00000000000E+00 -0.11891897528E+04  0.15588653458E+04  0.10079131401E+04 0.  0.
        1    1    3    3  502    0 -0.36615662703E+03 -0.33952443593E+03 -0.48941623009E+03  0.69919651345E+03  0.50400001928E-02 0. -1.
       -1    1    3    3    0  502  0.36615662703E+03  0.33952443593E+03 -0.69977352275E+03  0.85966883233E+03  0.50400001928E-02 0.  1.
</event>
<event>
 5   0  0.8885324E-03  0.8962195E+03  0.7818609E-02  0.9430320E-01
        1   -1    0    0  501    0  0.00000000000E+00  0.00000000000E+00  0.40897883166E+03  0.40897883169E+03  0.50400001928E-02 0.  1.
       -1   -1    0    0    0  501  0.00000000000E+00  0.00000000000E+00 -0.49098465895E+03  0.49098465897E+03  0.50400001928E-02 0. -1.
    10030    2    1    2    0    0  0.00000000000E+00  0.00000000000E+00 -0.82005827285E+02  0.89996349067E+03  0.89621946465E+03 0.  0.
        2    1    3    3  502    0 -0.31068868830E+03 -0.44103647267E+02  0.28022365143E+03  0.42071116882E+03  0.25500000920E-02 0.  1.
       -2    1    3    3    0  502  0.31068868830E+03  0.44103647267E+02 -0.36222947871E+03  0.47925232185E+03  0.25500000920E-02 0. -1.
</event>
<event>
 5   0  0.8612969E-03  0.9820025E+03  0.7818609E-02  0.9328507E-01
       -1   -1    0    0    0  501  0.00000000000E+00  0.00000000000E+00  0.46483561369E+03  0.46483561372E+03  0.50400001928E-02 0. -1.
        1   -1    0    0  501    0  0.00000000000E+00  0.00000000000E+00 -0.51863971916E+03  0.51863971918E+03  0.50400001928E-02 0.  1.
    10030    2    1    2    0    0  0.00000000000E+00  0.00000000000E+00 -0.53804105463E+02  0.98347533290E+03  0.98200246877E+03 0.  0.
        4    1    3    3  502    0  0.25268886056E+03  0.15187554782E+03 -0.42012660466E+03  0.51325025000E+03  0.12699999809E+01 0.  1.
       -4    1    3    3    0  502 -0.25268886056E+03 -0.15187554782E+03  0.36632249920E+03  0.47022508291E+03  0.12699999809E+01 0. -1.
</event>
<event>
 5   0  0.8612969E-03  0.9208382E+03  0.7818609E-02  0.9399901E-01
       -1   -1    0    0    0  501  0.00000000000E+00  0.00000000000E+00  0.26177192187E+03  0.26177192191E+03  0.50400001928E-02 0. -1.
        1   -1    0    0  501    0  0.00000000000E+00  0.00000000000E+00 -0.80981082516E+03  0.80981082517E+03  0.50400001928E-02 0.  1.
    10030    2    1    2    0    0  0.00000000000E+00  0.00000000000E+00 -0.54803890329E+03  0.10715827471E+04  0.92083817489E+03 0.  0.
        4    1    3    3  502    0 -0.19881104521E+03 -0.95220228832E+02  0.19636937112E+03  0.29522070810E+03  0.12699999809E+01 0. -1.
       -4    1    3    3    0  502  0.19881104521E+03  0.95220228832E+02 -0.74440827441E+03  0.77636203899E+03  0.12699999809E+01 0.  1.
</event>
<event>
 5   0  0.8291252E-03  0.8996156E+03  0.7818609E-02  0.9426062E-01
       -1   -1    0    0    0  501  0.00000000000E+00  0.00000000000E+00  0.33221462677E+03  0.33221462681E+03  0.50400001928E-02 0. -1.
        1   -1    0    0  501    0  0.00000000000E+00  0.00000000000E+00 -0.60902512120E+03  0.60902512122E+03  0.50400001928E-02 0.  1.
    10030    2    1    2    0    0  0.00000000000E+00  0.00000000000E+00 -0.27681049443E+03  0.94123974803E+03  0.89961559204E+03 0.  0.
        1    1    3    3  502    0  0.42019683877E+03  0.16028716994E+03 -0.14713975466E+03  0.47318861734E+03  0.50400001928E-02 0. -1.
       -1    1    3    3    0  502 -0.42019683877E+03 -0.16028716994E+03 -0.12967073977E+03  0.46805113069E+03  0.50400001928E-02 0.  1.
</event>
<event>
 5   0  0.1441195E-02  0.8889464E+03  0.7818609E-02  0.9439505E-01
       -2   -1    0    0    0  501  0.00000000000E+00  0.00000000000E+00  0.15833155576E+03  0.15833155578E+03  0.25500000920E-02 0. -1.
        2   -1    0    0  501    0  0.00000000000E+00  0.00000000000E+00 -0.12477388614E+04  0.12477388615E+04  0.25500000920E-02 0.  1.
    10030    2    1    2    0    0  0.00000000000E+00  0.00000000000E+00 -0.10894073057E+04  0.14060704172E+04  0.88894642162E+03 0.  0.
        5    1    3    3  502    0  0.27604066351E+03 -0.17870090770E+02  0.55385302569E+01  0.27671384745E+03  0.46999998093E+01 0. -1.
       -5    1    3    3    0  502 -0.27604066351E+03  0.17870090770E+02 -0.10949458359E+04  0.11293565698E+04  0.46999998093E+01 0.  1.
</event>
<event>
 5   0  0.1535906E-02  0.9326709E+03  0.7818609E-02  0.9385638E-01
        2   -1    0    0  501    0  0.00000000000E+00  0.00000000000E+00  0.61759026191E+03  0.61759026191E+03  0.25500000920E-02 0.  1.
       -2   -1    0    0    0  501  0.00000000000E+00  0.00000000000E+00 -0.35212463519E+03  0.35212463519E+03  0.25500000920E-02 0. -1.
    10030    2    1    2    0    0  0.00000000000E+00  0.00000000000E+00  0.26546562672E+03  0.96971489711E+03  0.93267088659E+03 0.  0.
        2    1    3    3  502    0  0.24716722393E+03 -0.99447934560E+02  0.53067090393E+03  0.59379553430E+03  0.25500000920E-02 0.  1.
       -2    1    3    3    0  502 -0.24716722393E+03  0.99447934560E+02 -0.26520527720E+03  0.37591936281E+03  0.25500000920E-02 0. -1.
</event>
<event>
 5   0  0.8885324E-03  0.8723325E+03  0.7818609E-02  0.9460844E-01
       -1   -1    0    0    0  501  0.00000000000E+00  0.00000000000E+00  0.40029144356E+03  0.40029144359E+03  0.50400001928E-02 0. -1.
        1   -1    0    0  501    0  0.00000000000E+00  0.00000000000E+00 -0.47525617754E+03  0.47525617757E+03  0.50400001928E-02 0.  1.
    10030    2    1    2    0    0  0.00000000000E+00  0.00000000000E+00 -0.74964733984E+02  0.87554762116E+03  0.87233246275E+03 0.  0.
        2    1    3    3  502    0 -0.21248586808E+03 -0.16911859937E+03 -0.38004610042E+03  0.46710425307E+03  0.25500000920E-02 0.  1.
       -2    1    3    3    0  502  0.21248586808E+03  0.16911859937E+03  0.30508136643E+03  0.40844336809E+03  0.25500000920E-02 0. -1.
</event>
<event>
 5   0  0.8612969E-03  0.8997393E+03  0.7818609E-02  0.9425907E-01
        1   -1    0    0  501    0  0.00000000000E+00  0.00000000000E+00  0.57043393724E+03  0.57043393726E+03  0.50400001928E-02 0. -1.
       -1   -1    0    0    0  501  0.00000000000E+00  0.00000000000E+00 -0.35478729555E+03  0.35478729558E+03  0.50400001928E-02 0.  1.
    10030    2    1    2    0    0  0.00000000000E+00  0.00000000000E+00  0.21564664169E+03  0.92522123284E+03  0.89973932649E+03 0.  0.
        4    1    3    3  502    0 -0.43638755085E+03 -0.26750948768E+02  0.21680304480E+03  0.48801114837E+03  0.12699999809E+01 0. -1.
       -4    1    3    3    0  502  0.43638755085E+03  0.26750948768E+02 -0.11564031159E+01  0.43721008447E+03  0.12699999809E+01 0.  1.
</event>
<event>
 5   0  0.8738044E-03  0.9226778E+03  0.7818609E-02  0.9397669E-01
        1   -1    0    0  501    0  0.00000000000E+00  0.00000000000E+00  0.43599706306E+03  0.43599706309E+03  0.50400001928E-02 0. -1.
       -1   -1    0    0    0  501  0.00000000000E+00  0.00000000000E+00 -0.48815370914E+03  0.48815370917E+03  0.50400001928E-02 0.  1.
    10030    2    1    2    0    0  0.00000000000E+00  0.00000000000E+00 -0.52156646082E+02  0.92415077226E+03  0.92267780624E+03 0.  0.
        3    1    3    3  502    0 -0.23579810402E+03  0.62079983778E+02  0.36618307346E+03  0.43993718158E+03  0.10100000352E+00 0. -1.
       -3    1    3    3    0  502  0.23579810402E+03 -0.62079983778E+02 -0.41833971955E+03  0.48421359068E+03  0.10100000352E+00 0.  1.
</event>
<event>
 5   0  0.8291252E-03  0.9157643E+03  0.7818609E-02  0.9406087E-01
        1   -1    0    0  501    0  0.00000000000E+00  0.00000000000E+00  0.74461602879E+03  0.74461602881E+03  0.50400001928E-02 0.  1.
       -1   -1    0    0    0  501  0.00000000000E+00  0.00000000000E+00 -0.28156265078E+03  0.28156265083E+03  0.50400001928E-02 0. -1.
    10030    2    1    2    0    0  0.00000000000E+00  0.00000000000E+00  0.46305337801E+03  0.10261786796E+04  0.91576429918E+03 0.  0.
        1    1    3    3  502    0 -0.40075844774E+03 -0.37985534556E+02 -0.12967951224E+02  0.40276345670E+03  0.50400001928E-02 0. -1.
       -1    1    3    3    0  502  0.40075844774E+03  0.37985534556E+02  0.47602132923E+03  0.62341522293E+03  0.50400001928E-02 0.  1.
</event>
<event>
 5   0  0.8612969E-03  0.9257970E+03  0.7818609E-02  0.9393896E-01
        1   -1    0    0  501    0  0.00000000000E+00  0.00000000000E+00  0.42991216102E+03  0.42991216105E+03  0.50400001928E-02 0. -1.
       -1   -1    0    0    0  501  0.00000000000E+00  0.00000000000E+00 -0.49841585143E+03  0.49841585145E+03  0.50400001928E-02 0.  1.
    10030    2    1    2    0    0  0.00000000000E+00  0.00000000000E+00 -0.68503690408E+02  0.92832801250E+03  0.92579703131E+03 0.  0.
        4    1    3    3  502    0 -0.41056181835E+03 -0.13304942151E+03  0.13356838060E+03  0.45178012400E+03  0.12699999809E+01 0. -1.
       -4    1    3    3    0  502  0.41056181835E+03  0.13304942151E+03 -0.20207207100E+03  0.47654788850E+03  0.12699999809E+01 0.  1.
</event>
<event>
 5   0  0.8612969E-03  0.8946578E+03  0.7818609E-02  0.9432284E-01
       -1   -1    0    0    0  501  0.00000000000E+00  0.00000000000E+00  0.67342453055E+03  0.67342453057E+03  0.50400001928E-02 0.  1.
        1   -1    0    0  501    0  0.00000000000E+00  0.00000000000E+00 -0.29714262174E+03  0.29714262179E+03  0.50400001928E-02 0. -1.
    10030    2    1    2    0    0  0.00000000000E+00  0.00000000000E+00  0.37628190881E+03  0.97056715235E+03  0.89465776827E+03 0.  0.
        4    1    3    3  502    0 -0.11616088434E+03  0.31976168198E+03 -0.12695190959E+03  0.36312433760E+03  0.12699999809E+01 0. -1.
       -4    1    3    3    0  502  0.11616088434E+03 -0.31976168198E+03  0.50323381840E+03  0.60744281475E+03  0.12699999809E+01 0.  1.
</event>
<event>
 5   0  0.8738044E-03  0.8769068E+03  0.7818609E-02  0.9454918E-01
        1   -1    0    0  501    0  0.00000000000E+00  0.00000000000E+00  0.23456870789E+03  0.23456870794E+03  0.50400001928E-02 0. -1.
       -1   -1    0    0    0  501  0.00000000000E+00  0.00000000000E+00 -0.81955262236E+03  0.81955262238E+03  0.50400001928E-02 0.  1.
    10030    2    1    2    0    0  0.00000000000E+00  0.00000000000E+00 -0.58498391447E+03  0.10541213303E+04  0.87690683590E+03 0.  0.
        3    1    3    3  502    0  0.27197282095E+03  0.21567114067E+03  0.29520528925E+02  0.34836005524E+03  0.10100000352E+00 0. -1.
       -3    1    3    3    0  502 -0.27197282095E+03 -0.21567114067E+03 -0.61450444340E+03  0.70576127509E+03  0.10100000352E+00 0.  1.
</event>
<event>
 5   0  0.1535906E-02  0.9023093E+03  0.7818609E-02  0.9422699E-01
       -2   -1    0    0    0  501  0.00000000000E+00  0.00000000000E+00  0.15041866243E+03  0.15041866245E+03  0.25500000920E-02 0.  1.
        2   -1    0    0  501    0  0.00000000000E+00  0.00000000000E+00 -0.13531599873E+04  0.13531599873E+04  0.25500000920E-02 0. -1.
    10030    2    1    2    0    0  0.00000000000E+00  0.00000000000E+00 -0.12027413248E+04  0.15035786497E+04  0.90230929366E+03 0.  0.
        2    1    3    3  502    0 -0.48074715777E+02 -0.11994015298E+03  0.11892358341E+03  0.17561217865E+03  0.25500000920E-02 0.  1.
       -2    1    3    3    0  502  0.48074715777E+02  0.11994015298E+03 -0.13216649082E+04  0.13279664711E+04  0.25500000920E-02 0. -1.
</event>
<event>
 5   0  0.8524692E-03  0.8641674E+03  0.7818609E-02  0.9471517E-01
       -1   -1    0    0    0  501  0.00000000000E+00  0.00000000000E+00  0.20630423808E+03  0.20630423814E+03  0.50400001928E-02 0.  1.
        1   -1    0    0  501    0  0.00000000000E+00  0.00000000000E+00 -0.90495623057E+03  0.90495623059E+03  0.50400001928E-02 0. -1.
    10030    2    1    2    0    0  0.00000000000E+00  0.00000000000E+00 -0.69865199249E+03  0.11112604687E+04  0.86416735807E+03 0.  0.
        5    1    3    3  502    0  0.40344095698E+03 -0.69889663355E+02 -0.17195571589E+03  0.44411713436E+03  0.46999998093E+01 0.  1.
       -5    1    3    3    0  502 -0.40344095698E+03  0.69889663355E+02 -0.52669627660E+03  0.66714333437E+03  0.46999998093E+01 0. -1.
</event>
<event>
 5   0  0.1483326E-02  0.9123278E+03  0.7818609E-02  0.9410301E-01
       -2   -1    0    0    0  501  0.00000000000E+00  0.00000000000E+00  0.16293998997E+03  0.16293998999E+03  0.25500000920E-02 0.  1.
        2   -1    0    0  501    0  0.00000000000E+00  0.00000000000E+00 -0.12770682561E+04  0.12770682561E+04  0.25500000920E-02 0. -1.
    10030    2    1    2    0    0  0.00000000000E+00  0.00000000000E+00 -0.11141282662E+04  0.14400082461E+04  0.91232776755E+03 0.  0.
        1    1    3    3  502    0 -0.24340669527E+03  0.31855403986E+01  0.51851564418E+02  0.24888863319E+03  0.50400001928E-02 0.  1.
       -1    1    3    3    0  502  0.24340669527E+03 -0.31855403986E+01 -0.11659798306E+04  0.11911196129E+04  0.50400001928E-02 0. -1.
</event>
<event>
 5   0  0.8738044E-03  0.8210902E+03  0.7818609E-02  0.9529982E-01
       -1   -1    0    0    0  501  0.00000000000E+00  0.00000000000E+00  0.48439459009E+03  0.48439459012E+03  0.50400001928E-02 0. -1.
        1   -1    0    0  501    0  0.00000000000E+00  0.00000000000E+00 -0.34795448042E+03  0.34795448045E+03  0.50400001928E-02 0.  1.
    10030    2    1    2    0    0  0.00000000000E+00  0.00000000000E+00  0.13644010967E+03  0.83234907057E+03  0.82109017273E+03 0.  0.
        3    1    3    3  502    0 -0.40074116581E+03 -0.14127707906E+01 -0.22175446627E+02  0.40135674721E+03  0.10100000352E+00 0.  1.
       -3    1    3    3    0  502  0.40074116581E+03  0.14127707906E+01  0.15861555630E+03  0.43099232336E+03  0.10100000352E+00 0. -1.
</event>
<event>
 5   0  0.1483326E-02  0.9080073E+03  0.7818609E-02  0.9415627E-01
       -2   -1    0    0    0  501  0.00000000000E+00  0.00000000000E+00  0.13087674360E+03  0.13087674363E+03  0.25500000920E-02 0. -1.
        2   -1    0    0  501    0  0.00000000000E+00  0.00000000000E+00 -0.15749116374E+04  0.15749116374E+04  0.25500000920E-02 0.  1.
    10030    2    1    2    0    0  0.00000000000E+00  0.00000000000E+00 -0.14440348938E+04  0.17057883811E+04  0.90800728321E+03 0.  0.
        1    1    3    3  502    0  0.26010763988E+03 -0.21392559735E+02 -0.14199031501E+04  0.14436892261E+04  0.50400001928E-02 0.  1.
       -1    1    3    3    0  502 -0.26010763988E+03  0.21392559735E+02 -0.24131743729E+02  0.26209915494E+03  0.50400001928E-02 0. -1.
</event>
<event>
 5   0  0.8291252E-03  0.7961315E+03  0.7818609E-02  0.9565634E-01
        1   -1    0    0  501    0  0.00000000000E+00  0.00000000000E+00  0.77876362752E+03  0.77876362754E+03  0.50400001928E-02 0. -1.
       -1   -1    0    0    0  501  0.00000000000E+00  0.00000000000E+00 -0.20347165248E+03  0.20347165254E+03  0.50400001928E-02 0.  1.
    10030    2    1    2    0    0  0.00000000000E+00  0.00000000000E+00  0.57529197505E+03  0.98223528008E+03  0.79613145201E+03 0.  0.
        1    1    3    3  502    0 -0.15383567055E+03  0.25382297596E+03 -0.39625743439E+02  0.29943566292E+03  0.50400001928E-02 0.  1.
       -1    1    3    3    0  502  0.15383567055E+03 -0.25382297596E+03  0.61491771848E+03  0.68279961716E+03  0.50400001928E-02 0. -1.
</event>
<event>
 5   0  0.1441195E-02  0.8977844E+03  0.7818609E-02  0.9428355E-01
        2   -1    0    0  501    0  0.00000000000E+00  0.00000000000E+00  0.11254931581E+04  0.11254931581E+04  0.25500000920E-02 0. -1.
       -2   -1    0    0    0  501  0.00000000000E+00  0.00000000000E+00 -0.17903636591E+03  0.17903636593E+03  0.25500000920E-02 0.  1.
    10030    2    1    2    0    0  0.00000000000E+00  0.00000000000E+00  0.94645679223E+03  0.13045295241E+04  0.89778439485E+03 0.  0.
        5    1    3    3  502    0  0.25145274350E+03  0.19935303280E+03  0.17163725555E+02  0.32138263390E+03  0.46999998093E+01 0.  1.
       -5    1    3    3    0  502 -0.25145274350E+03 -0.19935303280E+03  0.92929306668E+03  0.98314689018E+03  0.46999998093E+01 0. -1.
</event>
<event>
 5   0  0.8885324E-03  0.9060067E+03  0.7818609E-02  0.9418104E-01
        1   -1    0    0  501    0  0.00000000000E+00  0.00000000000E+00  0.24041297128E+04  0.24041297128E+04  0.50400001928E-02 0. -1.
       -1   -1    0    0    0  501  0.00000000000E+00  0.00000000000E+00 -0.85358128541E+02  0.85358128690E+02  0.50400001928E-02 0.  1.
    10030    2    1    2    0    0  0.00000000000E+00  0.00000000000E+00  0.23187715842E+04  0.24894878415E+04  0.90600665173E+03 0.  0.
        2    1    3    3  502    0  0.28740713538E+03 -0.34998038944E+03  0.11289266922E+04  0.12163735491E+04  0.25500000920E-02 0.  1.
       -2    1    3    3    0  502 -0.28740713538E+03  0.34998038944E+03  0.11898448920E+04  0.12731142924E+04  0.25500000920E-02 0. -1.
</event>
<event>
 5   0  0.1440615E-02  0.9093668E+03  0.7818609E-02  0.9413948E-01
        2   -1    0    0  501    0  0.00000000000E+00  0.00000000000E+00  0.10681522899E+04  0.10681522899E+04  0.25500000920E-02 0. -1.
       -2   -1    0    0    0  501  0.00000000000E+00  0.00000000000E+00 -0.19354638351E+03  0.19354638352E+03  0.25500000920E-02 0.  1.
    10030    2    1    2    0    0  0.00000000000E+00  0.00000000000E+00  0.87460590643E+03  0.12616986735E+04  0.90936684075E+03 0.  0.
        3    1    3    3  502    0  0.31532069822E+03  0.25887355868E+03  0.15879438654E+03  0.43778799607E+03  0.10100000352E+00 0.  1.
       -3    1    3    3    0  502 -0.31532069822E+03 -0.25887355868E+03  0.71581151989E+03  0.82391067739E+03  0.10100000352E+00 0. -1.
</event>
<event>
 5   0  0.1535906E-02  0.9002864E+03  0.7818609E-02  0.9425224E-01
        2   -1    0    0  501    0  0.00000000000E+00  0.00000000000E+00  0.25420343060E+03  0.25420343062E+03  0.25500000920E-02 0.  1.
       -2   -1    0    0    0  501  0.00000000000E+00  0.00000000000E+00 -0.79711308752E+03  0.79711308753E+03  0.25500000920E-02 0. -1.
    10030    2    1    2    0    0  0.00000000000E+00  0.00000000000E+00 -0.54290965692E+03  0.10513165181E+04  0.90028635763E+03 0.  0.
        2    1    3    3  502    0 -0.23803010851E+03  0.31880183777E+02 -0.71605356553E+03  0.75525319422E+03  0.25500000920E-02 0. -1.
       -2    1    3    3    0  502  0.23803010851E+03 -0.31880183777E+02  0.17314390861E+03  0.29606332392E+03  0.25500000920E-02 0.  1.
</event>
<event>
 5   0  0.5770125E-03  0.9221808E+03  0.7818609E-02  0.9398271E-01
       -4   -1    0    0    0  501  0.00000000000E+00  0.00000000000E+00  0.92666439967E+03  0.92666526994E+03  0.12699999809E+01 0.  1.
        4   -1    0    0  501    0  0.00000000000E+00  0.00000000000E+00 -0.22942700680E+03  0.22943052183E+03  0.12699999809E+01 0. -1.
    10030    2    1    2    0    0  0.00000000000E+00  0.00000000000E+00  0.69723739287E+03  0.11560957918E+04  0.92218083787E+03 0.  0.
        1    1    3    3  502    0  0.40505528326E+02  0.20478418847E+03  0.86403234302E+03  0.88889209215E+03  0.50400001928E-02 0.  1.
       -1    1    3    3    0  502 -0.40505528326E+02 -0.20478418847E+03 -0.16679495015E+03  0.26720369963E+03  0.50400001928E-02 0. -1.
</event>
<event>
 5   0  0.1441195E-02  0.8982877E+03  0.7818609E-02  0.9427724E-01
       -2   -1    0    0    0  501  0.00000000000E+00  0.00000000000E+00  0.21097558906E+03  0.21097558907E+03  0.25500000920E-02 0.  1.
        2   -1    0    0  501    0  0.00000000000E+00  0.00000000000E+00 -0.95617793619E+03  0.95617793619E+03  0.25500000920E-02 0. -1.
    10030    2    1    2    0    0  0.00000000000E+00  0.00000000000E+00 -0.74520234713E+03  0.11671535253E+04  0.89828771191E+03 0.  0.
        5    1    3    3  502    0  0.26137401529E+02  0.53458069093E+02  0.20579897626E+03  0.21428074467E+03  0.46999998093E+01 0.  1.
       -5    1    3    3    0  502 -0.26137401529E+02 -0.53458069093E+02 -0.95100132339E+03  0.95287278059E+03  0.46999998093E+01 0. -1.
</event>
<event>
 5   0  0.1441195E-02  0.8941974E+03  0.7818609E-02  0.9432864E-01
       -2   -1    0    0    0  501  0.00000000000E+00  0.00000000000E+00  0.24003813768E+03  0.24003813769E+03  0.25500000920E-02 0. -1.
        2   -1    0    0  501    0  0.00000000000E+00  0.00000000000E+00 -0.83277282389E+03  0.83277282389E+03  0.25500000920E-02 0.  1.
    10030    2    1    2    0    0  0.00000000000E+00  0.00000000000E+00 -0.59273468621E+03  0.10728109616E+04  0.89419737813E+03 0.  0.
        5    1    3    3  502    0 -0.16116255900E+03 -0.16198575177E+02  0.20356810057E+03  0.26018805858E+03  0.46999998093E+01 0. -1.
       -5    1    3    3    0  502  0.16116255900E+03  0.16198575177E+02 -0.79630278677E+03  0.81262290300E+03  0.46999998093E+01 0.  1.
</event>
<event>
 5   0  0.1440615E-02  0.8977347E+03  0.7818609E-02  0.9428418E-01
       -2   -1    0    0    0  501  0.00000000000E+00  0.00000000000E+00  0.16265359078E+03  0.16265359080E+03  0.25500000920E-02 0.  1.
        2   -1    0    0  501    0  0.00000000000E+00  0.00000000000E+00 -0.12387177994E+04  0.12387177994E+04  0.25500000920E-02 0. -1.
    10030    2    1    2    0    0  0.00000000000E+00  0.00000000000E+00 -0.10760642086E+04  0.14013713902E+04  0.89773470035E+03 0.  0.
        3    1    3    3  502    0  0.31388537957E+03  0.28436120472E+03 -0.77007463007E+03  0.87886305665E+03  0.10100000352E+00 0. -1.
       -3    1    3    3    0  502 -0.31388537957E+03 -0.28436120472E+03 -0.30598957853E+03  0.52250833355E+03  0.10100000352E+00 0.  1.
</event>
<event>
 5   0  0.1483326E-02  0.8966112E+03  0.7818609E-02  0.9429828E-01
       -2   -1    0    0    0  501  0.00000000000E+00  0.00000000000E+00  0.14599644763E+03  0.14599644765E+03  0.25500000920E-02 0. -1.
        2   -1    0    0  501    0  0.00000000000E+00  0.00000000000E+00 -0.13765945620E+04  0.13765945620E+04  0.25500000920E-02 0.  1.
    10030    2    1    2    0    0  0.00000000000E+00  0.00000000000E+00 -0.12305981144E+04  0.15225910096E+04  0.89661121093E+03 0.  0.
        1    1    3    3  502    0 -0.35901466443E+03 -0.17998668657E+03 -0.95361783042E+03  0.10347336387E+04  0.50400001928E-02 0.  1.
       -1    1    3    3    0  502  0.35901466443E+03  0.17998668657E+03 -0.27698028393E+03  0.48785737089E+03  0.50400001928E-02 0. -1.
</event>
<event>
 5   0  0.8524692E-03  0.8900702E+03  0.7818609E-02  0.9438080E-01
       -1   -1    0    0    0  501  0.00000000000E+00  0.00000000000E+00  0.14766111244E+04  0.14766111244E+04  0.50400001928E-02 0.  1.
        1   -1    0    0  501    0  0.00000000000E+00  0.00000000000E+00 -0.13412892401E+03  0.13412892410E+03  0.50400001928E-02 0. -1.
    10030    2    1    2    0    0  0.00000000000E+00  0.00000000000E+00  0.13424822004E+04  0.16107400485E+04  0.89007024751E+03 0.  0.
        5    1    3    3  502    0  0.13968074955E+03 -0.36856911896E+02  0.14329520012E+04  0.14402231326E+04  0.46999998093E+01 0.  1.
       -5    1    3    3    0  502 -0.13968074955E+03  0.36856911896E+02 -0.90469800866E+02  0.17051691592E+03  0.46999998093E+01 0. -1.
</event>
<event>
 5   0  0.8291252E-03  0.9118858E+03  0.7818609E-02  0.9410844E-01
        1   -1    0    0  501    0  0.00000000000E+00  0.00000000000E+00  0.81023830778E+03  0.81023830779E+03  0.50400001928E-02 0.  1.
       -1   -1    0    0    0  501  0.00000000000E+00  0.00000000000E+00 -0.25657132230E+03  0.25657132235E+03  0.50400001928E-02 0. -1.
    10030    2    1    2    0    0  0.00000000000E+00  0.00000000000E+00  0.55366698548E+03  0.10668096301E+04  0.91188576924E+03 0.  0.
        1    1    3    3  502    0  0.36591028669E+03 -0.13401122700E+03 -0.99373046934E-01  0.38967853004E+03  0.50400001928E-02 0.  1.
       -1    1    3    3    0  502 -0.36591028669E+03  0.13401122700E+03  0.55376635853E+03  0.67713110011E+03  0.50400001928E-02 0. -1.
</event>
<event>
 5   0  0.5770125E-03  0.9125880E+03  0.7818609E-02  0.9409981E-01
       -3   -1    0    0    0  501  0.00000000000E+00  0.00000000000E+00  0.10080676028E+04  0.10080676078E+04  0.10100000352E+00 0. -1.
        3   -1    0    0  501    0  0.00000000000E+00  0.00000000000E+00 -0.20653791663E+03  0.20653794133E+03  0.10100000352E+00 0.  1.
    10030    2    1    2    0    0  0.00000000000E+00  0.00000000000E+00  0.80152968613E+03  0.12146055491E+04  0.91258796961E+03 0.  0.
        4    1    3    3  502    0  0.16755057809E+03 -0.24799517653E+03 -0.57644784635E+02  0.30479392694E+03  0.12699999809E+01 0.  1.
       -4    1    3    3    0  502 -0.16755057809E+03  0.24799517653E+03  0.85917447076E+03  0.90981162221E+03  0.12699999809E+01 0. -1.
</event>
<event>
 5   0  0.1535906E-02  0.8821827E+03  0.7818609E-02  0.9448132E-01
       -2   -1    0    0    0  501  0.00000000000E+00  0.00000000000E+00  0.15652069955E+03  0.15652069957E+03  0.25500000920E-02 0. -1.
        2   -1    0    0  501    0  0.00000000000E+00  0.00000000000E+00 -0.12430407015E+04  0.12430407015E+04  0.25500000920E-02 0.  1.
    10030    2    1    2    0    0  0.00000000000E+00  0.00000000000E+00 -0.10865200020E+04  0.13995614011E+04  0.88218274792E+03 0.  0.
        2    1    3    3  502    0  0.27517740741E+03  0.55360088663E+02 -0.34519047966E+01  0.28071205998E+03  0.25500000920E-02 0. -1.
       -2    1    3    3    0  502 -0.27517740741E+03 -0.55360088663E+02 -0.10830680972E+04  0.11188493411E+04  0.25500000920E-02 0.  1.
</event>
<event>
 5   0  0.8885324E-03  0.9020632E+03  0.7818609E-02  0.9423006E-01
       -1   -1    0    0    0  501  0.00000000000E+00  0.00000000000E+00  0.14685903736E+04  0.14685903736E+04  0.50400001928E-02 0.  1.
        1   -1    0    0  501    0  0.00000000000E+00  0.00000000000E+00 -0.13852025144E+03  0.13852025153E+03  0.50400001928E-02 0. -1.
    10030    2    1    2    0    0  0.00000000000E+00  0.00000000000E+00  0.13300701221E+04  0.16071106251E+04  0.90206320820E+03 0.  0.
        2    1    3    3  502    0  0.12791003051E+03 -0.37410994237E+03  0.10517283714E+04  0.11235888003E+04  0.25500000920E-02 0.  1.
       -2    1    3    3    0  502 -0.12791003051E+03  0.37410994237E+03  0.27834175069E+03  0.48352182481E+03  0.25500000920E-02 0. -1.
</event>
<event>
 5   0  0.1440615E-02  0.9100710E+03  0.7818609E-02  0.9413079E-01
        2   -1    0    0  501    0  0.00000000000E+00  0.00000000000E+00  0.18785287299E+04  0.18785287299E+04  0.25500000920E-02 0.  1.
       -2   -1    0    0    0  501  0.00000000000E+00  0.00000000000E+00 -0.11022312028E+03  0.11022312031E+03  0.25500000920E-02 0. -1.
    10030    2    1    2    0    0  0.00000000000E+00  0.00000000000E+00  0.17683056097E+04  0.19887518503E+04  0.91007098223E+03 0.  0.
        3    1    3    3  502    0  0.22017430174E+03  0.36951144747E+03  0.12085890753E+04  0.12828495610E+04  0.10100000352E+00 0.  1.
       -3    1    3    3    0  502 -0.22017430174E+03 -0.36951144747E+03  0.55971653434E+03  0.70590228925E+03  0.10100000352E+00 0. -1.
</event>
<event>
 5   0  0.1441195E-02  0.9002543E+03  0.7818609E-02  0.9425264E-01
       -2   -1    0    0    0  501  0.00000000000E+00  0.00000000000E+00  0.21778180173E+03  0.21778180175E+03  0.25500000920E-02 0. -1.
        2   -1    0    0  501    0  0.00000000000E+00  0.00000000000E+00 -0.93035528567E+03  0.93035528568E+03  0.25500000920E-02 0.  1.
    10030    2    1    2    0    0  0.00000000000E+00  0.00000000000E+00 -0.71257348394E+03  0.11481370874E+04  0.90025429824E+03 0.  0.
        5    1    3    3  502    0 -0.17755654769E+03 -0.33449213974E+03 -0.46030989076E+02  0.38151312052E+03  0.46999998093E+01 0. -1.
       -5    1    3    3    0  502  0.17755654769E+03  0.33449213974E+03 -0.66654249487E+03  0.76662396691E+03  0.46999998093E+01 0.  1.
</event>
<event>
 5   0  0.5770125E-03  0.8796694E+03  0.7818609E-02  0.9451359E-01
        3   -1    0    0  501    0  0.00000000000E+00  0.00000000000E+00  0.10027771856E+04  0.10027771907E+04  0.10100000352E+00 0.  1.
       -3   -1    0    0    0  501  0.00000000000E+00  0.00000000000E+00 -0.19291875265E+03  0.19291877909E+03  0.10100000352E+00 0. -1.
    10030    2    1    2    0    0  0.00000000000E+00  0.00000000000E+00  0.80985843294E+03  0.11956959698E+04  0.87966935306E+03 0.  0.
        4    1    3    3  502    0 -0.29767697470E+01  0.36133517421E+02  0.10007400985E+04  0.10013974485E+04  0.12699999809E+01 0.  1.
       -4    1    3    3    0  502  0.29767697470E+01 -0.36133517421E+02 -0.19088166553E+03  0.19429852129E+03  0.12699999809E+01 0. -1.
</event>
<event>
 5   0  0.8738044E-03  0.8988172E+03  0.7818609E-02  0.9427061E-01
        1   -1    0    0  501    0  0.00000000000E+00  0.00000000000E+00  0.38377594175E+03  0.38377594178E+03  0.50400001928E-02 0.  1.
       -1   -1    0    0    0  501  0.00000000000E+00  0.00000000000E+00 -0.52626567308E+03  0.52626567311E+03  0.50400001928E-02 0. -1.
    10030    2    1    2    0    0  0.00000000000E+00  0.00000000000E+00 -0.14248973133E+03  0.91004161489E+03  0.89881723242E+03 0.  0.
        3    1    3    3  502    0 -0.24967321629E+03 -0.23559739243E+03  0.22242071023E+03  0.40904013103E+03  0.10100000352E+00 0.  1.
       -3    1    3    3    0  502  0.24967321629E+03  0.23559739243E+03 -0.36491044157E+03  0.50100148385E+03  0.10100000352E+00 0. -1.
</event>
<event>
 5   0  0.8524692E-03  0.8889470E+03  0.7818609E-02  0.9439505E-01
        1   -1    0    0  501    0  0.00000000000E+00  0.00000000000E+00  0.27358676239E+03  0.27358676243E+03  0.50400001928E-02 0.  1.
       -1   -1    0    0    0  501  0.00000000000E+00  0.00000000000E+00 -0.72209889374E+03  0.72209889376E+03  0.50400001928E-02 0. -1.
    10030    2    1    2    0    0  0.00000000000E+00  0.00000000000E+00 -0.44851213135E+03  0.99568565619E+03  0.88894701416E+03 0.  0.
        5    1    3    3  502    0  0.26531602916E+03  0.57020253466E+02  0.16998851788E+03  0.32025316680E+03  0.46999998093E+01 0.  1.
       -5    1    3    3    0  502 -0.26531602916E+03 -0.57020253466E+02 -0.61850064923E+03  0.67543248940E+03  0.46999998093E+01 0. -1.
</event>
<event>
 5   0  0.1483326E-02  0.6798505E+03  0.7818609E-02  0.9752325E-01
       -2   -1    0    0    0  501  0.00000000000E+00  0.00000000000E+00  0.58768567323E+02  0.58768567378E+02  0.25500000920E-02 0.  1.
        2   -1    0    0  501    0  0.00000000000E+00  0.00000000000E+00 -0.19661729757E+04  0.19661729757E+04  0.25500000920E-02 0. -1.
    10030    2    1    2    0    0  0.00000000000E+00  0.00000000000E+00 -0.19074044084E+04  0.20249415431E+04  0.67985048047E+03 0.  0.
        1    1    3    3  502    0 -0.16863130913E+03  0.20395155489E+03 -0.15891547147E+04  0.16110386285E+04  0.50400001928E-02 0. -1.
       -1    1    3    3    0  502  0.16863130913E+03 -0.20395155489E+03 -0.31824969365E+03  0.41390291458E+03  0.50400001928E-02 0.  1.
</event>
<event>
 5   0  0.1454652E-02  0.9057637E+03  0.7818609E-02  0.9418405E-01
        2   -1    0    0  501    0  0.00000000000E+00  0.00000000000E+00  0.74487821447E+03  0.74487821447E+03  0.25500000920E-02 0.  1.
       -2   -1    0    0    0  501  0.00000000000E+00  0.00000000000E+00 -0.27534969680E+03  0.27534969681E+03  0.25500000920E-02 0. -1.
    10030    2    1    2    0    0  0.00000000000E+00  0.00000000000E+00  0.46952851767E+03  0.10202279113E+04  0.90576374517E+03 0.  0.
        4    1    3    3  502    0 -0.25156034523E+03 -0.13222616399E+03  0.63193499429E+03  0.69289957111E+03  0.12699999809E+01 0.  1.
       -4    1    3    3    0  502  0.25156034523E+03  0.13222616399E+03 -0.16240647663E+03  0.32732834018E+03  0.12699999809E+01 0. -1.
</event>
<event>
 5   0  0.5770125E-03  0.8007707E+03  0.7818609E-02  0.9558902E-01
        4   -1    0    0  501    0  0.00000000000E+00  0.00000000000E+00  0.12315411083E+04  0.12315417631E+04  0.12699999809E+01 0. -1.
       -4   -1    0    0    0  501  0.00000000000E+00  0.00000000000E+00 -0.13016517025E+03  0.13017136569E+03  0.12699999809E+01 0.  1.
    10030    2    1    2    0    0  0.00000000000E+00  0.00000000000E+00  0.11013759380E+04  0.13617131288E+04  0.80077068394E+03 0.  0.
        4    1    3    3  502    0  0.34944573632E+03 -0.36733106888E+02  0.22427476794E+03  0.41684820763E+03  0.12699999809E+01 0.  1.
       -4    1    3    3    0  502 -0.34944573632E+03  0.36733106888E+02  0.87710117008E+03  0.94486492116E+03  0.12699999809E+01 0. -1.
</event>
<event>
 5   0  0.8612969E-03  0.8975228E+03  0.7818609E-02  0.9428683E-01
       -1   -1    0    0    0  501  0.00000000000E+00  0.00000000000E+00  0.14171791216E+03  0.14171791225E+03  0.50400001928E-02 0.  1.
        1   -1    0    0  501    0  0.00000000000E+00  0.00000000000E+00 -0.14210396880E+04  0.14210396881E+04  0.50400001928E-02 0. -1.
    10030    2    1    2    0    0  0.00000000000E+00  0.00000000000E+00 -0.12793217759E+04  0.15627576003E+04  0.89752276352E+03 0.  0.
        4    1    3    3  502    0  0.13697010047E+02  0.28784104509E+03 -0.12386532282E+04  0.12717324828E+04  0.12699999809E+01 0. -1.
       -4    1    3    3    0  502 -0.13697010047E+02 -0.28784104509E+03 -0.40668547715E+02  0.29102511747E+03  0.12699999809E+01 0.  1.
</event>
<event>
 5   0  0.1440615E-02  0.8895600E+03  0.7818609E-02  0.9438727E-01
       -2   -1    0    0    0  501  0.00000000000E+00  0.00000000000E+00  0.19920491149E+03  0.19920491151E+03  0.25500000920E-02 0. -1.
        2   -1    0    0  501    0  0.00000000000E+00  0.00000000000E+00 -0.99309429419E+03  0.99309429419E+03  0.25500000920E-02 0.  1.
    10030    2    1    2    0    0  0.00000000000E+00  0.00000000000E+00 -0.79388938270E+03  0.11922992057E+04  0.88956002831E+03 0.  0.
        3    1    3    3  502    0  0.33109907422E+03 -0.64211084977E+02 -0.82977194226E+01  0.33737000864E+03  0.10100000352E+00 0. -1.
       -3    1    3    3    0  502 -0.33109907422E+03  0.64211084977E+02 -0.78559166327E+03  0.85492919706E+03  0.10100000352E+00 0.  1.
</event>
<event>
 5   0  0.8291252E-03  0.6501785E+03  0.7818609E-02  0.9806444E-01
       -1   -1    0    0    0  501  0.00000000000E+00  0.00000000000E+00  0.24487295784E+03  0.24487295790E+03  0.50400001928E-02 0. -1.
        1   -1    0    0  501    0  0.00000000000E+00  0.00000000000E+00 -0.43158302893E+03  0.43158302896E+03  0.50400001928E-02 0.  1.
    10030    2    1    2    0    0  0.00000000000E+00  0.00000000000E+00 -0.18671007109E+03  0.67645598686E+03  0.65017847666E+03 0.  0.
        1    1    3    3  502    0 -0.22549456485E+03 -0.50954865351E+02 -0.33115052782E+03  0.40386243843E+03  0.50400001928E-02 0.  1.
       -1    1    3    3    0  502  0.22549456485E+03  0.50954865351E+02  0.14444045673E+03  0.27259354843E+03  0.50400001928E-02 0. -1.
</event>
<event>
 5   0  0.1441195E-02  0.8786861E+03  0.7818609E-02  0.9452624E-01
       -2   -1    0    0    0  501  0.00000000000E+00  0.00000000000E+00  0.27968437833E+03  0.27968437834E+03  0.25500000920E-02 0.  1.
        2   -1    0    0  501    0  0.00000000000E+00  0.00000000000E+00 -0.69014329513E+03  0.69014329514E+03  0.25500000920E-02 0. -1.
    10030    2    1    2    0    0  0.00000000000E+00  0.00000000000E+00 -0.41045891680E+03  0.96982767347E+03  0.87868606103E+03 0.  0.
        5    1    3    3  502    0 -0.29344190604E+03 -0.10321962447E+03  0.13717041886E+03  0.34000037780E+03  0.46999998093E+01 0.  1.
       -5    1    3    3    0  502  0.29344190604E+03  0.10321962447E+03 -0.54762933566E+03  0.62982729567E+03  0.46999998093E+01 0. -1.
</event>
<event>
 5   0  0.8885324E-03  0.8852039E+03  0.7818609E-02  0.9444269E-01
       -1   -1    0    0    0  501  0.00000000000E+00  0.00000000000E+00  0.72052672673E+03  0.72052672675E+03  0.50400001928E-02 0. -1.
        1   -1    0    0  501    0  0.00000000000E+00  0.00000000000E+00 -0.27187958322E+03  0.27187958327E+03  0.50400001928E-02 0.  1.
    10030    2    1    2    0    0  0.00000000000E+00  0.00000000000E+00  0.44864714351E+03  0.99240631002E+03  0.88520394530E+03 0.  0.
        2    1    3    3  502    0  0.22882287588E+03 -0.25977519861E+03  0.53349946085E+03  0.63597542176E+03  0.25500000920E-02 0. -1.
       -2    1    3    3    0  502 -0.22882287588E+03  0.25977519861E+03 -0.84852317338E+02  0.35643088826E+03  0.25500000920E-02 0.  1.
</event>
<event>
 5   0  0.1483326E-02  0.9057709E+03  0.7818609E-02  0.9418396E-01
       -2   -1    0    0    0  501  0.00000000000E+00  0.00000000000E+00  0.11830627485E+03  0.11830627488E+03  0.25500000920E-02 0.  1.
        2   -1    0    0  501    0  0.00000000000E+00  0.00000000000E+00 -0.17336800087E+04  0.17336800087E+04  0.25500000920E-02 0. -1.
    10030    2    1    2    0    0  0.00000000000E+00  0.00000000000E+00 -0.16153737339E+04  0.18519862836E+04  0.90577088416E+03 0.  0.
        1    1    3    3  502    0  0.69067055490E+02 -0.34180835224E+03 -0.13985241461E+04  0.14413441626E+04  0.50400001928E-02 0. -1.
       -1    1    3    3    0  502 -0.69067055490E+02  0.34180835224E+03 -0.21684958782E+03  0.41064212105E+03  0.50400001928E-02 0.  1.
</event>
<event>
 5   0  0.1535906E-02  0.9152722E+03  0.7818609E-02  0.9406689E-01
        2   -1    0    0  501    0  0.00000000000E+00  0.00000000000E+00  0.39063173496E+03  0.39063173497E+03  0.25500000920E-02 0.  1.
       -2   -1    0    0    0  501  0.00000000000E+00  0.00000000000E+00 -0.53613359569E+03  0.53613359570E+03  0.25500000920E-02 0. -1.
    10030    2    1    2    0    0  0.00000000000E+00  0.00000000000E+00 -0.14550186073E+03  0.92676533066E+03  0.91527219265E+03 0.  0.
        2    1    3    3  502    0  0.23187393603E+03  0.37612848544E+03 -0.19337974399E+03  0.48232135052E+03  0.25500000920E-02 0. -1.
       -2    1    3    3    0  502 -0.23187393603E+03 -0.37612848544E+03  0.47877883259E+02  0.44444398014E+03  0.25500000920E-02 0.  1.
</event>
<event>
 5   0  0.8524692E-03  0.9141387E+03  0.7818609E-02  0.9408078E-01
       -1   -1    0    0    0  501  0.00000000000E+00  0.00000000000E+00  0.36912229927E+03  0.36912229931E+03  0.50400001928E-02 0.  1.
        1   -1    0    0  501    0  0.00000000000E+00  0.00000000000E+00 -0.56597063209E+03  0.56597063211E+03  0.50400001928E-02 0. -1.
    10030    2    1    2    0    0  0.00000000000E+00  0.00000000000E+00 -0.19684833281E+03  0.93509293142E+03  0.91413867890E+03 0.  0.
        5    1    3    3  502    0 -0.22647370165E+03  0.21340266213E+03  0.24400169651E+03  0.39546169428E+03  0.46999998093E+01 0.  1.
       -5    1    3    3    0  502  0.22647370165E+03 -0.21340266213E+03 -0.44085002932E+03  0.53963123714E+03  0.46999998093E+01 0. -1.
</event>
<event>
 5   0  0.8612969E-03  0.8986010E+03  0.7818609E-02  0.9427332E-01
        1   -1    0    0  501    0  0.00000000000E+00  0.00000000000E+00  0.34246331107E+03  0.34246331111E+03  0.50400001928E-02 0. -1.
       -1   -1    0    0    0  501  0.00000000000E+00  0.00000000000E+00 -0.58946737797E+03  0.58946737799E+03  0.50400001928E-02 0.  1.
    10030    2    1    2    0    0  0.00000000000E+00  0.00000000000E+00 -0.24700406689E+03  0.93193068910E+03  0.89860102394E+03 0.  0.
        4    1    3    3  502    0 -0.33793925733E+03 -0.27672145032E+03 -0.23272512834E+03  0.49491443803E+03  0.12699999809E+01 0.  1.
       -4    1    3    3    0  502  0.33793925733E+03  0.27672145032E+03 -0.14278938555E+02  0.43701625107E+03  0.12699999809E+01 0. -1.
</event>
<event>
 5   0  0.5770125E-03  0.8890179E+03  0.7818609E-02  0.9439415E-01
        3   -1    0    0  501    0  0.00000000000E+00  0.00000000000E+00  0.19670111510E+04  0.19670111536E+04  0.10100000352E+00 0.  1.
       -3   -1    0    0    0  501  0.00000000000E+00  0.00000000000E+00 -0.10045095588E+03  0.10045100666E+03  0.10100000352E+00 0. -1.
    10030    2    1    2    0    0  0.00000000000E+00  0.00000000000E+00  0.18665601951E+04  0.20674621602E+04  0.88901789749E+03 0.  0.
        4    1    3    3  502    0  0.97977589135E+02  0.57211325887E+02  0.19327662794E+04  0.19360939666E+04  0.12699999809E+01 0.  1.
       -4    1    3    3    0  502 -0.97977589135E+02 -0.57211325887E+02 -0.66206084349E+02  0.13136819359E+03  0.12699999809E+01 0. -1.
</event>
<event>
 5   0  0.1454652E-02  0.9082778E+03  0.7818609E-02  0.9415293E-01
        2   -1    0    0  501    0  0.00000000000E+00  0.00000000000E+00  0.14062490459E+03  0.14062490462E+03  0.25500000920E-02 0.  1.
       -2   -1    0    0    0  501  0.00000000000E+00  0.00000000000E+00 -0.14666117114E+04  0.14666117114E+04  0.25500000920E-02 0. -1.
    10030    2    1    2    0    0  0.00000000000E+00  0.00000000000E+00 -0.13259868068E+04  0.16072366161E+04  0.90827778134E+03 0.  0.
        4    1    3    3  502    0  0.43046830087E+03 -0.80814754675E+02 -0.87538675556E+03  0.97884501702E+03  0.12699999809E+01 0.  1.
       -4    1    3    3    0  502 -0.43046830087E+03  0.80814754675E+02 -0.45060005128E+03  0.62839159903E+03  0.12699999809E+01 0. -1.
</event>
<event>
 5   0  0.1441195E-02  0.9125112E+03  0.7818609E-02  0.9410076E-01
       -2   -1    0    0    0  501  0.00000000000E+00  0.00000000000E+00  0.21254085766E+03  0.21254085767E+03  0.25500000920E-02 0. -1.
        2   -1    0    0  501    0  0.00000000000E+00  0.00000000000E+00 -0.97943138686E+03  0.97943138686E+03  0.25500000920E-02 0.  1.
    10030    2    1    2    0    0  0.00000000000E+00  0.00000000000E+00 -0.76689052920E+03  0.11919722445E+04  0.91251123169E+03 0.  0.
        5    1    3    3  502    0 -0.23355517965E+03 -0.16089636198E+01 -0.89538467569E+03  0.92535745427E+03  0.46999998093E+01 0.  1.
       -5    1    3    3    0  502  0.23355517965E+03  0.16089636198E+01  0.12849414649E+03  0.26661479026E+03  0.46999998093E+01 0. -1.
</event>
<event>
 5   0  0.8612969E-03  0.8796203E+03  0.7818609E-02  0.9451422E-01
        1   -1    0    0  501    0  0.00000000000E+00  0.00000000000E+00  0.38525049456E+03  0.38525049460E+03  0.50400001928E-02 0.  1.
       -1   -1    0    0    0  501  0.00000000000E+00  0.00000000000E+00 -0.50209659104E+03  0.50209659107E+03  0.50400001928E-02 0. -1.
    10030    2    1    2    0    0  0.00000000000E+00  0.00000000000E+00 -0.11684609648E+03  0.88734708567E+03  0.87962028181E+03 0.  0.
        4    1    3    3  502    0  0.40488879377E+03  0.13616248445E+03 -0.16401433042E+03  0.45757783051E+03  0.12699999809E+01 0.  1.
       -4    1    3    3    0  502 -0.40488879377E+03 -0.13616248445E+03  0.47168233937E+02  0.42976925516E+03  0.12699999809E+01 0. -1.
</event>
<event>
 5   0  0.1454652E-02  0.8747460E+03  0.7818609E-02  0.9457713E-01
       -2   -1    0    0    0  501  0.00000000000E+00  0.00000000000E+00  0.20565380543E+03  0.20565380545E+03  0.25500000920E-02 0. -1.
        2   -1    0    0  501    0  0.00000000000E+00  0.00000000000E+00 -0.93018051592E+03  0.93018051592E+03  0.25500000920E-02 0.  1.
    10030    2    1    2    0    0  0.00000000000E+00  0.00000000000E+00 -0.72452671049E+03  0.11358343214E+04  0.87474604965E+03 0.  0.
        4    1    3    3  502    0  0.36376046031E+01 -0.28795956641E+03 -0.78969503369E+03  0.84056754826E+03  0.12699999809E+01 0.  1.
       -4    1    3    3    0  502 -0.36376046031E+01  0.28795956641E+03  0.65168323198E+02  0.29526677311E+03  0.12699999809E+01 0. -1.
</event>
<event>
 5   0  0.5770125E-03  0.9131185E+03  0.7818609E-02  0.9409330E-01
       -3   -1    0    0    0  501  0.00000000000E+00  0.00000000000E+00  0.17069899512E+03  0.17069902500E+03  0.10100000352E+00 0. -1.
        3   -1    0    0  501    0  0.00000000000E+00  0.00000000000E+00 -0.12211340018E+04  0.12211340059E+04  0.10100000352E+00 0.  1.
    10030    2    1    2    0    0  0.00000000000E+00  0.00000000000E+00 -0.10504350066E+04  0.13918330309E+04  0.91311854806E+03 0.  0.
        2    1    3    3  502    0 -0.32351763802E+03  0.23686522339E+03 -0.19239165229E+03  0.44472839357E+03  0.25500000920E-02 0.  1.
       -2    1    3    3    0  502  0.32351763802E+03 -0.23686522339E+03 -0.85804335435E+03  0.94710463737E+03  0.25500000920E-02 0. -1.
</event>
<event>
 5   0  0.8738044E-03  0.8989891E+03  0.7818609E-02  0.9426846E-01
        1   -1    0    0  501    0  0.00000000000E+00  0.00000000000E+00  0.10593392469E+04  0.10593392469E+04  0.50400001928E-02 0. -1.
       -1   -1    0    0    0  501  0.00000000000E+00  0.00000000000E+00 -0.19072769236E+03  0.19072769243E+03  0.50400001928E-02 0.  1.
    10030    2    1    2    0    0  0.00000000000E+00  0.00000000000E+00  0.86861155451E+03  0.12500669393E+04  0.89898905452E+03 0.  0.
        3    1    3    3  502    0  0.15094517397E+03 -0.37665715869E+03  0.70318553162E+03  0.81186511368E+03  0.10100000352E+00 0. -1.
       -3    1    3    3    0  502 -0.15094517397E+03  0.37665715869E+03  0.16542602290E+03  0.43820182564E+03  0.10100000352E+00 0.  1.
</event>
<event>
 5   0  0.8885324E-03  0.9485423E+03  0.7818609E-02  0.9366856E-01
       -1   -1    0    0    0  501  0.00000000000E+00  0.00000000000E+00  0.54966363041E+03  0.54966363043E+03  0.50400001928E-02 0. -1.
        1   -1    0    0  501    0  0.00000000000E+00  0.00000000000E+00 -0.40921960230E+03  0.40921960233E+03  0.50400001928E-02 0.  1.
    10030    2    1    2    0    0  0.00000000000E+00  0.00000000000E+00  0.14044402811E+03  0.95888323276E+03  0.94854231800E+03 0.  0.
        2    1    3    3  502    0  0.34299312594E+03  0.22806893331E+03 -0.16744403169E+03  0.44463156269E+03  0.25500000920E-02 0.  1.
       -2    1    3    3    0  502 -0.34299312594E+03 -0.22806893331E+03  0.30788805980E+03  0.51425167006E+03  0.25500000920E-02 0. -1.
</event>
<event>
 5   0  0.8885324E-03  0.8879479E+03  0.7818609E-02  0.9440774E-01
       -1   -1    0    0    0  501  0.00000000000E+00  0.00000000000E+00  0.81395154936E+02  0.81395155092E+02  0.50400001928E-02 0.  1.
        1   -1    0    0  501    0  0.00000000000E+00  0.00000000000E+00 -0.24216781439E+04  0.24216781439E+04  0.50400001928E-02 0. -1.
    10030    2    1    2    0    0  0.00000000000E+00  0.00000000000E+00 -0.23402829889E+04  0.25030732990E+04  0.88794789921E+03 0.  0.
        2    1    3    3  502    0 -0.23279520758E+03  0.35046069541E+03 -0.15697612482E+04  0.16251666635E+04  0.25500000920E-02 0. -1.
       -2    1    3    3    0  502  0.23279520758E+03 -0.35046069541E+03 -0.77052174076E+03  0.87790663552E+03  0.25500000920E-02 0.  1.
</event>
<event>
 5   0  0.8291252E-03  0.9005127E+03  0.7818609E-02  0.9424941E-01
       -1   -1    0    0    0  501  0.00000000000E+00  0.00000000000E+00  0.65048043331E+03  0.65048043333E+03  0.50400001928E-02 0.  1.
        1   -1    0    0  501    0  0.00000000000E+00  0.00000000000E+00 -0.31166313803E+03  0.31166313807E+03  0.50400001928E-02 0. -1.
    10030    2    1    2    0    0  0.00000000000E+00  0.00000000000E+00  0.33881729528E+03  0.96214357140E+03  0.90051268309E+03 0.  0.
        1    1    3    3  502    0 -0.28326454719E+03  0.33200672011E+03  0.28772843855E+03  0.52273790781E+03  0.50400001928E-02 0.  1.
       -1    1    3    3    0  502  0.28326454719E+03 -0.33200672011E+03  0.51088856733E+02  0.43940566359E+03  0.50400001928E-02 0. -1.
</event>
<event>
 5   0  0.8524692E-03  0.9209716E+03  0.7818609E-02  0.9399739E-01
        1   -1    0    0  501    0  0.00000000000E+00  0.00000000000E+00  0.96068924005E+03  0.96068924006E+03  0.50400001928E-02 0. -1.
       -1   -1    0    0    0  501  0.00000000000E+00  0.00000000000E+00 -0.22072398225E+03  0.22072398231E+03  0.50400001928E-02 0.  1.
    10030    2    1    2    0    0  0.00000000000E+00  0.00000000000E+00  0.73996525780E+03  0.11814132224E+04  0.92097156266E+03 0.  0.
        5    1    3    3  502    0 -0.19284975217E+02  0.44534306995E+03  0.22191783523E+03  0.49796784617E+03  0.46999998093E+01 0. -1.
       -5    1    3    3    0  502  0.19284975217E+02 -0.44534306995E+03  0.51804742256E+03  0.68344537620E+03  0.46999998093E+01 0.  1.
</event>
<event>
 5   0  0.8885324E-03  0.8828103E+03  0.7818609E-02  0.9447328E-01
       -1   -1    0    0    0  501  0.00000000000E+00  0.00000000000E+00  0.45562579650E+03  0.45562579652E+03  0.50400001928E-02 0.  1.
        1   -1    0    0  501    0  0.00000000000E+00  0.00000000000E+00 -0.42762831130E+03  0.42762831133E+03  0.50400001928E-02 0. -1.
    10030    2    1    2    0    0  0.00000000000E+00  0.00000000000E+00  0.27997485196E+02  0.88325410786E+03  0.88281026266E+03 0.  0.
        2    1    3    3  502    0  0.35768522288E+03 -0.48720564150E+02  0.26814629227E+03  0.44968305072E+03  0.25500000920E-02 0.  1.
       -2    1    3    3    0  502 -0.35768522288E+03  0.48720564150E+02 -0.24014880708E+03  0.43357105714E+03  0.25500000920E-02 0. -1.
</event>
<event>
 5   0  0.1454652E-02  0.8934781E+03  0.7818609E-02  0.9433771E-01
        2   -1    0    0  501    0  0.00000000000E+00  0.00000000000E+00  0.61947420255E+03  0.61947420255E+03  0.25500000920E-02 0.  1.
       -2   -1    0    0    0  501  0.00000000000E+00  0.00000000000E+00 -0.32216966340E+03  0.32216966341E+03  0.25500000920E-02 0. -1.
    10030    2    1    2    0    0  0.00000000000E+00  0.00000000000E+00  0.29730453915E+03  0.94164386596E+03  0.89347813700E+03 0.  0.
        4    1    3    3  502    0 -0.36991678910E+03 -0.15711505052E+03  0.35423355514E+03  0.53572996411E+03  0.12699999809E+01 0.  1.
       -4    1    3    3    0  502  0.36991678910E+03  0.15711505052E+03 -0.56929015990E+02  0.40591390185E+03  0.12699999809E+01 0. -1.
</event>
<event>
 5   0  0.1454652E-02  0.8960347E+03  0.7818609E-02  0.9430552E-01
       -2   -1    0    0    0  501  0.00000000000E+00  0.00000000000E+00  0.90565630255E+02  0.90565630291E+02  0.25500000920E-02 0.  1.
        2   -1    0    0  501    0  0.00000000000E+00  0.00000000000E+00 -0.22162884483E+04  0.22162884484E+04  0.25500000920E-02 0. -1.
    10030    2    1    2    0    0  0.00000000000E+00  0.00000000000E+00 -0.21257228181E+04  0.23068540786E+04  0.89603473190E+03 0.  0.
        4    1    3    3  502    0  0.17062707449E+03  0.19364995301E+02 -0.21281919520E+04  0.21351091774E+04  0.12699999809E+01 0. -1.
       -4    1    3    3    0  502 -0.17062707449E+03 -0.19364995301E+02  0.24691339530E+01  0.17174490128E+03  0.12699999809E+01 0.  1.
</event>
<event>
 5   0  0.1483326E-02  0.9152838E+03  0.7818609E-02  0.9406675E-01
       -2   -1    0    0    0  501  0.00000000000E+00  0.00000000000E+00  0.28273069551E+03  0.28273069552E+03  0.25500000920E-02 0.  1.
        2   -1    0    0  501    0  0.00000000000E+00  0.00000000000E+00 -0.74076177228E+03  0.74076177229E+03  0.25500000920E-02 0. -1.
    10030    2    1    2    0    0  0.00000000000E+00  0.00000000000E+00 -0.45803107678E+03  0.10234924678E+04  0.91528376166E+03 0.  0.
        1    1    3    3  502    0 -0.10671933631E+03  0.40615991078E+03 -0.25630253200E+02  0.42072770264E+03  0.50400001928E-02 0.  1.
       -1    1    3    3    0  502  0.10671933631E+03 -0.40615991078E+03 -0.43240082358E+03  0.60276476516E+03  0.50400001928E-02 0. -1.
</event>
<event>
 5   0  0.8612969E-03  0.9006996E+03  0.7818609E-02  0.9424707E-01
       -1   -1    0    0    0  501  0.00000000000E+00  0.00000000000E+00  0.14913299406E+04  0.14913299406E+04  0.50400001928E-02 0.  1.
        1   -1    0    0  501    0  0.00000000000E+00  0.00000000000E+00 -0.13599602466E+03  0.13599602475E+03  0.50400001928E-02 0. -1.
    10030    2    1    2    0    0  0.00000000000E+00  0.00000000000E+00  0.13553339159E+04  0.16273259653E+04  0.90069960244E+03 0.  0.
        4    1    3    3  502    0 -0.14839805829E+03 -0.32237452786E+03  0.17675459128E+03  0.39647335138E+03  0.12699999809E+01 0. -1.
       -4    1    3    3    0  502  0.14839805829E+03  0.32237452786E+03  0.11785793246E+04  0.12308526140E+04  0.12699999809E+01 0.  1.
</event>
<event>
 5   0  0.8612969E-03  0.9115145E+03  0.7818609E-02  0.9411301E-01
        1   -1    0    0  501    0  0.00000000000E+00  0.00000000000E+00  0.12135782969E+04  0.12135782969E+04  0.50400001928E-02 0. -1.
       -1   -1    0    0    0  501  0.00000000000E+00  0.00000000000E+00 -0.17115886218E+03  0.17115886225E+03  0.50400001928E-02 0.  1.
    10030    2    1    2    0    0  0.00000000000E+00  0.00000000000E+00  0.10424194347E+04  0.13847371591E+04  0.91151452103E+03 0.  0.
        4    1    3    3  502    0  0.61774045597E+02 -0.10359237224E+03 -0.14647081064E+03  0.18974383670E+03  0.12699999809E+01 0.  1.
       -4    1    3    3    0  502 -0.61774045597E+02  0.10359237224E+03  0.11888902453E+04  0.11949933224E+04  0.12699999809E+01 0. -1.
</event>
<event>
 5   0  0.1441195E-02  0.9092470E+03  0.7818609E-02  0.9414095E-01
        2   -1    0    0  501    0  0.00000000000E+00  0.00000000000E+00  0.95146046542E+03  0.95146046543E+03  0.25500000920E-02 0.  1.
       -2   -1    0    0    0  501  0.00000000000E+00  0.00000000000E+00 -0.21722661004E+03  0.21722661006E+03  0.25500000920E-02 0. -1.
    10030    2    1    2    0    0  0.00000000000E+00  0.00000000000E+00  0.73423385538E+03  0.11686870755E+04  0.90924701045E+03 0.  0.
        5    1    3    3  502    0  0.36876894231E+03 -0.24048036045E+03  0.22147590040E+03  0.49284378968E+03  0.46999998093E+01 0. -1.
       -5    1    3    3    0  502 -0.36876894231E+03  0.24048036045E+03  0.51275795498E+03  0.67584328580E+03  0.46999998093E+01 0.  1.
</event>
<event>
 5   0  0.8524692E-03  0.9047853E+03  0.7818609E-02  0.9419619E-01
        1   -1    0    0  501    0  0.00000000000E+00  0.00000000000E+00  0.16321989516E+04  0.16321989516E+04  0.50400001928E-02 0. -1.
       -1   -1    0    0    0  501  0.00000000000E+00  0.00000000000E+00 -0.12538858701E+03  0.12538858711E+03  0.50400001928E-02 0.  1.
    10030    2    1    2    0    0  0.00000000000E+00  0.00000000000E+00  0.15068103646E+04  0.17575875387E+04  0.90478532337E+03 0.  0.
        5    1    3    3  502    0 -0.98853205169E+02 -0.41880378927E+03  0.48236279106E+03  0.64642441343E+03  0.46999998093E+01 0.  1.
       -5    1    3    3    0  502  0.98853205169E+02  0.41880378927E+03  0.10244475735E+04  0.11111631253E+04  0.46999998093E+01 0. -1.
</event>
<event>
 5   0  0.8524692E-03  0.8945824E+03  0.7818609E-02  0.9432379E-01
       -1   -1    0    0    0  501  0.00000000000E+00  0.00000000000E+00  0.10049366564E+03  0.10049366577E+03  0.50400001928E-02 0. -1.
        1   -1    0    0  501    0  0.00000000000E+00  0.00000000000E+00 -0.19908661675E+04  0.19908661675E+04  0.50400001928E-02 0.  1.
    10030    2    1    2    0    0  0.00000000000E+00  0.00000000000E+00 -0.18903725019E+04  0.20913598333E+04  0.89458244810E+03 0.  0.
        5    1    3    3  502    0  0.34124589988E+03  0.19420952374E+03 -0.44443044813E+03  0.59304857855E+03  0.46999998093E+01 0. -1.
       -5    1    3    3    0  502 -0.34124589988E+03 -0.19420952374E+03 -0.14459420538E+04  0.14983112548E+04  0.46999998093E+01 0.  1.
</event>
<event>
 5   0  0.1535906E-02  0.8947562E+03  0.7818609E-02  0.9432160E-01
       -2   -1    0    0    0  501  0.00000000000E+00  0.00000000000E+00  0.65017297445E+03  0.65017297445E+03  0.25500000920E-02 0.  1.
        2   -1    0    0  501    0  0.00000000000E+00  0.00000000000E+00 -0.30783679729E+03  0.30783679731E+03  0.25500000920E-02 0. -1.
    10030    2    1    2    0    0  0.00000000000E+00  0.00000000000E+00  0.34233617715E+03  0.95800977176E+03  0.89475620400E+03 0.  0.
        2    1    3    3  502    0  0.95667311187E+02 -0.18083231758E+03 -0.25482080552E+03  0.32678158523E+03  0.25500000920E-02 0. -1.
       -2    1    3    3    0  502 -0.95667311187E+02  0.18083231758E+03  0.59715698267E+03  0.63122818653E+03  0.25500000920E-02 0.  1.
</event>
<event>
 5   0  0.8738044E-03  0.9533858E+03  0.7818609E-02  0.9361202E-01
        1   -1    0    0  501    0  0.00000000000E+00  0.00000000000E+00  0.14305375647E+03  0.14305375656E+03  0.50400001928E-02 0. -1.
       -1   -1    0    0    0  501  0.00000000000E+00  0.00000000000E+00 -0.15884665564E+04  0.15884665564E+04  0.50400001928E-02 0.  1.
    10030    2    1    2    0    0  0.00000000000E+00  0.00000000000E+00 -0.14454127999E+04  0.17315203130E+04  0.95338577295E+03 0.  0.
        3    1    3    3  502    0 -0.93176635910E+02  0.15911559310E+03 -0.15210749826E+04  0.15322104198E+04  0.10100000352E+00 0.  1.
       -3    1    3    3    0  502  0.93176635910E+02 -0.15911559310E+03  0.75662182688E+02  0.19930989322E+03  0.10100000352E+00 0. -1.
</event>
<event>
 5   0  0.1440615E-02  0.9218425E+03  0.7818609E-02  0.9398682E-01
        2   -1    0    0  501    0  0.00000000000E+00  0.00000000000E+00  0.11904401789E+04  0.11904401789E+04  0.25500000920E-02 0.  1.
       -2   -1    0    0    0  501  0.00000000000E+00  0.00000000000E+00 -0.17846206750E+03  0.17846206752E+03  0.25500000920E-02 0. -1.
    10030    2    1    2    0    0  0.00000000000E+00  0.00000000000E+00  0.10119781114E+04  0.13689022465E+04  0.92184253664E+03 0.  0.
        3    1    3    3  502    0  0.48159345263E+02  0.87017965081E+01  0.11865711367E+04  0.11875799410E+04  0.10100000352E+00 0.  1.
       -3    1    3    3    0  502 -0.48159345263E+02 -0.87017965081E+01 -0.17459302521E+03  0.18132230544E+03  0.10100000352E+00 0. -1.
</event>
<event>
 5   0  0.5770125E-03  0.9041107E+03  0.7818609E-02  0.9420457E-01
       -3   -1    0    0    0  501  0.00000000000E+00  0.00000000000E+00  0.17905719898E+03  0.17905722747E+03  0.10100000352E+00 0. -1.
        3   -1    0    0  501    0  0.00000000000E+00  0.00000000000E+00 -0.11412779273E+04  0.11412779318E+04  0.10100000352E+00 0.  1.
    10030    2    1    2    0    0  0.00000000000E+00  0.00000000000E+00 -0.96222072835E+03  0.13203351593E+04  0.90411072482E+03 0.  0.
        4    1    3    3  502    0 -0.64789891462E+02  0.11407913026E+02 -0.11342472889E+04  0.11361542130E+04  0.12699999809E+01 0.  1.
       -4    1    3    3    0  502  0.64789891462E+02 -0.11407913026E+02  0.17202656056E+03  0.18418094623E+03  0.12699999809E+01 0. -1.
</event>
<event>
 5   0  0.1454652E-02  0.9192951E+03  0.7818609E-02  0.9401778E-01
        2   -1    0    0  501    0  0.00000000000E+00  0.00000000000E+00  0.77750846125E+03  0.77750846126E+03  0.25500000920E-02 0.  1.
       -2   -1    0    0    0  501  0.00000000000E+00  0.00000000000E+00 -0.27173451931E+03  0.27173451932E+03  0.25500000920E-02 0. -1.
    10030    2    1    2    0    0  0.00000000000E+00  0.00000000000E+00  0.50577394194E+03  0.10492429806E+04  0.91929513865E+03 0.  0.
        4    1    3    3  502    0  0.43427474617E+03  0.13910333023E+03  0.31875006762E+03  0.55636994002E+03  0.12699999809E+01 0.  1.
       -4    1    3    3    0  502 -0.43427474617E+03 -0.13910333023E+03  0.18702387432E+03  0.49287304056E+03  0.12699999809E+01 0. -1.
</event>
<event>
 5   0  0.1454652E-02  0.8993168E+03  0.7818609E-02  0.9426436E-01
        2   -1    0    0  501    0  0.00000000000E+00  0.00000000000E+00  0.12400381199E+04  0.12400381199E+04  0.25500000920E-02 0.  1.
       -2   -1    0    0    0  501  0.00000000000E+00  0.00000000000E+00 -0.16305358966E+03  0.16305358968E+03  0.25500000920E-02 0. -1.
    10030    2    1    2    0    0  0.00000000000E+00  0.00000000000E+00  0.10769845303E+04  0.14030917096E+04  0.89931677797E+03 0.  0.
        4    1    3    3  502    0  0.21530951206E+03  0.24335206022E+03  0.53549657346E+02  0.32931381674E+03  0.12699999809E+01 0. -1.
       -4    1    3    3    0  502 -0.21530951206E+03 -0.24335206022E+03  0.10234348729E+04  0.10737778929E+04  0.12699999809E+01 0.  1.
</event>
<event>
 5   0  0.8885324E-03  0.9064241E+03  0.7818609E-02  0.9417586E-01
        1   -1    0    0  501    0  0.00000000000E+00  0.00000000000E+00  0.10417772834E+04  0.10417772834E+04  0.50400001928E-02 0. -1.
       -1   -1    0    0    0  501  0.00000000000E+00  0.00000000000E+00 -0.19716419516E+03  0.19716419522E+03  0.50400001928E-02 0.  1.
    10030    2    1    2    0    0  0.00000000000E+00  0.00000000000E+00  0.84461308822E+03  0.12389414786E+04  0.90642413837E+03 0.  0.
        2    1    3    3  502    0 -0.95934229273E+02 -0.44028467695E+03  0.35608565848E+03  0.57432653542E+03  0.25500000920E-02 0.  1.
       -2    1    3    3    0  502  0.95934229273E+02  0.44028467695E+03  0.48852742974E+03  0.66461494319E+03  0.25500000920E-02 0. -1.
</event>
<event>
 5   0  0.1483326E-02  0.8844083E+03  0.7818609E-02  0.9445284E-01
        2   -1    0    0  501    0  0.00000000000E+00  0.00000000000E+00  0.49412124358E+03  0.49412124359E+03  0.25500000920E-02 0.  1.
       -2   -1    0    0    0  501  0.00000000000E+00  0.00000000000E+00 -0.39574192806E+03  0.39574192807E+03  0.25500000920E-02 0. -1.
    10030    2    1    2    0    0  0.00000000000E+00  0.00000000000E+00  0.98379315522E+02  0.88986317166E+03  0.88440826237E+03 0.  0.
        1    1    3    3  502    0 -0.23201240065E+03 -0.35551802467E+03  0.17373386898E+03  0.45870064004E+03  0.50400001928E-02 0.  1.
       -1    1    3    3    0  502  0.23201240065E+03  0.35551802467E+03 -0.75354553462E+02  0.43116253162E+03  0.50400001928E-02 0. -1.
</event>
<event>
 5   0  0.8291252E-03  0.9163811E+03  0.7818609E-02  0.9405333E-01
        1   -1    0    0  501    0  0.00000000000E+00  0.00000000000E+00  0.69655877953E+03  0.69655877955E+03  0.50400001928E-02 0. -1.
       -1   -1    0    0    0  501  0.00000000000E+00  0.00000000000E+00 -0.30139393187E+03  0.30139393191E+03  0.50400001928E-02 0.  1.
    10030    2    1    2    0    0  0.00000000000E+00  0.00000000000E+00  0.39516484766E+03  0.99795271146E+03  0.91638112021E+03 0.  0.
        1    1    3    3  502    0 -0.21194203631E+03  0.37888646543E+02  0.63803963793E+03  0.67338663180E+03  0.50400001928E-02 0. -1.
       -1    1    3    3    0  502  0.21194203631E+03 -0.37888646543E+02 -0.24287479027E+03  0.32456607966E+03  0.50400001928E-02 0.  1.
</event>
<event>
 5   0  0.8524692E-03  0.8857391E+03  0.7818609E-02  0.9443586E-01
       -1   -1    0    0    0  501  0.00000000000E+00  0.00000000000E+00  0.41311771694E+03  0.41311771697E+03  0.50400001928E-02 0. -1.
        1   -1    0    0  501    0  0.00000000000E+00  0.00000000000E+00 -0.47476404241E+03  0.47476404243E+03  0.50400001928E-02 0.  1.
    10030    2    1    2    0    0  0.00000000000E+00  0.00000000000E+00 -0.61646325470E+02  0.88788175940E+03  0.88573909772E+03 0.  0.
        5    1    3    3  502    0  0.12205465558E+03  0.42565422584E+03 -0.25109516071E+02  0.44354417674E+03  0.46999998093E+01 0.  1.
       -5    1    3    3    0  502 -0.12205465558E+03 -0.42565422584E+03 -0.36536809399E+02  0.44433758266E+03  0.46999998093E+01 0. -1.
</event>
<event>
 5   0  0.1483326E-02  0.9628135E+03  0.7818609E-02  0.9350298E-01
        2   -1    0    0  501    0  0.00000000000E+00  0.00000000000E+00  0.54284246302E+03  0.54284246303E+03  0.25500000920E-02 0. -1.
       -2   -1    0    0    0  501  0.00000000000E+00  0.00000000000E+00 -0.42692394789E+03  0.42692394790E+03  0.25500000920E-02 0.  1.
    10030    2    1    2    0    0  0.00000000000E+00  0.00000000000E+00  0.11591851513E+03  0.96976641093E+03  0.96281347603E+03 0.  0.
        1    1    3    3  502    0  0.22330160994E+03  0.25522218079E+03 -0.28619592105E+03  0.44374550794E+03  0.50400001928E-02 0. -1.
       -1    1    3    3    0  502 -0.22330160994E+03 -0.25522218079E+03  0.40211443618E+03  0.52602090299E+03  0.50400001928E-02 0.  1.
</event>
<event>
 5   0  0.8524692E-03  0.8934865E+03  0.7818609E-02  0.9433760E-01
        1   -1    0    0  501    0  0.00000000000E+00  0.00000000000E+00  0.29976516439E+03  0.29976516444E+03  0.50400001928E-02 0. -1.
       -1   -1    0    0    0  501  0.00000000000E+00  0.00000000000E+00 -0.66578623508E+03  0.66578623510E+03  0.50400001928E-02 0.  1.
    10030    2    1    2    0    0  0.00000000000E+00  0.00000000000E+00 -0.36602107069E+03  0.96555139954E+03  0.89348647497E+03 0.  0.
        5    1    3    3  502    0  0.22192081365E+03  0.77164710764E+02  0.22757355044E+03  0.32713154995E+03  0.46999998093E+01 0. -1.
       -5    1    3    3    0  502 -0.22192081365E+03 -0.77164710764E+02 -0.59359462113E+03  0.63841984958E+03  0.46999998093E+01 0.  1.
</event>
<event>
 5   0  0.8738044E-03  0.9041929E+03  0.7818609E-02  0.9420355E-01
        1   -1    0    0  501    0  0.00000000000E+00  0.00000000000E+00  0.27448436765E+03  0.27448436769E+03  0.50400001928E-02 0. -1.
       -1   -1    0    0    0  501  0.00000000000E+00  0.00000000000E+00 -0.74463691042E+03  0.74463691044E+03  0.50400001928E-02 0.  1.
    10030    2    1    2    0    0  0.00000000000E+00  0.00000000000E+00 -0.47015254277E+03  0.10191212781E+04  0.90419288100E+03 0.  0.
        3    1    3    3  502    0  0.14269113945E+03  0.18796850141E+03  0.19955176013E+03  0.30905312483E+03  0.10100000352E+00 0. -1.
       -3    1    3    3    0  502 -0.14269113945E+03 -0.18796850141E+03 -0.66970430290E+03  0.71006815329E+03  0.10100000352E+00 0.  1.
</event>
<event>
 5   0  0.8612969E-03  0.8962795E+03  0.7818609E-02  0.9430244E-01
       -1   -1    0    0    0  501  0.00000000000E+00  0.00000000000E+00  0.38475874741E+03  0.38475874744E+03  0.50400001928E-02 0. -1.
        1   -1    0    0  501    0  0.00000000000E+00  0.00000000000E+00 -0.52196144410E+03  0.52196144412E+03  0.50400001928E-02 0.  1.
    10030    2    1    2    0    0  0.00000000000E+00  0.00000000000E+00 -0.13720269669E+03  0.90672019157E+03  0.89627949091E+03 0.  0.
        4    1    3    3  502    0 -0.38732706536E+02  0.27282162970E+03  0.28892138832E+03  0.39926062380E+03  0.12699999809E+01 0. -1.
       -4    1    3    3    0  502  0.38732706536E+02 -0.27282162970E+03 -0.42612408501E+03  0.50745956776E+03  0.12699999809E+01 0.  1.
</event>
<event>
 5   0  0.1441195E-02  0.8943373E+03  0.7818609E-02  0.9432688E-01
        2   -1    0    0  501    0  0.00000000000E+00  0.00000000000E+00  0.72037947850E+03  0.72037947850E+03  0.25500000920E-02 0. -1.
       -2   -1    0    0    0  501  0.00000000000E+00  0.00000000000E+00 -0.27757566766E+03  0.27757566767E+03  0.25500000920E-02 0.  1.
    10030    2    1    2    0    0  0.00000000000E+00  0.00000000000E+00  0.44280381084E+03  0.99795514617E+03  0.89433732946E+03 0.  0.
        5    1    3    3  502    0  0.35232685599E+03  0.97050874380E+02  0.50890562163E+03  0.62654617340E+03  0.46999998093E+01 0. -1.
       -5    1    3    3    0  502 -0.35232685599E+03 -0.97050874380E+02 -0.66101810788E+02  0.37140897278E+03  0.46999998093E+01 0.  1.
</event>
<event>
 5   0  0.1483326E-02  0.9146085E+03  0.7818609E-02  0.9407502E-01
        2   -1    0    0  501    0  0.00000000000E+00  0.00000000000E+00  0.15048337993E+04  0.15048337993E+04  0.25500000920E-02 0.  1.
       -2   -1    0    0    0  501  0.00000000000E+00  0.00000000000E+00 -0.13897028693E+03  0.13897028695E+03  0.25500000920E-02 0. -1.
    10030    2    1    2    0    0  0.00000000000E+00  0.00000000000E+00  0.13658635124E+04  0.16438040863E+04  0.91460851713E+03 0.  0.
        1    1    3    3  502    0  0.31065510611E+03 -0.20920226147E+03  0.21132223170E+03  0.43003402980E+03  0.50400001928E-02 0. -1.
       -1    1    3    3    0  502 -0.31065510611E+03  0.20920226147E+03  0.11545412807E+04  0.12137700565E+04  0.50400001928E-02 0.  1.
</event>
<event>
 5   0  0.8885324E-03  0.8958047E+03  0.7818609E-02  0.9430841E-01
        1   -1    0    0  501    0  0.00000000000E+00  0.00000000000E+00  0.14038114104E+04  0.14038114104E+04  0.50400001928E-02 0.  1.
       -1   -1    0    0    0  501  0.00000000000E+00  0.00000000000E+00 -0.14290844911E+03  0.14290844920E+03  0.50400001928E-02 0. -1.
    10030    2    1    2    0    0  0.00000000000E+00  0.00000000000E+00  0.12609029613E+04  0.15467198596E+04  0.89580469205E+03 0.  0.
        2    1    3    3  502    0  0.63295254289E+02  0.43453886030E+03  0.78280803463E+03  0.89756266044E+03  0.25500000920E-02 0.  1.
       -2    1    3    3    0  502 -0.63295254289E+02 -0.43453886030E+03  0.47809492666E+03  0.64915719916E+03  0.25500000920E-02 0. -1.
</event>
<event>
 5   0  0.8524692E-03  0.8954996E+03  0.7818609E-02  0.9431225E-01
        1   -1    0    0  501    0  0.00000000000E+00  0.00000000000E+00  0.62929604296E+03  0.62929604298E+03  0.50400001928E-02 0.  1.
       -1   -1    0    0    0  501  0.00000000000E+00  0.00000000000E+00 -0.31857801646E+03  0.31857801650E+03  0.50400001928E-02 0. -1.
    10030    2    1    2    0    0  0.00000000000E+00  0.00000000000E+00  0.31071802650E+03  0.94787405947E+03  0.89549960392E+03 0.  0.
        5    1    3    3  502    0 -0.21647495929E+03 -0.34214987644E+03  0.35766520724E+03  0.54025404803E+03  0.46999998093E+01 0.  1.
       -5    1    3    3    0  502  0.21647495929E+03  0.34214987644E+03 -0.46947180734E+02  0.40762001144E+03  0.46999998093E+01 0. -1.
</event>
<event>
 5   0  0.1440615E-02  0.6455625E+03  0.7818609E-02  0.9815142E-01
        2   -1    0    0  501    0  0.00000000000E+00  0.00000000000E+00  0.18649143479E+03  0.18649143481E+03  0.25500000920E-02 0.  1.
       -2   -1    0    0    0  501  0.00000000000E+00  0.00000000000E+00 -0.55867305352E+03  0.55867305353E+03  0.25500000920E-02 0. -1.
    10030    2    1    2    0    0  0.00000000000E+00  0.00000000000E+00 -0.37218161873E+03  0.74516448833E+03  0.64556251235E+03 0.  0.
        3    1    3    3  502    0 -0.79228019444E+02  0.95057524767E+02 -0.53020530102E+03  0.54445448249E+03  0.10100000352E+00 0. -1.
       -3    1    3    3    0  502  0.79228019444E+02 -0.95057524767E+02  0.15802368229E+03  0.20071000584E+03  0.10100000352E+00 0.  1.
</event>
<event>
 5   0  0.1483326E-02  0.9197021E+03  0.7818609E-02  0.9401283E-01
        2   -1    0    0  501    0  0.00000000000E+00  0.00000000000E+00  0.65512322586E+03  0.65512322587E+03  0.25500000920E-02 0. -1.
       -2   -1    0    0    0  501  0.00000000000E+00  0.00000000000E+00 -0.32278352870E+03  0.32278352871E+03  0.25500000920E-02 0.  1.
    10030    2    1    2    0    0  0.00000000000E+00  0.00000000000E+00  0.33233969716E+03  0.97790675458E+03  0.91970209652E+03 0.  0.
        1    1    3    3  502    0  0.20555153580E+03 -0.77780952859E+01 -0.27113835396E+03  0.34033504030E+03  0.50400001928E-02 0.  1.
       -1    1    3    3    0  502 -0.20555153580E+03  0.77780952859E+01  0.60347805113E+03  0.63757171428E+03  0.50400001928E-02 0. -1.
</event>
<event>
 5   0  0.5770125E-03  0.8951799E+03  0.7818609E-02  0.9431627E-01
        3   -1    0    0  501    0  0.00000000000E+00  0.00000000000E+00  0.48565743187E+03  0.48565744237E+03  0.10100000352E+00 0. -1.
       -3   -1    0    0    0  501  0.00000000000E+00  0.00000000000E+00 -0.41250630064E+03  0.41250631301E+03  0.10100000352E+00 0.  1.
    10030    2    1    2    0    0  0.00000000000E+00  0.00000000000E+00  0.73151131227E+02  0.89816375537E+03  0.89517989447E+03 0.  0.
        1    1    3    3  502    0  0.27568839843E+03 -0.17872902527E+03 -0.26839252940E+03  0.42424368865E+03  0.50400001928E-02 0.  1.
       -1    1    3    3    0  502 -0.27568839843E+03  0.17872902527E+03  0.34154366062E+03  0.47392006672E+03  0.50400001928E-02 0. -1.
</event>
<event>
 5   0  0.8524692E-03  0.9125802E+03  0.7818609E-02  0.9409991E-01
       -1   -1    0    0    0  501  0.00000000000E+00  0.00000000000E+00  0.18988024684E+03  0.18988024691E+03  0.50400001928E-02 0. -1.
        1   -1    0    0  501    0  0.00000000000E+00  0.00000000000E+00 -0.10964840207E+04  0.10964840207E+04  0.50400001928E-02 0.  1.
    10030    2    1    2    0    0  0.00000000000E+00  0.00000000000E+00 -0.90660377382E+03  0.12863642676E+04  0.91258020262E+03 0.  0.
        5    1    3    3  502    0 -0.11386454099E+03 -0.22555126594E+02  0.16868487489E+03  0.20481832058E+03  0.46999998093E+01 0. -1.
       -5    1    3    3    0  502  0.11386454099E+03  0.22555126594E+02 -0.10752886487E+04  0.10815459470E+04  0.46999998093E+01 0.  1.
</event>
<event>
 5   0  0.8885324E-03  0.9178334E+03  0.7818609E-02  0.9403559E-01
       -1   -1    0    0    0  501  0.00000000000E+00  0.00000000000E+00  0.34983265999E+03  0.34983266003E+03  0.50400001928E-02 0.  1.
        1   -1    0    0  501    0  0.00000000000E+00  0.00000000000E+00 -0.60201504787E+03  0.60201504789E+03  0.50400001928E-02 0. -1.
    10030    2    1    2    0    0  0.00000000000E+00  0.00000000000E+00 -0.25218238788E+03  0.95184770792E+03  0.91783337394E+03 0.  0.
        2    1    3    3  502    0 -0.32454678858E+03 -0.29522352831E+03  0.13496289214E+02  0.43894156727E+03  0.25500000920E-02 0.  1.
       -2    1    3    3    0  502  0.32454678858E+03  0.29522352831E+03 -0.26567867709E+03  0.51290614065E+03  0.25500000920E-02 0. -1.
</event>
<event>
 5   0  0.8524692E-03  0.8899547E+03  0.7818609E-02  0.9438226E-01
        1   -1    0    0  501    0  0.00000000000E+00  0.00000000000E+00  0.11027317542E+04  0.11027317542E+04  0.50400001928E-02 0. -1.
       -1   -1    0    0    0  501  0.00000000000E+00  0.00000000000E+00 -0.17955850154E+03  0.17955850161E+03  0.50400001928E-02 0.  1.
    10030    2    1    2    0    0  0.00000000000E+00  0.00000000000E+00  0.92317325267E+03  0.12822902558E+04  0.88995474366E+03 0.  0.
        5    1    3    3  502    0  0.31292774088E+03  0.20806154379E+03  0.11828524528E+03  0.39398840880E+03  0.46999998093E+01 0.  1.
       -5    1    3    3    0  502 -0.31292774088E+03 -0.20806154379E+03  0.80488800739E+03  0.88830184704E+03  0.46999998093E+01 0. -1.
</event>
<event>
 5   0  0.8885324E-03  0.9002887E+03  0.7818609E-02  0.9425221E-01
        1   -1    0    0  501    0  0.00000000000E+00  0.00000000000E+00  0.11059083695E+04  0.11059083695E+04  0.50400001928E-02 0.  1.
       -1   -1    0    0    0  501  0.00000000000E+00  0.00000000000E+00 -0.18322487263E+03  0.18322487270E+03  0.50400001928E-02 0. -1.
    10030    2    1    2    0    0  0.00000000000E+00  0.00000000000E+00  0.92268349684E+03  0.12891332422E+04  0.90028866524E+03 0.  0.
        2    1    3    3  502    0 -0.19828851667E+03  0.37939522138E+03  0.26204951788E+03  0.50192531284E+03  0.25500000920E-02 0.  1.
       -2    1    3    3    0  502  0.19828851667E+03 -0.37939522138E+03  0.66063397896E+03  0.78720792934E+03  0.25500000920E-02 0. -1.
</event>
<event>
 5   0  0.8524692E-03  0.8934304E+03  0.7818609E-02  0.9433831E-01
        1   -1    0    0  501    0  0.00000000000E+00  0.00000000000E+00  0.63817773894E+03  0.63817773896E+03  0.50400001928E-02 0. -1.
       -1   -1    0    0    0  501  0.00000000000E+00  0.00000000000E+00 -0.31269420769E+03  0.31269420773E+03  0.50400001928E-02 0.  1.
    10030    2    1    2    0    0  0.00000000000E+00  0.00000000000E+00  0.32548353125E+03  0.95087194669E+03  0.89343042812E+03 0.  0.
        5    1    3    3  502    0  0.30578110531E+03 -0.25218186254E+03  0.38198259443E+03  0.55048212378E+03  0.46999998093E+01 0. -1.
       -5    1    3    3    0  502 -0.30578110531E+03  0.25218186254E+03 -0.56499063176E+02  0.40038982291E+03  0.46999998093E+01 0.  1.
</event>
<event>
 5   0  0.5770125E-03  0.9056252E+03  0.7818609E-02  0.9418577E-01
        4   -1    0    0  501    0  0.00000000000E+00  0.00000000000E+00  0.17844552276E+03  0.17845004201E+03  0.12699999809E+01 0.  1.
       -4   -1    0    0    0  501  0.00000000000E+00  0.00000000000E+00 -0.11490106313E+04  0.11490113332E+04  0.12699999809E+01 0. -1.
    10030    2    1    2    0    0  0.00000000000E+00  0.00000000000E+00 -0.97056510853E+03  0.13274613752E+04  0.90562523853E+03 0.  0.
        1    1    3    3  502    0 -0.26396572071E+02  0.31366702364E+03 -0.96241077326E+03  0.10125800103E+04  0.50400001928E-02 0. -1.
       -1    1    3    3    0  502  0.26396572071E+02 -0.31366702364E+03 -0.81543352754E+01  0.31488136487E+03  0.50400001928E-02 0.  1.
</event>
<event>
 5   0  0.1440615E-02  0.1019662E+04  0.7818609E-02  0.9287239E-01
       -2   -1    0    0    0  501  0.00000000000E+00  0.00000000000E+00  0.12065070216E+03  0.12065070218E+03  0.25500000920E-02 0.  1.
        2   -1    0    0  501    0  0.00000000000E+00  0.00000000000E+00 -0.21543820278E+04  0.21543820278E+04  0.25500000920E-02 0. -1.
    10030    2    1    2    0    0  0.00000000000E+00  0.00000000000E+00 -0.20337313256E+04  0.22750327300E+04  0.10196621095E+04 0.  0.
        3    1    3    3  502    0 -0.31252947087E+03  0.20663226120E+03 -0.24539876345E+03  0.44787512192E+03  0.10100000352E+00 0.  1.
       -3    1    3    3    0  502  0.31252947087E+03 -0.20663226120E+03 -0.17883325622E+04  0.18271576081E+04  0.10100000352E+00 0. -1.
</event>
<event>
 5   0  0.1535906E-02  0.9155617E+03  0.7818609E-02  0.9406335E-01
       -2   -1    0    0    0  501  0.00000000000E+00  0.00000000000E+00  0.13931763272E+03  0.13931763275E+03  0.25500000920E-02 0. -1.
        2   -1    0    0  501    0  0.00000000000E+00  0.00000000000E+00 -0.15042125240E+04  0.15042125240E+04  0.25500000920E-02 0.  1.
    10030    2    1    2    0    0  0.00000000000E+00  0.00000000000E+00 -0.13648948913E+04  0.16435301567E+04  0.91556174664E+03 0.  0.
        2    1    3    3  502    0  0.98040700022E+02  0.43377765887E+03 -0.87734907802E+03  0.98362413599E+03  0.25500000920E-02 0.  1.
       -2    1    3    3    0  502 -0.98040700022E+02 -0.43377765887E+03 -0.48754581325E+03  0.65990602075E+03  0.25500000920E-02 0. -1.
</event>
<event>
 5   0  0.1483326E-02  0.9366376E+03  0.7818609E-02  0.9380907E-01
        2   -1    0    0  501    0  0.00000000000E+00  0.00000000000E+00  0.92710913379E+03  0.92710913380E+03  0.25500000920E-02 0.  1.
       -2   -1    0    0    0  501  0.00000000000E+00  0.00000000000E+00 -0.23656601620E+03  0.23656601621E+03  0.25500000920E-02 0. -1.
    10030    2    1    2    0    0  0.00000000000E+00  0.00000000000E+00  0.69054311759E+03  0.11636751500E+04  0.93663763404E+03 0.  0.
        1    1    3    3  502    0  0.10778448661E+03  0.34989018230E+03  0.70808931823E+03  0.79713933402E+03  0.50400001928E-02 0.  1.
       -1    1    3    3    0  502 -0.10778448661E+03 -0.34989018230E+03 -0.17546200632E+02  0.36653581599E+03  0.50400001928E-02 0. -1.
</event>
<event>
 5   0  0.8885324E-03  0.9081820E+03  0.7818609E-02  0.9415411E-01
       -1   -1    0    0    0  501  0.00000000000E+00  0.00000000000E+00  0.60387571082E+03  0.60387571084E+03  0.50400001928E-02 0. -1.
        1   -1    0    0  501    0  0.00000000000E+00  0.00000000000E+00 -0.34145870248E+03  0.34145870252E+03  0.50400001928E-02 0.  1.
    10030    2    1    2    0    0  0.00000000000E+00  0.00000000000E+00  0.26241700833E+03  0.94533441336E+03  0.90818195688E+03 0.  0.
        2    1    3    3  502    0  0.41456564844E+03 -0.18073046305E+03  0.88665516951E+02  0.46085762557E+03  0.25500000920E-02 0.  1.
       -2    1    3    3    0  502 -0.41456564844E+03  0.18073046305E+03  0.17375149138E+03  0.48447678779E+03  0.25500000920E-02 0. -1.
</event>
<event>
 5   0  0.1454652E-02  0.8924726E+03  0.7818609E-02  0.9435040E-01
        2   -1    0    0  501    0  0.00000000000E+00  0.00000000000E+00  0.10242760843E+04  0.10242760843E+04  0.25500000920E-02 0.  1.
       -2   -1    0    0    0  501  0.00000000000E+00  0.00000000000E+00 -0.19440740112E+03  0.19440740114E+03  0.25500000920E-02 0. -1.
    10030    2    1    2    0    0  0.00000000000E+00  0.00000000000E+00  0.82986868313E+03  0.12186834854E+04  0.89247263618E+03 0.  0.
        4    1    3    3  502    0 -0.26644954735E+03 -0.22982464043E+03  0.40199721940E+02  0.35416430816E+03  0.12699999809E+01 0. -1.
       -4    1    3    3    0  502  0.26644954735E+03  0.22982464043E+03  0.78966896119E+03  0.86451917723E+03  0.12699999809E+01 0.  1.
</event>
<event>
 5   0  0.8612969E-03  0.9044183E+03  0.7818609E-02  0.9420075E-01
        1   -1    0    0  501    0  0.00000000000E+00  0.00000000000E+00  0.95609536521E+03  0.95609536522E+03  0.50400001928E-02 0. -1.
       -1   -1    0    0    0  501  0.00000000000E+00  0.00000000000E+00 -0.21388357951E+03  0.21388357957E+03  0.50400001928E-02 0.  1.
    10030    2    1    2    0    0  0.00000000000E+00  0.00000000000E+00  0.74221178570E+03  0.11699789448E+04  0.90441826410E+03 0.  0.
        4    1    3    3  502    0  0.62252192959E+02 -0.24891926402E+03 -0.11059454259E+03  0.27940812672E+03  0.12699999809E+01 0.  1.
       -4    1    3    3    0  502 -0.62252192959E+02  0.24891926402E+03  0.85280632829E+03  0.89057081807E+03  0.12699999809E+01 0. -1.
</event>
<event>
 5   0  0.8885324E-03  0.8994335E+03  0.7818609E-02  0.9426290E-01
       -1   -1    0    0    0  501  0.00000000000E+00  0.00000000000E+00  0.29029608958E+03  0.29029608962E+03  0.50400001928E-02 0. -1.
        1   -1    0    0  501    0  0.00000000000E+00  0.00000000000E+00 -0.69668569507E+03  0.69668569509E+03  0.50400001928E-02 0.  1.
    10030    2    1    2    0    0  0.00000000000E+00  0.00000000000E+00 -0.40638960550E+03  0.98698178471E+03  0.89943345051E+03 0.  0.
        2    1    3    3  502    0 -0.82055145535E+02 -0.25287742716E+03  0.19483027946E+03  0.32960412297E+03  0.25500000920E-02 0. -1.
       -2    1    3    3    0  502  0.82055145535E+02  0.25287742716E+03 -0.60121988496E+03  0.65737766174E+03  0.25500000920E-02 0.  1.
</event>
<event>
 5   0  0.1440615E-02  0.8975349E+03  0.7818609E-02  0.9428668E-01
        2   -1    0    0  501    0  0.00000000000E+00  0.00000000000E+00  0.70543076176E+03  0.70543076177E+03  0.25500000920E-02 0. -1.
       -2   -1    0    0    0  501  0.00000000000E+00  0.00000000000E+00 -0.28548832497E+03  0.28548832498E+03  0.25500000920E-02 0.  1.
    10030    2    1    2    0    0  0.00000000000E+00  0.00000000000E+00  0.41994243679E+03  0.99091908675E+03  0.89753494989E+03 0.  0.
        3    1    3    3  502    0  0.12939634942E+03  0.30683019795E+03  0.54211095246E+03  0.63621732183E+03  0.10100000352E+00 0. -1.
       -3    1    3    3    0  502 -0.12939634942E+03 -0.30683019795E+03 -0.12216851567E+03  0.35470176492E+03  0.10100000352E+00 0.  1.
</event>
<event>
 5   0  0.8524692E-03  0.9496490E+03  0.7818609E-02  0.9365561E-01
       -1   -1    0    0    0  501  0.00000000000E+00  0.00000000000E+00  0.18799402645E+03  0.18799402651E+03  0.50400001928E-02 0.  1.
        1   -1    0    0  501    0  0.00000000000E+00  0.00000000000E+00 -0.11992843578E+04  0.11992843578E+04  0.50400001928E-02 0. -1.
    10030    2    1    2    0    0  0.00000000000E+00  0.00000000000E+00 -0.10112903314E+04  0.13872783843E+04  0.94964897796E+03 0.  0.
        5    1    3    3  502    0  0.36415040633E+03  0.30361934215E+03 -0.46851638256E+03  0.66657326235E+03  0.46999998093E+01 0. -1.
       -5    1    3    3    0  502 -0.36415040633E+03 -0.30361934215E+03 -0.54277394879E+03  0.72070512197E+03  0.46999998093E+01 0.  1.
</event>
<event>
 5   0  0.1440615E-02  0.8933387E+03  0.7818609E-02  0.9433947E-01
        2   -1    0    0  501    0  0.00000000000E+00  0.00000000000E+00  0.18142480779E+04  0.18142480779E+04  0.25500000920E-02 0. -1.
       -2   -1    0    0    0  501  0.00000000000E+00  0.00000000000E+00 -0.10997035097E+03  0.10997035100E+03  0.25500000920E-02 0.  1.
    10030    2    1    2    0    0  0.00000000000E+00  0.00000000000E+00  0.17042777269E+04  0.19242184289E+04  0.89333867687E+03 0.  0.
        3    1    3    3  502    0 -0.22339600145E+03 -0.12820051298E+03  0.66097767491E+02  0.26591365151E+03  0.10100000352E+00 0.  1.
       -3    1    3    3    0  502  0.22339600145E+03  0.12820051298E+03  0.16381799594E+04  0.16583047774E+04  0.10100000352E+00 0. -1.
</event>
<event>
 5   0  0.5770125E-03  0.8301921E+03  0.7818609E-02  0.9517315E-01
        3   -1    0    0  501    0  0.00000000000E+00  0.00000000000E+00  0.68667540494E+03  0.68667541237E+03  0.10100000352E+00 0. -1.
       -3   -1    0    0    0  501  0.00000000000E+00  0.00000000000E+00 -0.25092602279E+03  0.25092604312E+03  0.10100000352E+00 0.  1.
    10030    2    1    2    0    0  0.00000000000E+00  0.00000000000E+00  0.43574938215E+03  0.93760145549E+03  0.83019212553E+03 0.  0.
        3    1    3    3  502    0  0.97699687356E+02 -0.39175105052E+03  0.10901629456E+03  0.41820889179E+03  0.10100000352E+00 0.  1.
       -3    1    3    3    0  502 -0.97699687356E+02  0.39175105052E+03  0.32673308759E+03  0.51939256369E+03  0.10100000352E+00 0. -1.
</event>
<event>
 5   0  0.8612969E-03  0.8960492E+03  0.7818609E-02  0.9430534E-01
        1   -1    0    0  501    0  0.00000000000E+00  0.00000000000E+00  0.16091469636E+03  0.16091469644E+03  0.50400001928E-02 0. -1.
       -1   -1    0    0    0  501  0.00000000000E+00  0.00000000000E+00 -0.12474065341E+04  0.12474065341E+04  0.50400001928E-02 0.  1.
    10030    2    1    2    0    0  0.00000000000E+00  0.00000000000E+00 -0.10864918377E+04  0.14083212305E+04  0.89604920339E+03 0.  0.
        4    1    3    3  502    0  0.16045824475E+03 -0.27728402534E+03 -0.10354948540E+04  0.10839208848E+04  0.12699999809E+01 0.  1.
       -4    1    3    3    0  502 -0.16045824475E+03  0.27728402534E+03 -0.50996983680E+02  0.32440034565E+03  0.12699999809E+01 0. -1.
</event>
<event>
 5   0  0.8524692E-03  0.8885630E+03  0.7818609E-02  0.9439992E-01
       -1   -1    0    0    0  501  0.00000000000E+00  0.00000000000E+00  0.67740086912E+03  0.67740086914E+03  0.50400001928E-02 0.  1.
        1   -1    0    0  501    0  0.00000000000E+00  0.00000000000E+00 -0.29138734434E+03  0.29138734439E+03  0.50400001928E-02 0. -1.
    10030    2    1    2    0    0  0.00000000000E+00  0.00000000000E+00  0.38601352478E+03  0.96878821353E+03  0.88856297546E+03 0.  0.
        5    1    3    3  502    0  0.41687589455E+03 -0.10877860255E+03  0.74844378434E+02  0.43731232182E+03  0.46999998093E+01 0.  1.
       -5    1    3    3    0  502 -0.41687589455E+03  0.10877860255E+03  0.31116914635E+03  0.53147589171E+03  0.46999998093E+01 0. -1.
</event>
<event>
 5   0  0.1441195E-02  0.8697253E+03  0.7818609E-02  0.9464238E-01
       -2   -1    0    0    0  501  0.00000000000E+00  0.00000000000E+00  0.33635368591E+03  0.33635368592E+03  0.25500000920E-02 0.  1.
        2   -1    0    0  501    0  0.00000000000E+00  0.00000000000E+00 -0.56222229209E+03  0.56222229210E+03  0.25500000920E-02 0. -1.
    10030    2    1    2    0    0  0.00000000000E+00  0.00000000000E+00 -0.22586860618E+03  0.89857597802E+03  0.86972533654E+03 0.  0.
        5    1    3    3  502    0  0.19186627672E+03  0.19910885332E+03  0.23379685764E+03  0.36213266113E+03  0.46999998093E+01 0.  1.
       -5    1    3    3    0  502 -0.19186627672E+03 -0.19910885332E+03 -0.45966546382E+03  0.53644331690E+03  0.46999998093E+01 0. -1.
</event>
<event>
 5   0  0.8291252E-03  0.8745741E+03  0.7818609E-02  0.9457935E-01
       -1   -1    0    0    0  501  0.00000000000E+00  0.00000000000E+00  0.26431355995E+03  0.26431356000E+03  0.50400001928E-02 0.  1.
        1   -1    0    0  501    0  0.00000000000E+00  0.00000000000E+00 -0.72345879927E+03  0.72345879929E+03  0.50400001928E-02 0. -1.
    10030    2    1    2    0    0  0.00000000000E+00  0.00000000000E+00 -0.45914523933E+03  0.98777235929E+03  0.87457411520E+03 0.  0.
        1    1    3    3  502    0 -0.29112008548E+03 -0.90479006212E+02  0.12450510322E+03  0.32930058532E+03  0.50400001928E-02 0.  1.
       -1    1    3    3    0  502  0.29112008548E+03  0.90479006212E+02 -0.58365034255E+03  0.65847177397E+03  0.50400001928E-02 0. -1.
</event>
<event>
 5   0  0.1441195E-02  0.8995039E+03  0.7818609E-02  0.9426202E-01
       -2   -1    0    0    0  501  0.00000000000E+00  0.00000000000E+00  0.10600201733E+03  0.10600201736E+03  0.25500000920E-02 0. -1.
        2   -1    0    0  501    0  0.00000000000E+00  0.00000000000E+00 -0.19082357154E+04  0.19082357154E+04  0.25500000920E-02 0.  1.
    10030    2    1    2    0    0  0.00000000000E+00  0.00000000000E+00 -0.18022336981E+04  0.20142377328E+04  0.89950394199E+03 0.  0.
        5    1    3    3  502    0 -0.28385815521E+03 -0.82774257227E+02 -0.16599233075E+04  0.16860588681E+04  0.46999998093E+01 0.  1.
       -5    1    3    3    0  502  0.28385815521E+03  0.82774257227E+02 -0.14231039053E+03  0.32817886463E+03  0.46999998093E+01 0. -1.
</event>
<event>
 5   0  0.8885324E-03  0.8456232E+03  0.7818609E-02  0.9496230E-01
       -1   -1    0    0    0  501  0.00000000000E+00  0.00000000000E+00  0.50181834249E+03  0.50181834252E+03  0.50400001928E-02 0.  1.
        1   -1    0    0  501    0  0.00000000000E+00  0.00000000000E+00 -0.35624372628E+03  0.35624372631E+03  0.50400001928E-02 0. -1.
    10030    2    1    2    0    0  0.00000000000E+00  0.00000000000E+00  0.14557461622E+03  0.85806206883E+03  0.84562316967E+03 0.  0.
        2    1    3    3  502    0 -0.16961600581E+03  0.24945979338E+03 -0.22783037884E+03  0.37802970713E+03  0.25500000920E-02 0. -1.
       -2    1    3    3    0  502  0.16961600581E+03 -0.24945979338E+03  0.37340499506E+03  0.48003236170E+03  0.25500000920E-02 0.  1.
</event>
<event>
 5   0  0.8738044E-03  0.8990868E+03  0.7818609E-02  0.9426724E-01
        1   -1    0    0  501    0  0.00000000000E+00  0.00000000000E+00  0.19050630053E+04  0.19050630053E+04  0.50400001928E-02 0. -1.
       -1   -1    0    0    0  501  0.00000000000E+00  0.00000000000E+00 -0.10608009321E+03  0.10608009333E+03  0.50400001928E-02 0.  1.
    10030    2    1    2    0    0  0.00000000000E+00  0.00000000000E+00  0.17989829121E+04  0.20111430986E+04  0.89908678400E+03 0.  0.
        3    1    3    3  502    0  0.28935264501E+03  0.33904212822E+03  0.10302047467E+04  0.11224955894E+04  0.10100000352E+00 0. -1.
       -3    1    3    3    0  502 -0.28935264501E+03 -0.33904212822E+03  0.76877816533E+03  0.88864750918E+03  0.10100000352E+00 0.  1.
</event>
<event>
 5   0  0.5770125E-03  0.9038158E+03  0.7818609E-02  0.9420824E-01
       -3   -1    0    0    0  501  0.00000000000E+00  0.00000000000E+00  0.20889663370E+03  0.20889665812E+03  0.10100000352E+00 0.  1.
        3   -1    0    0  501    0  0.00000000000E+00  0.00000000000E+00 -0.97761625113E+03  0.97761625635E+03  0.10100000352E+00 0. -1.
    10030    2    1    2    0    0  0.00000000000E+00  0.00000000000E+00 -0.76871961743E+03  0.11865129145E+04  0.90381582524E+03 0.  0.
        1    1    3    3  502    0  0.31184043441E+03 -0.11040736301E+03 -0.78853142932E+03  0.85511172217E+03  0.50400001928E-02 0. -1.
       -1    1    3    3    0  502 -0.31184043441E+03  0.11040736301E+03  0.19811811893E+02  0.33140119229E+03  0.50400001928E-02 0.  1.
</event>
<event>
 5   0  0.8524692E-03  0.9219468E+03  0.7818609E-02  0.9398555E-01
        1   -1    0    0  501    0  0.00000000000E+00  0.00000000000E+00  0.25573782248E+03  0.25573782253E+03  0.50400001928E-02 0.  1.
       -1   -1    0    0    0  501  0.00000000000E+00  0.00000000000E+00 -0.83091533571E+03  0.83091533573E+03  0.50400001928E-02 0. -1.
    10030    2    1    2    0    0  0.00000000000E+00  0.00000000000E+00 -0.57517751323E+03  0.10866531583E+04  0.92194680683E+03 0.  0.
        5    1    3    3  502    0  0.45052836027E+03 -0.18673789905E+02 -0.40033255396E+03  0.60300311574E+03  0.46999998093E+01 0.  1.
       -5    1    3    3    0  502 -0.45052836027E+03  0.18673789905E+02 -0.17484495928E+03  0.48365004251E+03  0.46999998093E+01 0. -1.
</event>
<event>
 5   0  0.1535906E-02  0.9009559E+03  0.7818609E-02  0.9424387E-01
       -2   -1    0    0    0  501  0.00000000000E+00  0.00000000000E+00  0.11560389166E+04  0.11560389166E+04  0.25500000920E-02 0.  1.
        2   -1    0    0  501    0  0.00000000000E+00  0.00000000000E+00 -0.17553940614E+03  0.17553940616E+03  0.25500000920E-02 0. -1.
    10030    2    1    2    0    0  0.00000000000E+00  0.00000000000E+00  0.98049951048E+03  0.13315783228E+04  0.90095590327E+03 0.  0.
        2    1    3    3  502    0  0.48271700023E+02 -0.88326288435E+02  0.11392057160E+04  0.11436438929E+04  0.25500000920E-02 0.  1.
       -2    1    3    3    0  502 -0.48271700023E+02  0.88326288435E+02 -0.15870620556E+03  0.18793442990E+03  0.25500000920E-02 0. -1.
</event>
<event>
 5   0  0.1483326E-02  0.9011799E+03  0.7818609E-02  0.9424108E-01
        2   -1    0    0  501    0  0.00000000000E+00  0.00000000000E+00  0.39761659191E+03  0.39761659191E+03  0.25500000920E-02 0.  1.
       -2   -1    0    0    0  501  0.00000000000E+00  0.00000000000E+00 -0.51062077384E+03  0.51062077385E+03  0.25500000920E-02 0. -1.
    10030    2    1    2    0    0  0.00000000000E+00  0.00000000000E+00 -0.11300418194E+03  0.90823736576E+03  0.90117987518E+03 0.  0.
        1    1    3    3  502    0 -0.27657969456E+02  0.23167059973E+03  0.33199705551E+03  0.40578106775E+03  0.50400001928E-02 0.  1.
       -1    1    3    3    0  502  0.27657969456E+02 -0.23167059973E+03 -0.44500123745E+03  0.50245629801E+03  0.50400001928E-02 0. -1.
</event>
<event>
 5   0  0.8612969E-03  0.8758385E+03  0.7818609E-02  0.9456299E-01
       -1   -1    0    0    0  501  0.00000000000E+00  0.00000000000E+00  0.14608785564E+03  0.14608785573E+03  0.50400001928E-02 0. -1.
        1   -1    0    0  501    0  0.00000000000E+00  0.00000000000E+00 -0.13127255162E+04  0.13127255162E+04  0.50400001928E-02 0.  1.
    10030    2    1    2    0    0  0.00000000000E+00  0.00000000000E+00 -0.11666376606E+04  0.14588133719E+04  0.87583846862E+03 0.  0.
        4    1    3    3  502    0 -0.42054868363E+03  0.37320138743E+02 -0.77697279614E+03  0.88427502899E+03  0.12699999809E+01 0.  1.
       -4    1    3    3    0  502  0.42054868363E+03 -0.37320138743E+02 -0.38966486442E+03  0.57453834295E+03  0.12699999809E+01 0. -1.
</event>
<event>
 5   0  0.8738044E-03  0.9192344E+03  0.7818609E-02  0.9401852E-01
        1   -1    0    0  501    0  0.00000000000E+00  0.00000000000E+00  0.14833646958E+04  0.14833646958E+04  0.50400001928E-02 0. -1.
       -1   -1    0    0    0  501  0.00000000000E+00  0.00000000000E+00 -0.14241134761E+03  0.14241134770E+03  0.50400001928E-02 0.  1.
    10030    2    1    2    0    0  0.00000000000E+00  0.00000000000E+00  0.13409533482E+04  0.16257760435E+04  0.91923438886E+03 0.  0.
        3    1    3    3  502    0 -0.34182934477E+03 -0.17522707827E+03  0.11168425274E+04  0.11810542203E+04  0.10100000352E+00 0. -1.
       -3    1    3    3    0  502  0.34182934477E+03  0.17522707827E+03  0.22411082078E+03  0.44472182328E+03  0.10100000352E+00 0.  1.
</event>
<event>
 5   0  0.8738044E-03  0.8960780E+03  0.7818609E-02  0.9430497E-01
       -1   -1    0    0    0  501  0.00000000000E+00  0.00000000000E+00  0.78318453872E+02  0.78318454034E+02  0.50400001928E-02 0.  1.
        1   -1    0    0  501    0  0.00000000000E+00  0.00000000000E+00 -0.25631116982E+04  0.25631116982E+04  0.50400001928E-02 0. -1.
    10030    2    1    2    0    0  0.00000000000E+00  0.00000000000E+00 -0.24847932443E+04  0.26414301522E+04  0.89607800001E+03 0.  0.
        3    1    3    3  502    0 -0.29949450233E+03 -0.52426409769E+02 -0.27234597246E+03  0.40818846663E+03  0.10100000352E+00 0.  1.
       -3    1    3    3    0  502  0.29949450233E+03  0.52426409769E+02 -0.22124472719E+04  0.22332416856E+04  0.10100000352E+00 0. -1.
</event>
<event>
 5   0  0.8885324E-03  0.9034388E+03  0.7818609E-02  0.9421293E-01
       -1   -1    0    0    0  501  0.00000000000E+00  0.00000000000E+00  0.19818790172E+03  0.19818790179E+03  0.50400001928E-02 0.  1.
        1   -1    0    0  501    0  0.00000000000E+00  0.00000000000E+00 -0.10295805249E+04  0.10295805249E+04  0.50400001928E-02 0. -1.
    10030    2    1    2    0    0  0.00000000000E+00  0.00000000000E+00 -0.83139262314E+03  0.12277684267E+04  0.90343877252E+03 0.  0.
        2    1    3    3  502    0  0.40916287136E+03 -0.20626131596E+02 -0.67430092232E+03  0.78900027025E+03  0.25500000920E-02 0. -1.
       -2    1    3    3    0  502 -0.40916287136E+03  0.20626131596E+02 -0.15709170082E+03  0.43876815641E+03  0.25500000920E-02 0.  1.
</event>
<event>
 5   0  0.1483326E-02  0.8813390E+03  0.7818609E-02  0.9449214E-01
        2   -1    0    0  501    0  0.00000000000E+00  0.00000000000E+00  0.95755723877E+03  0.95755723877E+03  0.25500000920E-02 0.  1.
       -2   -1    0    0    0  501  0.00000000000E+00  0.00000000000E+00 -0.20279687305E+03  0.20279687307E+03  0.25500000920E-02 0. -1.
    10030    2    1    2    0    0  0.00000000000E+00  0.00000000000E+00  0.75476036572E+03  0.11603541118E+04  0.88133901264E+03 0.  0.
        1    1    3    3  502    0 -0.24898467817E+03  0.21636047656E+03 -0.73327496794E+01  0.32993786540E+03  0.50400001928E-02 0. -1.
       -1    1    3    3    0  502  0.24898467817E+03 -0.21636047656E+03  0.76209311540E+03  0.83041624644E+03  0.50400001928E-02 0.  1.
</event>
<event>
 5   0  0.1440615E-02  0.9090820E+03  0.7818609E-02  0.9414299E-01
        2   -1    0    0  501    0  0.00000000000E+00  0.00000000000E+00  0.13524414062E+04  0.13524414062E+04  0.25500000920E-02 0.  1.
       -2   -1    0    0    0  501  0.00000000000E+00  0.00000000000E+00 -0.15276634604E+03  0.15276634606E+03  0.25500000920E-02 0. -1.
    10030    2    1    2    0    0  0.00000000000E+00  0.00000000000E+00  0.11996750601E+04  0.15052077522E+04  0.90908202462E+03 0.  0.
        3    1    3    3  502    0 -0.31969753495E+03 -0.15721181815E+02  0.65481093982E+02  0.32671310547E+03  0.10100000352E+00 0. -1.
       -3    1    3    3    0  502  0.31969753495E+03  0.15721181815E+02  0.11341939661E+04  0.11784946468E+04  0.10100000352E+00 0.  1.
</event>
<event>
 5   0  0.8738044E-03  0.8673823E+03  0.7818609E-02  0.9467299E-01
       -1   -1    0    0    0  501  0.00000000000E+00  0.00000000000E+00  0.30862550275E+03  0.30862550279E+03  0.50400001928E-02 0. -1.
        1   -1    0    0  501    0  0.00000000000E+00  0.00000000000E+00 -0.60943769675E+03  0.60943769677E+03  0.50400001928E-02 0.  1.
    10030    2    1    2    0    0  0.00000000000E+00  0.00000000000E+00 -0.30081219400E+03  0.91806319956E+03  0.86738230460E+03 0.  0.
        3    1    3    3  502    0  0.30276177766E+03  0.49860096752E+02  0.17399403073E+03  0.35273879314E+03  0.10100000352E+00 0. -1.
       -3    1    3    3    0  502 -0.30276177766E+03 -0.49860096752E+02 -0.47480622472E+03  0.56532440642E+03  0.10100000352E+00 0.  1.
</event>
<event>
 5   0  0.1454652E-02  0.8864830E+03  0.7818609E-02  0.9442638E-01
        2   -1    0    0  501    0  0.00000000000E+00  0.00000000000E+00  0.68594831268E+03  0.68594831269E+03  0.25500000920E-02 0. -1.
       -2   -1    0    0    0  501  0.00000000000E+00  0.00000000000E+00 -0.28641081505E+03  0.28641081506E+03  0.25500000920E-02 0.  1.
    10030    2    1    2    0    0  0.00000000000E+00  0.00000000000E+00  0.39953749764E+03  0.97235912774E+03  0.88648297293E+03 0.  0.
        4    1    3    3  502    0 -0.20066808891E+03  0.84892161830E+00  0.63326673078E+03  0.66430171442E+03  0.12699999809E+01 0. -1.
       -4    1    3    3    0  502  0.20066808891E+03 -0.84892161830E+00 -0.23372923314E+03  0.30805741332E+03  0.12699999809E+01 0.  1.
</event>
<event>
 5   0  0.8738044E-03  0.9335810E+03  0.7818609E-02  0.9384550E-01
       -1   -1    0    0    0  501  0.00000000000E+00  0.00000000000E+00  0.95196315299E+03  0.95196315300E+03  0.50400001928E-02 0. -1.
        1   -1    0    0  501    0  0.00000000000E+00  0.00000000000E+00 -0.22888845597E+03  0.22888845603E+03  0.50400001928E-02 0.  1.
    10030    2    1    2    0    0  0.00000000000E+00  0.00000000000E+00  0.72307469702E+03  0.11808516090E+04  0.93358101153E+03 0.  0.
        3    1    3    3  502    0  0.41929374013E+03  0.13533842112E+03  0.16652837623E+03  0.47101532781E+03  0.10100000352E+00 0.  1.
       -3    1    3    3    0  502 -0.41929374013E+03 -0.13533842112E+03  0.55654632079E+03  0.70983628122E+03  0.10100000352E+00 0. -1.
</event>
<event>
 5   0  0.8738044E-03  0.8876459E+03  0.7818609E-02  0.9441158E-01
        1   -1    0    0  501    0  0.00000000000E+00  0.00000000000E+00  0.99446895498E+03  0.99446895499E+03  0.50400001928E-02 0. -1.
       -1   -1    0    0    0  501  0.00000000000E+00  0.00000000000E+00 -0.19807437696E+03  0.19807437702E+03  0.50400001928E-02 0.  1.
    10030    2    1    2    0    0  0.00000000000E+00  0.00000000000E+00  0.79639457802E+03  0.11925433320E+04  0.88764591748E+03 0.  0.
        3    1    3    3  502    0 -0.31836983553E+03 -0.30800798474E+03  0.36139111682E+03  0.57169206777E+03  0.10100000352E+00 0.  1.
       -3    1    3    3    0  502  0.31836983553E+03  0.30800798474E+03  0.43500346120E+03  0.62085126423E+03  0.10100000352E+00 0. -1.
</event>
<event>
 5   0  0.1441195E-02  0.8999758E+03  0.7818609E-02  0.9425612E-01
        2   -1    0    0  501    0  0.00000000000E+00  0.00000000000E+00  0.88830592580E+03  0.88830592580E+03  0.25500000920E-02 0.  1.
       -2   -1    0    0    0  501  0.00000000000E+00  0.00000000000E+00 -0.22794973210E+03  0.22794973211E+03  0.25500000920E-02 0. -1.
    10030    2    1    2    0    0  0.00000000000E+00  0.00000000000E+00  0.66035619370E+03  0.11162556579E+04  0.89997577260E+03 0.  0.
        5    1    3    3  502    0  0.12266509883E+03  0.24724289553E+03 -0.11059944108E+03  0.29737199301E+03  0.46999998093E+01 0. -1.
       -5    1    3    3    0  502 -0.12266509883E+03 -0.24724289553E+03  0.77095563478E+03  0.81888366491E+03  0.46999998093E+01 0.  1.
</event>
<event>
 5   0  0.8612969E-03  0.8684480E+03  0.7818609E-02  0.9465906E-01
        1   -1    0    0  501    0  0.00000000000E+00  0.00000000000E+00  0.12800203315E+04  0.12800203315E+04  0.50400001928E-02 0. -1.
       -1   -1    0    0    0  501  0.00000000000E+00  0.00000000000E+00 -0.14730272241E+03  0.14730272250E+03  0.50400001928E-02 0.  1.
    10030    2    1    2    0    0  0.00000000000E+00  0.00000000000E+00  0.11327176091E+04  0.14273230540E+04  0.86844799417E+03 0.  0.
        4    1    3    3  502    0 -0.39854544773E+02 -0.12657232178E+03  0.12458756448E+04  0.12529232509E+04  0.12699999809E+01 0. -1.
       -4    1    3    3    0  502  0.39854544773E+02  0.12657232178E+03 -0.11315803572E+03  0.17439980312E+03  0.12699999809E+01 0.  1.
</event>
<event>
 5   0  0.8738044E-03  0.8979723E+03  0.7818609E-02  0.9428120E-01
        1   -1    0    0  501    0  0.00000000000E+00  0.00000000000E+00  0.23308268172E+04  0.23308268172E+04  0.50400001928E-02 0.  1.
       -1   -1    0    0    0  501  0.00000000000E+00  0.00000000000E+00 -0.86487999046E+02  0.86487999193E+02  0.50400001928E-02 0. -1.
    10030    2    1    2    0    0  0.00000000000E+00  0.00000000000E+00  0.22443388182E+04  0.24173148164E+04  0.89797226623E+03 0.  0.
        3    1    3    3  502    0  0.11880106257E+02 -0.39728664740E+03  0.16843384443E+04  0.17305992668E+04  0.10100000352E+00 0.  1.
       -3    1    3    3    0  502 -0.11880106257E+02  0.39728664740E+03  0.56000037385E+03  0.68671554958E+03  0.10100000352E+00 0. -1.
</event>
<event>
 5   0  0.1535906E-02  0.8904102E+03  0.7818609E-02  0.9437649E-01
       -2   -1    0    0    0  501  0.00000000000E+00  0.00000000000E+00  0.12654872646E+03  0.12654872648E+03  0.25500000920E-02 0.  1.
        2   -1    0    0  501    0  0.00000000000E+00  0.00000000000E+00 -0.15662550528E+04  0.15662550528E+04  0.25500000920E-02 0. -1.
    10030    2    1    2    0    0  0.00000000000E+00  0.00000000000E+00 -0.14397063263E+04  0.16928037792E+04  0.89041020268E+03 0.  0.
        2    1    3    3  502    0 -0.16150657669E+03  0.35972896644E+03 -0.11127905606E+04  0.11805897405E+04  0.25500000920E-02 0.  1.
       -2    1    3    3    0  502  0.16150657669E+03 -0.35972896644E+03 -0.32691576570E+03  0.51221403874E+03  0.25500000920E-02 0. -1.
</event>
<event>
 5   0  0.8612969E-03  0.9010358E+03  0.7818609E-02  0.9424288E-01
        1   -1    0    0  501    0  0.00000000000E+00  0.00000000000E+00  0.34103231884E+03  0.34103231887E+03  0.50400001928E-02 0.  1.
       -1   -1    0    0    0  501  0.00000000000E+00  0.00000000000E+00 -0.59515287307E+03  0.59515287309E+03  0.50400001928E-02 0. -1.
    10030    2    1    2    0    0  0.00000000000E+00  0.00000000000E+00 -0.25412055423E+03  0.93618519197E+03  0.90103576931E+03 0.  0.
        4    1    3    3  502    0  0.33634627125E+03 -0.28823249796E+03 -0.41646547428E+02  0.44490767006E+03  0.12699999809E+01 0. -1.
       -4    1    3    3    0  502 -0.33634627125E+03  0.28823249796E+03 -0.21247400681E+03  0.49127752191E+03  0.12699999809E+01 0.  1.
</event>
<event>
 5   0  0.1483326E-02  0.9030217E+03  0.7818609E-02  0.9421812E-01
       -2   -1    0    0    0  501  0.00000000000E+00  0.00000000000E+00  0.81277124858E+02  0.81277124898E+02  0.25500000920E-02 0. -1.
        2   -1    0    0  501    0  0.00000000000E+00  0.00000000000E+00 -0.25082340202E+04  0.25082340202E+04  0.25500000920E-02 0.  1.
    10030    2    1    2    0    0  0.00000000000E+00  0.00000000000E+00 -0.24269568953E+04  0.25895111451E+04  0.90302170446E+03 0.  0.
        1    1    3    3  502    0  0.27943568871E+03  0.17643807409E+03 -0.20956922104E+04  0.21215891542E+04  0.50400001928E-02 0.  1.
       -1    1    3    3    0  502 -0.27943568871E+03 -0.17643807409E+03 -0.33126468488E+03  0.46792199092E+03  0.50400001928E-02 0. -1.
</event>
<event>
 5   0  0.5770125E-03  0.8798061E+03  0.7818609E-02  0.9451183E-01
       -4   -1    0    0    0  501  0.00000000000E+00  0.00000000000E+00  0.12215088832E+04  0.12215095434E+04  0.12699999809E+01 0.  1.
        4   -1    0    0  501    0  0.00000000000E+00  0.00000000000E+00 -0.15841941685E+03  0.15842450737E+03  0.12699999809E+01 0. -1.
    10030    2    1    2    0    0  0.00000000000E+00  0.00000000000E+00  0.10630894663E+04  0.13799340508E+04  0.87980609853E+03 0.  0.
        3    1    3    3  502    0  0.13342236371E+03  0.22353633426E+03 -0.24636260055E+02  0.26148991450E+03  0.10100000352E+00 0. -1.
       -3    1    3    3    0  502 -0.13342236371E+03 -0.22353633426E+03  0.10877257264E+04  0.11184441363E+04  0.10100000352E+00 0.  1.
</event>
<event>
 5   0  0.8612969E-03  0.9059332E+03  0.7818609E-02  0.9418195E-01
        1   -1    0    0  501    0  0.00000000000E+00  0.00000000000E+00  0.62214328914E+03  0.62214328916E+03  0.50400001928E-02 0. -1.
       -1   -1    0    0    0  501  0.00000000000E+00  0.00000000000E+00 -0.32979335697E+03  0.32979335701E+03  0.50400001928E-02 0.  1.
    10030    2    1    2    0    0  0.00000000000E+00  0.00000000000E+00  0.29234993218E+03  0.95193664617E+03  0.90593316281E+03 0.  0.
        4    1    3    3  502    0  0.89946866862E+02 -0.44221642752E+03  0.18729396223E+03  0.48859640688E+03  0.12699999809E+01 0. -1.
       -4    1    3    3    0  502 -0.89946866862E+02  0.44221642752E+03  0.10505596995E+03  0.46334023929E+03  0.12699999809E+01 0.  1.
</event>
<event>
 5   0  0.1440615E-02  0.9009243E+03  0.7818609E-02  0.9424427E-01
        2   -1    0    0  501    0  0.00000000000E+00  0.00000000000E+00  0.10722278016E+04  0.10722278016E+04  0.25500000920E-02 0. -1.
       -2   -1    0    0    0  501  0.00000000000E+00  0.00000000000E+00 -0.18924722743E+03  0.18924722744E+03  0.25500000920E-02 0.  1.
    10030    2    1    2    0    0  0.00000000000E+00  0.00000000000E+00  0.88298057420E+03  0.12614750291E+04  0.90092427792E+03 0.  0.
        3    1    3    3  502    0 -0.72312382225E+02  0.44140387200E+03  0.36674434469E+03  0.57841843280E+03  0.10100000352E+00 0. -1.
       -3    1    3    3    0  502  0.72312382225E+02 -0.44140387200E+03  0.51623622951E+03  0.68305659626E+03  0.10100000352E+00 0.  1.
</event>
<event>
 5   0  0.8738044E-03  0.9062206E+03  0.7818609E-02  0.9417839E-01
       -1   -1    0    0    0  501  0.00000000000E+00  0.00000000000E+00  0.22709982934E+03  0.22709982939E+03  0.50400001928E-02 0.  1.
        1   -1    0    0  501    0  0.00000000000E+00  0.00000000000E+00 -0.90404710153E+03  0.90404710154E+03  0.50400001928E-02 0. -1.
    10030    2    1    2    0    0  0.00000000000E+00  0.00000000000E+00 -0.67694727219E+03  0.11311469309E+04  0.90622059679E+03 0.  0.
        3    1    3    3  502    0 -0.29396936562E+03 -0.29537269736E+03 -0.11642714487E+03  0.43268731034E+03  0.10100000352E+00 0. -1.
       -3    1    3    3    0  502  0.29396936562E+03  0.29537269736E+03 -0.56052012732E+03  0.69845962059E+03  0.10100000352E+00 0.  1.
</event>
<event>
 5   0  0.1535906E-02  0.9302648E+03  0.7818609E-02  0.9388520E-01
        2   -1    0    0  501    0  0.00000000000E+00  0.00000000000E+00  0.46473510295E+03  0.46473510296E+03  0.25500000920E-02 0. -1.
       -2   -1    0    0    0  501  0.00000000000E+00  0.00000000000E+00 -0.46553007068E+03  0.46553007069E+03  0.25500000920E-02 0.  1.
    10030    2    1    2    0    0  0.00000000000E+00  0.00000000000E+00 -0.79496772631E+00  0.93026517364E+03  0.93026483397E+03 0.  0.
        2    1    3    3  502    0 -0.29088945802E+03  0.26585809881E+03  0.24668753069E+03  0.46492143777E+03  0.25500000920E-02 0. -1.
       -2    1    3    3    0  502  0.29088945802E+03 -0.26585809881E+03 -0.24748249842E+03  0.46534373588E+03  0.25500000920E-02 0.  1.
</event>
<event>
 5   0  0.1440615E-02  0.7491745E+03  0.7818609E-02  0.9636646E-01
       -2   -1    0    0    0  501  0.00000000000E+00  0.00000000000E+00  0.15653090033E+03  0.15653090036E+03  0.25500000920E-02 0.  1.
        2   -1    0    0  501    0  0.00000000000E+00  0.00000000000E+00 -0.89640845969E+03  0.89640845969E+03  0.25500000920E-02 0. -1.
    10030    2    1    2    0    0  0.00000000000E+00  0.00000000000E+00 -0.73987755936E+03  0.10529393601E+04  0.74917454115E+03 0.  0.
        3    1    3    3  502    0  0.33788354479E+03  0.40292748521E+02 -0.14982818305E+03  0.37180275693E+03  0.10100000352E+00 0.  1.
       -3    1    3    3    0  502 -0.33788354479E+03 -0.40292748521E+02 -0.59004937631E+03  0.68113660312E+03  0.10100000352E+00 0. -1.
</event>
<event>
 5   0  0.1535906E-02  0.9128682E+03  0.7818609E-02  0.9409637E-01
       -2   -1    0    0    0  501  0.00000000000E+00  0.00000000000E+00  0.28192165739E+03  0.28192165740E+03  0.25500000920E-02 0.  1.
        2   -1    0    0  501    0  0.00000000000E+00  0.00000000000E+00 -0.73897152904E+03  0.73897152905E+03  0.25500000920E-02 0. -1.
    10030    2    1    2    0    0  0.00000000000E+00  0.00000000000E+00 -0.45704987166E+03  0.10208931864E+04  0.91286817939E+03 0.  0.
        2    1    3    3  502    0 -0.85242773841E+02 -0.43463889758E+03 -0.10522986217E+03  0.45524787279E+03  0.25500000920E-02 0.  1.
       -2    1    3    3    0  502  0.85242773841E+02  0.43463889758E+03 -0.35182000949E+03  0.56564531366E+03  0.25500000920E-02 0. -1.
</event>
<event>
 5   0  0.1454652E-02  0.9017757E+03  0.7818609E-02  0.9423364E-01
        2   -1    0    0  501    0  0.00000000000E+00  0.00000000000E+00  0.29437931496E+04  0.29437931496E+04  0.25500000920E-02 0. -1.
       -2   -1    0    0    0  501  0.00000000000E+00  0.00000000000E+00 -0.69060506562E+02  0.69060506609E+02  0.25500000920E-02 0.  1.
    10030    2    1    2    0    0  0.00000000000E+00  0.00000000000E+00  0.28747326430E+04  0.30128536562E+04  0.90177568430E+03 0.  0.
        4    1    3    3  502    0  0.28986716265E+03 -0.46570482176E+01  0.28360701598E+03  0.40556036850E+03  0.12699999809E+01 0.  1.
       -4    1    3    3    0  502 -0.28986716265E+03  0.46570482176E+01  0.25911256271E+04  0.26072932877E+04  0.12699999809E+01 0. -1.
</event>
<event>
 5   0  0.8524692E-03  0.8530041E+03  0.7818609E-02  0.9486314E-01
       -1   -1    0    0    0  501  0.00000000000E+00  0.00000000000E+00  0.71100905817E+03  0.71100905819E+03  0.50400001928E-02 0. -1.
        1   -1    0    0  501    0  0.00000000000E+00  0.00000000000E+00 -0.25583924360E+03  0.25583924365E+03  0.50400001928E-02 0.  1.
    10030    2    1    2    0    0  0.00000000000E+00  0.00000000000E+00  0.45516981457E+03  0.96684830184E+03  0.85300414928E+03 0.  0.
        5    1    3    3  502    0 -0.33141396408E+03  0.81953410519E+02  0.51729571444E+03  0.61981329710E+03  0.46999998093E+01 0. -1.
       -5    1    3    3    0  502  0.33141396408E+03 -0.81953410519E+02 -0.62125899872E+02  0.34703500474E+03  0.46999998093E+01 0.  1.
</event>
<event>
 5   0  0.8612969E-03  0.9174544E+03  0.7818609E-02  0.9404022E-01
       -1   -1    0    0    0  501  0.00000000000E+00  0.00000000000E+00  0.29747794081E+03  0.29747794085E+03  0.50400001928E-02 0.  1.
        1   -1    0    0  501    0  0.00000000000E+00  0.00000000000E+00 -0.70738238449E+03  0.70738238451E+03  0.50400001928E-02 0. -1.
    10030    2    1    2    0    0  0.00000000000E+00  0.00000000000E+00 -0.40990444368E+03  0.10048603254E+04  0.91745442423E+03 0.  0.
        4    1    3    3  502    0 -0.67458132331E+02 -0.34430977106E+03  0.11871669995E+03  0.37039854996E+03  0.12699999809E+01 0.  1.
       -4    1    3    3    0  502  0.67458132331E+02  0.34430977106E+03 -0.52862114363E+03  0.63446177541E+03  0.12699999809E+01 0. -1.
</event>
<event>
 5   0  0.1535906E-02  0.9131141E+03  0.7818609E-02  0.9409335E-01
        2   -1    0    0  501    0  0.00000000000E+00  0.00000000000E+00  0.18755072579E+04  0.18755072579E+04  0.25500000920E-02 0.  1.
       -2   -1    0    0    0  501  0.00000000000E+00  0.00000000000E+00 -0.11114024864E+03  0.11114024867E+03  0.25500000920E-02 0. -1.
    10030    2    1    2    0    0  0.00000000000E+00  0.00000000000E+00  0.17643670092E+04  0.19866475066E+04  0.91311410677E+03 0.  0.
        2    1    3    3  502    0 -0.16808010192E+03 -0.42408586461E+03  0.92257170608E+03  0.10291930305E+04  0.25500000920E-02 0.  1.
       -2    1    3    3    0  502  0.16808010192E+03  0.42408586461E+03  0.84179530317E+03  0.95745447603E+03  0.25500000920E-02 0. -1.
</event>
<event>
 5   0  0.1535906E-02  0.8846873E+03  0.7818609E-02  0.9444928E-01
        2   -1    0    0  501    0  0.00000000000E+00  0.00000000000E+00  0.30560116917E+03  0.30560116918E+03  0.25500000920E-02 0. -1.
       -2   -1    0    0    0  501  0.00000000000E+00  0.00000000000E+00 -0.64027212247E+03  0.64027212247E+03  0.25500000920E-02 0.  1.
    10030    2    1    2    0    0  0.00000000000E+00  0.00000000000E+00 -0.33467095329E+03  0.94587329165E+03  0.88468731023E+03 0.  0.
        2    1    3    3  502    0 -0.89010288224E+02  0.33743244663E+03  0.12328057903E+03  0.37011023847E+03  0.25500000920E-02 0. -1.
       -2    1    3    3    0  502  0.89010288224E+02 -0.33743244663E+03 -0.45795153232E+03  0.57576305318E+03  0.25500000920E-02 0.  1.
</event>
<event>
 5   0  0.8524692E-03  0.8830391E+03  0.7818609E-02  0.9447035E-01
        1   -1    0    0  501    0  0.00000000000E+00  0.00000000000E+00  0.11509703875E+04  0.11509703875E+04  0.50400001928E-02 0. -1.
       -1   -1    0    0    0  501  0.00000000000E+00  0.00000000000E+00 -0.16936971662E+03  0.16936971669E+03  0.50400001928E-02 0.  1.
    10030    2    1    2    0    0  0.00000000000E+00  0.00000000000E+00  0.98160067091E+03  0.13203401042E+04  0.88303913486E+03 0.  0.
        5    1    3    3  502    0  0.40848419224E+03 -0.28134375947E+01  0.24037760337E+03  0.47399444399E+03  0.46999998093E+01 0. -1.
       -5    1    3    3    0  502 -0.40848419224E+03  0.28134375947E+01  0.74122306754E+03  0.84634566023E+03  0.46999998093E+01 0.  1.
</event>
<event>
 5   0  0.1440615E-02  0.9110358E+03  0.7818609E-02  0.9411890E-01
        2   -1    0    0  501    0  0.00000000000E+00  0.00000000000E+00  0.16712570728E+04  0.16712570728E+04  0.25500000920E-02 0.  1.
       -2   -1    0    0    0  501  0.00000000000E+00  0.00000000000E+00 -0.12415597148E+03  0.12415597151E+03  0.25500000920E-02 0. -1.
    10030    2    1    2    0    0  0.00000000000E+00  0.00000000000E+00  0.15471011013E+04  0.17954130443E+04  0.91103577425E+03 0.  0.
        3    1    3    3  502    0  0.12556746304E+03  0.34493114087E+03  0.24199215437E+03  0.43966452290E+03  0.10100000352E+00 0. -1.
       -3    1    3    3    0  502 -0.12556746304E+03 -0.34493114087E+03  0.13051089469E+04  0.13557485214E+04  0.10100000352E+00 0.  1.
</event>
<event>
 5   0  0.5770125E-03  0.8560179E+03  0.7818609E-02  0.9482295E-01
        4   -1    0    0  501    0  0.00000000000E+00  0.00000000000E+00  0.30784401565E+03  0.30784663531E+03  0.12699999809E+01 0.  1.
       -4   -1    0    0    0  501  0.00000000000E+00  0.00000000000E+00 -0.59507369243E+03  0.59507504763E+03  0.12699999809E+01 0. -1.
    10030    2    1    2    0    0  0.00000000000E+00  0.00000000000E+00 -0.28722967677E+03  0.90292168295E+03  0.85601791939E+03 0.  0.
        4    1    3    3  502    0  0.10910787576E+03  0.39853726651E+03 -0.26132508032E+03  0.48890581082E+03  0.12699999809E+01 0. -1.
       -4    1    3    3    0  502 -0.10910787576E+03 -0.39853726651E+03 -0.25904596449E+02  0.41401587212E+03  0.12699999809E+01 0.  1.
</event>
<event>
 5   0  0.8291252E-03  0.8794280E+03  0.7818609E-02  0.9451669E-01
        1   -1    0    0  501    0  0.00000000000E+00  0.00000000000E+00  0.58590525358E+03  0.58590525360E+03  0.50400001928E-02 0. -1.
       -1   -1    0    0    0  501  0.00000000000E+00  0.00000000000E+00 -0.32999945898E+03  0.32999945902E+03  0.50400001928E-02 0.  1.
    10030    2    1    2    0    0  0.00000000000E+00  0.00000000000E+00  0.25590579460E+03  0.91590471262E+03  0.87942803394E+03 0.  0.
        1    1    3    3  502    0  0.12053965326E+03  0.17092279445E+03  0.53078270670E+03  0.57050389256E+03  0.50400001928E-02 0. -1.
       -1    1    3    3    0  502 -0.12053965326E+03 -0.17092279445E+03 -0.27487691209E+03  0.34540082006E+03  0.50400001928E-02 0.  1.
</event>
<event>
 5   0  0.1535906E-02  0.9113631E+03  0.7818609E-02  0.9411487E-01
       -2   -1    0    0    0  501  0.00000000000E+00  0.00000000000E+00  0.52466446668E+03  0.52466446668E+03  0.25500000920E-02 0. -1.
        2   -1    0    0  501    0  0.00000000000E+00  0.00000000000E+00 -0.39576852172E+03  0.39576852173E+03  0.25500000920E-02 0.  1.
    10030    2    1    2    0    0  0.00000000000E+00  0.00000000000E+00  0.12889594496E+03  0.92043298841E+03  0.91136311179E+03 0.  0.
        2    1    3    3  502    0 -0.22129157415E+03  0.36367034684E+03  0.22860664641E+03  0.48320500903E+03  0.25500000920E-02 0. -1.
       -2    1    3    3    0  502  0.22129157415E+03 -0.36367034684E+03 -0.99710701448E+02  0.43722797938E+03  0.25500000920E-02 0.  1.
</event>
<event>
 5   0  0.1441195E-02  0.9093661E+03  0.7818609E-02  0.9413949E-01
        2   -1    0    0  501    0  0.00000000000E+00  0.00000000000E+00  0.37420648188E+03  0.37420648189E+03  0.25500000920E-02 0.  1.
       -2   -1    0    0    0  501  0.00000000000E+00  0.00000000000E+00 -0.55246680280E+03  0.55246680281E+03  0.25500000920E-02 0. -1.
    10030    2    1    2    0    0  0.00000000000E+00  0.00000000000E+00 -0.17826032092E+03  0.92667328470E+03  0.90936606192E+03 0.  0.
        5    1    3    3  502    0  0.44139915092E+02 -0.42704884283E+03  0.63369367434E+02  0.43400093663E+03  0.46999998093E+01 0.  1.
       -5    1    3    3    0  502 -0.44139915092E+02  0.42704884283E+03 -0.24162968835E+03  0.49267234807E+03  0.46999998093E+01 0. -1.
</event>
<event>
 5   0  0.5770125E-03  0.8928140E+03  0.7818609E-02  0.9434609E-01
        4   -1    0    0  501    0  0.00000000000E+00  0.00000000000E+00  0.51789475308E+03  0.51789631025E+03  0.12699999809E+01 0.  1.
       -4   -1    0    0    0  501  0.00000000000E+00  0.00000000000E+00 -0.38478386664E+03  0.38478596249E+03  0.12699999809E+01 0. -1.
    10030    2    1    2    0    0  0.00000000000E+00  0.00000000000E+00  0.13311088644E+03  0.90268227274E+03  0.89281396574E+03 0.  0.
        4    1    3    3  502    0 -0.11324990473E+03  0.23082783031E+02 -0.36939396211E+03  0.38705538097E+03  0.12699999809E+01 0. -1.
       -4    1    3    3    0  502  0.11324990473E+03 -0.23082783031E+02  0.50250484855E+03  0.51562689177E+03  0.12699999809E+01 0.  1.
</event>
<event>
 5   0  0.8524692E-03  0.9011479E+03  0.7818609E-02  0.9424148E-01
       -1   -1    0    0    0  501  0.00000000000E+00  0.00000000000E+00  0.12497200628E+03  0.12497200638E+03  0.50400001928E-02 0.  1.
        1   -1    0    0  501    0  0.00000000000E+00  0.00000000000E+00 -0.16244987222E+04  0.16244987222E+04  0.50400001928E-02 0. -1.
    10030    2    1    2    0    0  0.00000000000E+00  0.00000000000E+00 -0.14995267159E+04  0.17494707286E+04  0.90114785603E+03 0.  0.
        5    1    3    3  502    0 -0.25024885836E+02 -0.23000959558E+03 -0.15003124347E+04  0.15180547259E+04  0.46999998093E+01 0. -1.
       -5    1    3    3    0  502  0.25024885836E+02  0.23000959558E+03  0.78571877648E+00  0.23141600274E+03  0.46999998093E+01 0.  1.
</event>
<event>
 5   0  0.1454652E-02  0.9044183E+03  0.7818609E-02  0.9420075E-01
       -2   -1    0    0    0  501  0.00000000000E+00  0.00000000000E+00  0.15411669568E+03  0.15411669570E+03  0.25500000920E-02 0. -1.
        2   -1    0    0  501    0  0.00000000000E+00  0.00000000000E+00 -0.13268718643E+04  0.13268718643E+04  0.25500000920E-02 0.  1.
    10030    2    1    2    0    0  0.00000000000E+00  0.00000000000E+00 -0.11727551686E+04  0.14809885600E+04  0.90441828227E+03 0.  0.
        4    1    3    3  502    0  0.39944778852E+03 -0.74523833167E+02 -0.91132686369E+03  0.99781290974E+03  0.12699999809E+01 0.  1.
       -4    1    3    3    0  502 -0.39944778852E+03  0.74523833167E+02 -0.26142830490E+03  0.48317565022E+03  0.12699999809E+01 0. -1.
</event>
<event>
 5   0  0.8738044E-03  0.8833836E+03  0.7818609E-02  0.9446594E-01
        1   -1    0    0  501    0  0.00000000000E+00  0.00000000000E+00  0.15860887207E+04  0.15860887207E+04  0.50400001928E-02 0.  1.
       -1   -1    0    0    0  501  0.00000000000E+00  0.00000000000E+00 -0.12300173726E+03  0.12300173737E+03  0.50400001928E-02 0. -1.
    10030    2    1    2    0    0  0.00000000000E+00  0.00000000000E+00  0.14630869834E+04  0.17090904581E+04  0.88338364982E+03 0.  0.
        3    1    3    3  502    0 -0.38886794443E+03  0.69902071150E+02  0.11135546501E+04  0.11815703731E+04  0.10100000352E+00 0.  1.
       -3    1    3    3    0  502  0.38886794443E+03 -0.69902071150E+02  0.34953233338E+03  0.52752008496E+03  0.10100000352E+00 0. -1.
</event>
<event>
 5   0  0.8885324E-03  0.9334778E+03  0.7818609E-02  0.9384674E-01
        1   -1    0    0  501    0  0.00000000000E+00  0.00000000000E+00  0.39455103246E+03  0.39455103249E+03  0.50400001928E-02 0.  1.
       -1   -1    0    0    0  501  0.00000000000E+00  0.00000000000E+00 -0.55213435116E+03  0.55213435119E+03  0.50400001928E-02 0. -1.
    10030    2    1    2    0    0  0.00000000000E+00  0.00000000000E+00 -0.15758331870E+03  0.94668538368E+03  0.93347775193E+03 0.  0.
        2    1    3    3  502    0  0.34688794137E+03  0.29063526027E+03  0.37039411863E+02  0.45406168790E+03  0.25500000920E-02 0. -1.
       -2    1    3    3    0  502 -0.34688794137E+03 -0.29063526027E+03 -0.19462273057E+03  0.49262369578E+03  0.25500000920E-02 0.  1.
</event>
<event>
 5   0  0.1535906E-02  0.8927278E+03  0.7818609E-02  0.9434718E-01
        2   -1    0    0  501    0  0.00000000000E+00  0.00000000000E+00  0.15263538625E+04  0.15263538625E+04  0.25500000920E-02 0.  1.
       -2   -1    0    0    0  501  0.00000000000E+00  0.00000000000E+00 -0.13053377210E+03  0.13053377213E+03  0.25500000920E-02 0. -1.
    10030    2    1    2    0    0  0.00000000000E+00  0.00000000000E+00  0.13958200904E+04  0.16568876346E+04  0.89272779111E+03 0.  0.
        2    1    3    3  502    0  0.32402961366E+03  0.22853540055E+03  0.31746925289E+03  0.50794718857E+03  0.25500000920E-02 0. -1.
       -2    1    3    3    0  502 -0.32402961366E+03 -0.22853540055E+03  0.10783508375E+04  0.11489404460E+04  0.25500000920E-02 0.  1.
</event>
<event>
 5   0  0.1441195E-02  0.9011699E+03  0.7818609E-02  0.9424120E-01
       -2   -1    0    0    0  501  0.00000000000E+00  0.00000000000E+00  0.39332265431E+03  0.39332265432E+03  0.25500000920E-02 0. -1.
        2   -1    0    0  501    0  0.00000000000E+00  0.00000000000E+00 -0.51618382493E+03  0.51618382494E+03  0.25500000920E-02 0.  1.
    10030    2    1    2    0    0  0.00000000000E+00  0.00000000000E+00 -0.12286117062E+03  0.90950647926E+03  0.90116988885E+03 0.  0.
        5    1    3    3  502    0 -0.10278502409E+03  0.23407056352E+03 -0.43587613405E+03  0.50533541744E+03  0.46999998093E+01 0.  1.
       -5    1    3    3    0  502  0.10278502409E+03 -0.23407056352E+03  0.31301496344E+03  0.40417106182E+03  0.46999998093E+01 0. -1.
</event>
<event>
 5   0  0.8612969E-03  0.8566165E+03  0.7818609E-02  0.9481499E-01
       -1   -1    0    0    0  501  0.00000000000E+00  0.00000000000E+00  0.38980769490E+03  0.38980769493E+03  0.50400001928E-02 0.  1.
        1   -1    0    0  501    0  0.00000000000E+00  0.00000000000E+00 -0.47061139516E+03  0.47061139519E+03  0.50400001928E-02 0. -1.
    10030    2    1    2    0    0  0.00000000000E+00  0.00000000000E+00 -0.80803700259E+02  0.86041909012E+03  0.85661646766E+03 0.  0.
        4    1    3    3  502    0  0.36690726296E+03 -0.48662598483E+02 -0.25689830965E+03  0.45054116627E+03  0.12699999809E+01 0. -1.
       -4    1    3    3    0  502 -0.36690726296E+03  0.48662598483E+02  0.17609460939E+03  0.40987792385E+03  0.12699999809E+01 0.  1.
</event>
<event>
 5   0  0.1441195E-02  0.8910086E+03  0.7818609E-02  0.9436891E-01
        2   -1    0    0  501    0  0.00000000000E+00  0.00000000000E+00  0.36312764616E+03  0.36312764617E+03  0.25500000920E-02 0. -1.
       -2   -1    0    0    0  501  0.00000000000E+00  0.00000000000E+00 -0.54656830608E+03  0.54656830609E+03  0.25500000920E-02 0.  1.
    10030    2    1    2    0    0  0.00000000000E+00  0.00000000000E+00 -0.18344065992E+03  0.90969595226E+03  0.89100855767E+03 0.  0.
        5    1    3    3  502    0 -0.24554337968E+03  0.36550023586E+03 -0.22700731646E+02  0.44093013838E+03  0.46999998093E+01 0.  1.
       -5    1    3    3    0  502  0.24554337968E+03 -0.36550023586E+03 -0.16073992828E+03  0.46876581387E+03  0.46999998093E+01 0. -1.
</event>
<event>
 5   0  0.5770125E-03  0.9038146E+03  0.7818609E-02  0.9420826E-01
       -3   -1    0    0    0  501  0.00000000000E+00  0.00000000000E+00  0.35722390896E+03  0.35722392323E+03  0.10100000352E+00 0. -1.
        3   -1    0    0  501    0  0.00000000000E+00  0.00000000000E+00 -0.57168682486E+03  0.57168683378E+03  0.10100000352E+00 0.  1.
    10030    2    1    2    0    0  0.00000000000E+00  0.00000000000E+00 -0.21446291590E+03  0.92891075701E+03  0.90381461163E+03 0.  0.
        3    1    3    3  502    0  0.37825973477E+03  0.24524448386E+03 -0.74813287342E+02  0.45697081086E+03  0.10100000352E+00 0. -1.
       -3    1    3    3    0  502 -0.37825973477E+03 -0.24524448386E+03 -0.13964962856E+03  0.47193994615E+03  0.10100000352E+00 0.  1.
</event>
<event>
 5   0  0.8738044E-03  0.9017902E+03  0.7818609E-02  0.9423346E-01
        1   -1    0    0  501    0  0.00000000000E+00  0.00000000000E+00  0.49211160113E+03  0.49211160115E+03  0.50400001928E-02 0.  1.
       -1   -1    0    0    0  501  0.00000000000E+00  0.00000000000E+00 -0.41313063154E+03  0.41313063157E+03  0.50400001928E-02 0. -1.
    10030    2    1    2    0    0  0.00000000000E+00  0.00000000000E+00  0.78980969586E+02  0.90524223272E+03  0.90179016758E+03 0.  0.
        3    1    3    3  502    0  0.81324764697E+02  0.33032874649E+02  0.48345205385E+03  0.49135606919E+03  0.10100000352E+00 0.  1.
       -3    1    3    3    0  502 -0.81324764697E+02 -0.33032874649E+02 -0.40447108426E+03  0.41388616353E+03  0.10100000352E+00 0. -1.
</event>
<event>
 5   0  0.1535906E-02  0.8810255E+03  0.7818609E-02  0.9449616E-01
       -2   -1    0    0    0  501  0.00000000000E+00  0.00000000000E+00  0.97031928879E+02  0.97031928912E+02  0.25500000920E-02 0.  1.
        2   -1    0    0  501    0  0.00000000000E+00  0.00000000000E+00 -0.19998724819E+04  0.19998724819E+04  0.25500000920E-02 0. -1.
    10030    2    1    2    0    0  0.00000000000E+00  0.00000000000E+00 -0.19028405530E+04  0.20969044108E+04  0.88102550352E+03 0.  0.
        2    1    3    3  502    0 -0.22485705000E+03  0.30952649634E+03 -0.14711494892E+04  0.15200816309E+04  0.25500000920E-02 0. -1.
       -2    1    3    3    0  502  0.22485705000E+03 -0.30952649634E+03 -0.43169106374E+03  0.57682277988E+03  0.25500000920E-02 0.  1.
</event>
<event>
 5   0  0.1440615E-02  0.9287108E+03  0.7818609E-02  0.9390386E-01
        2   -1    0    0  501    0  0.00000000000E+00  0.00000000000E+00  0.96810148638E+03  0.96810148639E+03  0.25500000920E-02 0.  1.
       -2   -1    0    0    0  501  0.00000000000E+00  0.00000000000E+00 -0.22273073475E+03  0.22273073476E+03  0.25500000920E-02 0. -1.
    10030    2    1    2    0    0  0.00000000000E+00  0.00000000000E+00  0.74537075163E+03  0.11908322212E+04  0.92871083850E+03 0.  0.
        3    1    3    3  502    0  0.31566011334E+03  0.11706719248E+03 -0.37391455226E+02  0.33873908223E+03  0.10100000352E+00 0. -1.
       -3    1    3    3    0  502 -0.31566011334E+03 -0.11706719248E+03  0.78276220686E+03  0.85209313892E+03  0.10100000352E+00 0.  1.
</event>
<event>
 5   0  0.1483326E-02  0.9118972E+03  0.7818609E-02  0.9410830E-01
        2   -1    0    0  501    0  0.00000000000E+00  0.00000000000E+00  0.75700842238E+03  0.75700842238E+03  0.25500000920E-02 0.  1.
       -2   -1    0    0    0  501  0.00000000000E+00  0.00000000000E+00 -0.27461929472E+03  0.27461929473E+03  0.25500000920E-02 0. -1.
    10030    2    1    2    0    0  0.00000000000E+00  0.00000000000E+00  0.48238912766E+03  0.10316277171E+04  0.91189718512E+03 0.  0.
        1    1    3    3  502    0 -0.32897795285E+02  0.22533704298E+03  0.68806464641E+03  0.72477031226E+03  0.50400001928E-02 0.  1.
       -1    1    3    3    0  502  0.32897795285E+02 -0.22533704298E+03 -0.20567551875E+03  0.30685740485E+03  0.50400001928E-02 0. -1.
</event>
<event>
 5   0  0.8291252E-03  0.8983548E+03  0.7818609E-02  0.9427640E-01
       -1   -1    0    0    0  501  0.00000000000E+00  0.00000000000E+00  0.22685852192E+03  0.22685852197E+03  0.50400001928E-02 0. -1.
        1   -1    0    0  501    0  0.00000000000E+00  0.00000000000E+00 -0.88936628900E+03  0.88936628902E+03  0.50400001928E-02 0.  1.
    10030    2    1    2    0    0  0.00000000000E+00  0.00000000000E+00 -0.66250776709E+03  0.11162248110E+04  0.89835476690E+03 0.  0.
        1    1    3    3  502    0  0.93530224917E+02 -0.28628404227E+03  0.82813131671E+02  0.31235311850E+03  0.50400001928E-02 0. -1.
       -1    1    3    3    0  502 -0.93530224917E+02  0.28628404227E+03 -0.74532089876E+03  0.80387169249E+03  0.50400001928E-02 0.  1.
</event>
<event>
 5   0  0.1440615E-02  0.9114501E+03  0.7818609E-02  0.9411380E-01
        2   -1    0    0  501    0  0.00000000000E+00  0.00000000000E+00  0.19121865611E+03  0.19121865613E+03  0.25500000920E-02 0.  1.
       -2   -1    0    0    0  501  0.00000000000E+00  0.00000000000E+00 -0.10861144261E+04  0.10861144261E+04  0.25500000920E-02 0. -1.
    10030    2    1    2    0    0  0.00000000000E+00  0.00000000000E+00 -0.89489576997E+03  0.12773330822E+04  0.91145014334E+03 0.  0.
        3    1    3    3  502    0 -0.25201412234E+03  0.24917864631E+03 -0.45933538500E+02  0.35736678049E+03  0.10100000352E+00 0.  1.
       -3    1    3    3    0  502  0.25201412234E+03 -0.24917864631E+03 -0.84896223147E+03  0.91996630172E+03  0.10100000352E+00 0. -1.
</event>
<event>
 5   0  0.8612969E-03  0.8969906E+03  0.7818609E-02  0.9429351E-01
        1   -1    0    0  501    0  0.00000000000E+00  0.00000000000E+00  0.20631640591E+03  0.20631640597E+03  0.50400001928E-02 0.  1.
       -1   -1    0    0    0  501  0.00000000000E+00  0.00000000000E+00 -0.97494918835E+03  0.97494918837E+03  0.50400001928E-02 0. -1.
    10030    2    1    2    0    0  0.00000000000E+00  0.00000000000E+00 -0.76863278245E+03  0.11812655943E+04  0.89699055185E+03 0.  0.
        4    1    3    3  502    0 -0.17854517921E+03  0.18468678144E+03  0.99835762544E+02  0.27560185166E+03  0.12699999809E+01 0.  1.
       -4    1    3    3    0  502  0.17854517921E+03 -0.18468678144E+03 -0.86846854499E+03  0.90566374268E+03  0.12699999809E+01 0. -1.
</event>
<event>
 5   0  0.1441195E-02  0.8759987E+03  0.7818609E-02  0.9456092E-01
        2   -1    0    0  501    0  0.00000000000E+00  0.00000000000E+00  0.10556368016E+04  0.10556368016E+04  0.25500000920E-02 0. -1.
       -2   -1    0    0    0  501  0.00000000000E+00  0.00000000000E+00 -0.18173243431E+03  0.18173243433E+03  0.25500000920E-02 0.  1.
    10030    2    1    2    0    0  0.00000000000E+00  0.00000000000E+00  0.87390436728E+03  0.12373692359E+04  0.87599873451E+03 0.  0.
        5    1    3    3  502    0 -0.14002643805E+03 -0.68592313386E+02  0.10150681571E+04  0.10269847917E+04  0.46999998093E+01 0. -1.
       -5    1    3    3    0  502  0.14002643805E+03  0.68592313386E+02 -0.14116378984E+03  0.21038444422E+03  0.46999998093E+01 0.  1.
</event>
<event>
 5   0  0.8612969E-03  0.9130859E+03  0.7818609E-02  0.9409370E-01
       -1   -1    0    0    0  501  0.00000000000E+00  0.00000000000E+00  0.31513637172E+03  0.31513637176E+03  0.50400001928E-02 0. -1.
        1   -1    0    0  501    0  0.00000000000E+00  0.00000000000E+00 -0.66140083387E+03  0.66140083389E+03  0.50400001928E-02 0.  1.
    10030    2    1    2    0    0  0.00000000000E+00  0.00000000000E+00 -0.34626446216E+03  0.97653720565E+03  0.91308588658E+03 0.  0.
        4    1    3    3  502    0  0.26408537855E+03 -0.37211264366E+03 -0.15723528204E+03  0.48263179915E+03  0.12699999809E+01 0. -1.
       -4    1    3    3    0  502 -0.26408537855E+03  0.37211264366E+03 -0.18902918012E+03  0.49390540650E+03  0.12699999809E+01 0.  1.
</event>
<event>
 5   0  0.8738044E-03  0.8956075E+03  0.7818609E-02  0.9431089E-01
       -1   -1    0    0    0  501  0.00000000000E+00  0.00000000000E+00  0.32792305941E+03  0.32792305945E+03  0.50400001928E-02 0.  1.
        1   -1    0    0  501    0  0.00000000000E+00  0.00000000000E+00 -0.61150997064E+03  0.61150997066E+03  0.50400001928E-02 0. -1.
    10030    2    1    2    0    0  0.00000000000E+00  0.00000000000E+00 -0.28358691123E+03  0.93943303010E+03  0.89560754900E+03 0.  0.
        3    1    3    3  502    0  0.13673386516E+03 -0.16147733336E+02 -0.58875658078E+03  0.60464139851E+03  0.10100000352E+00 0. -1.
       -3    1    3    3    0  502 -0.13673386516E+03  0.16147733336E+02  0.30516966955E+03  0.33479163160E+03  0.10100000352E+00 0.  1.
</event>
<event>
 5   0  0.1483326E-02  0.8822467E+03  0.7818609E-02  0.9448050E-01
        2   -1    0    0  501    0  0.00000000000E+00  0.00000000000E+00  0.82261310101E+03  0.82261310102E+03  0.25500000920E-02 0. -1.
       -2   -1    0    0    0  501  0.00000000000E+00  0.00000000000E+00 -0.23655081737E+03  0.23655081738E+03  0.25500000920E-02 0.  1.
    10030    2    1    2    0    0  0.00000000000E+00  0.00000000000E+00  0.58606228365E+03  0.10591639184E+04  0.88224668077E+03 0.  0.
        1    1    3    3  502    0  0.14113595777E+03  0.41407188427E+03  0.36110150377E+03  0.56724701848E+03  0.50400001928E-02 0. -1.
       -1    1    3    3    0  502 -0.14113595777E+03 -0.41407188427E+03  0.22496077988E+03  0.49191689992E+03  0.50400001928E-02 0.  1.
</event>
<event>
 5   0  0.1454652E-02  0.8541167E+03  0.7818609E-02  0.9484828E-01
        2   -1    0    0  501    0  0.00000000000E+00  0.00000000000E+00  0.49088673526E+03  0.49088673527E+03  0.25500000920E-02 0. -1.
       -2   -1    0    0    0  501  0.00000000000E+00  0.00000000000E+00 -0.37152935118E+03  0.37152935119E+03  0.25500000920E-02 0.  1.
    10030    2    1    2    0    0  0.00000000000E+00  0.00000000000E+00  0.11935738408E+03  0.86241608645E+03  0.85411669053E+03 0.  0.
        4    1    3    3  502    0 -0.26650984392E+03  0.65835723781E+02  0.38998946242E+03  0.47692266997E+03  0.12699999809E+01 0. -1.
       -4    1    3    3    0  502  0.26650984392E+03 -0.65835723781E+02 -0.27063207833E+03  0.38549341649E+03  0.12699999809E+01 0.  1.
</event>
<event>
 5   0  0.1440615E-02  0.9075777E+03  0.7818609E-02  0.9416158E-01
        2   -1    0    0  501    0  0.00000000000E+00  0.00000000000E+00  0.68887679575E+03  0.68887679575E+03  0.25500000920E-02 0.  1.
       -2   -1    0    0    0  501  0.00000000000E+00  0.00000000000E+00 -0.29892762467E+03  0.29892762468E+03  0.25500000920E-02 0. -1.
    10030    2    1    2    0    0  0.00000000000E+00  0.00000000000E+00  0.38994917107E+03  0.98780442043E+03  0.90757766445E+03 0.  0.
        3    1    3    3  502    0  0.39133754561E+03 -0.19555844657E+02  0.44411231378E+03  0.59225270208E+03  0.10100000352E+00 0.  1.
       -3    1    3    3    0  502 -0.39133754561E+03  0.19555844657E+02 -0.54163142710E+02  0.39555171835E+03  0.10100000352E+00 0. -1.
</event>
<event>
 5   0  0.8885324E-03  0.8991958E+03  0.7818609E-02  0.9426587E-01
       -1   -1    0    0    0  501  0.00000000000E+00  0.00000000000E+00  0.10539166150E+04  0.10539166150E+04  0.50400001928E-02 0. -1.
        1   -1    0    0  501    0  0.00000000000E+00  0.00000000000E+00 -0.19179722927E+03  0.19179722934E+03  0.50400001928E-02 0.  1.
    10030    2    1    2    0    0  0.00000000000E+00  0.00000000000E+00  0.86211938572E+03  0.12457138443E+04  0.89919583337E+03 0.  0.
        2    1    3    3  502    0  0.11840824305E+03 -0.97928677056E+02 -0.15429198778E+03  0.21775342779E+03  0.25500000920E-02 0.  1.
       -2    1    3    3    0  502 -0.11840824305E+03  0.97928677056E+02  0.10164113735E+04  0.10279604166E+04  0.25500000920E-02 0. -1.
</event>
<event>
 5   0  0.8885324E-03  0.9016857E+03  0.7818609E-02  0.9423477E-01
       -1   -1    0    0    0  501  0.00000000000E+00  0.00000000000E+00  0.37861110322E+03  0.37861110326E+03  0.50400001928E-02 0.  1.
        1   -1    0    0  501    0  0.00000000000E+00  0.00000000000E+00 -0.53685503200E+03  0.53685503202E+03  0.50400001928E-02 0. -1.
    10030    2    1    2    0    0  0.00000000000E+00  0.00000000000E+00 -0.15824392878E+03  0.91546613528E+03  0.90168570125E+03 0.  0.
        2    1    3    3  502    0 -0.52524524535E+02  0.26953192653E+03 -0.44215199040E+03  0.52048503122E+03  0.25500000920E-02 0. -1.
       -2    1    3    3    0  502  0.52524524535E+02 -0.26953192653E+03  0.28390806163E+03  0.39498110406E+03  0.25500000920E-02 0.  1.
</event>
<event>
 5   0  0.1441195E-02  0.8261794E+03  0.7818609E-02  0.9522878E-01
        2   -1    0    0  501    0  0.00000000000E+00  0.00000000000E+00  0.16565102794E+04  0.16565102794E+04  0.25500000920E-02 0. -1.
       -2   -1    0    0    0  501  0.00000000000E+00  0.00000000000E+00 -0.10301360889E+03  0.10301360892E+03  0.25500000920E-02 0.  1.
    10030    2    1    2    0    0  0.00000000000E+00  0.00000000000E+00  0.15534966705E+04  0.17595238883E+04  0.82617940443E+03 0.  0.
        5    1    3    3  502    0  0.39735698373E+03  0.71462931776E+00  0.10170184041E+04  0.10918981672E+04  0.46999998093E+01 0. -1.
       -5    1    3    3    0  502 -0.39735698373E+03 -0.71462931776E+00  0.53647826641E+03  0.66762572115E+03  0.46999998093E+01 0.  1.
</event>
<event>
 5   0  0.8291252E-03  0.8948620E+03  0.7818609E-02  0.9432027E-01
       -1   -1    0    0    0  501  0.00000000000E+00  0.00000000000E+00  0.30862762910E+03  0.30862762914E+03  0.50400001928E-02 0.  1.
        1   -1    0    0  501    0  0.00000000000E+00  0.00000000000E+00 -0.64866040073E+03  0.64866040075E+03  0.50400001928E-02 0. -1.
    10030    2    1    2    0    0  0.00000000000E+00  0.00000000000E+00 -0.34003277163E+03  0.95728802989E+03  0.89486204880E+03 0.  0.
        1    1    3    3  502    0  0.30580073687E+03 -0.94209986741E+02 -0.50457087808E+03  0.59747919068E+03  0.50400001928E-02 0. -1.
       -1    1    3    3    0  502 -0.30580073687E+03  0.94209986741E+02  0.16453810645E+03  0.35980883921E+03  0.50400001928E-02 0.  1.
</event>
<event>
 5   0  0.1440615E-02  0.8831011E+03  0.7818609E-02  0.9446956E-01
        2   -1    0    0  501    0  0.00000000000E+00  0.00000000000E+00  0.12107200385E+04  0.12107200385E+04  0.25500000920E-02 0.  1.
       -2   -1    0    0    0  501  0.00000000000E+00  0.00000000000E+00 -0.16103381766E+03  0.16103381768E+03  0.25500000920E-02 0. -1.
    10030    2    1    2    0    0  0.00000000000E+00  0.00000000000E+00  0.10496862209E+04  0.13717538562E+04  0.88310105862E+03 0.  0.
        3    1    3    3  502    0  0.26132021312E+03  0.31272900019E+03  0.26087090489E+03  0.48388151501E+03  0.10100000352E+00 0. -1.
       -3    1    3    3    0  502 -0.26132021312E+03 -0.31272900019E+03  0.78881531599E+03  0.88787234121E+03  0.10100000352E+00 0.  1.
</event>
<event>
 5   0  0.5770125E-03  0.9226888E+03  0.7818609E-02  0.9397655E-01
        4   -1    0    0  501    0  0.00000000000E+00  0.00000000000E+00  0.10024304459E+04  0.10024312504E+04  0.12699999809E+01 0. -1.
       -4   -1    0    0    0  501  0.00000000000E+00  0.00000000000E+00 -0.21231984534E+03  0.21232364358E+03  0.12699999809E+01 0.  1.
    10030    2    1    2    0    0  0.00000000000E+00  0.00000000000E+00  0.79011060059E+03  0.12147548940E+04  0.92268883776E+03 0.  0.
        3    1    3    3  502    0 -0.36243724296E+03 -0.19079794039E+02  0.20098746295E+02  0.36349520414E+03  0.10100000352E+00 0.  1.
       -3    1    3    3    0  502  0.36243724296E+03  0.19079794039E+02  0.77001185430E+03  0.85125968987E+03  0.10100000352E+00 0. -1.
</event>
<event>
 5   0  0.8612969E-03  0.8962219E+03  0.7818609E-02  0.9430317E-01
       -1   -1    0    0    0  501  0.00000000000E+00  0.00000000000E+00  0.33024347378E+03  0.33024347382E+03  0.50400001928E-02 0. -1.
        1   -1    0    0  501    0  0.00000000000E+00  0.00000000000E+00 -0.60804657807E+03  0.60804657809E+03  0.50400001928E-02 0.  1.
    10030    2    1    2    0    0  0.00000000000E+00  0.00000000000E+00 -0.27780310429E+03  0.93829005191E+03  0.89622187920E+03 0.  0.
        4    1    3    3  502    0  0.27376851689E+03 -0.21572462315E+03 -0.43375116950E+03  0.55644227357E+03  0.12699999809E+01 0.  1.
       -4    1    3    3    0  502 -0.27376851689E+03  0.21572462315E+03  0.15594806521E+03  0.38184777833E+03  0.12699999809E+01 0. -1.
</event>
<event>
 5   0  0.8524692E-03  0.8981015E+03  0.7818609E-02  0.9427958E-01
       -1   -1    0    0    0  501  0.00000000000E+00  0.00000000000E+00  0.42780044059E+03  0.42780044062E+03  0.50400001928E-02 0.  1.
        1   -1    0    0  501    0  0.00000000000E+00  0.00000000000E+00 -0.47135660018E+03  0.47135660021E+03  0.50400001928E-02 0. -1.
    10030    2    1    2    0    0  0.00000000000E+00  0.00000000000E+00 -0.43556159589E+02  0.89915704083E+03  0.89810146701E+03 0.  0.
        5    1    3    3  502    0 -0.31313256821E+03 -0.18555096120E+03  0.24148212604E+03  0.43682590545E+03  0.46999998093E+01 0.  1.
       -5    1    3    3    0  502  0.31313256821E+03  0.18555096120E+03 -0.28503828563E+03  0.46233113538E+03  0.46999998093E+01 0. -1.
</event>
<event>
 5   0  0.1454652E-02  0.8926519E+03  0.7818609E-02  0.9434814E-01
       -2   -1    0    0    0  501  0.00000000000E+00  0.00000000000E+00  0.13668791395E+03  0.13668791397E+03  0.25500000920E-02 0. -1.
        2   -1    0    0  501    0  0.00000000000E+00  0.00000000000E+00 -0.14573846362E+04  0.14573846362E+04  0.25500000920E-02 0.  1.
    10030    2    1    2    0    0  0.00000000000E+00  0.00000000000E+00 -0.13206967223E+04  0.15940725502E+04  0.89265192716E+03 0.  0.
        4    1    3    3  502    0 -0.45847252761E+02  0.15606718465E+02  0.13197846413E+03  0.14058971563E+03  0.12699999809E+01 0. -1.
       -4    1    3    3    0  502  0.45847252761E+02 -0.15606718465E+02 -0.14526751864E+04  0.14534828346E+04  0.12699999809E+01 0.  1.
</event>
<event>
 5   0  0.8524692E-03  0.9009479E+03  0.7818609E-02  0.9424397E-01
        1   -1    0    0  501    0  0.00000000000E+00  0.00000000000E+00  0.12257782020E+04  0.12257782021E+04  0.50400001928E-02 0.  1.
       -1   -1    0    0    0  501  0.00000000000E+00  0.00000000000E+00 -0.16554933060E+03  0.16554933068E+03  0.50400001928E-02 0. -1.
    10030    2    1    2    0    0  0.00000000000E+00  0.00000000000E+00  0.10602288714E+04  0.13913275327E+04  0.90094785838E+03 0.  0.
        5    1    3    3  502    0  0.31676588533E+03 -0.79729611576E+02  0.51116561502E+02  0.33065454772E+03  0.46999998093E+01 0. -1.
       -5    1    3    3    0  502 -0.31676588533E+03  0.79729611576E+02  0.10091123099E+04  0.10606729850E+04  0.46999998093E+01 0.  1.
</event>
<event>
 5   0  0.1535906E-02  0.8883131E+03  0.7818609E-02  0.9440310E-01
       -2   -1    0    0    0  501  0.00000000000E+00  0.00000000000E+00  0.45109841720E+03  0.45109841721E+03  0.25500000920E-02 0.  1.
        2   -1    0    0  501    0  0.00000000000E+00  0.00000000000E+00 -0.43732146351E+03  0.43732146352E+03  0.25500000920E-02 0. -1.
    10030    2    1    2    0    0  0.00000000000E+00  0.00000000000E+00  0.13776953686E+02  0.88841988073E+03  0.88831305294E+03 0.  0.
        2    1    3    3  502    0  0.29296129301E+03  0.19271304423E+03 -0.26574361493E+03  0.43998216498E+03  0.25500000920E-02 0. -1.
       -2    1    3    3    0  502 -0.29296129301E+03 -0.19271304423E+03  0.27952056862E+03  0.44843771575E+03  0.25500000920E-02 0.  1.
</event>
<event>
 5   0  0.8885324E-03  0.9121573E+03  0.7818609E-02  0.9410510E-01
        1   -1    0    0  501    0  0.00000000000E+00  0.00000000000E+00  0.18969617490E+03  0.18969617497E+03  0.50400001928E-02 0. -1.
       -1   -1    0    0    0  501  0.00000000000E+00  0.00000000000E+00 -0.10965310949E+04  0.10965310949E+04  0.50400001928E-02 0.  1.
    10030    2    1    2    0    0  0.00000000000E+00  0.00000000000E+00 -0.90683492003E+03  0.12862272699E+04  0.91215734260E+03 0.  0.
        2    1    3    3  502    0  0.10859686286E+03 -0.40094979930E+03 -0.18790864345E+03  0.45592069318E+03  0.25500000920E-02 0. -1.
       -2    1    3    3    0  502 -0.10859686286E+03  0.40094979930E+03 -0.71892627659E+03  0.83030657673E+03  0.25500000920E-02 0.  1.
</event>
<event>
 5   0  0.8612969E-03  0.9138147E+03  0.7818609E-02  0.9408475E-01
       -1   -1    0    0    0  501  0.00000000000E+00  0.00000000000E+00  0.91414574773E+03  0.91414574774E+03  0.50400001928E-02 0.  1.
        1   -1    0    0  501    0  0.00000000000E+00  0.00000000000E+00 -0.22837095224E+03  0.22837095230E+03  0.50400001928E-02 0. -1.
    10030    2    1    2    0    0  0.00000000000E+00  0.00000000000E+00  0.68577479549E+03  0.11425167000E+04  0.91381471850E+03 0.  0.
        4    1    3    3  502    0 -0.25102845074E+02 -0.13979754210E+03 -0.20006635106E+03  0.24536027253E+03  0.12699999809E+01 0. -1.
       -4    1    3    3    0  502  0.25102845074E+02  0.13979754210E+03  0.88584114655E+03  0.89715642751E+03  0.12699999809E+01 0.  1.
</event>
<event>
 5   0  0.1535906E-02  0.9010190E+03  0.7818609E-02  0.9424309E-01
       -2   -1    0    0    0  501  0.00000000000E+00  0.00000000000E+00  0.14667581773E+03  0.14667581775E+03  0.25500000920E-02 0. -1.
        2   -1    0    0  501    0  0.00000000000E+00  0.00000000000E+00 -0.13837236962E+04  0.13837236962E+04  0.25500000920E-02 0.  1.
    10030    2    1    2    0    0  0.00000000000E+00  0.00000000000E+00 -0.12370478784E+04  0.15303995139E+04  0.90101898907E+03 0.  0.
        2    1    3    3  502    0 -0.39431770150E+03  0.16707997486E+03 -0.85605366203E+03  0.95719905976E+03  0.25500000920E-02 0.  1.
       -2    1    3    3    0  502  0.39431770150E+03 -0.16707997486E+03 -0.38099421641E+03  0.57320045417E+03  0.25500000920E-02 0. -1.
</event>
<event>
 5   0  0.1483326E-02  0.8929027E+03  0.7818609E-02  0.9434497E-01
        2   -1    0    0  501    0  0.00000000000E+00  0.00000000000E+00  0.19343468490E+04  0.19343468490E+04  0.25500000920E-02 0. -1.
       -2   -1    0    0    0  501  0.00000000000E+00  0.00000000000E+00 -0.10304192346E+03  0.10304192349E+03  0.25500000920E-02 0.  1.
    10030    2    1    2    0    0  0.00000000000E+00  0.00000000000E+00  0.18313049256E+04  0.20373887725E+04  0.89290272705E+03 0.  0.
        1    1    3    3  502    0 -0.40510907081E+02 -0.41783903254E+03  0.56894349720E+03  0.70705536823E+03  0.50400001928E-02 0.  1.
       -1    1    3    3    0  502  0.40510907081E+02  0.41783903254E+03  0.12623614284E+04  0.13303334043E+04  0.50400001928E-02 0. -1.
</event>
<event>
 5   0  0.8885324E-03  0.8805465E+03  0.7818609E-02  0.9450231E-01
       -1   -1    0    0    0  501  0.00000000000E+00  0.00000000000E+00  0.21786536998E+03  0.21786537004E+03  0.50400001928E-02 0. -1.
        1   -1    0    0  501    0  0.00000000000E+00  0.00000000000E+00 -0.88972632275E+03  0.88972632276E+03  0.50400001928E-02 0.  1.
    10030    2    1    2    0    0  0.00000000000E+00  0.00000000000E+00 -0.67186095277E+03  0.11075916928E+04  0.88054654511E+03 0.  0.
        2    1    3    3  502    0 -0.24057344631E+02  0.11052855143E+03 -0.87113641713E+03  0.87844975597E+03  0.25500000920E-02 0.  1.
       -2    1    3    3    0  502  0.24057344631E+02 -0.11052855143E+03  0.19927546436E+03  0.22914193683E+03  0.25500000920E-02 0. -1.
</event>
<event>
 5   0  0.8291252E-03  0.9012046E+03  0.7818609E-02  0.9424077E-01
        1   -1    0    0  501    0  0.00000000000E+00  0.00000000000E+00  0.29667895039E+03  0.29667895043E+03  0.50400001928E-02 0. -1.
       -1   -1    0    0    0  501  0.00000000000E+00  0.00000000000E+00 -0.68438441550E+03  0.68438441552E+03  0.50400001928E-02 0.  1.
    10030    2    1    2    0    0  0.00000000000E+00  0.00000000000E+00 -0.38770546511E+03  0.98106336595E+03  0.90120463843E+03 0.  0.
        1    1    3    3  502    0  0.25101868496E+03  0.36778383334E+03 -0.26901532737E+03  0.52023511477E+03  0.50400001928E-02 0.  1.
       -1    1    3    3    0  502 -0.25101868496E+03 -0.36778383334E+03 -0.11869013774E+03  0.46082825118E+03  0.50400001928E-02 0. -1.
</event>
<event>
 5   0  0.8612969E-03  0.9075730E+03  0.7818609E-02  0.9416164E-01
       -1   -1    0    0    0  501  0.00000000000E+00  0.00000000000E+00  0.20079333790E+03  0.20079333797E+03  0.50400001928E-02 0. -1.
        1   -1    0    0  501    0  0.00000000000E+00  0.00000000000E+00 -0.10255430302E+04  0.10255430302E+04  0.50400001928E-02 0.  1.
    10030    2    1    2    0    0  0.00000000000E+00  0.00000000000E+00 -0.82474969231E+03  0.12263363682E+04  0.90757304554E+03 0.  0.
        4    1    3    3  502    0 -0.82518548773E+02  0.16077520828E+03 -0.97482035533E+03  0.99143043960E+03  0.12699999809E+01 0.  1.
       -4    1    3    3    0  502  0.82518548773E+02 -0.16077520828E+03  0.15007066302E+03  0.23490592860E+03  0.12699999809E+01 0. -1.
</event>
<event>
 5   0  0.1454652E-02  0.9128934E+03  0.7818609E-02  0.9409606E-01
       -2   -1    0    0    0  501  0.00000000000E+00  0.00000000000E+00  0.82533544789E+02  0.82533544829E+02  0.25500000920E-02 0. -1.
        2   -1    0    0  501    0  0.00000000000E+00  0.00000000000E+00 -0.25243503047E+04  0.25243503047E+04  0.25500000920E-02 0.  1.
    10030    2    1    2    0    0  0.00000000000E+00  0.00000000000E+00 -0.24418167599E+04  0.26068838495E+04  0.91289337601E+03 0.  0.
        4    1    3    3  502    0  0.10247538264E+03  0.17271388211E+03 -0.50412022513E+02  0.20706103939E+03  0.12699999809E+01 0. -1.
       -4    1    3    3    0  502 -0.10247538264E+03 -0.17271388211E+03 -0.23914047374E+04  0.23998228101E+04  0.12699999809E+01 0.  1.
</event>
<event>
 5   0  0.8738044E-03  0.9089719E+03  0.7818609E-02  0.9414435E-01
       -1   -1    0    0    0  501  0.00000000000E+00  0.00000000000E+00  0.47643278932E+03  0.47643278934E+03  0.50400001928E-02 0. -1.
        1   -1    0    0  501    0  0.00000000000E+00  0.00000000000E+00 -0.43355011900E+03  0.43355011903E+03  0.50400001928E-02 0.  1.
    10030    2    1    2    0    0  0.00000000000E+00  0.00000000000E+00  0.42882670319E+02  0.90998290837E+03  0.90897193032E+03 0.  0.
        3    1    3    3  502    0 -0.33661955626E+03  0.21851624478E+03 -0.19209242247E+03  0.44492874021E+03  0.10100000352E+00 0.  1.
       -3    1    3    3    0  502  0.33661955626E+03 -0.21851624478E+03  0.23497509279E+03  0.46505416816E+03  0.10100000352E+00 0. -1.
</event>
<event>
 5   0  0.8291252E-03  0.8725075E+03  0.7818609E-02  0.9460616E-01
        1   -1    0    0  501    0  0.00000000000E+00  0.00000000000E+00  0.77385417768E+03  0.77385417770E+03  0.50400001928E-02 0.  1.
       -1   -1    0    0    0  501  0.00000000000E+00  0.00000000000E+00 -0.24593433632E+03  0.24593433637E+03  0.50400001928E-02 0. -1.
    10030    2    1    2    0    0  0.00000000000E+00  0.00000000000E+00  0.52791984136E+03  0.10197885141E+04  0.87250745242E+03 0.  0.
        1    1    3    3  502    0 -0.99751941835E+02  0.29817291991E+03 -0.89512905181E+02  0.32690992687E+03  0.50400001928E-02 0. -1.
       -1    1    3    3    0  502  0.99751941835E+02 -0.29817291991E+03  0.61743274654E+03  0.69287858720E+03  0.50400001928E-02 0.  1.
</event>
<event>
 5   0  0.8291252E-03  0.8843258E+03  0.7818609E-02  0.9445390E-01
       -1   -1    0    0    0  501  0.00000000000E+00  0.00000000000E+00  0.40511906692E+03  0.40511906695E+03  0.50400001928E-02 0. -1.
        1   -1    0    0  501    0  0.00000000000E+00  0.00000000000E+00 -0.48259395681E+03  0.48259395683E+03  0.50400001928E-02 0.  1.
    10030    2    1    2    0    0  0.00000000000E+00  0.00000000000E+00 -0.77474889889E+02  0.88771302378E+03  0.88432576239E+03 0.  0.
        1    1    3    3  502    0  0.41180757022E+02  0.10183965515E+03 -0.46867792156E+03  0.48137943900E+03  0.50400001928E-02 0.  1.
       -1    1    3    3    0  502 -0.41180757022E+02 -0.10183965515E+03  0.39120303167E+03  0.40633358478E+03  0.50400001928E-02 0. -1.
</event>
<event>
 5   0  0.1454652E-02  0.9032169E+03  0.7818609E-02  0.9421569E-01
       -2   -1    0    0    0  501  0.00000000000E+00  0.00000000000E+00  0.24622642623E+03  0.24622642624E+03  0.25500000920E-02 0.  1.
        2   -1    0    0  501    0  0.00000000000E+00  0.00000000000E+00 -0.82830350716E+03  0.82830350716E+03  0.25500000920E-02 0. -1.
    10030    2    1    2    0    0  0.00000000000E+00  0.00000000000E+00 -0.58207708093E+03  0.10745299334E+04  0.90321694494E+03 0.  0.
        4    1    3    3  502    0 -0.55217825797E+02 -0.87980798644E+02 -0.81389669099E+03  0.82049927831E+03  0.12699999809E+01 0. -1.
       -4    1    3    3    0  502  0.55217825797E+02  0.87980798644E+02  0.23181961006E+03  0.25403065508E+03  0.12699999809E+01 0.  1.
</event>
<event>
 5   0  0.1440615E-02  0.8985685E+03  0.7818609E-02  0.9427373E-01
       -2   -1    0    0    0  501  0.00000000000E+00  0.00000000000E+00  0.32990474548E+03  0.32990474549E+03  0.25500000920E-02 0.  1.
        2   -1    0    0  501    0  0.00000000000E+00  0.00000000000E+00 -0.61186246871E+03  0.61186246871E+03  0.25500000920E-02 0. -1.
    10030    2    1    2    0    0  0.00000000000E+00  0.00000000000E+00 -0.28195772323E+03  0.94176721420E+03  0.89856848824E+03 0.  0.
        3    1    3    3  502    0 -0.38905018540E+03 -0.19934545852E+03 -0.32273402404E+02  0.43833804455E+03  0.10100000352E+00 0.  1.
       -3    1    3    3    0  502  0.38905018540E+03  0.19934545852E+03 -0.24968432083E+03  0.50342916966E+03  0.10100000352E+00 0. -1.
</event>
<event>
 5   0  0.5770125E-03  0.8989988E+03  0.7818609E-02  0.9426834E-01
        3   -1    0    0  501    0  0.00000000000E+00  0.00000000000E+00  0.41231501973E+03  0.41231503210E+03  0.10100000352E+00 0.  1.
       -3   -1    0    0    0  501  0.00000000000E+00  0.00000000000E+00 -0.49003721148E+03  0.49003722189E+03  0.10100000352E+00 0. -1.
    10030    2    1    2    0    0  0.00000000000E+00  0.00000000000E+00 -0.77722191750E+02  0.90235225399E+03  0.89899880489E+03 0.  0.
        3    1    3    3  502    0 -0.19700580829E+03 -0.12842956266E+03 -0.42336216936E+03  0.48429430898E+03  0.10100000352E+00 0. -1.
       -3    1    3    3    0  502  0.19700580829E+03  0.12842956266E+03  0.34563997761E+03  0.41805794501E+03  0.10100000352E+00 0.  1.
</event>
<event>
 5   0  0.1441195E-02  0.7065518E+03  0.7818609E-02  0.9706093E-01
        2   -1    0    0  501    0  0.00000000000E+00  0.00000000000E+00  0.25244583910E+03  0.25244583912E+03  0.25500000920E-02 0.  1.
       -2   -1    0    0    0  501  0.00000000000E+00  0.00000000000E+00 -0.49437875852E+03  0.49437875853E+03  0.25500000920E-02 0. -1.
    10030    2    1    2    0    0  0.00000000000E+00  0.00000000000E+00 -0.24193291942E+03  0.74682459765E+03  0.70655179722E+03 0.  0.
        5    1    3    3  502    0  0.11200559635E+03 -0.11534823812E+03  0.21149512302E+03  0.26571177375E+03  0.46999998093E+01 0.  1.
       -5    1    3    3    0  502 -0.11200559635E+03  0.11534823812E+03 -0.45342804244E+03  0.48111282390E+03  0.46999998093E+01 0. -1.
</event>
<event>
 5   0  0.1440615E-02  0.9089824E+03  0.7818609E-02  0.9414422E-01
       -2   -1    0    0    0  501  0.00000000000E+00  0.00000000000E+00  0.36716482884E+03  0.36716482885E+03  0.25500000920E-02 0.  1.
        2   -1    0    0  501    0  0.00000000000E+00  0.00000000000E+00 -0.56258722116E+03  0.56258722116E+03  0.25500000920E-02 0. -1.
    10030    2    1    2    0    0  0.00000000000E+00  0.00000000000E+00 -0.19542239232E+03  0.92975205001E+03  0.90898237776E+03 0.  0.
        3    1    3    3  502    0  0.86929525586E+02 -0.14643000397E+03  0.33330027157E+03  0.37428274033E+03  0.10100000352E+00 0.  1.
       -3    1    3    3    0  502 -0.86929525586E+02  0.14643000397E+03 -0.52872266389E+03  0.55546930968E+03  0.10100000352E+00 0. -1.
</event>
<event>
 5   0  0.8738044E-03  0.9027841E+03  0.7818609E-02  0.9422108E-01
        1   -1    0    0  501    0  0.00000000000E+00  0.00000000000E+00  0.19027918903E+04  0.19027918903E+04  0.50400001928E-02 0.  1.
       -1   -1    0    0    0  501  0.00000000000E+00  0.00000000000E+00 -0.10708200600E+03  0.10708200612E+03  0.50400001928E-02 0. -1.
    10030    2    1    2    0    0  0.00000000000E+00  0.00000000000E+00  0.17957098843E+04  0.20098738965E+04  0.90278407773E+03 0.  0.
        3    1    3    3  502    0 -0.31545446308E+03 -0.25455959995E+03  0.45570661551E+03  0.60990215430E+03  0.10100000352E+00 0.  1.
       -3    1    3    3    0  502  0.31545446308E+03  0.25455959995E+03  0.13400032688E+04  0.13999717422E+04  0.10100000352E+00 0. -1.
</event>
<event>
 5   0  0.1441195E-02  0.9138825E+03  0.7818609E-02  0.9408392E-01
       -2   -1    0    0    0  501  0.00000000000E+00  0.00000000000E+00  0.12343349354E+03  0.12343349357E+03  0.25500000920E-02 0. -1.
        2   -1    0    0  501    0  0.00000000000E+00  0.00000000000E+00 -0.16915611056E+04  0.16915611056E+04  0.25500000920E-02 0.  1.
    10030    2    1    2    0    0  0.00000000000E+00  0.00000000000E+00 -0.15681276121E+04  0.18149945992E+04  0.91388248004E+03 0.  0.
        5    1    3    3  502    0  0.54705879206E+02  0.22679551466E+03 -0.15643074480E+04  0.15816158891E+04  0.46999998093E+01 0.  1.
       -5    1    3    3    0  502 -0.54705879206E+02 -0.22679551466E+03 -0.38201640857E+01  0.23337871013E+03  0.46999998093E+01 0. -1.
</event>
<event>
 5   0  0.1535906E-02  0.8969238E+03  0.7818609E-02  0.9429435E-01
       -2   -1    0    0    0  501  0.00000000000E+00  0.00000000000E+00  0.19163861125E+03  0.19163861127E+03  0.25500000920E-02 0.  1.
        2   -1    0    0  501    0  0.00000000000E+00  0.00000000000E+00 -0.10494654172E+04  0.10494654172E+04  0.25500000920E-02 0. -1.
    10030    2    1    2    0    0  0.00000000000E+00  0.00000000000E+00 -0.85782680596E+03  0.12411040285E+04  0.89692384320E+03 0.  0.
        2    1    3    3  502    0 -0.27887396916E+03  0.24122670450E+03 -0.75703047598E+02  0.37641993181E+03  0.25500000920E-02 0.  1.
       -2    1    3    3    0  502  0.27887396916E+03 -0.24122670450E+03 -0.78212375837E+03  0.86468409668E+03  0.25500000920E-02 0. -1.
</event>
<event>
 5   0  0.1441195E-02  0.9035287E+03  0.7818609E-02  0.9421181E-01
       -2   -1    0    0    0  501  0.00000000000E+00  0.00000000000E+00  0.24528594584E+03  0.24528594585E+03  0.25500000920E-02 0. -1.
        2   -1    0    0  501    0  0.00000000000E+00  0.00000000000E+00 -0.83205351534E+03  0.83205351534E+03  0.25500000920E-02 0.  1.
    10030    2    1    2    0    0  0.00000000000E+00  0.00000000000E+00 -0.58676756950E+03  0.10773394612E+04  0.90352871235E+03 0.  0.
        5    1    3    3  502    0 -0.17276825254E+03 -0.35053590954E+03 -0.56356690364E+03  0.68582362007E+03  0.46999998093E+01 0.  1.
       -5    1    3    3    0  502  0.17276825254E+03  0.35053590954E+03 -0.23200665855E+02  0.39151584113E+03  0.46999998093E+01 0. -1.
</event>
<event>
 5   0  0.8291252E-03  0.9081157E+03  0.7818609E-02  0.9415493E-01
        1   -1    0    0  501    0  0.00000000000E+00  0.00000000000E+00  0.21038846533E+04  0.21038846533E+04  0.50400001928E-02 0. -1.
       -1   -1    0    0    0  501  0.00000000000E+00  0.00000000000E+00 -0.97994226853E+02  0.97994226983E+02  0.50400001928E-02 0.  1.
    10030    2    1    2    0    0  0.00000000000E+00  0.00000000000E+00  0.20058904265E+04  0.22018788803E+04  0.90811574183E+03 0.  0.
        1    1    3    3  502    0 -0.13224341743E+03  0.40450200759E+03  0.13867660045E+04  0.14505964797E+04  0.50400001928E-02 0. -1.
       -1    1    3    3    0  502  0.13224341743E+03 -0.40450200759E+03  0.61912442196E+03  0.75128240062E+03  0.50400001928E-02 0.  1.
</event>
<event>
 5   0  0.1535906E-02  0.8933283E+03  0.7818609E-02  0.9433960E-01
       -2   -1    0    0    0  501  0.00000000000E+00  0.00000000000E+00  0.76845917681E+03  0.76845917681E+03  0.25500000920E-02 0.  1.
        2   -1    0    0  501    0  0.00000000000E+00  0.00000000000E+00 -0.25962195493E+03  0.25962195494E+03  0.25500000920E-02 0. -1.
    10030    2    1    2    0    0  0.00000000000E+00  0.00000000000E+00  0.50883722188E+03  0.10280811318E+04  0.89332832436E+03 0.  0.
        2    1    3    3  502    0 -0.25380188026E+02  0.44307154925E+02  0.76508926602E+03  0.76679127728E+03  0.25500000920E-02 0.  1.
       -2    1    3    3    0  502  0.25380188026E+02 -0.44307154925E+02 -0.25625204414E+03  0.26128985448E+03  0.25500000920E-02 0. -1.
</event>
<event>
 5   0  0.8524692E-03  0.8883352E+03  0.7818609E-02  0.9440282E-01
       -1   -1    0    0    0  501  0.00000000000E+00  0.00000000000E+00  0.38824411786E+03  0.38824411789E+03  0.50400001928E-02 0.  1.
        1   -1    0    0  501    0  0.00000000000E+00  0.00000000000E+00 -0.50814637792E+03  0.50814637794E+03  0.50400001928E-02 0. -1.
    10030    2    1    2    0    0  0.00000000000E+00  0.00000000000E+00 -0.11990226006E+03  0.89639049584E+03  0.88833516707E+03 0.  0.
        5    1    3    3  502    0  0.22721710879E+03  0.34917443242E+03  0.95433378441E+02  0.42741083105E+03  0.46999998093E+01 0.  1.
       -5    1    3    3    0  502 -0.22721710879E+03 -0.34917443242E+03 -0.21533563850E+03  0.46897966479E+03  0.46999998093E+01 0. -1.
</event>
<event>
 5   0  0.8738044E-03  0.9003628E+03  0.7818609E-02  0.9425128E-01
       -1   -1    0    0    0  501  0.00000000000E+00  0.00000000000E+00  0.17598628850E+03  0.17598628857E+03  0.50400001928E-02 0.  1.
        1   -1    0    0  501    0  0.00000000000E+00  0.00000000000E+00 -0.11515856155E+04  0.11515856155E+04  0.50400001928E-02 0. -1.
    10030    2    1    2    0    0  0.00000000000E+00  0.00000000000E+00 -0.97559932697E+03  0.13275719040E+04  0.90036276779E+03 0.  0.
        3    1    3    3  502    0 -0.25355706811E+03 -0.13561956406E+03  0.22933308033E+02  0.28846108882E+03  0.10100000352E+00 0.  1.
       -3    1    3    3    0  502  0.25355706811E+03  0.13561956406E+03 -0.99853263500E+03  0.10391108152E+04  0.10100000352E+00 0. -1.
</event>
<event>
 5   0  0.1454652E-02  0.9126744E+03  0.7818609E-02  0.9409875E-01
        2   -1    0    0  501    0  0.00000000000E+00  0.00000000000E+00  0.31941015505E+03  0.31941015506E+03  0.25500000920E-02 0. -1.
       -2   -1    0    0    0  501  0.00000000000E+00  0.00000000000E+00 -0.65196313376E+03  0.65196313376E+03  0.25500000920E-02 0.  1.
    10030    2    1    2    0    0  0.00000000000E+00  0.00000000000E+00 -0.33255297871E+03  0.97137328882E+03  0.91267441215E+03 0.  0.
        4    1    3    3  502    0 -0.25325810953E+03 -0.10536485970E+03  0.22187128210E+03  0.35280292292E+03  0.12699999809E+01 0. -1.
       -4    1    3    3    0  502  0.25325810953E+03  0.10536485970E+03 -0.55442426081E+03  0.61857036590E+03  0.12699999809E+01 0.  1.
</event>
<event>
 5   0  0.8738044E-03  0.9001415E+03  0.7818609E-02  0.9425405E-01
       -1   -1    0    0    0  501  0.00000000000E+00  0.00000000000E+00  0.10122783915E+04  0.10122783915E+04  0.50400001928E-02 0.  1.
        1   -1    0    0  501    0  0.00000000000E+00  0.00000000000E+00 -0.20010668424E+03  0.20010668430E+03  0.50400001928E-02 0. -1.
    10030    2    1    2    0    0  0.00000000000E+00  0.00000000000E+00  0.81217170726E+03  0.12123850758E+04  0.90014148332E+03 0.  0.
        3    1    3    3  502    0 -0.21998056036E+03  0.12367856473E+03  0.90801583235E+03  0.94243333786E+03  0.10100000352E+00 0.  1.
       -3    1    3    3    0  502  0.21998056036E+03 -0.12367856473E+03 -0.95844125091E+02  0.26995173796E+03  0.10100000352E+00 0. -1.
</event>
<event>
 5   0  0.8612969E-03  0.8998747E+03  0.7818609E-02  0.9425738E-01
       -1   -1    0    0    0  501  0.00000000000E+00  0.00000000000E+00  0.62681747548E+03  0.62681747550E+03  0.50400001928E-02 0. -1.
        1   -1    0    0  501    0  0.00000000000E+00  0.00000000000E+00 -0.32297062654E+03  0.32297062658E+03  0.50400001928E-02 0.  1.
    10030    2    1    2    0    0  0.00000000000E+00  0.00000000000E+00  0.30384684894E+03  0.94978810209E+03  0.89987473087E+03 0.  0.
        4    1    3    3  502    0 -0.36973411625E+03 -0.24297100587E+03  0.23834157794E+03  0.50254009500E+03  0.12699999809E+01 0. -1.
       -4    1    3    3    0  502  0.36973411625E+03  0.24297100587E+03  0.65505271002E+02  0.44724800708E+03  0.12699999809E+01 0.  1.
</event>
<event>
 5   0  0.8738044E-03  0.8239980E+03  0.7818609E-02  0.9525916E-01
        1   -1    0    0  501    0  0.00000000000E+00  0.00000000000E+00  0.26516322748E+03  0.26516322753E+03  0.50400001928E-02 0. -1.
       -1   -1    0    0    0  501  0.00000000000E+00  0.00000000000E+00 -0.64014605195E+03  0.64014605197E+03  0.50400001928E-02 0.  1.
    10030    2    1    2    0    0  0.00000000000E+00  0.00000000000E+00 -0.37498282447E+03  0.90530927950E+03  0.82399804180E+03 0.  0.
        3    1    3    3  502    0 -0.59605635555E+02  0.11972469229E+03 -0.61563285657E+03  0.62999258569E+03  0.10100000352E+00 0.  1.
       -3    1    3    3    0  502  0.59605635555E+02 -0.11972469229E+03  0.24065003210E+03  0.27531669380E+03  0.10100000352E+00 0. -1.
</event>
<event>
 5   0  0.1441195E-02  0.9012304E+03  0.7818609E-02  0.9424045E-01
        2   -1    0    0  501    0  0.00000000000E+00  0.00000000000E+00  0.57162421080E+03  0.57162421081E+03  0.25500000920E-02 0. -1.
       -2   -1    0    0    0  501  0.00000000000E+00  0.00000000000E+00 -0.35522298336E+03  0.35522298337E+03  0.25500000920E-02 0.  1.
    10030    2    1    2    0    0  0.00000000000E+00  0.00000000000E+00  0.21640122745E+03  0.92684719418E+03  0.90123039791E+03 0.  0.
        5    1    3    3  502    0  0.33784489309E+03 -0.53973149758E+02  0.40975819931E+03  0.53383156949E+03  0.46999998093E+01 0. -1.
       -5    1    3    3    0  502 -0.33784489309E+03  0.53973149758E+02 -0.19335697187E+03  0.39301562469E+03  0.46999998093E+01 0.  1.
</event>
<event>
 5   0  0.8612969E-03  0.9080399E+03  0.7818609E-02  0.9415587E-01
       -1   -1    0    0    0  501  0.00000000000E+00  0.00000000000E+00  0.19414874669E+03  0.19414874676E+03  0.50400001928E-02 0.  1.
        1   -1    0    0  501    0  0.00000000000E+00  0.00000000000E+00 -0.10617328457E+04  0.10617328457E+04  0.50400001928E-02 0. -1.
    10030    2    1    2    0    0  0.00000000000E+00  0.00000000000E+00 -0.86758409904E+03  0.12558815925E+04  0.90803986998E+03 0.  0.
        4    1    3    3  502    0 -0.20247762638E+03 -0.32552601746E+03 -0.97367538250E+02  0.39553309297E+03  0.12699999809E+01 0.  1.
       -4    1    3    3    0  502  0.20247762638E+03  0.32552601746E+03 -0.77021656079E+03  0.86034849953E+03  0.12699999809E+01 0. -1.
</event>
<event>
 5   0  0.8524692E-03  0.8988168E+03  0.7818609E-02  0.9427062E-01
        1   -1    0    0  501    0  0.00000000000E+00  0.00000000000E+00  0.24880646369E+03  0.24880646374E+03  0.50400001928E-02 0.  1.
       -1   -1    0    0    0  501  0.00000000000E+00  0.00000000000E+00 -0.81174701668E+03  0.81174701669E+03  0.50400001928E-02 0. -1.
    10030    2    1    2    0    0  0.00000000000E+00  0.00000000000E+00 -0.56294055299E+03  0.10605534804E+04  0.89881678815E+03 0.  0.
        5    1    3    3  502    0 -0.11990711823E+03  0.42939414381E+03 -0.34810073265E+03  0.56564410879E+03  0.46999998093E+01 0.  1.
       -5    1    3    3    0  502  0.11990711823E+03 -0.42939414381E+03 -0.21483982034E+03  0.49490937165E+03  0.46999998093E+01 0. -1.
</event>
<event>
 5   0  0.1441195E-02  0.8922843E+03  0.7818609E-02  0.9435278E-01
       -2   -1    0    0    0  501  0.00000000000E+00  0.00000000000E+00  0.70573747651E+02  0.70573747697E+02  0.25500000920E-02 0.  1.
        2   -1    0    0  501    0  0.00000000000E+00  0.00000000000E+00 -0.28203520857E+04  0.28203520857E+04  0.25500000920E-02 0. -1.
    10030    2    1    2    0    0  0.00000000000E+00  0.00000000000E+00 -0.27497783380E+04  0.28909258334E+04  0.89228429651E+03 0.  0.
        5    1    3    3  502    0 -0.31563199596E+02 -0.38568349941E+03 -0.20940681884E+04  0.21295285076E+04  0.46999998093E+01 0. -1.
       -5    1    3    3    0  502  0.31563199596E+02  0.38568349941E+03 -0.65571014966E+03  0.76139732575E+03  0.46999998093E+01 0.  1.
</event>
<event>
 5   0  0.8524692E-03  0.8915845E+03  0.7818609E-02  0.9436163E-01
       -1   -1    0    0    0  501  0.00000000000E+00  0.00000000000E+00  0.35929701554E+03  0.35929701557E+03  0.50400001928E-02 0. -1.
        1   -1    0    0  501    0  0.00000000000E+00  0.00000000000E+00 -0.55310983396E+03  0.55310983399E+03  0.50400001928E-02 0.  1.
    10030    2    1    2    0    0  0.00000000000E+00  0.00000000000E+00 -0.19381281843E+03  0.91240684956E+03  0.89158446068E+03 0.  0.
        5    1    3    3  502    0  0.40032510480E+03 -0.98069396732E+02 -0.27066832366E+03  0.49311380789E+03  0.46999998093E+01 0.  1.
       -5    1    3    3    0  502 -0.40032510480E+03  0.98069396732E+02  0.76855505227E+02  0.41929304166E+03  0.46999998093E+01 0. -1.
</event>
<event>
 5   0  0.1454652E-02  0.8958052E+03  0.7818609E-02  0.9430840E-01
        2   -1    0    0  501    0  0.00000000000E+00  0.00000000000E+00  0.42664875982E+03  0.42664875982E+03  0.25500000920E-02 0. -1.
       -2   -1    0    0    0  501  0.00000000000E+00  0.00000000000E+00 -0.47021526745E+03  0.47021526745E+03  0.25500000920E-02 0.  1.
    10030    2    1    2    0    0  0.00000000000E+00  0.00000000000E+00 -0.43566507631E+02  0.89686402728E+03  0.89580524828E+03 0.  0.
        4    1    3    3  502    0 -0.30238640545E+03  0.43270779068E+02 -0.34974522380E+03  0.46436325543E+03  0.12699999809E+01 0.  1.
       -4    1    3    3    0  502  0.30238640545E+03 -0.43270779068E+02  0.30617871616E+03  0.43250077185E+03  0.12699999809E+01 0. -1.
</event>
<event>
 5   0  0.8885324E-03  0.9016058E+03  0.7818609E-02  0.9423576E-01
       -1   -1    0    0    0  501  0.00000000000E+00  0.00000000000E+00  0.11835670239E+03  0.11835670249E+03  0.50400001928E-02 0.  1.
        1   -1    0    0  501    0  0.00000000000E+00  0.00000000000E+00 -0.17170403680E+04  0.17170403680E+04  0.50400001928E-02 0. -1.
    10030    2    1    2    0    0  0.00000000000E+00  0.00000000000E+00 -0.15986836657E+04  0.18353970705E+04  0.90160575848E+03 0.  0.
        2    1    3    3  502    0 -0.33020053591E+03  0.12671253543E+03 -0.13683723278E+04  0.14133404714E+04  0.25500000920E-02 0. -1.
       -2    1    3    3    0  502  0.33020053591E+03 -0.12671253543E+03 -0.23031133787E+03  0.42205659917E+03  0.25500000920E-02 0.  1.
</event>
<event>
 5   0  0.8885324E-03  0.9225342E+03  0.7818609E-02  0.9397843E-01
       -1   -1    0    0    0  501  0.00000000000E+00  0.00000000000E+00  0.52657769293E+03  0.52657769296E+03  0.50400001928E-02 0.  1.
        1   -1    0    0  501    0  0.00000000000E+00  0.00000000000E+00 -0.40405690787E+03  0.40405690790E+03  0.50400001928E-02 0. -1.
    10030    2    1    2    0    0  0.00000000000E+00  0.00000000000E+00  0.12252078506E+03  0.93063460086E+03  0.92253423651E+03 0.  0.
        2    1    3    3  502    0  0.19288402663E+03  0.39722843925E+03 -0.73224371968E+02  0.44761198525E+03  0.25500000920E-02 0. -1.
       -2    1    3    3    0  502 -0.19288402663E+03 -0.39722843925E+03  0.19574515703E+03  0.48302261561E+03  0.25500000920E-02 0.  1.
</event>
<event>
 5   0  0.8291252E-03  0.9168110E+03  0.7818609E-02  0.9404807E-01
       -1   -1    0    0    0  501  0.00000000000E+00  0.00000000000E+00  0.34277808209E+03  0.34277808212E+03  0.50400001928E-02 0. -1.
        1   -1    0    0  501    0  0.00000000000E+00  0.00000000000E+00 -0.61303692185E+03  0.61303692187E+03  0.50400001928E-02 0.  1.
    10030    2    1    2    0    0  0.00000000000E+00  0.00000000000E+00 -0.27025883977E+03  0.95581500399E+03  0.91681103909E+03 0.  0.
        1    1    3    3  502    0  0.11069031175E+03 -0.11408394021E+02  0.32848366616E+03  0.34681986034E+03  0.50400001928E-02 0. -1.
       -1    1    3    3    0  502 -0.11069031175E+03  0.11408394021E+02 -0.59874250592E+03  0.60899514365E+03  0.50400001928E-02 0.  1.
</event>
<event>
 5   0  0.1440615E-02  0.8954589E+03  0.7818609E-02  0.9431276E-01
        2   -1    0    0  501    0  0.00000000000E+00  0.00000000000E+00  0.12895999619E+04  0.12895999619E+04  0.25500000920E-02 0. -1.
       -2   -1    0    0    0  501  0.00000000000E+00  0.00000000000E+00 -0.15544482699E+03  0.15544482701E+03  0.25500000920E-02 0.  1.
    10030    2    1    2    0    0  0.00000000000E+00  0.00000000000E+00  0.11341551350E+04  0.14450447890E+04  0.89545886110E+03 0.  0.
        3    1    3    3  502    0 -0.20845928021E+03  0.20810622790E+03  0.11112197403E+04  0.11495967967E+04  0.10100000352E+00 0. -1.
       -3    1    3    3    0  502  0.20845928021E+03 -0.20810622790E+03  0.22935394678E+02  0.29544799225E+03  0.10100000352E+00 0.  1.
</event>
<event>
 5   0  0.8885324E-03  0.9055130E+03  0.7818609E-02  0.9418716E-01
        1   -1    0    0  501    0  0.00000000000E+00  0.00000000000E+00  0.88573424576E+03  0.88573424577E+03  0.50400001928E-02 0. -1.
       -1   -1    0    0    0  501  0.00000000000E+00  0.00000000000E+00 -0.23143333754E+03  0.23143333759E+03  0.50400001928E-02 0.  1.
    10030    2    1    2    0    0  0.00000000000E+00  0.00000000000E+00  0.65430090822E+03  0.11171675834E+04  0.90551296557E+03 0.  0.
        2    1    3    3  502    0 -0.24890684215E+03  0.26133450222E+03  0.66443361788E+03  0.75612325100E+03  0.25500000920E-02 0. -1.
       -2    1    3    3    0  502  0.24890684215E+03 -0.26133450222E+03 -0.10132709663E+02  0.36104433236E+03  0.25500000920E-02 0.  1.
</event>
<event>
 5   0  0.5770125E-03  0.7183000E+03  0.7818609E-02  0.9686439E-01
        3   -1    0    0  501    0  0.00000000000E+00  0.00000000000E+00  0.40676033321E+03  0.40676034575E+03  0.10100000352E+00 0.  1.
       -3   -1    0    0    0  501  0.00000000000E+00  0.00000000000E+00 -0.31711229848E+03  0.31711231456E+03  0.10100000352E+00 0. -1.
    10030    2    1    2    0    0  0.00000000000E+00  0.00000000000E+00  0.89648034730E+02  0.72387266031E+03  0.71829997787E+03 0.  0.
        1    1    3    3  502    0 -0.26147989110E+03  0.51174468925E+02 -0.19787242469E+03  0.33187958087E+03  0.50400001928E-02 0. -1.
       -1    1    3    3    0  502  0.26147989110E+03 -0.51174468925E+02  0.28752045942E+03  0.39199307944E+03  0.50400001928E-02 0.  1.
</event>
<event>
 5   0  0.8885324E-03  0.6883047E+03  0.7818609E-02  0.9737444E-01
       -1   -1    0    0    0  501  0.00000000000E+00  0.00000000000E+00  0.27789697280E+03  0.27789697284E+03  0.50400001928E-02 0. -1.
        1   -1    0    0  501    0  0.00000000000E+00  0.00000000000E+00 -0.42620413952E+03  0.42620413955E+03  0.50400001928E-02 0.  1.
    10030    2    1    2    0    0  0.00000000000E+00  0.00000000000E+00 -0.14830716672E+03  0.70410111239E+03  0.68830470053E+03 0.  0.
        2    1    3    3  502    0 -0.19745383422E+03  0.27492761260E+03 -0.13777111757E+03  0.36545052970E+03  0.25500000920E-02 0.  1.
       -2    1    3    3    0  502  0.19745383422E+03 -0.27492761260E+03 -0.10536049154E+02  0.33865058269E+03  0.25500000920E-02 0. -1.
</event>
<event>
 5   0  0.1441195E-02  0.6943749E+03  0.7818609E-02  0.9726900E-01
        2   -1    0    0  501    0  0.00000000000E+00  0.00000000000E+00  0.11818423349E+04  0.11818423349E+04  0.25500000920E-02 0.  1.
       -2   -1    0    0    0  501  0.00000000000E+00  0.00000000000E+00 -0.10199256428E+03  0.10199256432E+03  0.25500000920E-02 0. -1.
    10030    2    1    2    0    0  0.00000000000E+00  0.00000000000E+00  0.10798497706E+04  0.12838348992E+04  0.69437491410E+03 0.  0.
        5    1    3    3  502    0 -0.19143440688E+03  0.28914253713E+03  0.50974171047E+03  0.61652999952E+03  0.46999998093E+01 0.  1.
       -5    1    3    3    0  502  0.19143440688E+03 -0.28914253713E+03  0.57010806011E+03  0.66730489966E+03  0.46999998093E+01 0. -1.
</event>
<event>
 5   0  0.1454652E-02  0.9044301E+03  0.7818609E-02  0.9420060E-01
        2   -1    0    0  501    0  0.00000000000E+00  0.00000000000E+00  0.13212556217E+04  0.13212556217E+04  0.25500000920E-02 0. -1.
       -2   -1    0    0    0  501  0.00000000000E+00  0.00000000000E+00 -0.15477585259E+03  0.15477585261E+03  0.25500000920E-02 0.  1.
    10030    2    1    2    0    0  0.00000000000E+00  0.00000000000E+00  0.11664797691E+04  0.14760314743E+04  0.90443013076E+03 0.  0.
        4    1    3    3  502    0 -0.17498064076E+03  0.39441444087E+03  0.80410872496E+03  0.91256420610E+03  0.12699999809E+01 0. -1.
       -4    1    3    3    0  502  0.17498064076E+03 -0.39441444087E+03  0.36237104414E+03  0.56346726820E+03  0.12699999809E+01 0.  1.
</event>
<event>
 5   0  0.8885324E-03  0.9106338E+03  0.7818609E-02  0.9412385E-01
       -1   -1    0    0    0  501  0.00000000000E+00  0.00000000000E+00  0.66452254805E+03  0.66452254807E+03  0.50400001928E-02 0.  1.
        1   -1    0    0  501    0  0.00000000000E+00  0.00000000000E+00 -0.31197360957E+03  0.31197360961E+03  0.50400001928E-02 0. -1.
    10030    2    1    2    0    0  0.00000000000E+00  0.00000000000E+00  0.35254893849E+03  0.97649615768E+03  0.91063384076E+03 0.  0.
        2    1    3    3  502    0  0.21373911989E+03  0.84230037467E+02 -0.24526604478E+03  0.33605735123E+03  0.25500000920E-02 0. -1.
       -2    1    3    3    0  502 -0.21373911989E+03 -0.84230037467E+02  0.59781498327E+03  0.64043880645E+03  0.25500000920E-02 0.  1.
</event>
<event>
 5   0  0.8291252E-03  0.9154955E+03  0.7818609E-02  0.9406416E-01
        1   -1    0    0  501    0  0.00000000000E+00  0.00000000000E+00  0.65119948201E+03  0.65119948203E+03  0.50400001928E-02 0. -1.
       -1   -1    0    0    0  501  0.00000000000E+00  0.00000000000E+00 -0.32176471353E+03  0.32176471357E+03  0.50400001928E-02 0.  1.
    10030    2    1    2    0    0  0.00000000000E+00  0.00000000000E+00  0.32943476849E+03  0.97296419560E+03  0.91549552660E+03 0.  0.
        1    1    3    3  502    0 -0.14493104853E+03 -0.30738918400E+03  0.49062664505E+03  0.59683131966E+03  0.50400001928E-02 0. -1.
       -1    1    3    3    0  502  0.14493104853E+03  0.30738918400E+03 -0.16119187656E+03  0.37613287594E+03  0.50400001928E-02 0.  1.
</event>
<event>
 5   0  0.8738044E-03  0.9016811E+03  0.7818609E-02  0.9423482E-01
        1   -1    0    0  501    0  0.00000000000E+00  0.00000000000E+00  0.56127544066E+03  0.56127544068E+03  0.50400001928E-02 0. -1.
       -1   -1    0    0    0  501  0.00000000000E+00  0.00000000000E+00 -0.36213446593E+03  0.36213446596E+03  0.50400001928E-02 0.  1.
    10030    2    1    2    0    0  0.00000000000E+00  0.00000000000E+00  0.19914097473E+03  0.92340990664E+03  0.90168105662E+03 0.  0.
        3    1    3    3  502    0 -0.38744583718E+03  0.19575649602E+03  0.22425118577E+03  0.48859337593E+03  0.10100000352E+00 0. -1.
       -3    1    3    3    0  502  0.38744583718E+03 -0.19575649602E+03 -0.25110211036E+02  0.43481653071E+03  0.10100000352E+00 0.  1.
</event>
<event>
 5   0  0.1535906E-02  0.8928481E+03  0.7818609E-02  0.9434566E-01
        2   -1    0    0  501    0  0.00000000000E+00  0.00000000000E+00  0.10921637734E+04  0.10921637734E+04  0.25500000920E-02 0.  1.
       -2   -1    0    0    0  501  0.00000000000E+00  0.00000000000E+00 -0.18247668111E+03  0.18247668113E+03  0.25500000920E-02 0. -1.
    10030    2    1    2    0    0  0.00000000000E+00  0.00000000000E+00  0.90968709226E+03  0.12746404545E+04  0.89284807354E+03 0.  0.
        2    1    3    3  502    0 -0.13211145656E+03  0.41289668156E+03  0.60698513543E+03  0.74590083875E+03  0.25500000920E-02 0. -1.
       -2    1    3    3    0  502  0.13211145656E+03 -0.41289668156E+03  0.30270195683E+03  0.52873961576E+03  0.25500000920E-02 0.  1.
</event>
<event>
 5   0  0.8291252E-03  0.7846067E+03  0.7818609E-02  0.9582569E-01
       -1   -1    0    0    0  501  0.00000000000E+00  0.00000000000E+00  0.21771021069E+03  0.21771021075E+03  0.50400001928E-02 0. -1.
        1   -1    0    0  501    0  0.00000000000E+00  0.00000000000E+00 -0.70691183363E+03  0.70691183365E+03  0.50400001928E-02 0.  1.
    10030    2    1    2    0    0  0.00000000000E+00  0.00000000000E+00 -0.48920162294E+03  0.92462204440E+03  0.78460671492E+03 0.  0.
        1    1    3    3  502    0  0.33540827709E+03  0.19846528923E+03 -0.19170493446E+03  0.43432472332E+03  0.50400001928E-02 0.  1.
       -1    1    3    3    0  502 -0.33540827709E+03 -0.19846528923E+03 -0.29749668849E+03  0.49029732108E+03  0.50400001928E-02 0. -1.
</event>
<event>
 5   0  0.1441195E-02  0.8980398E+03  0.7818609E-02  0.9428035E-01
        2   -1    0    0  501    0  0.00000000000E+00  0.00000000000E+00  0.87887143065E+03  0.87887143066E+03  0.25500000920E-02 0. -1.
       -2   -1    0    0    0  501  0.00000000000E+00  0.00000000000E+00 -0.22940657272E+03  0.22940657274E+03  0.25500000920E-02 0.  1.
    10030    2    1    2    0    0  0.00000000000E+00  0.00000000000E+00  0.64946485793E+03  0.11082780034E+04  0.89803982713E+03 0.  0.
        5    1    3    3  502    0  0.39517538814E+03  0.12792257962E+02  0.62155678356E+02  0.40026572125E+03  0.46999998093E+01 0.  1.
       -5    1    3    3    0  502 -0.39517538814E+03 -0.12792257962E+02  0.58730917957E+03  0.70801228214E+03  0.46999998093E+01 0. -1.
</event>
<event>
 5   0  0.8291252E-03  0.9028582E+03  0.7818609E-02  0.9422016E-01
        1   -1    0    0  501    0  0.00000000000E+00  0.00000000000E+00  0.15523543517E+04  0.15523543517E+04  0.50400001928E-02 0. -1.
       -1   -1    0    0    0  501  0.00000000000E+00  0.00000000000E+00 -0.13127687700E+03  0.13127687710E+03  0.50400001928E-02 0.  1.
    10030    2    1    2    0    0  0.00000000000E+00  0.00000000000E+00  0.14210774747E+04  0.16836312288E+04  0.90285819790E+03 0.  0.
        1    1    3    3  502    0 -0.30001659649E+03 -0.32195977786E+03  0.89813381133E+03  0.10001561877E+04  0.50400001928E-02 0. -1.
       -1    1    3    3    0  502  0.30001659649E+03  0.32195977786E+03  0.52294366338E+03  0.68347504111E+03  0.50400001928E-02 0.  1.
</event>
<event>
 5   0  0.1535906E-02  0.8933640E+03  0.7818609E-02  0.9433915E-01
       -2   -1    0    0    0  501  0.00000000000E+00  0.00000000000E+00  0.13096049182E+03  0.13096049184E+03  0.25500000920E-02 0.  1.
        2   -1    0    0  501    0  0.00000000000E+00  0.00000000000E+00 -0.15235497545E+04  0.15235497545E+04  0.25500000920E-02 0. -1.
    10030    2    1    2    0    0  0.00000000000E+00  0.00000000000E+00 -0.13925892627E+04  0.16545102464E+04  0.89336403595E+03 0.  0.
        2    1    3    3  502    0 -0.27493191527E+03  0.94737314524E+02 -0.68354331593E+02  0.29872233169E+03  0.25500000920E-02 0.  1.
       -2    1    3    3    0  502  0.27493191527E+03 -0.94737314524E+02 -0.13242349311E+04  0.13557879147E+04  0.25500000920E-02 0. -1.
</event>
<event>
 5   0  0.8524692E-03  0.8799199E+03  0.7818609E-02  0.9451037E-01
       -1   -1    0    0    0  501  0.00000000000E+00  0.00000000000E+00  0.10233845400E+04  0.10233845400E+04  0.50400001928E-02 0. -1.
        1   -1    0    0  501    0  0.00000000000E+00  0.00000000000E+00 -0.18914178089E+03  0.18914178096E+03  0.50400001928E-02 0.  1.
    10030    2    1    2    0    0  0.00000000000E+00  0.00000000000E+00  0.83424275907E+03  0.12125263209E+04  0.87991993834E+03 0.  0.
        5    1    3    3  502    0  0.28027327961E+03  0.18739845303E+03  0.27678609447E+02  0.33831861740E+03  0.46999998093E+01 0.  1.
       -5    1    3    3    0  502 -0.28027327961E+03 -0.18739845303E+03  0.80656414962E+03  0.87420770353E+03  0.46999998093E+01 0. -1.
</event>
<event>
 5   0  0.1441195E-02  0.9078882E+03  0.7818609E-02  0.9415774E-01
       -2   -1    0    0    0  501  0.00000000000E+00  0.00000000000E+00  0.19932218048E+03  0.19932218049E+03  0.25500000920E-02 0. -1.
        2   -1    0    0  501    0  0.00000000000E+00  0.00000000000E+00 -0.10338299605E+04  0.10338299605E+04  0.25500000920E-02 0.  1.
    10030    2    1    2    0    0  0.00000000000E+00  0.00000000000E+00 -0.83450777998E+03  0.12331521410E+04  0.90788819130E+03 0.  0.
        5    1    3    3  502    0  0.15905434617E+03 -0.41866361907E+03 -0.31683744420E+03  0.54862151526E+03  0.46999998093E+01 0. -1.
       -5    1    3    3    0  502 -0.15905434617E+03  0.41866361907E+03 -0.51767033578E+03  0.68453062569E+03  0.46999998093E+01 0.  1.
</event>
<event>
 5   0  0.8291252E-03  0.8992647E+03  0.7818609E-02  0.9426501E-01
       -1   -1    0    0    0  501  0.00000000000E+00  0.00000000000E+00  0.78806963223E+03  0.78806963225E+03  0.50400001928E-02 0.  1.
        1   -1    0    0  501    0  0.00000000000E+00  0.00000000000E+00 -0.25653727310E+03  0.25653727315E+03  0.50400001928E-02 0. -1.
    10030    2    1    2    0    0  0.00000000000E+00  0.00000000000E+00  0.53153235913E+03  0.10446069054E+04  0.89926466516E+03 0.  0.
        1    1    3    3  502    0 -0.34550067266E+01 -0.22541118903E+03  0.71767665198E+03  0.75225123332E+03  0.50400001928E-02 0.  1.
       -1    1    3    3    0  502  0.34550067266E+01  0.22541118903E+03 -0.18614429285E+03  0.29235567208E+03  0.50400001928E-02 0. -1.
</event>
<event>
 5   0  0.8885324E-03  0.8983378E+03  0.7818609E-02  0.9427662E-01
        1   -1    0    0  501    0  0.00000000000E+00  0.00000000000E+00  0.44959143118E+03  0.44959143121E+03  0.50400001928E-02 0.  1.
       -1   -1    0    0    0  501  0.00000000000E+00  0.00000000000E+00 -0.44874678739E+03  0.44874678742E+03  0.50400001928E-02 0. -1.
    10030    2    1    2    0    0  0.00000000000E+00  0.00000000000E+00  0.84464378949E+00  0.89833821863E+03  0.89833782155E+03 0.  0.
        2    1    3    3  502    0 -0.15970819695E+03 -0.23404154314E+02 -0.41874161156E+03  0.44877499916E+03  0.25500000920E-02 0. -1.
       -2    1    3    3    0  502  0.15970819695E+03  0.23404154314E+02  0.41958625535E+03  0.44956321947E+03  0.25500000920E-02 0.  1.
</event>
<event>
 5   0  0.1440615E-02  0.8900850E+03  0.7818609E-02  0.9438061E-01
        2   -1    0    0  501    0  0.00000000000E+00  0.00000000000E+00  0.22306644179E+04  0.22306644179E+04  0.25500000920E-02 0.  1.
       -2   -1    0    0    0  501  0.00000000000E+00  0.00000000000E+00 -0.88790955290E+02  0.88790955327E+02  0.25500000920E-02 0. -1.
    10030    2    1    2    0    0  0.00000000000E+00  0.00000000000E+00  0.21418734626E+04  0.23194553732E+04  0.89008499513E+03 0.  0.
        3    1    3    3  502    0 -0.23055514898E+03  0.38066656312E+03  0.10717829138E+04  0.11605090838E+04  0.10100000352E+00 0. -1.
       -3    1    3    3    0  502  0.23055514898E+03 -0.38066656312E+03  0.10700905488E+04  0.11589462894E+04  0.10100000352E+00 0.  1.
</event>
<event>
 5   0  0.8738044E-03  0.8993951E+03  0.7818609E-02  0.9426338E-01
       -1   -1    0    0    0  501  0.00000000000E+00  0.00000000000E+00  0.57459024815E+03  0.57459024818E+03  0.50400001928E-02 0. -1.
        1   -1    0    0  501    0  0.00000000000E+00  0.00000000000E+00 -0.35195146338E+03  0.35195146341E+03  0.50400001928E-02 0.  1.
    10030    2    1    2    0    0  0.00000000000E+00  0.00000000000E+00  0.22263878478E+03  0.92654171159E+03  0.89939508272E+03 0.  0.
        3    1    3    3  502    0  0.28325828207E+03 -0.60348372046E+02  0.46572440868E+03  0.54843086657E+03  0.10100000352E+00 0. -1.
       -3    1    3    3    0  502 -0.28325828207E+03  0.60348372046E+02 -0.24308562390E+03  0.37811084502E+03  0.10100000352E+00 0.  1.
</event>
<event>
 5   0  0.1483326E-02  0.8983259E+03  0.7818609E-02  0.9427677E-01
       -2   -1    0    0    0  501  0.00000000000E+00  0.00000000000E+00  0.14936411890E+03  0.14936411892E+03  0.25500000920E-02 0.  1.
        2   -1    0    0  501    0  0.00000000000E+00  0.00000000000E+00 -0.13507082501E+04  0.13507082501E+04  0.25500000920E-02 0. -1.
    10030    2    1    2    0    0  0.00000000000E+00  0.00000000000E+00 -0.12013441312E+04  0.15000723691E+04  0.89832588228E+03 0.  0.
        1    1    3    3  502    0  0.88250728040E+02  0.43909710170E+03 -0.65737070027E+03  0.79544370846E+03  0.50400001928E-02 0.  1.
       -1    1    3    3    0  502 -0.88250728040E+02 -0.43909710170E+03 -0.54397343098E+03  0.70462866061E+03  0.50400001928E-02 0. -1.
</event>
<event>
 5   0  0.8291252E-03  0.8974222E+03  0.7818609E-02  0.9428810E-01
        1   -1    0    0  501    0  0.00000000000E+00  0.00000000000E+00  0.32070590332E+03  0.32070590336E+03  0.50400001928E-02 0. -1.
       -1   -1    0    0    0  501  0.00000000000E+00  0.00000000000E+00 -0.62780775332E+03  0.62780775334E+03  0.50400001928E-02 0.  1.
    10030    2    1    2    0    0  0.00000000000E+00  0.00000000000E+00 -0.30710184999E+03  0.94851365670E+03  0.89742220313E+03 0.  0.
        1    1    3    3  502    0  0.39455220452E+03 -0.13719371141E+03  0.19631383682E+02  0.41818530317E+03  0.50400001928E-02 0. -1.
       -1    1    3    3    0  502 -0.39455220452E+03  0.13719371141E+03 -0.32673323368E+03  0.53032835353E+03  0.50400001928E-02 0.  1.
</event>
<event>
 5   0  0.1535906E-02  0.9003381E+03  0.7818609E-02  0.9425159E-01
        2   -1    0    0  501    0  0.00000000000E+00  0.00000000000E+00  0.17243272745E+04  0.17243272745E+04  0.25500000920E-02 0.  1.
       -2   -1    0    0    0  501  0.00000000000E+00  0.00000000000E+00 -0.11752534471E+03  0.11752534474E+03  0.25500000920E-02 0. -1.
    10030    2    1    2    0    0  0.00000000000E+00  0.00000000000E+00  0.16068019298E+04  0.18418526193E+04  0.90033806398E+03 0.  0.
        2    1    3    3  502    0  0.11758825539E+03 -0.40577673037E+03  0.11214479076E+04  0.11983852311E+04  0.25500000920E-02 0.  1.
       -2    1    3    3    0  502 -0.11758825539E+03  0.40577673037E+03  0.48535402221E+03  0.64346738814E+03  0.25500000920E-02 0. -1.
</event>
<event>
 5   0  0.8738044E-03  0.8783501E+03  0.7818609E-02  0.9453057E-01
       -1   -1    0    0    0  501  0.00000000000E+00  0.00000000000E+00  0.38385986846E+03  0.38385986849E+03  0.50400001928E-02 0.  1.
        1   -1    0    0  501    0  0.00000000000E+00  0.00000000000E+00 -0.50246128027E+03  0.50246128030E+03  0.50400001928E-02 0. -1.
    10030    2    1    2    0    0  0.00000000000E+00  0.00000000000E+00 -0.11860141181E+03  0.88632114879E+03  0.87835009189E+03 0.  0.
        3    1    3    3  502    0  0.47844183135E+02 -0.37856655754E+03 -0.27869739671E+03  0.47251873347E+03  0.10100000352E+00 0. -1.
       -3    1    3    3    0  502 -0.47844183135E+02  0.37856655754E+03  0.16009598490E+03  0.41380241532E+03  0.10100000352E+00 0.  1.
</event>
<event>
 5   0  0.1454652E-02  0.9056515E+03  0.7818609E-02  0.9418544E-01
       -2   -1    0    0    0  501  0.00000000000E+00  0.00000000000E+00  0.10582860953E+03  0.10582860956E+03  0.25500000920E-02 0. -1.
        2   -1    0    0  501    0  0.00000000000E+00  0.00000000000E+00 -0.19375776527E+04  0.19375776527E+04  0.25500000920E-02 0.  1.
    10030    2    1    2    0    0  0.00000000000E+00  0.00000000000E+00 -0.18317490432E+04  0.20434062622E+04  0.90565147574E+03 0.  0.
        4    1    3    3  502    0  0.20009771011E+03 -0.10761910604E+03 -0.32089289918E+02  0.22946089210E+03  0.12699999809E+01 0. -1.
       -4    1    3    3    0  502 -0.20009771011E+03  0.10761910604E+03 -0.17996597532E+04  0.18139453701E+04  0.12699999809E+01 0.  1.
</event>
<event>
 5   0  0.1483326E-02  0.8787221E+03  0.7818609E-02  0.9452578E-01
        2   -1    0    0  501    0  0.00000000000E+00  0.00000000000E+00  0.14983156039E+04  0.14983156039E+04  0.25500000920E-02 0.  1.
       -2   -1    0    0    0  501  0.00000000000E+00  0.00000000000E+00 -0.12883676198E+03  0.12883676201E+03  0.25500000920E-02 0. -1.
    10030    2    1    2    0    0  0.00000000000E+00  0.00000000000E+00  0.13694788419E+04  0.16271523659E+04  0.87872209683E+03 0.  0.
        1    1    3    3  502    0  0.26959265095E+03  0.17365442672E+03  0.12408804484E+04  0.12816475118E+04  0.50400001928E-02 0.  1.
       -1    1    3    3    0  502 -0.26959265095E+03 -0.17365442672E+03  0.12859839357E+03  0.34550485412E+03  0.50400001928E-02 0. -1.
</event>
<event>
 5   0  0.8738044E-03  0.9206469E+03  0.7818609E-02  0.9400134E-01
        1   -1    0    0  501    0  0.00000000000E+00  0.00000000000E+00  0.10178189153E+04  0.10178189153E+04  0.50400001928E-02 0.  1.
       -1   -1    0    0    0  501  0.00000000000E+00  0.00000000000E+00 -0.20818797648E+03  0.20818797654E+03  0.50400001928E-02 0. -1.
    10030    2    1    2    0    0  0.00000000000E+00  0.00000000000E+00  0.80963093883E+03  0.12260068919E+04  0.92064686051E+03 0.  0.
        3    1    3    3  502    0 -0.32988225999E+03  0.48033378163E+02  0.82754389760E+03  0.89216502035E+03  0.10100000352E+00 0.  1.
       -3    1    3    3    0  502  0.32988225999E+03 -0.48033378163E+02 -0.17912958776E+02  0.33384187150E+03  0.10100000352E+00 0. -1.
</event>
<event>
 5   0  0.8524692E-03  0.8878888E+03  0.7818609E-02  0.9440849E-01
       -1   -1    0    0    0  501  0.00000000000E+00  0.00000000000E+00  0.16557836784E+03  0.16557836791E+03  0.50400001928E-02 0.  1.
        1   -1    0    0  501    0  0.00000000000E+00  0.00000000000E+00 -0.11902921416E+04  0.11902921416E+04  0.50400001928E-02 0. -1.
    10030    2    1    2    0    0  0.00000000000E+00  0.00000000000E+00 -0.10247137738E+04  0.13558705095E+04  0.88788879960E+03 0.  0.
        5    1    3    3  502    0  0.24455200838E+03 -0.32589036577E+03 -0.24325255868E+03  0.47455675383E+03  0.46999998093E+01 0.  1.
       -5    1    3    3    0  502 -0.24455200838E+03  0.32589036577E+03 -0.78146121508E+03  0.88131375569E+03  0.46999998093E+01 0. -1.
</event>
<event>
 5   0  0.8738044E-03  0.8620820E+03  0.7818609E-02  0.9474263E-01
        1   -1    0    0  501    0  0.00000000000E+00  0.00000000000E+00  0.65668928815E+03  0.65668928817E+03  0.50400001928E-02 0.  1.
       -1   -1    0    0    0  501  0.00000000000E+00  0.00000000000E+00 -0.28292888017E+03  0.28292888022E+03  0.50400001928E-02 0. -1.
    10030    2    1    2    0    0  0.00000000000E+00  0.00000000000E+00  0.37376040798E+03  0.93961816839E+03  0.86208204934E+03 0.  0.
        3    1    3    3  502    0  0.41917014849E+03 -0.87928374007E+01  0.29595829947E+03  0.51319806372E+03  0.10100000352E+00 0.  1.
       -3    1    3    3    0  502 -0.41917014849E+03  0.87928374007E+01  0.77802108509E+02  0.42642010467E+03  0.10100000352E+00 0. -1.
</event>
<event>
 5   0  0.8524692E-03  0.9053331E+03  0.7818609E-02  0.9418939E-01
       -1   -1    0    0    0  501  0.00000000000E+00  0.00000000000E+00  0.10193504745E+04  0.10193504746E+04  0.50400001928E-02 0.  1.
        1   -1    0    0  501    0  0.00000000000E+00  0.00000000000E+00 -0.20101720943E+03  0.20101720950E+03  0.50400001928E-02 0. -1.
    10030    2    1    2    0    0  0.00000000000E+00  0.00000000000E+00  0.81833326511E+03  0.12203676840E+04  0.90533306108E+03 0.  0.
        5    1    3    3  502    0  0.14456112436E+02  0.45054171314E+03  0.46454998865E+03  0.64732186462E+03  0.46999998093E+01 0.  1.
       -5    1    3    3    0  502 -0.14456112436E+02 -0.45054171314E+03  0.35378327646E+03  0.57304581943E+03  0.46999998093E+01 0. -1.
</event>
<event>
 5   0  0.1535906E-02  0.9159719E+03  0.7818609E-02  0.9405833E-01
       -2   -1    0    0    0  501  0.00000000000E+00  0.00000000000E+00  0.16355815331E+03  0.16355815333E+03  0.25500000920E-02 0. -1.
        2   -1    0    0  501    0  0.00000000000E+00  0.00000000000E+00 -0.12824254603E+04  0.12824254603E+04  0.25500000920E-02 0.  1.
    10030    2    1    2    0    0  0.00000000000E+00  0.00000000000E+00 -0.11188673070E+04  0.14459836137E+04  0.91597192111E+03 0.  0.
        2    1    3    3  502    0 -0.36467280946E+03  0.36455839263E+02 -0.12585277994E+03  0.38749736567E+03  0.25500000920E-02 0. -1.
       -2    1    3    3    0  502  0.36467280946E+03 -0.36455839263E+02 -0.99301452709E+03  0.10584862480E+04  0.25500000920E-02 0.  1.
</event>
<event>
 5   0  0.8738044E-03  0.9124937E+03  0.7818609E-02  0.9410097E-01
       -1   -1    0    0    0  501  0.00000000000E+00  0.00000000000E+00  0.31416131959E+03  0.31416131963E+03  0.50400001928E-02 0.  1.
        1   -1    0    0  501    0  0.00000000000E+00  0.00000000000E+00 -0.66259326940E+03  0.66259326942E+03  0.50400001928E-02 0. -1.
    10030    2    1    2    0    0  0.00000000000E+00  0.00000000000E+00 -0.34843194981E+03  0.97675458905E+03  0.91249367318E+03 0.  0.
        3    1    3    3  502    0  0.58473568384E+02 -0.19290465072E+03 -0.61234460898E+03  0.64466835878E+03  0.10100000352E+00 0. -1.
       -3    1    3    3    0  502 -0.58473568384E+02  0.19290465072E+03  0.26391265917E+03  0.33208623027E+03  0.10100000352E+00 0.  1.
</event>
<event>
 5   0  0.1483326E-02  0.9197850E+03  0.7818609E-02  0.9401182E-01
       -2   -1    0    0    0  501  0.00000000000E+00  0.00000000000E+00  0.40196848208E+03  0.40196848208E+03  0.25500000920E-02 0.  1.
        2   -1    0    0  501    0  0.00000000000E+00  0.00000000000E+00 -0.52616344286E+03  0.52616344287E+03  0.25500000920E-02 0. -1.
    10030    2    1    2    0    0  0.00000000000E+00  0.00000000000E+00 -0.12419496078E+03  0.92813192495E+03  0.91978501936E+03 0.  0.
        1    1    3    3  502    0  0.25252233868E+03  0.14013866797E+03 -0.42324865542E+03  0.51239223465E+03  0.50400001928E-02 0. -1.
       -1    1    3    3    0  502 -0.25252233868E+03 -0.14013866797E+03  0.29905369463E+03  0.41573969030E+03  0.50400001928E-02 0.  1.
</event>
<event>
 5   0  0.1454652E-02  0.9112426E+03  0.7818609E-02  0.9411636E-01
        2   -1    0    0  501    0  0.00000000000E+00  0.00000000000E+00  0.14505955987E+03  0.14505955989E+03  0.25500000920E-02 0. -1.
       -2   -1    0    0    0  501  0.00000000000E+00  0.00000000000E+00 -0.14310727657E+04  0.14310727657E+04  0.25500000920E-02 0.  1.
    10030    2    1    2    0    0  0.00000000000E+00  0.00000000000E+00 -0.12860132058E+04  0.15761323256E+04  0.91124263629E+03 0.  0.
        4    1    3    3  502    0 -0.38174346657E+03  0.11387095842E+03 -0.26054427565E+03  0.47600378351E+03  0.12699999809E+01 0. -1.
       -4    1    3    3    0  502  0.38174346657E+03 -0.11387095842E+03 -0.10254689302E+04  0.11001285421E+04  0.12699999809E+01 0.  1.
</event>
<event>
 5   0  0.8738044E-03  0.9021311E+03  0.7818609E-02  0.9422921E-01
       -1   -1    0    0    0  501  0.00000000000E+00  0.00000000000E+00  0.25820999146E+03  0.25820999151E+03  0.50400001928E-02 0.  1.
        1   -1    0    0  501    0  0.00000000000E+00  0.00000000000E+00 -0.78796388766E+03  0.78796388768E+03  0.50400001928E-02 0. -1.
    10030    2    1    2    0    0  0.00000000000E+00  0.00000000000E+00 -0.52975389620E+03  0.10461738792E+04  0.90213114066E+03 0.  0.
        3    1    3    3  502    0  0.39777483381E+03 -0.16408501785E+03 -0.42180308849E+03  0.60255005365E+03  0.10100000352E+00 0. -1.
       -3    1    3    3    0  502 -0.39777483381E+03  0.16408501785E+03 -0.10795080771E+03  0.44362382553E+03  0.10100000352E+00 0.  1.
</event>
<event>
 5   0  0.1440615E-02  0.9052620E+03  0.7818609E-02  0.9419027E-01
        2   -1    0    0  501    0  0.00000000000E+00  0.00000000000E+00  0.38234056735E+03  0.38234056736E+03  0.25500000920E-02 0. -1.
       -2   -1    0    0    0  501  0.00000000000E+00  0.00000000000E+00 -0.53584378775E+03  0.53584378776E+03  0.25500000920E-02 0.  1.
    10030    2    1    2    0    0  0.00000000000E+00  0.00000000000E+00 -0.15350322040E+03  0.91818435512E+03  0.90526199043E+03 0.  0.
        3    1    3    3  502    0  0.15670711375E+03 -0.39219375706E+03 -0.24186900909E+03  0.48669671289E+03  0.10100000352E+00 0. -1.
       -3    1    3    3    0  502 -0.15670711375E+03  0.39219375706E+03  0.88365788691E+02  0.43148764223E+03  0.10100000352E+00 0.  1.
</event>
<event>
 5   0  0.1440615E-02  0.8936073E+03  0.7818609E-02  0.9433608E-01
       -2   -1    0    0    0  501  0.00000000000E+00  0.00000000000E+00  0.53431924674E+03  0.53431924674E+03  0.25500000920E-02 0.  1.
        2   -1    0    0  501    0  0.00000000000E+00  0.00000000000E+00 -0.37362210123E+03  0.37362210124E+03  0.25500000920E-02 0. -1.
    10030    2    1    2    0    0  0.00000000000E+00  0.00000000000E+00  0.16069714551E+03  0.90794134798E+03  0.89360725087E+03 0.  0.
        3    1    3    3  502    0  0.30467055116E+03 -0.35908146964E+02 -0.24970037850E+03  0.39555508970E+03  0.10100000352E+00 0. -1.
       -3    1    3    3    0  502 -0.30467055116E+03  0.35908146964E+02  0.41039752401E+03  0.51238625828E+03  0.10100000352E+00 0.  1.
</event>
<event>
 5   0  0.8885324E-03  0.9025175E+03  0.7818609E-02  0.9422440E-01
        1   -1    0    0  501    0  0.00000000000E+00  0.00000000000E+00  0.11904707124E+04  0.11904707124E+04  0.50400001928E-02 0.  1.
       -1   -1    0    0    0  501  0.00000000000E+00  0.00000000000E+00 -0.17105373689E+03  0.17105373697E+03  0.50400001928E-02 0. -1.
    10030    2    1    2    0    0  0.00000000000E+00  0.00000000000E+00  0.10194169755E+04  0.13615244494E+04  0.90251751024E+03 0.  0.
        2    1    3    3  502    0 -0.78690627379E+02  0.36419847632E+03  0.89373664770E+03  0.96829641145E+03  0.25500000920E-02 0. -1.
       -2    1    3    3    0  502  0.78690627379E+02 -0.36419847632E+03  0.12568032779E+03  0.39322803790E+03  0.25500000920E-02 0.  1.
</event>
<event>
 5   0  0.8524692E-03  0.8795612E+03  0.7818609E-02  0.9451498E-01
       -1   -1    0    0    0  501  0.00000000000E+00  0.00000000000E+00  0.12861323649E+04  0.12861323649E+04  0.50400001928E-02 0. -1.
        1   -1    0    0  501    0  0.00000000000E+00  0.00000000000E+00 -0.15037873902E+03  0.15037873910E+03  0.50400001928E-02 0.  1.
    10030    2    1    2    0    0  0.00000000000E+00  0.00000000000E+00  0.11357536259E+04  0.14365111041E+04  0.87956117086E+03 0.  0.
        5    1    3    3  502    0  0.39124535328E+02 -0.29474596433E+03  0.10970454213E+04  0.11366339161E+04  0.46999998093E+01 0. -1.
       -5    1    3    3    0  502 -0.39124535328E+02  0.29474596433E+03  0.38708204574E+02  0.29987718795E+03  0.46999998093E+01 0.  1.
</event>
<event>
 5   0  0.8291252E-03  0.8810826E+03  0.7818609E-02  0.9449543E-01
       -1   -1    0    0    0  501  0.00000000000E+00  0.00000000000E+00  0.12431442432E+03  0.12431442442E+03  0.50400001928E-02 0. -1.
        1   -1    0    0  501    0  0.00000000000E+00  0.00000000000E+00 -0.15611754153E+04  0.15611754153E+04  0.50400001928E-02 0.  1.
    10030    2    1    2    0    0  0.00000000000E+00  0.00000000000E+00 -0.14368609910E+04  0.16854898398E+04  0.88108256847E+03 0.  0.
        1    1    3    3  502    0  0.33415254665E+02  0.95786188344E+02 -0.15385263567E+04  0.15418673495E+04  0.50400001928E-02 0.  1.
       -1    1    3    3    0  502 -0.33415254665E+02 -0.95786188344E+02  0.10166536566E+03  0.14362249031E+03  0.50400001928E-02 0. -1.
</event>
<event>
 5   0  0.1441195E-02  0.8961564E+03  0.7818609E-02  0.9430399E-01
       -2   -1    0    0    0  501  0.00000000000E+00  0.00000000000E+00  0.15719472968E+03  0.15719472970E+03  0.25500000920E-02 0. -1.
        2   -1    0    0  501    0  0.00000000000E+00  0.00000000000E+00 -0.12772316805E+04  0.12772316805E+04  0.25500000920E-02 0.  1.
    10030    2    1    2    0    0  0.00000000000E+00  0.00000000000E+00 -0.11200369508E+04  0.14344264102E+04  0.89615643448E+03 0.  0.
        5    1    3    3  502    0 -0.32000666835E+03  0.26890345762E+03 -0.81830620387E+03  0.91889089156E+03  0.46999998093E+01 0.  1.
       -5    1    3    3    0  502  0.32000666835E+03 -0.26890345762E+03 -0.30173074691E+03  0.51553551860E+03  0.46999998093E+01 0. -1.
</event>
<event>
 5   0  0.1440615E-02  0.9009945E+03  0.7818609E-02  0.9424339E-01
       -2   -1    0    0    0  501  0.00000000000E+00  0.00000000000E+00  0.22431068783E+03  0.22431068784E+03  0.25500000920E-02 0. -1.
        2   -1    0    0  501    0  0.00000000000E+00  0.00000000000E+00 -0.90476187113E+03  0.90476187114E+03  0.25500000920E-02 0.  1.
    10030    2    1    2    0    0  0.00000000000E+00  0.00000000000E+00 -0.68045118330E+03  0.11290725590E+04  0.90099446756E+03 0.  0.
        3    1    3    3  502    0  0.29491893980E+03 -0.33555129731E+03 -0.41303610309E+03  0.60841654057E+03  0.10100000352E+00 0. -1.
       -3    1    3    3    0  502 -0.29491893980E+03  0.33555129731E+03 -0.26741508021E+03  0.52065601841E+03  0.10100000352E+00 0.  1.
</event>
<event>
 5   0  0.1454652E-02  0.8668499E+03  0.7818609E-02  0.9467997E-01
        2   -1    0    0  501    0  0.00000000000E+00  0.00000000000E+00  0.21326306475E+04  0.21326306475E+04  0.25500000920E-02 0. -1.
       -2   -1    0    0    0  501  0.00000000000E+00  0.00000000000E+00 -0.88087062188E+02  0.88087062225E+02  0.25500000920E-02 0.  1.
    10030    2    1    2    0    0  0.00000000000E+00  0.00000000000E+00  0.20445435853E+04  0.22207177097E+04  0.86684985669E+03 0.  0.
        4    1    3    3  502    0  0.18402138715E+03 -0.15103927971E+03  0.19501294054E+04  0.19646076060E+04  0.12699999809E+01 0. -1.
       -4    1    3    3    0  502 -0.18402138715E+03  0.15103927971E+03  0.94414179899E+02  0.25611010369E+03  0.12699999809E+01 0.  1.
</event>
<event>
 5   0  0.1440615E-02  0.9169393E+03  0.7818609E-02  0.9404651E-01
       -2   -1    0    0    0  501  0.00000000000E+00  0.00000000000E+00  0.17113362296E+03  0.17113362298E+03  0.25500000920E-02 0.  1.
        2   -1    0    0  501    0  0.00000000000E+00  0.00000000000E+00 -0.12282472714E+04  0.12282472714E+04  0.25500000920E-02 0. -1.
    10030    2    1    2    0    0  0.00000000000E+00  0.00000000000E+00 -0.10571136484E+04  0.13993808943E+04  0.91693926833E+03 0.  0.
        3    1    3    3  502    0  0.45552865184E+02  0.32792732000E+03 -0.44543106506E+02  0.33405911044E+03  0.10100000352E+00 0.  1.
       -3    1    3    3    0  502 -0.45552865184E+02 -0.32792732000E+03 -0.10125705419E+04  0.10653217839E+04  0.10100000352E+00 0. -1.
</event>
<event>
 5   0  0.8524692E-03  0.9019093E+03  0.7818609E-02  0.9423198E-01
        1   -1    0    0  501    0  0.00000000000E+00  0.00000000000E+00  0.35745295482E+03  0.35745295485E+03  0.50400001928E-02 0.  1.
       -1   -1    0    0    0  501  0.00000000000E+00  0.00000000000E+00 -0.56891430580E+03  0.56891430583E+03  0.50400001928E-02 0. -1.
    10030    2    1    2    0    0  0.00000000000E+00  0.00000000000E+00 -0.21146135098E+03  0.92636726068E+03  0.90190930736E+03 0.  0.
        5    1    3    3  502    0 -0.56429853194E+02 -0.44737259777E+03 -0.10920472079E+03  0.46397664877E+03  0.46999998093E+01 0.  1.
       -5    1    3    3    0  502  0.56429853194E+02  0.44737259777E+03 -0.10225663019E+03  0.46239061191E+03  0.46999998093E+01 0. -1.
</event>
<event>
 5   0  0.8612969E-03  0.9058596E+03  0.7818609E-02  0.9418286E-01
       -1   -1    0    0    0  501  0.00000000000E+00  0.00000000000E+00  0.18349800997E+03  0.18349801004E+03  0.50400001928E-02 0.  1.
        1   -1    0    0  501    0  0.00000000000E+00  0.00000000000E+00 -0.11179707050E+04  0.11179707050E+04  0.50400001928E-02 0. -1.
    10030    2    1    2    0    0  0.00000000000E+00  0.00000000000E+00 -0.93447269506E+03  0.13014687151E+04  0.90585959096E+03 0.  0.
        4    1    3    3  502    0  0.10463630037E+03  0.18931004310E+02 -0.10997804225E+04  0.11049098284E+04  0.12699999809E+01 0. -1.
       -4    1    3    3    0  502 -0.10463630037E+03 -0.18931004310E+02  0.16530772745E+03  0.19655888668E+03  0.12699999809E+01 0.  1.
</event>
<event>
 5   0  0.8524692E-03  0.9164941E+03  0.7818609E-02  0.9405195E-01
        1   -1    0    0  501    0  0.00000000000E+00  0.00000000000E+00  0.14515061155E+04  0.14515061155E+04  0.50400001928E-02 0.  1.
       -1   -1    0    0    0  501  0.00000000000E+00  0.00000000000E+00 -0.14467068143E+03  0.14467068151E+03  0.50400001928E-02 0. -1.
    10030    2    1    2    0    0  0.00000000000E+00  0.00000000000E+00  0.13068354341E+04  0.15961767971E+04  0.91649414380E+03 0.  0.
        5    1    3    3  502    0  0.10555576356E+03 -0.30152332519E+03  0.12255310288E+04  0.12664938719E+04  0.46999998093E+01 0.  1.
       -5    1    3    3    0  502 -0.10555576356E+03  0.30152332519E+03  0.81304405291E+02  0.32968292520E+03  0.46999998093E+01 0. -1.
</event>
<event>
 5   0  0.8612969E-03  0.8973901E+03  0.7818609E-02  0.9428850E-01
       -1   -1    0    0    0  501  0.00000000000E+00  0.00000000000E+00  0.45937461696E+03  0.45937461699E+03  0.50400001928E-02 0. -1.
        1   -1    0    0  501    0  0.00000000000E+00  0.00000000000E+00 -0.43826375902E+03  0.43826375905E+03  0.50400001928E-02 0.  1.
    10030    2    1    2    0    0  0.00000000000E+00  0.00000000000E+00  0.21110857935E+02  0.89763837604E+03  0.89739009679E+03 0.  0.
        4    1    3    3  502    0 -0.38846892340E+03 -0.22317982019E+03 -0.14115071761E+02  0.44823898173E+03  0.12699999809E+01 0.  1.
       -4    1    3    3    0  502  0.38846892340E+03  0.22317982019E+03  0.35225929696E+02  0.44939939432E+03  0.12699999809E+01 0. -1.
</event>
<event>
 5   0  0.1440615E-02  0.8985453E+03  0.7818609E-02  0.9427402E-01
        2   -1    0    0  501    0  0.00000000000E+00  0.00000000000E+00  0.34519585823E+03  0.34519585824E+03  0.25500000920E-02 0.  1.
       -2   -1    0    0    0  501  0.00000000000E+00  0.00000000000E+00 -0.58472871100E+03  0.58472871100E+03  0.25500000920E-02 0. -1.
    10030    2    1    2    0    0  0.00000000000E+00  0.00000000000E+00 -0.23953285276E+03  0.92992456925E+03  0.89854533382E+03 0.  0.
        3    1    3    3  502    0 -0.23679979782E+03  0.38172272550E+03 -0.11178103562E+03  0.46290538292E+03  0.10100000352E+00 0.  1.
       -3    1    3    3    0  502  0.23679979782E+03 -0.38172272550E+03 -0.12775181714E+03  0.46701918633E+03  0.10100000352E+00 0. -1.
</event>
<event>
 5   0  0.8738044E-03  0.8961603E+03  0.7818609E-02  0.9430394E-01
       -1   -1    0    0    0  501  0.00000000000E+00  0.00000000000E+00  0.22947447677E+03  0.22947447683E+03  0.50400001928E-02 0. -1.
        1   -1    0    0  501    0  0.00000000000E+00  0.00000000000E+00 -0.87493743434E+03  0.87493743435E+03  0.50400001928E-02 0.  1.
    10030    2    1    2    0    0  0.00000000000E+00  0.00000000000E+00 -0.64546295757E+03  0.11044119112E+04  0.89616027582E+03 0.  0.
        3    1    3    3  502    0  0.14574677672E+02  0.43241674524E+03 -0.17912253841E+03  0.46827508664E+03  0.10100000352E+00 0.  1.
       -3    1    3    3    0  502 -0.14574677672E+02 -0.43241674524E+03 -0.46634041916E+03  0.63613682454E+03  0.10100000352E+00 0. -1.
</event>
<event>
 5   0  0.1441195E-02  0.8983223E+03  0.7818609E-02  0.9427681E-01
        2   -1    0    0  501    0  0.00000000000E+00  0.00000000000E+00  0.79693013516E+03  0.79693013517E+03  0.25500000920E-02 0.  1.
       -2   -1    0    0    0  501  0.00000000000E+00  0.00000000000E+00 -0.25315361706E+03  0.25315361707E+03  0.25500000920E-02 0. -1.
    10030    2    1    2    0    0  0.00000000000E+00  0.00000000000E+00  0.54377651811E+03  0.10500837522E+04  0.89832231691E+03 0.  0.
        5    1    3    3  502    0  0.16944305907E+03  0.69239863902E+02 -0.20754558553E+03  0.27677132997E+03  0.46999998093E+01 0. -1.
       -5    1    3    3    0  502 -0.16944305907E+03 -0.69239863902E+02  0.75132210364E+03  0.77331242227E+03  0.46999998093E+01 0.  1.
</event>
<event>
 5   0  0.1440615E-02  0.8883118E+03  0.7818609E-02  0.9440311E-01
        2   -1    0    0  501    0  0.00000000000E+00  0.00000000000E+00  0.52353571525E+03  0.52353571526E+03  0.25500000920E-02 0. -1.
       -2   -1    0    0    0  501  0.00000000000E+00  0.00000000000E+00 -0.37681186331E+03  0.37681186331E+03  0.25500000920E-02 0.  1.
    10030    2    1    2    0    0  0.00000000000E+00  0.00000000000E+00  0.14672385195E+03  0.90034757857E+03  0.88831181097E+03 0.  0.
        3    1    3    3  502    0  0.39399187598E+02 -0.12191911725E+03 -0.35767402610E+03  0.37993063351E+03  0.10100000352E+00 0.  1.
       -3    1    3    3    0  502 -0.39399187598E+02  0.12191911725E+03  0.50439787804E+03  0.52041694506E+03  0.10100000352E+00 0. -1.
</event>
<event>
 5   0  0.8738044E-03  0.9020211E+03  0.7818609E-02  0.9423058E-01
       -1   -1    0    0    0  501  0.00000000000E+00  0.00000000000E+00  0.59291594443E+03  0.59291594445E+03  0.50400001928E-02 0. -1.
        1   -1    0    0  501    0  0.00000000000E+00  0.00000000000E+00 -0.34306805209E+03  0.34306805213E+03  0.50400001928E-02 0.  1.
    10030    2    1    2    0    0  0.00000000000E+00  0.00000000000E+00  0.24984789234E+03  0.93598399658E+03  0.90202110427E+03 0.  0.
        3    1    3    3  502    0 -0.63754334155E+02  0.39350509844E+03 -0.93968072326E+02  0.40956182249E+03  0.10100000352E+00 0.  1.
       -3    1    3    3    0  502  0.63754334155E+02 -0.39350509844E+03  0.34381596466E+03  0.52642217410E+03  0.10100000352E+00 0. -1.
</event>
<event>
 5   0  0.1454652E-02  0.8996948E+03  0.7818609E-02  0.9425963E-01
        2   -1    0    0  501    0  0.00000000000E+00  0.00000000000E+00  0.10249823412E+04  0.10249823412E+04  0.25500000920E-02 0. -1.
       -2   -1    0    0    0  501  0.00000000000E+00  0.00000000000E+00 -0.19743042482E+03  0.19743042484E+03  0.25500000920E-02 0.  1.
    10030    2    1    2    0    0  0.00000000000E+00  0.00000000000E+00  0.82755191639E+03  0.12224127660E+04  0.89969483509E+03 0.  0.
        4    1    3    3  502    0 -0.24787594187E+03 -0.32266358163E+03  0.15310852309E+03  0.43473911971E+03  0.12699999809E+01 0.  1.
       -4    1    3    3    0  502  0.24787594187E+03  0.32266358163E+03  0.67444339330E+03  0.78767364633E+03  0.12699999809E+01 0. -1.
</event>
<event>
 5   0  0.1441195E-02  0.8953691E+03  0.7818609E-02  0.9431389E-01
        2   -1    0    0  501    0  0.00000000000E+00  0.00000000000E+00  0.13281284579E+04  0.13281284579E+04  0.25500000920E-02 0. -1.
       -2   -1    0    0    0  501  0.00000000000E+00  0.00000000000E+00 -0.15090517728E+03  0.15090517730E+03  0.25500000920E-02 0.  1.
    10030    2    1    2    0    0  0.00000000000E+00  0.00000000000E+00  0.11772232806E+04  0.14790336352E+04  0.89536910915E+03 0.  0.
        5    1    3    3  502    0 -0.85422936237E+02  0.81142924653E+02  0.13020171453E+04  0.13073453977E+04  0.46999998093E+01 0. -1.
       -5    1    3    3    0  502  0.85422936237E+02 -0.81142924653E+02 -0.12479386464E+03  0.17168823753E+03  0.46999998093E+01 0.  1.
</event>
<event>
 5   0  0.8885324E-03  0.8975881E+03  0.7818609E-02  0.9428601E-01
        1   -1    0    0  501    0  0.00000000000E+00  0.00000000000E+00  0.15347789277E+04  0.15347789277E+04  0.50400001928E-02 0. -1.
       -1   -1    0    0    0  501  0.00000000000E+00  0.00000000000E+00 -0.13123459710E+03  0.13123459719E+03  0.50400001928E-02 0.  1.
    10030    2    1    2    0    0  0.00000000000E+00  0.00000000000E+00  0.14035443306E+04  0.16660135249E+04  0.89758808881E+03 0.  0.
        2    1    3    3  502    0 -0.17234795837E+03  0.36045561347E+03  0.10811802534E+04  0.11526416652E+04  0.25500000920E-02 0.  1.
       -2    1    3    3    0  502  0.17234795837E+03 -0.36045561347E+03  0.32236407720E+03  0.51337185968E+03  0.25500000920E-02 0. -1.
</event>
<event>
 5   0  0.8612969E-03  0.8638348E+03  0.7818609E-02  0.9471954E-01
        1   -1    0    0  501    0  0.00000000000E+00  0.00000000000E+00  0.83367685027E+03  0.83367685028E+03  0.50400001928E-02 0. -1.
       -1   -1    0    0    0  501  0.00000000000E+00  0.00000000000E+00 -0.22377093369E+03  0.22377093375E+03  0.50400001928E-02 0.  1.
    10030    2    1    2    0    0  0.00000000000E+00  0.00000000000E+00  0.60990591658E+03  0.10574477840E+04  0.86383481573E+03 0.  0.
        4    1    3    3  502    0 -0.13726776426E+03  0.29308353360E+03 -0.45180099242E+02  0.32677706627E+03  0.12699999809E+01 0.  1.
       -4    1    3    3    0  502  0.13726776426E+03 -0.29308353360E+03  0.65508601582E+03  0.73067071776E+03  0.12699999809E+01 0. -1.
</event>
<event>
 5   0  0.8738044E-03  0.8918950E+03  0.7818609E-02  0.9435770E-01
        1   -1    0    0  501    0  0.00000000000E+00  0.00000000000E+00  0.78376199532E+03  0.78376199534E+03  0.50400001928E-02 0. -1.
       -1   -1    0    0    0  501  0.00000000000E+00  0.00000000000E+00 -0.25373668917E+03  0.25373668922E+03  0.50400001928E-02 0.  1.
    10030    2    1    2    0    0  0.00000000000E+00  0.00000000000E+00  0.53002530615E+03  0.10374986846E+04  0.89189500239E+03 0.  0.
        3    1    3    3  502    0 -0.24886915961E+03 -0.94125065732E+02  0.68131027791E+03  0.73142264909E+03  0.10100000352E+00 0. -1.
       -3    1    3    3    0  502  0.24886915961E+03  0.94125065732E+02 -0.15128497176E+03  0.30607603547E+03  0.10100000352E+00 0.  1.
</event>
<event>
 5   0  0.8524692E-03  0.9011354E+03  0.7818609E-02  0.9424163E-01
        1   -1    0    0  501    0  0.00000000000E+00  0.00000000000E+00  0.26165757309E+03  0.26165757314E+03  0.50400001928E-02 0.  1.
       -1   -1    0    0    0  501  0.00000000000E+00  0.00000000000E+00 -0.77586607794E+03  0.77586607796E+03  0.50400001928E-02 0. -1.
    10030    2    1    2    0    0  0.00000000000E+00  0.00000000000E+00 -0.51420850485E+03  0.10375236511E+04  0.90113536172E+03 0.  0.
        5    1    3    3  502    0 -0.29617385738E+03 -0.10942769796E+03  0.11293623324E+03  0.33536555823E+03  0.46999998093E+01 0.  1.
       -5    1    3    3    0  502  0.29617385738E+03  0.10942769796E+03 -0.62714473808E+03  0.70215809287E+03  0.46999998093E+01 0. -1.
</event>
<event>
 5   0  0.1440615E-02  0.8977423E+03  0.7818609E-02  0.9428408E-01
        2   -1    0    0  501    0  0.00000000000E+00  0.00000000000E+00  0.68805211935E+03  0.68805211935E+03  0.25500000920E-02 0.  1.
       -2   -1    0    0    0  501  0.00000000000E+00  0.00000000000E+00 -0.29283437188E+03  0.29283437189E+03  0.25500000920E-02 0. -1.
    10030    2    1    2    0    0  0.00000000000E+00  0.00000000000E+00  0.39521774747E+03  0.98088649124E+03  0.89774230199E+03 0.  0.
        3    1    3    3  502    0  0.81124057959E+02  0.19817997741E+03 -0.23342575773E+03  0.31677122786E+03  0.10100000352E+00 0. -1.
       -3    1    3    3    0  502 -0.81124057959E+02 -0.19817997741E+03  0.62864350520E+03  0.66411526338E+03  0.10100000352E+00 0.  1.
</event>
<event>
 5   0  0.8291252E-03  0.8259841E+03  0.7818609E-02  0.9523150E-01
       -1   -1    0    0    0  501  0.00000000000E+00  0.00000000000E+00  0.32728835135E+03  0.32728835139E+03  0.50400001928E-02 0.  1.
        1   -1    0    0  501    0  0.00000000000E+00  0.00000000000E+00 -0.52113808329E+03  0.52113808331E+03  0.50400001928E-02 0. -1.
    10030    2    1    2    0    0  0.00000000000E+00  0.00000000000E+00 -0.19384973194E+03  0.84842643470E+03  0.82598407764E+03 0.  0.
        1    1    3    3  502    0  0.30549319940E+03  0.18971684556E+02  0.18787451913E+03  0.35914183084E+03  0.50400001928E-02 0.  1.
       -1    1    3    3    0  502 -0.30549319940E+03 -0.18971684556E+02 -0.38172425106E+03  0.48928460386E+03  0.50400001928E-02 0. -1.
</event>
<event>
 5   0  0.1483326E-02  0.8969247E+03  0.7818609E-02  0.9429434E-01
       -2   -1    0    0    0  501  0.00000000000E+00  0.00000000000E+00  0.85271480150E+03  0.85271480150E+03  0.25500000920E-02 0. -1.
        2   -1    0    0  501    0  0.00000000000E+00  0.00000000000E+00 -0.23585668457E+03  0.23585668458E+03  0.25500000920E-02 0.  1.
    10030    2    1    2    0    0  0.00000000000E+00  0.00000000000E+00  0.61685811693E+03  0.10885714861E+04  0.89692471473E+03 0.  0.
        1    1    3    3  502    0 -0.41609519390E+02  0.21037853265E+03  0.78644906048E+03  0.81516415761E+03  0.50400001928E-02 0. -1.
       -1    1    3    3    0  502  0.41609519390E+02 -0.21037853265E+03 -0.16959094355E+03  0.27340732847E+03  0.50400001928E-02 0.  1.
</event>
<event>
 5   0  0.8738044E-03  0.8924390E+03  0.7818609E-02  0.9435083E-01
        1   -1    0    0  501    0  0.00000000000E+00  0.00000000000E+00  0.13382164050E+04  0.13382164050E+04  0.50400001928E-02 0.  1.
       -1   -1    0    0    0  501  0.00000000000E+00  0.00000000000E+00 -0.14878896331E+03  0.14878896339E+03  0.50400001928E-02 0. -1.
    10030    2    1    2    0    0  0.00000000000E+00  0.00000000000E+00  0.11894274417E+04  0.14870053684E+04  0.89243897641E+03 0.  0.
        3    1    3    3  502    0  0.36264880981E+03  0.24547761140E+03  0.45197729084E+03  0.62933051618E+03  0.10100000352E+00 0. -1.
       -3    1    3    3    0  502 -0.36264880981E+03 -0.24547761140E+03  0.73745015086E+03  0.85767485223E+03  0.10100000352E+00 0.  1.
</event>
<event>
 5   0  0.8885324E-03  0.8900377E+03  0.7818609E-02  0.9438121E-01
        1   -1    0    0  501    0  0.00000000000E+00  0.00000000000E+00  0.64793307048E+03  0.64793307050E+03  0.50400001928E-02 0.  1.
       -1   -1    0    0    0  501  0.00000000000E+00  0.00000000000E+00 -0.30565157122E+03  0.30565157126E+03  0.50400001928E-02 0. -1.
    10030    2    1    2    0    0  0.00000000000E+00  0.00000000000E+00  0.34228149927E+03  0.95358464176E+03  0.89003766452E+03 0.  0.
        2    1    3    3  502    0  0.98706668393E+02  0.27197913718E+03  0.53340340282E+03  0.60682357205E+03  0.25500000920E-02 0.  1.
       -2    1    3    3    0  502 -0.98706668393E+02 -0.27197913718E+03 -0.19112190355E+03  0.34676106972E+03  0.25500000920E-02 0. -1.
</event>
<event>
 5   0  0.8524692E-03  0.8431389E+03  0.7818609E-02  0.9499592E-01
        1   -1    0    0  501    0  0.00000000000E+00  0.00000000000E+00  0.75284701448E+03  0.75284701449E+03  0.50400001928E-02 0.  1.
       -1   -1    0    0    0  501  0.00000000000E+00  0.00000000000E+00 -0.23606498575E+03  0.23606498580E+03  0.50400001928E-02 0. -1.
    10030    2    1    2    0    0  0.00000000000E+00  0.00000000000E+00  0.51678202873E+03  0.98891200029E+03  0.84313894413E+03 0.  0.
        5    1    3    3  502    0 -0.19472021270E+03 -0.30977422261E+03  0.50392299156E+03  0.62276520587E+03  0.46999998093E+01 0.  1.
       -5    1    3    3    0  502  0.19472021270E+03  0.30977422261E+03  0.12859037170E+02  0.36614679442E+03  0.46999998093E+01 0. -1.
</event>
<event>
 5   0  0.1441195E-02  0.9120618E+03  0.7818609E-02  0.9410628E-01
        2   -1    0    0  501    0  0.00000000000E+00  0.00000000000E+00  0.76711889955E+03  0.76711889956E+03  0.25500000920E-02 0. -1.
       -2   -1    0    0    0  501  0.00000000000E+00  0.00000000000E+00 -0.27109769333E+03  0.27109769334E+03  0.25500000920E-02 0.  1.
    10030    2    1    2    0    0  0.00000000000E+00  0.00000000000E+00  0.49602120622E+03  0.10382165929E+04  0.91206176148E+03 0.  0.
        5    1    3    3  502    0  0.24141937982E+03 -0.16526482164E+03  0.64617198056E+03  0.70933496790E+03  0.46999998093E+01 0. -1.
       -5    1    3    3    0  502 -0.24141937982E+03  0.16526482164E+03 -0.15015077434E+03  0.32888162500E+03  0.46999998093E+01 0.  1.
</event>
<event>
 5   0  0.1441195E-02  0.9041814E+03  0.7818609E-02  0.9420369E-01
       -2   -1    0    0    0  501  0.00000000000E+00  0.00000000000E+00  0.11490508227E+03  0.11490508230E+03  0.25500000920E-02 0.  1.
        2   -1    0    0  501    0  0.00000000000E+00  0.00000000000E+00 -0.17787378212E+04  0.17787378212E+04  0.25500000920E-02 0. -1.
    10030    2    1    2    0    0  0.00000000000E+00  0.00000000000E+00 -0.16638327389E+04  0.18936429035E+04  0.90418143247E+03 0.  0.
        5    1    3    3  502    0  0.16424925177E+03 -0.36204114467E+02  0.46887188153E+02  0.17466840877E+03  0.46999998093E+01 0.  1.
       -5    1    3    3    0  502 -0.16424925177E+03  0.36204114467E+02 -0.17107199271E+04  0.17189744947E+04  0.46999998093E+01 0. -1.
</event>
<event>
 5   0  0.1441195E-02  0.9143275E+03  0.7818609E-02  0.9407846E-01
       -2   -1    0    0    0  501  0.00000000000E+00  0.00000000000E+00  0.13080491027E+03  0.13080491030E+03  0.25500000920E-02 0. -1.
        2   -1    0    0  501    0  0.00000000000E+00  0.00000000000E+00 -0.15977894120E+04  0.15977894120E+04  0.25500000920E-02 0.  1.
    10030    2    1    2    0    0  0.00000000000E+00  0.00000000000E+00 -0.14669845017E+04  0.17285943223E+04  0.91432751395E+03 0.  0.
        5    1    3    3  502    0 -0.12590123537E+03 -0.39069202253E+03 -0.35309303256E+03  0.54146851910E+03  0.46999998093E+01 0. -1.
       -5    1    3    3    0  502  0.12590123537E+03  0.39069202253E+03 -0.11138914691E+04  0.11871258032E+04  0.46999998093E+01 0.  1.
</event>
<event>
 5   0  0.8612969E-03  0.8963884E+03  0.7818609E-02  0.9430107E-01
       -1   -1    0    0    0  501  0.00000000000E+00  0.00000000000E+00  0.15905519429E+03  0.15905519437E+03  0.50400001928E-02 0. -1.
        1   -1    0    0  501    0  0.00000000000E+00  0.00000000000E+00 -0.12629455265E+04  0.12629455266E+04  0.50400001928E-02 0.  1.
    10030    2    1    2    0    0  0.00000000000E+00  0.00000000000E+00 -0.11038903323E+04  0.14220007209E+04  0.89638841171E+03 0.  0.
        4    1    3    3  502    0  0.16990415192E+02  0.37532691524E+02 -0.12599323859E+04  0.12606064442E+04  0.12699999809E+01 0.  1.
       -4    1    3    3    0  502 -0.16990415192E+02 -0.37532691524E+02  0.15604205368E+03  0.16139427672E+03  0.12699999809E+01 0. -1.
</event>
<event>
 5   0  0.1535906E-02  0.9129682E+03  0.7818609E-02  0.9409514E-01
        2   -1    0    0  501    0  0.00000000000E+00  0.00000000000E+00  0.10399434416E+04  0.10399434416E+04  0.25500000920E-02 0.  1.
       -2   -1    0    0    0  501  0.00000000000E+00  0.00000000000E+00 -0.20037409934E+03  0.20037409935E+03  0.25500000920E-02 0. -1.
    10030    2    1    2    0    0  0.00000000000E+00  0.00000000000E+00  0.83956934229E+03  0.12403175410E+04  0.91296819329E+03 0.  0.
        2    1    3    3  502    0 -0.14063864453E+03 -0.77133403114E+02  0.10003964159E+04  0.10131741109E+04  0.25500000920E-02 0.  1.
       -2    1    3    3    0  502  0.14063864453E+03  0.77133403114E+02 -0.16082707357E+03  0.22714343004E+03  0.25500000920E-02 0. -1.
</event>
<event>
 5   0  0.1440615E-02  0.9131442E+03  0.7818609E-02  0.9409298E-01
       -2   -1    0    0    0  501  0.00000000000E+00  0.00000000000E+00  0.37251175086E+03  0.37251175087E+03  0.25500000920E-02 0. -1.
        2   -1    0    0  501    0  0.00000000000E+00  0.00000000000E+00 -0.55960130053E+03  0.55960130053E+03  0.25500000920E-02 0.  1.
    10030    2    1    2    0    0  0.00000000000E+00  0.00000000000E+00 -0.18708954966E+03  0.93211305140E+03  0.91314415127E+03 0.  0.
        3    1    3    3  502    0 -0.19224390251E+03 -0.39875656727E+03  0.20551605031E+02  0.44315561224E+03  0.10100000352E+00 0. -1.
       -3    1    3    3    0  502  0.19224390251E+03  0.39875656727E+03 -0.20764115469E+03  0.48895743916E+03  0.10100000352E+00 0.  1.
</event>
<event>
 5   0  0.8291252E-03  0.8821627E+03  0.7818609E-02  0.9448158E-01
       -1   -1    0    0    0  501  0.00000000000E+00  0.00000000000E+00  0.17626194370E+03  0.17626194377E+03  0.50400001928E-02 0.  1.
        1   -1    0    0  501    0  0.00000000000E+00  0.00000000000E+00 -0.11037706462E+04  0.11037706462E+04  0.50400001928E-02 0. -1.
    10030    2    1    2    0    0  0.00000000000E+00  0.00000000000E+00 -0.92750870246E+03  0.12800325899E+04  0.88216270504E+03 0.  0.
        1    1    3    3  502    0 -0.24597850901E+03  0.13080206280E+03 -0.95994714046E+03  0.99955646116E+03  0.50400001928E-02 0. -1.
       -1    1    3    3    0  502  0.24597850901E+03 -0.13080206280E+03  0.32438438002E+02  0.28047612878E+03  0.50400001928E-02 0.  1.
</event>
<event>
 5   0  0.1440615E-02  0.9017469E+03  0.7818609E-02  0.9423400E-01
       -2   -1    0    0    0  501  0.00000000000E+00  0.00000000000E+00  0.28421283441E+03  0.28421283442E+03  0.25500000920E-02 0. -1.
        2   -1    0    0  501    0  0.00000000000E+00  0.00000000000E+00 -0.71526280937E+03  0.71526280937E+03  0.25500000920E-02 0.  1.
    10030    2    1    2    0    0  0.00000000000E+00  0.00000000000E+00 -0.43104997496E+03  0.99947564379E+03  0.90174690552E+03 0.  0.
        3    1    3    3  502    0  0.28642552609E+01  0.44964859619E+03 -0.17885133271E+03  0.48392135046E+03  0.10100000352E+00 0. -1.
       -3    1    3    3    0  502 -0.28642552609E+01 -0.44964859619E+03 -0.25219864225E+03  0.51555429333E+03  0.10100000352E+00 0.  1.
</event>
<event>
 5   0  0.8612969E-03  0.9159733E+03  0.7818609E-02  0.9405831E-01
       -1   -1    0    0    0  501  0.00000000000E+00  0.00000000000E+00  0.12469934168E+03  0.12469934178E+03  0.50400001928E-02 0. -1.
        1   -1    0    0  501    0  0.00000000000E+00  0.00000000000E+00 -0.16820600386E+04  0.16820600386E+04  0.50400001928E-02 0.  1.
    10030    2    1    2    0    0  0.00000000000E+00  0.00000000000E+00 -0.15573606969E+04  0.18067593804E+04  0.91597331746E+03 0.  0.
        4    1    3    3  502    0 -0.32551681286E+03  0.11548522647E+03 -0.18544516056E+03  0.39203259235E+03  0.12699999809E+01 0. -1.
       -4    1    3    3    0  502  0.32551681286E+03 -0.11548522647E+03 -0.13719155363E+04  0.14147267880E+04  0.12699999809E+01 0.  1.
</event>
<event>
 5   0  0.1441195E-02  0.9039468E+03  0.7818609E-02  0.9420661E-01
        2   -1    0    0  501    0  0.00000000000E+00  0.00000000000E+00  0.64130325620E+03  0.64130325620E+03  0.25500000920E-02 0. -1.
       -2   -1    0    0    0  501  0.00000000000E+00  0.00000000000E+00 -0.31853874521E+03  0.31853874522E+03  0.25500000920E-02 0.  1.
    10030    2    1    2    0    0  0.00000000000E+00  0.00000000000E+00  0.32276451099E+03  0.95984200142E+03  0.90394675625E+03 0.  0.
        5    1    3    3  502    0  0.24919424270E+03 -0.36254276255E+03  0.27133634649E+03  0.51689508432E+03  0.46999998093E+01 0. -1.
       -5    1    3    3    0  502 -0.24919424270E+03  0.36254276255E+03  0.51428164498E+02  0.44294691710E+03  0.46999998093E+01 0.  1.
</event>
<event>
 5   0  0.8738044E-03  0.8745343E+03  0.7818609E-02  0.9457987E-01
        1   -1    0    0  501    0  0.00000000000E+00  0.00000000000E+00  0.87282376056E+03  0.87282376058E+03  0.50400001928E-02 0.  1.
       -1   -1    0    0    0  501  0.00000000000E+00  0.00000000000E+00 -0.21906203363E+03  0.21906203369E+03  0.50400001928E-02 0. -1.
    10030    2    1    2    0    0  0.00000000000E+00  0.00000000000E+00  0.65376172693E+03  0.10918857943E+04  0.87453427155E+03 0.  0.
        3    1    3    3  502    0 -0.13509499983E+03 -0.20729843436E+03  0.77701025924E+03  0.81545585597E+03  0.10100000352E+00 0.  1.
       -3    1    3    3    0  502  0.13509499983E+03  0.20729843436E+03 -0.12324853231E+03  0.27642993829E+03  0.10100000352E+00 0. -1.
</event>
<event>
 5   0  0.1535906E-02  0.8760539E+03  0.7818609E-02  0.9456020E-01
       -2   -1    0    0    0  501  0.00000000000E+00  0.00000000000E+00  0.19867896965E+03  0.19867896966E+03  0.25500000920E-02 0. -1.
        2   -1    0    0  501    0  0.00000000000E+00  0.00000000000E+00 -0.96571673937E+03  0.96571673937E+03  0.25500000920E-02 0.  1.
    10030    2    1    2    0    0  0.00000000000E+00  0.00000000000E+00 -0.76703776972E+03  0.11643957090E+04  0.87605389505E+03 0.  0.
        2    1    3    3  502    0  0.18221211636E+03  0.31412091400E+02 -0.91130452537E+03  0.92987306274E+03  0.25500000920E-02 0.  1.
       -2    1    3    3    0  502 -0.18221211636E+03 -0.31412091400E+02  0.14426675565E+03  0.23452264630E+03  0.25500000920E-02 0. -1.
</event>
<event>
 5   0  0.8524692E-03  0.8999196E+03  0.7818609E-02  0.9425682E-01
        1   -1    0    0  501    0  0.00000000000E+00  0.00000000000E+00  0.91273555878E+03  0.91273555879E+03  0.50400001928E-02 0. -1.
       -1   -1    0    0    0  501  0.00000000000E+00  0.00000000000E+00 -0.22182088111E+03  0.22182088117E+03  0.50400001928E-02 0.  1.
    10030    2    1    2    0    0  0.00000000000E+00  0.00000000000E+00  0.69091467767E+03  0.11345564400E+04  0.89991956510E+03 0.  0.
        5    1    3    3  502    0  0.24811941707E+03  0.21341614469E+03  0.73471915900E+03  0.80432830893E+03  0.46999998093E+01 0. -1.
       -5    1    3    3    0  502 -0.24811941707E+03 -0.21341614469E+03 -0.43804481337E+02  0.33022813103E+03  0.46999998093E+01 0.  1.
</event>
<event>
 5   0  0.8885324E-03  0.8997088E+03  0.7818609E-02  0.9425946E-01
        1   -1    0    0  501    0  0.00000000000E+00  0.00000000000E+00  0.29890607667E+03  0.29890607671E+03  0.50400001928E-02 0.  1.
       -1   -1    0    0    0  501  0.00000000000E+00  0.00000000000E+00 -0.67703195037E+03  0.67703195039E+03  0.50400001928E-02 0. -1.
    10030    2    1    2    0    0  0.00000000000E+00  0.00000000000E+00 -0.37812587371E+03  0.97593802710E+03  0.89970876198E+03 0.  0.
        2    1    3    3  502    0 -0.14981008152E+03 -0.11531153716E+03 -0.63185087699E+03  0.65952660438E+03  0.25500000920E-02 0. -1.
       -2    1    3    3    0  502  0.14981008152E+03  0.11531153716E+03  0.25372500328E+03  0.31641142272E+03  0.25500000920E-02 0.  1.
</event>
<event>
 5   0  0.8524692E-03  0.8943073E+03  0.7818609E-02  0.9432726E-01
       -1   -1    0    0    0  501  0.00000000000E+00  0.00000000000E+00  0.24225578329E+03  0.24225578335E+03  0.50400001928E-02 0.  1.
        1   -1    0    0  501    0  0.00000000000E+00  0.00000000000E+00 -0.82535245881E+03  0.82535245882E+03  0.50400001928E-02 0. -1.
    10030    2    1    2    0    0  0.00000000000E+00  0.00000000000E+00 -0.58309667551E+03  0.10676082422E+04  0.89430734412E+03 0.  0.
        5    1    3    3  502    0 -0.21840109863E+03  0.30001560335E+03  0.62181817462E+01  0.37117267938E+03  0.46999998093E+01 0.  1.
       -5    1    3    3    0  502  0.21840109863E+03 -0.30001560335E+03 -0.58931485726E+03  0.69643556279E+03  0.46999998093E+01 0. -1.
</event>
<event>
 5   0  0.1441195E-02  0.9011010E+03  0.7818609E-02  0.9424206E-01
        2   -1    0    0  501    0  0.00000000000E+00  0.00000000000E+00  0.87015260571E+03  0.87015260571E+03  0.25500000920E-02 0.  1.
       -2   -1    0    0    0  501  0.00000000000E+00  0.00000000000E+00 -0.23328751836E+03  0.23328751837E+03  0.25500000920E-02 0. -1.
    10030    2    1    2    0    0  0.00000000000E+00  0.00000000000E+00  0.63686508735E+03  0.11034401241E+04  0.90110097545E+03 0.  0.
        5    1    3    3  502    0  0.12298758988E+03  0.12379125203E+03  0.82705947858E+03  0.84528083644E+03  0.46999998093E+01 0.  1.
       -5    1    3    3    0  502 -0.12298758988E+03 -0.12379125203E+03 -0.19019439123E+03  0.25815928764E+03  0.46999998093E+01 0. -1.
</event>
<event>
 5   0  0.8524692E-03  0.9968862E+03  0.7818609E-02  0.9311967E-01
       -1   -1    0    0    0  501  0.00000000000E+00  0.00000000000E+00  0.30657107326E+03  0.30657107330E+03  0.50400001928E-02 0.  1.
        1   -1    0    0  501    0  0.00000000000E+00  0.00000000000E+00 -0.81040104051E+03  0.81040104053E+03  0.50400001928E-02 0. -1.
    10030    2    1    2    0    0  0.00000000000E+00  0.00000000000E+00 -0.50382996725E+03  0.11169721138E+04  0.99688618567E+03 0.  0.
        5    1    3    3  502    0 -0.25685492261E+03  0.10949914888E+03  0.21068606070E+03  0.34982169894E+03  0.46999998093E+01 0.  1.
       -5    1    3    3    0  502  0.25685492261E+03 -0.10949914888E+03 -0.71451602795E+03  0.76715041489E+03  0.46999998093E+01 0. -1.
</event>
<event>
 5   0  0.1483326E-02  0.8947387E+03  0.7818609E-02  0.9432182E-01
        2   -1    0    0  501    0  0.00000000000E+00  0.00000000000E+00  0.11683045727E+04  0.11683045727E+04  0.25500000920E-02 0. -1.
       -2   -1    0    0    0  501  0.00000000000E+00  0.00000000000E+00 -0.17130749682E+03  0.17130749684E+03  0.25500000920E-02 0.  1.
    10030    2    1    2    0    0  0.00000000000E+00  0.00000000000E+00  0.99699707583E+03  0.13396120695E+04  0.89473869232E+03 0.  0.
        1    1    3    3  502    0  0.51729369561E+02 -0.26565418263E+03 -0.34834745400E+02  0.27287640414E+03  0.50400001928E-02 0.  1.
       -1    1    3    3    0  502 -0.51729369561E+02  0.26565418263E+03  0.10318318212E+04  0.10667356654E+04  0.50400001928E-02 0. -1.
</event>
<event>
 5   0  0.1441195E-02  0.8877582E+03  0.7818609E-02  0.9441015E-01
        2   -1    0    0  501    0  0.00000000000E+00  0.00000000000E+00  0.27467064537E+03  0.27467064538E+03  0.25500000920E-02 0. -1.
       -2   -1    0    0    0  501  0.00000000000E+00  0.00000000000E+00 -0.71732687279E+03  0.71732687279E+03  0.25500000920E-02 0.  1.
    10030    2    1    2    0    0  0.00000000000E+00  0.00000000000E+00 -0.44265622742E+03  0.99199751817E+03  0.88775815422E+03 0.  0.
        5    1    3    3  502    0 -0.16308678464E+03 -0.30673714864E+03  0.87373966491E+02  0.35824750899E+03  0.46999998093E+01 0. -1.
       -5    1    3    3    0  502  0.16308678464E+03  0.30673714864E+03 -0.53003019391E+03  0.63375000918E+03  0.46999998093E+01 0.  1.
</event>
<event>
 5   0  0.1441195E-02  0.8924790E+03  0.7818609E-02  0.9435032E-01
       -2   -1    0    0    0  501  0.00000000000E+00  0.00000000000E+00  0.44408972056E+03  0.44408972057E+03  0.25500000920E-02 0. -1.
        2   -1    0    0  501    0  0.00000000000E+00  0.00000000000E+00 -0.44839965213E+03  0.44839965214E+03  0.25500000920E-02 0.  1.
    10030    2    1    2    0    0  0.00000000000E+00  0.00000000000E+00 -0.43099315735E+01  0.89248937271E+03  0.89247896607E+03 0.  0.
        5    1    3    3  502    0 -0.15175035461E+03  0.16027488484E+03 -0.38996275922E+03  0.44811745381E+03  0.46999998093E+01 0.  1.
       -5    1    3    3    0  502  0.15175035461E+03 -0.16027488484E+03  0.38565282764E+03  0.44437191890E+03  0.46999998093E+01 0. -1.
</event>
<event>
 5   0  0.8738044E-03  0.9112987E+03  0.7818609E-02  0.9411567E-01
       -1   -1    0    0    0  501  0.00000000000E+00  0.00000000000E+00  0.16448401387E+03  0.16448401395E+03  0.50400001928E-02 0.  1.
        1   -1    0    0  501    0  0.00000000000E+00  0.00000000000E+00 -0.12622281288E+04  0.12622281288E+04  0.50400001928E-02 0. -1.
    10030    2    1    2    0    0  0.00000000000E+00  0.00000000000E+00 -0.10977441149E+04  0.14267121428E+04  0.91129874160E+03 0.  0.
        3    1    3    3  502    0 -0.85389613279E+02  0.40523902036E+03 -0.84635838843E+03  0.94224868349E+03  0.10100000352E+00 0. -1.
       -3    1    3    3    0  502  0.85389613279E+02 -0.40523902036E+03 -0.25138572649E+03  0.48446345926E+03  0.10100000352E+00 0.  1.
</event>
<event>
 5   0  0.8524692E-03  0.9094205E+03  0.7818609E-02  0.9413881E-01
       -1   -1    0    0    0  501  0.00000000000E+00  0.00000000000E+00  0.17826591030E+03  0.17826591037E+03  0.50400001928E-02 0. -1.
        1   -1    0    0  501    0  0.00000000000E+00  0.00000000000E+00 -0.11598483752E+04  0.11598483752E+04  0.50400001928E-02 0.  1.
    10030    2    1    2    0    0  0.00000000000E+00  0.00000000000E+00 -0.98158246487E+03  0.13381142856E+04  0.90942053301E+03 0.  0.
        5    1    3    3  502    0 -0.45035935278E+02 -0.39616194485E+02 -0.11539659303E+04  0.11555332693E+04  0.46999998093E+01 0.  1.
       -5    1    3    3    0  502  0.45035935278E+02  0.39616194485E+02  0.17238346541E+03  0.18258101620E+03  0.46999998093E+01 0. -1.
</event>
<event>
 5   0  0.1441195E-02  0.8923570E+03  0.7818609E-02  0.9435186E-01
       -2   -1    0    0    0  501  0.00000000000E+00  0.00000000000E+00  0.93899230194E+02  0.93899230228E+02  0.25500000920E-02 0.  1.
        2   -1    0    0  501    0  0.00000000000E+00  0.00000000000E+00 -0.21200947416E+04  0.21200947416E+04  0.25500000920E-02 0. -1.
    10030    2    1    2    0    0  0.00000000000E+00  0.00000000000E+00 -0.20261955114E+04  0.22139939718E+04  0.89235702320E+03 0.  0.
        5    1    3    3  502    0  0.14733837535E+03 -0.41017233961E+03 -0.12498180687E+04  0.13236378809E+04  0.46999998093E+01 0. -1.
       -5    1    3    3    0  502 -0.14733837535E+03  0.41017233961E+03 -0.77637744273E+03  0.89035609090E+03  0.46999998093E+01 0.  1.
</event>
<event>
 5   0  0.8885324E-03  0.8920236E+03  0.7818609E-02  0.9435608E-01
        1   -1    0    0  501    0  0.00000000000E+00  0.00000000000E+00  0.12151653262E+04  0.12151653262E+04  0.50400001928E-02 0. -1.
       -1   -1    0    0    0  501  0.00000000000E+00  0.00000000000E+00 -0.16370326690E+03  0.16370326697E+03  0.50400001928E-02 0.  1.
    10030    2    1    2    0    0  0.00000000000E+00  0.00000000000E+00  0.10514620593E+04  0.13788685932E+04  0.89202361803E+03 0.  0.
        2    1    3    3  502    0  0.82077015220E+02  0.21441084786E+03 -0.65349666574E+02  0.23870321958E+03  0.25500000920E-02 0.  1.
       -2    1    3    3    0  502 -0.82077015220E+02 -0.21441084786E+03  0.11168117259E+04  0.11401653736E+04  0.25500000920E-02 0. -1.
</event>
<event>
 5   0  0.1483326E-02  0.9088734E+03  0.7818609E-02  0.9414557E-01
       -2   -1    0    0    0  501  0.00000000000E+00  0.00000000000E+00  0.13059504607E+03  0.13059504610E+03  0.25500000920E-02 0. -1.
        2   -1    0    0  501    0  0.00000000000E+00  0.00000000000E+00 -0.15813210814E+04  0.15813210814E+04  0.25500000920E-02 0.  1.
    10030    2    1    2    0    0  0.00000000000E+00  0.00000000000E+00 -0.14507260353E+04  0.17119161275E+04  0.90887336741E+03 0.  0.
        1    1    3    3  502    0 -0.33028272197E+03 -0.31176189603E+03 -0.69676372556E+03  0.83172221657E+03  0.50400001928E-02 0.  1.
       -1    1    3    3    0  502  0.33028272197E+03  0.31176189603E+03 -0.75396230975E+03  0.88019391091E+03  0.50400001928E-02 0. -1.
</event>
<event>
 5   0  0.8524692E-03  0.8808499E+03  0.7818609E-02  0.9449842E-01
        1   -1    0    0  501    0  0.00000000000E+00  0.00000000000E+00  0.17078940167E+03  0.17078940174E+03  0.50400001928E-02 0.  1.
       -1   -1    0    0    0  501  0.00000000000E+00  0.00000000000E+00 -0.11357505061E+04  0.11357505061E+04  0.50400001928E-02 0. -1.
    10030    2    1    2    0    0  0.00000000000E+00  0.00000000000E+00 -0.96496110445E+03  0.13065399079E+04  0.88084992920E+03 0.  0.
        5    1    3    3  502    0  0.38113734503E+03  0.21111762859E+03 -0.57763831519E+03  0.72354988913E+03  0.46999998093E+01 0.  1.
       -5    1    3    3    0  502 -0.38113734503E+03 -0.21111762859E+03 -0.38732278926E+03  0.58299001875E+03  0.46999998093E+01 0. -1.
</event>
<event>
 5   0  0.8291252E-03  0.8899247E+03  0.7818609E-02  0.9438264E-01
        1   -1    0    0  501    0  0.00000000000E+00  0.00000000000E+00  0.79070579986E+03  0.79070579987E+03  0.50400001928E-02 0. -1.
       -1   -1    0    0    0  501  0.00000000000E+00  0.00000000000E+00 -0.25039844456E+03  0.25039844461E+03  0.50400001928E-02 0.  1.
    10030    2    1    2    0    0  0.00000000000E+00  0.00000000000E+00  0.54030735529E+03  0.10411042445E+04  0.88992472136E+03 0.  0.
        1    1    3    3  502    0 -0.31685029803E+03  0.28399615044E+03  0.11787345486E+03  0.44152245267E+03  0.50400001928E-02 0.  1.
       -1    1    3    3    0  502  0.31685029803E+03 -0.28399615044E+03  0.42243390043E+03  0.59958179182E+03  0.50400001928E-02 0. -1.
</event>
<event>
 5   0  0.8291252E-03  0.8991797E+03  0.7818609E-02  0.9426607E-01
        1   -1    0    0  501    0  0.00000000000E+00  0.00000000000E+00  0.19056618437E+04  0.19056618437E+04  0.50400001928E-02 0. -1.
       -1   -1    0    0    0  501  0.00000000000E+00  0.00000000000E+00 -0.10606868775E+03  0.10606868787E+03  0.50400001928E-02 0.  1.
    10030    2    1    2    0    0  0.00000000000E+00  0.00000000000E+00  0.17995931559E+04  0.20117305315E+04  0.89917973994E+03 0.  0.
        1    1    3    3  502    0  0.16436033304E+02 -0.36824891061E+02  0.19016074014E+04  0.19020349432E+04  0.50400001928E-02 0. -1.
       -1    1    3    3    0  502 -0.16436033304E+02  0.36824891061E+02 -0.10201424553E+03  0.10969558837E+03  0.50400001928E-02 0.  1.
</event>
<event>
 5   0  0.8612969E-03  0.9115527E+03  0.7818609E-02  0.9411254E-01
        1   -1    0    0  501    0  0.00000000000E+00  0.00000000000E+00  0.97287156599E+03  0.97287156600E+03  0.50400001928E-02 0.  1.
       -1   -1    0    0    0  501  0.00000000000E+00  0.00000000000E+00 -0.21352468243E+03  0.21352468249E+03  0.50400001928E-02 0. -1.
    10030    2    1    2    0    0  0.00000000000E+00  0.00000000000E+00  0.75934688356E+03  0.11863962485E+04  0.91155272414E+03 0.  0.
        4    1    3    3  502    0  0.13050468321E+03 -0.97539881091E+02  0.93367255040E+03  0.94778243548E+03  0.12699999809E+01 0.  1.
       -4    1    3    3    0  502 -0.13050468321E+03  0.97539881091E+02 -0.17432566684E+03  0.23861381302E+03  0.12699999809E+01 0. -1.
</event>
<event>
 5   0  0.1454652E-02  0.8960511E+03  0.7818609E-02  0.9430531E-01
       -2   -1    0    0    0  501  0.00000000000E+00  0.00000000000E+00  0.76831322466E+03  0.76831322466E+03  0.25500000920E-02 0.  1.
        2   -1    0    0  501    0  0.00000000000E+00  0.00000000000E+00 -0.26125659576E+03  0.26125659577E+03  0.25500000920E-02 0. -1.
    10030    2    1    2    0    0  0.00000000000E+00  0.00000000000E+00  0.50705662889E+03  0.10295698204E+04  0.89605110917E+03 0.  0.
        4    1    3    3  502    0  0.46220997041E+02 -0.14671714254E+03  0.73701766390E+03  0.75290035880E+03  0.12699999809E+01 0.  1.
       -4    1    3    3    0  502 -0.46220997041E+02  0.14671714254E+03 -0.22996103500E+03  0.27666946164E+03  0.12699999809E+01 0. -1.
</event>
<event>
 5   0  0.1440615E-02  0.9110025E+03  0.7818609E-02  0.9411931E-01
       -2   -1    0    0    0  501  0.00000000000E+00  0.00000000000E+00  0.25138231384E+03  0.25138231385E+03  0.25500000920E-02 0. -1.
        2   -1    0    0  501    0  0.00000000000E+00  0.00000000000E+00 -0.82536189709E+03  0.82536189709E+03  0.25500000920E-02 0.  1.
    10030    2    1    2    0    0  0.00000000000E+00  0.00000000000E+00 -0.57397958325E+03  0.10767442109E+04  0.91100248837E+03 0.  0.
        3    1    3    3  502    0 -0.20297064941E+03  0.17554238601E+03  0.14803419128E+03  0.30647405403E+03  0.10100000352E+00 0.  1.
       -3    1    3    3    0  502  0.20297064941E+03 -0.17554238601E+03 -0.72201377453E+03  0.77027015691E+03  0.10100000352E+00 0. -1.
</event>
<event>
 5   0  0.8612969E-03  0.9442618E+03  0.7818609E-02  0.9371883E-01
       -1   -1    0    0    0  501  0.00000000000E+00  0.00000000000E+00  0.10076913792E+04  0.10076913792E+04  0.50400001928E-02 0. -1.
        1   -1    0    0  501    0  0.00000000000E+00  0.00000000000E+00 -0.22120619171E+03  0.22120619177E+03  0.50400001928E-02 0.  1.
    10030    2    1    2    0    0  0.00000000000E+00  0.00000000000E+00  0.78648518747E+03  0.12288975710E+04  0.94426176975E+03 0.  0.
        4    1    3    3  502    0  0.34067150727E+03 -0.23791355455E+03  0.10151726976E+03  0.42774677586E+03  0.12699999809E+01 0.  1.
       -4    1    3    3    0  502 -0.34067150727E+03  0.23791355455E+03  0.68496791771E+03  0.80115079510E+03  0.12699999809E+01 0. -1.
</event>
<event>
 5   0  0.1441195E-02  0.8965640E+03  0.7818609E-02  0.9429887E-01
        2   -1    0    0  501    0  0.00000000000E+00  0.00000000000E+00  0.50190269072E+03  0.50190269072E+03  0.25500000920E-02 0. -1.
       -2   -1    0    0    0  501  0.00000000000E+00  0.00000000000E+00 -0.40038986520E+03  0.40038986521E+03  0.25500000920E-02 0.  1.
    10030    2    1    2    0    0  0.00000000000E+00  0.00000000000E+00  0.10151282552E+03  0.90229255594E+03  0.89656399814E+03 0.  0.
        5    1    3    3  502    0 -0.12864018886E+03  0.11845797866E+03 -0.36462048211E+03  0.40441411557E+03  0.46999998093E+01 0.  1.
       -5    1    3    3    0  502  0.12864018886E+03 -0.11845797866E+03  0.46613330763E+03  0.49787844036E+03  0.46999998093E+01 0. -1.
</event>
<event>
 5   0  0.1440615E-02  0.9089530E+03  0.7818609E-02  0.9414458E-01
        2   -1    0    0  501    0  0.00000000000E+00  0.00000000000E+00  0.10020011478E+04  0.10020011478E+04  0.25500000920E-02 0. -1.
       -2   -1    0    0    0  501  0.00000000000E+00  0.00000000000E+00 -0.20613639072E+03  0.20613639073E+03  0.25500000920E-02 0.  1.
    10030    2    1    2    0    0  0.00000000000E+00  0.00000000000E+00  0.79586475708E+03  0.12081375385E+04  0.90895302434E+03 0.  0.
        3    1    3    3  502    0 -0.12155617695E+03 -0.78975047102E+02  0.97045012049E+03  0.98121680009E+03  0.10100000352E+00 0. -1.
       -3    1    3    3    0  502  0.12155617695E+03  0.78975047102E+02 -0.17458536341E+03  0.22692073844E+03  0.10100000352E+00 0.  1.
</event>
<event>
 5   0  0.1454652E-02  0.8921446E+03  0.7818609E-02  0.9435455E-01
        2   -1    0    0  501    0  0.00000000000E+00  0.00000000000E+00  0.61086494731E+03  0.61086494731E+03  0.25500000920E-02 0.  1.
       -2   -1    0    0    0  501  0.00000000000E+00  0.00000000000E+00 -0.32573564566E+03  0.32573564567E+03  0.25500000920E-02 0. -1.
    10030    2    1    2    0    0  0.00000000000E+00  0.00000000000E+00  0.28512930165E+03  0.93660059298E+03  0.89214458027E+03 0.  0.
        4    1    3    3  502    0 -0.20887833473E+03 -0.19138553676E+03  0.50429226695E+03  0.57842102815E+03  0.12699999809E+01 0.  1.
       -4    1    3    3    0  502  0.20887833473E+03  0.19138553676E+03 -0.21916296530E+03  0.35817956483E+03  0.12699999809E+01 0. -1.
</event>
<event>
 5   0  0.1535906E-02  0.8996943E+03  0.7818609E-02  0.9425964E-01
        2   -1    0    0  501    0  0.00000000000E+00  0.00000000000E+00  0.78911490129E+03  0.78911490129E+03  0.25500000920E-02 0.  1.
       -2   -1    0    0    0  501  0.00000000000E+00  0.00000000000E+00 -0.25644231153E+03  0.25644231154E+03  0.25500000920E-02 0. -1.
    10030    2    1    2    0    0  0.00000000000E+00  0.00000000000E+00  0.53267258976E+03  0.10455572128E+04  0.89969427998E+03 0.  0.
        2    1    3    3  502    0 -0.13606465609E+03  0.22709778773E+03  0.68899758335E+03  0.73810884407E+03  0.25500000920E-02 0.  1.
       -2    1    3    3    0  502  0.13606465609E+03 -0.22709778773E+03 -0.15632499359E+03  0.30744836876E+03  0.25500000920E-02 0. -1.
</event>
<event>
 5   0  0.1535906E-02  0.9005208E+03  0.7818609E-02  0.9424931E-01
        2   -1    0    0  501    0  0.00000000000E+00  0.00000000000E+00  0.16620416632E+04  0.16620416632E+04  0.25500000920E-02 0.  1.
       -2   -1    0    0    0  501  0.00000000000E+00  0.00000000000E+00 -0.12197915966E+03  0.12197915969E+03  0.25500000920E-02 0. -1.
    10030    2    1    2    0    0  0.00000000000E+00  0.00000000000E+00  0.15400625036E+04  0.17840208229E+04  0.90052083913E+03 0.  0.
        2    1    3    3  502    0 -0.85572942360E+02 -0.22124150018E+03  0.11852739324E+02  0.23751003621E+03  0.25500000920E-02 0. -1.
       -2    1    3    3    0  502  0.85572942360E+02  0.22124150018E+03  0.15282097642E+04  0.15465107867E+04  0.25500000920E-02 0.  1.
</event>
<event>
 5   0  0.1535906E-02  0.8933164E+03  0.7818609E-02  0.9433975E-01
        2   -1    0    0  501    0  0.00000000000E+00  0.00000000000E+00  0.17888084210E+04  0.17888084211E+04  0.25500000920E-02 0. -1.
       -2   -1    0    0    0  501  0.00000000000E+00  0.00000000000E+00 -0.11152873807E+03  0.11152873810E+03  0.25500000920E-02 0.  1.
    10030    2    1    2    0    0  0.00000000000E+00  0.00000000000E+00  0.16772796830E+04  0.19003371592E+04  0.89331639609E+03 0.  0.
        2    1    3    3  502    0 -0.25604618732E+03  0.32829155012E+03  0.11827640438E+04  0.12539002254E+04  0.25500000920E-02 0. -1.
       -2    1    3    3    0  502  0.25604618732E+03 -0.32829155012E+03  0.49451563913E+03  0.64643693372E+03  0.25500000920E-02 0.  1.
</event>
<event>
 5   0  0.1440615E-02  0.9123689E+03  0.7818609E-02  0.9410250E-01
        2   -1    0    0  501    0  0.00000000000E+00  0.00000000000E+00  0.91767654469E+03  0.91767654470E+03  0.25500000920E-02 0.  1.
       -2   -1    0    0    0  501  0.00000000000E+00  0.00000000000E+00 -0.22677297718E+03  0.22677297719E+03  0.25500000920E-02 0. -1.
    10030    2    1    2    0    0  0.00000000000E+00  0.00000000000E+00  0.69090356752E+03  0.11444495219E+04  0.91236887745E+03 0.  0.
        3    1    3    3  502    0 -0.12873378028E+02 -0.99195938607E+02  0.90375093017E+03  0.90926965862E+03  0.10100000352E+00 0.  1.
       -3    1    3    3    0  502  0.12873378028E+02  0.99195938607E+02 -0.21284736265E+03  0.23517986327E+03  0.10100000352E+00 0. -1.
</event>
<event>
 5   0  0.1454652E-02  0.9067901E+03  0.7818609E-02  0.9417133E-01
        2   -1    0    0  501    0  0.00000000000E+00  0.00000000000E+00  0.54814828442E+03  0.54814828443E+03  0.25500000920E-02 0. -1.
       -2   -1    0    0    0  501  0.00000000000E+00  0.00000000000E+00 -0.37502091097E+03  0.37502091098E+03  0.25500000920E-02 0.  1.
    10030    2    1    2    0    0  0.00000000000E+00  0.00000000000E+00  0.17312737345E+03  0.92316919541E+03  0.90679009474E+03 0.  0.
        4    1    3    3  502    0  0.59039667381E+02 -0.19230638711E+03 -0.32709817178E+03  0.38400814540E+03  0.12699999809E+01 0.  1.
       -4    1    3    3    0  502 -0.59039667381E+02  0.19230638711E+03  0.50022554523E+03  0.53916105001E+03  0.12699999809E+01 0. -1.
</event>
<event>
 5   0  0.1483326E-02  0.8977379E+03  0.7818609E-02  0.9428414E-01
        2   -1    0    0  501    0  0.00000000000E+00  0.00000000000E+00  0.12158874669E+04  0.12158874669E+04  0.25500000920E-02 0.  1.
       -2   -1    0    0    0  501  0.00000000000E+00  0.00000000000E+00 -0.16570885933E+03  0.16570885935E+03  0.25500000920E-02 0. -1.
    10030    2    1    2    0    0  0.00000000000E+00  0.00000000000E+00  0.10501786076E+04  0.13815963263E+04  0.89773787987E+03 0.  0.
        1    1    3    3  502    0 -0.29403641333E+03 -0.12167759287E+03  0.10122921876E+04  0.10611306810E+04  0.50400001928E-02 0.  1.
       -1    1    3    3    0  502  0.29403641333E+03  0.12167759287E+03  0.37886419958E+02  0.32046564529E+03  0.50400001928E-02 0. -1.
</event>
<event>
 5   0  0.8291252E-03  0.9329383E+03  0.7818609E-02  0.9385318E-01
       -1   -1    0    0    0  501  0.00000000000E+00  0.00000000000E+00  0.20394467968E+03  0.20394467975E+03  0.50400001928E-02 0. -1.
        1   -1    0    0  501    0  0.00000000000E+00  0.00000000000E+00 -0.10669239740E+04  0.10669239740E+04  0.50400001928E-02 0.  1.
    10030    2    1    2    0    0  0.00000000000E+00  0.00000000000E+00 -0.86297929429E+03  0.12708686537E+04  0.93293830056E+03 0.  0.
        1    1    3    3  502    0  0.30870339128E+02 -0.31097096994E+03  0.40274925907E+02  0.31508410253E+03  0.50400001928E-02 0. -1.
       -1    1    3    3    0  502 -0.30870339128E+02  0.31097096994E+03 -0.90325422020E+03  0.95578455120E+03  0.50400001928E-02 0.  1.
</event>
<event>
 5   0  0.8738044E-03  0.8931426E+03  0.7818609E-02  0.9434194E-01
        1   -1    0    0  501    0  0.00000000000E+00  0.00000000000E+00  0.10200641908E+04  0.10200641908E+04  0.50400001928E-02 0. -1.
       -1   -1    0    0    0  501  0.00000000000E+00  0.00000000000E+00 -0.19550328961E+03  0.19550328967E+03  0.50400001928E-02 0.  1.
    10030    2    1    2    0    0  0.00000000000E+00  0.00000000000E+00  0.82456090118E+03  0.12155674805E+04  0.89314255291E+03 0.  0.
        3    1    3    3  502    0  0.18111427996E+01 -0.39167842265E+03  0.70421626089E+03  0.80581376217E+03  0.10100000352E+00 0. -1.
       -3    1    3    3    0  502 -0.18111427996E+01  0.39167842265E+03  0.12034464029E+03  0.40975371829E+03  0.10100000352E+00 0.  1.
</event>
<event>
 5   0  0.8291252E-03  0.9105551E+03  0.7818609E-02  0.9412482E-01
        1   -1    0    0  501    0  0.00000000000E+00  0.00000000000E+00  0.32037540104E+03  0.32037540108E+03  0.50400001928E-02 0.  1.
       -1   -1    0    0    0  501  0.00000000000E+00  0.00000000000E+00 -0.64698362240E+03  0.64698362242E+03  0.50400001928E-02 0. -1.
    10030    2    1    2    0    0  0.00000000000E+00  0.00000000000E+00 -0.32660822136E+03  0.96735902350E+03  0.91055507801E+03 0.  0.
        1    1    3    3  502    0  0.84689320877E+02  0.14648599620E+03  0.28573025991E+03  0.33207259689E+03  0.50400001928E-02 0.  1.
       -1    1    3    3    0  502 -0.84689320877E+02 -0.14648599620E+03 -0.61233848127E+03  0.63528642660E+03  0.50400001928E-02 0. -1.
</event>
<event>
 5   0  0.1454652E-02  0.9120524E+03  0.7818609E-02  0.9410639E-01
        2   -1    0    0  501    0  0.00000000000E+00  0.00000000000E+00  0.76670159989E+03  0.76670159989E+03  0.25500000920E-02 0.  1.
       -2   -1    0    0    0  501  0.00000000000E+00  0.00000000000E+00 -0.27123969626E+03  0.27123969628E+03  0.25500000920E-02 0. -1.
    10030    2    1    2    0    0  0.00000000000E+00  0.00000000000E+00  0.49546190363E+03  0.10379412962E+04  0.91205243070E+03 0.  0.
        4    1    3    3  502    0  0.16031559856E+03 -0.13105047596E+03 -0.21465447028E+03  0.29825068802E+03  0.12699999809E+01 0. -1.
       -4    1    3    3    0  502 -0.16031559856E+03  0.13105047596E+03  0.71011637391E+03  0.73969060815E+03  0.12699999809E+01 0.  1.
</event>
<event>
 5   0  0.1535906E-02  0.8751908E+03  0.7818609E-02  0.9457137E-01
       -2   -1    0    0    0  501  0.00000000000E+00  0.00000000000E+00  0.18822164586E+03  0.18822164588E+03  0.25500000920E-02 0.  1.
        2   -1    0    0  501    0  0.00000000000E+00  0.00000000000E+00 -0.10173629044E+04  0.10173629044E+04  0.25500000920E-02 0. -1.
    10030    2    1    2    0    0  0.00000000000E+00  0.00000000000E+00 -0.82914125855E+03  0.12055845503E+04  0.87519076850E+03 0.  0.
        2    1    3    3  502    0  0.10563530350E+03 -0.25363781491E+03 -0.88373132593E+03  0.92545773265E+03  0.25500000920E-02 0. -1.
       -2    1    3    3    0  502 -0.10563530350E+03  0.25363781491E+03  0.54590067376E+02  0.28012681764E+03  0.25500000920E-02 0.  1.
</event>
<event>
 5   0  0.1535906E-02  0.9257785E+03  0.7818609E-02  0.9393919E-01
       -2   -1    0    0    0  501  0.00000000000E+00  0.00000000000E+00  0.21648501882E+03  0.21648501884E+03  0.25500000920E-02 0.  1.
        2   -1    0    0  501    0  0.00000000000E+00  0.00000000000E+00 -0.98975197406E+03  0.98975197406E+03  0.25500000920E-02 0. -1.
    10030    2    1    2    0    0  0.00000000000E+00  0.00000000000E+00 -0.77326695524E+03  0.12062369929E+04  0.92577853669E+03 0.  0.
        2    1    3    3  502    0 -0.71732875162E+00  0.29718679517E+03 -0.84903331366E+03  0.89954325827E+03  0.25500000920E-02 0. -1.
       -2    1    3    3    0  502  0.71732875162E+00 -0.29718679517E+03  0.75766358427E+02  0.30669373463E+03  0.25500000920E-02 0.  1.
</event>
<event>
 5   0  0.1483326E-02  0.8931033E+03  0.7818609E-02  0.9434244E-01
       -2   -1    0    0    0  501  0.00000000000E+00  0.00000000000E+00  0.14081520712E+03  0.14081520714E+03  0.25500000920E-02 0.  1.
        2   -1    0    0  501    0  0.00000000000E+00  0.00000000000E+00 -0.14160996954E+04  0.14160996954E+04  0.25500000920E-02 0. -1.
    10030    2    1    2    0    0  0.00000000000E+00  0.00000000000E+00 -0.12752844883E+04  0.15569149026E+04  0.89310329063E+03 0.  0.
        1    1    3    3  502    0  0.84693431157E+01 -0.42756359932E+03 -0.41353948655E+03  0.59489265267E+03  0.50400001928E-02 0.  1.
       -1    1    3    3    0  502 -0.84693431157E+01  0.42756359932E+03 -0.86174500175E+03  0.96202224990E+03  0.50400001928E-02 0. -1.
</event>
<event>
 5   0  0.1441195E-02  0.9081422E+03  0.7818609E-02  0.9415460E-01
       -2   -1    0    0    0  501  0.00000000000E+00  0.00000000000E+00  0.15131664888E+03  0.15131664890E+03  0.25500000920E-02 0.  1.
        2   -1    0    0  501    0  0.00000000000E+00  0.00000000000E+00 -0.13625770047E+04  0.13625770047E+04  0.25500000920E-02 0. -1.
    10030    2    1    2    0    0  0.00000000000E+00  0.00000000000E+00 -0.12112603558E+04  0.15138936536E+04  0.90814224921E+03 0.  0.
        5    1    3    3  502    0  0.37408844091E+03  0.22427775386E+03 -0.39532205474E+03  0.58868012491E+03  0.46999998093E+01 0.  1.
       -5    1    3    3    0  502 -0.37408844091E+03 -0.22427775386E+03 -0.81593830104E+03  0.92521352865E+03  0.46999998093E+01 0. -1.
</event>
<event>
 5   0  0.8885324E-03  0.8832082E+03  0.7818609E-02  0.9446819E-01
       -1   -1    0    0    0  501  0.00000000000E+00  0.00000000000E+00  0.97917680852E+03  0.97917680853E+03  0.50400001928E-02 0.  1.
        1   -1    0    0  501    0  0.00000000000E+00  0.00000000000E+00 -0.19916133690E+03  0.19916133697E+03  0.50400001928E-02 0. -1.
    10030    2    1    2    0    0  0.00000000000E+00  0.00000000000E+00  0.78001547162E+03  0.11783381455E+04  0.88320815733E+03 0.  0.
        2    1    3    3  502    0  0.67478909483E+02  0.85844216115E+02 -0.18086722124E+03  0.21127135251E+03  0.25500000920E-02 0. -1.
       -2    1    3    3    0  502 -0.67478909483E+02 -0.85844216115E+02  0.96088269286E+03  0.96706679299E+03  0.25500000920E-02 0.  1.
</event>
<event>
 5   0  0.8738044E-03  0.8932309E+03  0.7818609E-02  0.9434083E-01
       -1   -1    0    0    0  501  0.00000000000E+00  0.00000000000E+00  0.28060609570E+03  0.28060609575E+03  0.50400001928E-02 0.  1.
        1   -1    0    0  501    0  0.00000000000E+00  0.00000000000E+00 -0.71083755335E+03  0.71083755337E+03  0.50400001928E-02 0. -1.
    10030    2    1    2    0    0  0.00000000000E+00  0.00000000000E+00 -0.43023145765E+03  0.99144364911E+03  0.89323087845E+03 0.  0.
        3    1    3    3  502    0  0.89166792955E+02  0.27939222334E+03 -0.58898121859E+03  0.65795867460E+03  0.10100000352E+00 0. -1.
       -3    1    3    3    0  502 -0.89166792955E+02 -0.27939222334E+03  0.15874976094E+03  0.33348497451E+03  0.10100000352E+00 0.  1.
</event>
<event>
 5   0  0.8291252E-03  0.8897514E+03  0.7818609E-02  0.9438484E-01
       -1   -1    0    0    0  501  0.00000000000E+00  0.00000000000E+00  0.48027677652E+03  0.48027677654E+03  0.50400001928E-02 0.  1.
        1   -1    0    0  501    0  0.00000000000E+00  0.00000000000E+00 -0.41208403939E+03  0.41208403942E+03  0.50400001928E-02 0. -1.
    10030    2    1    2    0    0  0.00000000000E+00  0.00000000000E+00  0.68192737128E+02  0.89236081596E+03  0.88975141274E+03 0.  0.
        1    1    3    3  502    0  0.24661388802E+03  0.35720871123E+03  0.13183946227E+03  0.45364977348E+03  0.50400001928E-02 0.  1.
       -1    1    3    3    0  502 -0.24661388802E+03 -0.35720871123E+03 -0.63646725143E+02  0.43871104248E+03  0.50400001928E-02 0. -1.
</event>
<event>
 5   0  0.8885324E-03  0.9047494E+03  0.7818609E-02  0.9419664E-01
        1   -1    0    0  501    0  0.00000000000E+00  0.00000000000E+00  0.15104989160E+04  0.15104989160E+04  0.50400001928E-02 0. -1.
       -1   -1    0    0    0  501  0.00000000000E+00  0.00000000000E+00 -0.13548030058E+03  0.13548030067E+03  0.50400001928E-02 0.  1.
    10030    2    1    2    0    0  0.00000000000E+00  0.00000000000E+00  0.13750186154E+04  0.16459792167E+04  0.90474935148E+03 0.  0.
        2    1    3    3  502    0 -0.42157873222E+03  0.29707569429E+02  0.98103570632E+03  0.10681957799E+04  0.25500000920E-02 0.  1.
       -2    1    3    3    0  502  0.42157873222E+03 -0.29707569429E+02  0.39398290912E+03  0.57778343679E+03  0.25500000920E-02 0. -1.
</event>
<event>
 5   0  0.1440615E-02  0.9176962E+03  0.7818609E-02  0.9403727E-01
       -2   -1    0    0    0  501  0.00000000000E+00  0.00000000000E+00  0.25787611718E+03  0.25787611719E+03  0.25500000920E-02 0. -1.
        2   -1    0    0  501    0  0.00000000000E+00  0.00000000000E+00 -0.81644460553E+03  0.81644460554E+03  0.25500000920E-02 0.  1.
    10030    2    1    2    0    0  0.00000000000E+00  0.00000000000E+00 -0.55856848835E+03  0.10743207227E+04  0.91769616928E+03 0.  0.
        3    1    3    3  502    0 -0.15225587308E+03 -0.70165350237E+01  0.22737510763E+03  0.27373441950E+03  0.10100000352E+00 0. -1.
       -3    1    3    3    0  502  0.15225587308E+03  0.70165350237E+01 -0.78594359598E+03  0.80058630323E+03  0.10100000352E+00 0.  1.
</event>
<event>
 5   0  0.8885324E-03  0.9127843E+03  0.7818609E-02  0.9409740E-01
        1   -1    0    0  501    0  0.00000000000E+00  0.00000000000E+00  0.13784588706E+04  0.13784588707E+04  0.50400001928E-02 0.  1.
       -1   -1    0    0    0  501  0.00000000000E+00  0.00000000000E+00 -0.15110627537E+03  0.15110627545E+03  0.50400001928E-02 0. -1.
    10030    2    1    2    0    0  0.00000000000E+00  0.00000000000E+00  0.12273525953E+04  0.15295651461E+04  0.91278428068E+03 0.  0.
        2    1    3    3  502    0  0.20562900585E+03 -0.22167171128E+03  0.40807268859E+02  0.30510140745E+03  0.25500000920E-02 0. -1.
       -2    1    3    3    0  502 -0.20562900585E+03  0.22167171128E+03  0.11865453264E+04  0.12244637387E+04  0.25500000920E-02 0.  1.
</event>
<event>
 5   0  0.1441195E-02  0.9181502E+03  0.7818609E-02  0.9403173E-01
       -2   -1    0    0    0  501  0.00000000000E+00  0.00000000000E+00  0.15143200352E+03  0.15143200354E+03  0.25500000920E-02 0. -1.
        2   -1    0    0  501    0  0.00000000000E+00  0.00000000000E+00 -0.13917134900E+04  0.13917134900E+04  0.25500000920E-02 0.  1.
    10030    2    1    2    0    0  0.00000000000E+00  0.00000000000E+00 -0.12402814864E+04  0.15431454935E+04  0.91815023200E+03 0.  0.
        5    1    3    3  502    0  0.40061664197E+03  0.10918288158E+03 -0.29116204742E+03  0.50716074701E+03  0.46999998093E+01 0. -1.
       -5    1    3    3    0  502 -0.40061664197E+03 -0.10918288158E+03 -0.94911943901E+03  0.10359847465E+04  0.46999998093E+01 0.  1.
</event>
<event>
 5   0  0.1483326E-02  0.8832655E+03  0.7818609E-02  0.9446746E-01
       -2   -1    0    0    0  501  0.00000000000E+00  0.00000000000E+00  0.97820547721E+03  0.97820547721E+03  0.25500000920E-02 0. -1.
        2   -1    0    0  501    0  0.00000000000E+00  0.00000000000E+00 -0.19938497860E+03  0.19938497862E+03  0.25500000920E-02 0.  1.
    10030    2    1    2    0    0  0.00000000000E+00  0.00000000000E+00  0.77882049860E+03  0.11775904558E+04  0.88326548253E+03 0.  0.
        1    1    3    3  502    0  0.16097617933E+03  0.26072667897E+03  0.81342515551E+03  0.86922506584E+03  0.50400001928E-02 0. -1.
       -1    1    3    3    0  502 -0.16097617933E+03 -0.26072667897E+03 -0.34604656908E+02  0.30836538999E+03  0.50400001928E-02 0.  1.
</event>
<event>
 5   0  0.8524692E-03  0.8798895E+03  0.7818609E-02  0.9451076E-01
        1   -1    0    0  501    0  0.00000000000E+00  0.00000000000E+00  0.13356060498E+04  0.13356060498E+04  0.50400001928E-02 0. -1.
       -1   -1    0    0    0  501  0.00000000000E+00  0.00000000000E+00 -0.14491650681E+03  0.14491650690E+03  0.50400001928E-02 0.  1.
    10030    2    1    2    0    0  0.00000000000E+00  0.00000000000E+00  0.11906895430E+04  0.14805225567E+04  0.87988945507E+03 0.  0.
        5    1    3    3  502    0  0.23877654081E+03 -0.36889249059E+03  0.56031680284E+03  0.71209052486E+03  0.46999998093E+01 0. -1.
       -5    1    3    3    0  502 -0.23877654081E+03  0.36889249059E+03  0.63037274013E+03  0.76843203183E+03  0.46999998093E+01 0.  1.
</event>
<event>
 5   0  0.8738044E-03  0.9151185E+03  0.7818609E-02  0.9406877E-01
        1   -1    0    0  501    0  0.00000000000E+00  0.00000000000E+00  0.10011463146E+04  0.10011463146E+04  0.50400001928E-02 0. -1.
       -1   -1    0    0    0  501  0.00000000000E+00  0.00000000000E+00 -0.20912075131E+03  0.20912075137E+03  0.50400001928E-02 0.  1.
    10030    2    1    2    0    0  0.00000000000E+00  0.00000000000E+00  0.79202556329E+03  0.12102670660E+04  0.91511850495E+03 0.  0.
        3    1    3    3  502    0 -0.24668560239E+03 -0.73413014789E+02  0.89633500820E+03  0.93255547519E+03  0.10100000352E+00 0. -1.
       -3    1    3    3    0  502  0.24668560239E+03  0.73413014789E+02 -0.10430944491E+03  0.27771159080E+03  0.10100000352E+00 0.  1.
</event>
<event>
 5   0  0.8612969E-03  0.9062890E+03  0.7818609E-02  0.9417754E-01
        1   -1    0    0  501    0  0.00000000000E+00  0.00000000000E+00  0.10632692434E+04  0.10632692434E+04  0.50400001928E-02 0. -1.
       -1   -1    0    0    0  501  0.00000000000E+00  0.00000000000E+00 -0.19312128607E+03  0.19312128613E+03  0.50400001928E-02 0.  1.
    10030    2    1    2    0    0  0.00000000000E+00  0.00000000000E+00  0.87014795731E+03  0.12563905295E+04  0.90628896886E+03 0.  0.
        4    1    3    3  502    0  0.34063865903E+03 -0.95061829871E+02  0.82783294303E+03  0.90021133185E+03  0.12699999809E+01 0. -1.
       -4    1    3    3    0  502 -0.34063865903E+03  0.95061829871E+02  0.42315014277E+02  0.35617919767E+03  0.12699999809E+01 0.  1.
</event>
<event>
 5   0  0.8524692E-03  0.9035741E+03  0.7818609E-02  0.9421125E-01
        1   -1    0    0  501    0  0.00000000000E+00  0.00000000000E+00  0.50587859991E+03  0.50587859993E+03  0.50400001928E-02 0.  1.
       -1   -1    0    0    0  501  0.00000000000E+00  0.00000000000E+00 -0.40347928329E+03  0.40347928332E+03  0.50400001928E-02 0. -1.
    10030    2    1    2    0    0  0.00000000000E+00  0.00000000000E+00  0.10239931662E+03  0.90935788325E+03  0.90357409203E+03 0.  0.
        5    1    3    3  502    0  0.21316908628E+02  0.18466427190E+03 -0.36318116712E+03  0.40801710020E+03  0.46999998093E+01 0. -1.
       -5    1    3    3    0  502 -0.21316908628E+02 -0.18466427190E+03  0.46558048374E+03  0.50134078305E+03  0.46999998093E+01 0.  1.
</event>
<event>
 5   0  0.1535906E-02  0.9164532E+03  0.7818609E-02  0.9405245E-01
        2   -1    0    0  501    0  0.00000000000E+00  0.00000000000E+00  0.79286683398E+03  0.79286683399E+03  0.25500000920E-02 0.  1.
       -2   -1    0    0    0  501  0.00000000000E+00  0.00000000000E+00 -0.26482584167E+03  0.26482584168E+03  0.25500000920E-02 0. -1.
    10030    2    1    2    0    0  0.00000000000E+00  0.00000000000E+00  0.52804099231E+03  0.10576926757E+04  0.91645322117E+03 0.  0.
        2    1    3    3  502    0  0.11144477856E+03  0.31239930015E+03  0.62890781252E+03  0.71101216449E+03  0.25500000920E-02 0.  1.
       -2    1    3    3    0  502 -0.11144477856E+03 -0.31239930015E+03 -0.10086682021E+03  0.34668051118E+03  0.25500000920E-02 0. -1.
</event>
<event>
 5   0  0.8885324E-03  0.9073311E+03  0.7818609E-02  0.9416463E-01
        1   -1    0    0  501    0  0.00000000000E+00  0.00000000000E+00  0.88372270724E+03  0.88372270726E+03  0.50400001928E-02 0. -1.
       -1   -1    0    0    0  501  0.00000000000E+00  0.00000000000E+00 -0.23289253952E+03  0.23289253957E+03  0.50400001928E-02 0.  1.
    10030    2    1    2    0    0  0.00000000000E+00  0.00000000000E+00  0.65083016772E+03  0.11166152468E+04  0.90733108743E+03 0.  0.
        2    1    3    3  502    0  0.17820282362E+03  0.31202319238E+03 -0.15407960579E+02  0.35965556326E+03  0.25500000920E-02 0.  1.
       -2    1    3    3    0  502 -0.17820282362E+03 -0.31202319238E+03  0.66623812830E+03  0.75695968356E+03  0.25500000920E-02 0. -1.
</event>
<event>
 5   0  0.1441195E-02  0.8983812E+03  0.7818609E-02  0.9427607E-01
        2   -1    0    0  501    0  0.00000000000E+00  0.00000000000E+00  0.11706314146E+04  0.11706314146E+04  0.25500000920E-02 0. -1.
       -2   -1    0    0    0  501  0.00000000000E+00  0.00000000000E+00 -0.17236183694E+03  0.17236183695E+03  0.25500000920E-02 0.  1.
    10030    2    1    2    0    0  0.00000000000E+00  0.00000000000E+00  0.99826957762E+03  0.13429932515E+04  0.89838116855E+03 0.  0.
        5    1    3    3  502    0 -0.11210587500E+03  0.15689956031E+03 -0.10729675709E+03  0.22072581026E+03  0.46999998093E+01 0.  1.
       -5    1    3    3    0  502  0.11210587500E+03 -0.15689956031E+03  0.11055663347E+04  0.11222674412E+04  0.46999998093E+01 0. -1.
</event>
<event>
 5   0  0.8291252E-03  0.8493290E+03  0.7818609E-02  0.9491238E-01
       -1   -1    0    0    0  501  0.00000000000E+00  0.00000000000E+00  0.17799915795E+03  0.17799915802E+03  0.50400001928E-02 0.  1.
        1   -1    0    0  501    0  0.00000000000E+00  0.00000000000E+00 -0.10131504581E+04  0.10131504581E+04  0.50400001928E-02 0. -1.
    10030    2    1    2    0    0  0.00000000000E+00  0.00000000000E+00 -0.83515130010E+03  0.11911496161E+04  0.84932897857E+03 0.  0.
        1    1    3    3  502    0 -0.41665389512E+03  0.46963165948E+01 -0.53252092694E+03  0.67616644501E+03  0.50400001928E-02 0. -1.
       -1    1    3    3    0  502  0.41665389512E+03 -0.46963165948E+01 -0.30263037316E+03  0.51498317108E+03  0.50400001928E-02 0.  1.
</event>
<event>
 5   0  0.1440615E-02  0.8963686E+03  0.7818609E-02  0.9430132E-01
       -2   -1    0    0    0  501  0.00000000000E+00  0.00000000000E+00  0.76488765633E+03  0.76488765633E+03  0.25500000920E-02 0. -1.
        2   -1    0    0  501    0  0.00000000000E+00  0.00000000000E+00 -0.26261264820E+03  0.26261264821E+03  0.25500000920E-02 0.  1.
    10030    2    1    2    0    0  0.00000000000E+00  0.00000000000E+00  0.50227500813E+03  0.10275003045E+04  0.89636861393E+03 0.  0.
        3    1    3    3  502    0  0.17981266432E+03  0.40571959103E+03  0.17929340231E+03  0.47863045777E+03  0.10100000352E+00 0. -1.
       -3    1    3    3    0  502 -0.17981266432E+03 -0.40571959103E+03  0.32298160582E+03  0.54886984677E+03  0.10100000352E+00 0.  1.
</event>
<event>
 5   0  0.1441195E-02  0.9212804E+03  0.7818609E-02  0.9399364E-01
        2   -1    0    0  501    0  0.00000000000E+00  0.00000000000E+00  0.71694668404E+03  0.71694668405E+03  0.25500000920E-02 0.  1.
       -2   -1    0    0    0  501  0.00000000000E+00  0.00000000000E+00 -0.29596255607E+03  0.29596255608E+03  0.25500000920E-02 0. -1.
    10030    2    1    2    0    0  0.00000000000E+00  0.00000000000E+00  0.42098412797E+03  0.10129092401E+04  0.92128035512E+03 0.  0.
        5    1    3    3  502    0  0.42791910323E+03  0.13482749610E+02  0.23678813028E+02  0.42881151994E+03  0.46999998093E+01 0. -1.
       -5    1    3    3    0  502 -0.42791910323E+03 -0.13482749610E+02  0.39730531495E+03  0.58409772019E+03  0.46999998093E+01 0.  1.
</event>
<event>
 5   0  0.1441195E-02  0.8950118E+03  0.7818609E-02  0.9431839E-01
       -2   -1    0    0    0  501  0.00000000000E+00  0.00000000000E+00  0.43149087196E+03  0.43149087197E+03  0.25500000920E-02 0. -1.
        2   -1    0    0  501    0  0.00000000000E+00  0.00000000000E+00 -0.46411530309E+03  0.46411530309E+03  0.25500000920E-02 0.  1.
    10030    2    1    2    0    0  0.00000000000E+00  0.00000000000E+00 -0.32624431124E+02  0.89560617506E+03  0.89501176937E+03 0.  0.
        5    1    3    3  502    0  0.91973085410E+02  0.53057707750E+02 -0.45130225800E+03  0.46364855965E+03  0.46999998093E+01 0.  1.
       -5    1    3    3    0  502 -0.91973085410E+02 -0.53057707750E+02  0.41867782688E+03  0.43195761541E+03  0.46999998093E+01 0. -1.
</event>
<event>
 5   0  0.1440615E-02  0.9034264E+03  0.7818609E-02  0.9421308E-01
        2   -1    0    0  501    0  0.00000000000E+00  0.00000000000E+00  0.34090391407E+03  0.34090391408E+03  0.25500000920E-02 0.  1.
       -2   -1    0    0    0  501  0.00000000000E+00  0.00000000000E+00 -0.59854051929E+03  0.59854051930E+03  0.25500000920E-02 0. -1.
    10030    2    1    2    0    0  0.00000000000E+00  0.00000000000E+00 -0.25763660522E+03  0.93944443338E+03  0.90342637944E+03 0.  0.
        3    1    3    3  502    0  0.39937527984E+03 -0.18817628924E+03 -0.22819982335E+03  0.49697696079E+03  0.10100000352E+00 0. -1.
       -3    1    3    3    0  502 -0.39937527984E+03  0.18817628924E+03 -0.29436781874E+02  0.44246747260E+03  0.10100000352E+00 0.  1.
</event>
<event>
 5   0  0.8291252E-03  0.9691780E+03  0.7818609E-02  0.9343011E-01
       -1   -1    0    0    0  501  0.00000000000E+00  0.00000000000E+00  0.20236482479E+03  0.20236482486E+03  0.50400001928E-02 0. -1.
        1   -1    0    0  501    0  0.00000000000E+00  0.00000000000E+00 -0.11604115807E+04  0.11604115807E+04  0.50400001928E-02 0.  1.
    10030    2    1    2    0    0  0.00000000000E+00  0.00000000000E+00 -0.95804675586E+03  0.13627764055E+04  0.96917797387E+03 0.  0.
        1    1    3    3  502    0  0.44136710376E+03 -0.10755257888E+03 -0.71621142566E+03  0.84813400107E+03  0.50400001928E-02 0.  1.
       -1    1    3    3    0  502 -0.44136710376E+03  0.10755257888E+03 -0.24183533021E+03  0.51464240446E+03  0.50400001928E-02 0. -1.
</event>
<event>
 5   0  0.8885324E-03  0.9064563E+03  0.7818609E-02  0.9417547E-01
       -1   -1    0    0    0  501  0.00000000000E+00  0.00000000000E+00  0.27866870550E+03  0.27866870555E+03  0.50400001928E-02 0.  1.
        1   -1    0    0  501    0  0.00000000000E+00  0.00000000000E+00 -0.73713246709E+03  0.73713246711E+03  0.50400001928E-02 0. -1.
    10030    2    1    2    0    0  0.00000000000E+00  0.00000000000E+00 -0.45846376159E+03  0.10158011727E+04  0.90645628779E+03 0.  0.
        2    1    3    3  502    0 -0.33856905613E+03  0.13378411719E+03 -0.53177794886E+03  0.64444936394E+03  0.25500000920E-02 0. -1.
       -2    1    3    3    0  502  0.33856905613E+03 -0.13378411719E+03  0.73314187269E+02  0.37135180872E+03  0.25500000920E-02 0.  1.
</event>
<event>
 5   0  0.8524692E-03  0.9054514E+03  0.7818609E-02  0.9418792E-01
        1   -1    0    0  501    0  0.00000000000E+00  0.00000000000E+00  0.21482691154E+03  0.21482691160E+03  0.50400001928E-02 0. -1.
       -1   -1    0    0    0  501  0.00000000000E+00  0.00000000000E+00 -0.95407306906E+03  0.95407306908E+03  0.50400001928E-02 0.  1.
    10030    2    1    2    0    0  0.00000000000E+00  0.00000000000E+00 -0.73924615752E+03  0.11688999807E+04  0.90545142521E+03 0.  0.
        5    1    3    3  502    0 -0.24925914065E+03 -0.24489893996E+03 -0.74116990133E+03  0.81942694770E+03  0.46999998093E+01 0.  1.
       -5    1    3    3    0  502  0.24925914065E+03  0.24489893996E+03  0.19237438035E+01  0.34947303298E+03  0.46999998093E+01 0. -1.
</event>
<event>
 5   0  0.1535906E-02  0.8936915E+03  0.7818609E-02  0.9433502E-01
        2   -1    0    0  501    0  0.00000000000E+00  0.00000000000E+00  0.66903195377E+03  0.66903195377E+03  0.25500000920E-02 0.  1.
       -2   -1    0    0    0  501  0.00000000000E+00  0.00000000000E+00 -0.29844779778E+03  0.29844779779E+03  0.25500000920E-02 0. -1.
    10030    2    1    2    0    0  0.00000000000E+00  0.00000000000E+00  0.37058415599E+03  0.96747975157E+03  0.89369147530E+03 0.  0.
        2    1    3    3  502    0  0.27832201248E+03 -0.42878150509E+02  0.56088065883E+03  0.62760560218E+03  0.25500000920E-02 0.  1.
       -2    1    3    3    0  502 -0.27832201248E+03  0.42878150509E+02 -0.19029650285E+03  0.33987414939E+03  0.25500000920E-02 0. -1.
</event>
<event>
 5   0  0.8738044E-03  0.8958039E+03  0.7818609E-02  0.9430842E-01
       -1   -1    0    0    0  501  0.00000000000E+00  0.00000000000E+00  0.65257156554E+03  0.65257156556E+03  0.50400001928E-02 0.  1.
        1   -1    0    0  501    0  0.00000000000E+00  0.00000000000E+00 -0.30742398303E+03  0.30742398307E+03  0.50400001928E-02 0. -1.
    10030    2    1    2    0    0  0.00000000000E+00  0.00000000000E+00  0.34514758251E+03  0.95999554864E+03  0.89580388461E+03 0.  0.
        3    1    3    3  502    0 -0.25917033108E+01 -0.19990730626E+03  0.60210220750E+03  0.63442629713E+03  0.10100000352E+00 0.  1.
       -3    1    3    3    0  502  0.25917033108E+01  0.19990730626E+03 -0.25695462499E+03  0.32556925150E+03  0.10100000352E+00 0. -1.
</event>
<event>
 5   0  0.8612969E-03  0.9033825E+03  0.7818609E-02  0.9421363E-01
        1   -1    0    0  501    0  0.00000000000E+00  0.00000000000E+00  0.11329109504E+04  0.11329109504E+04  0.50400001928E-02 0. -1.
       -1   -1    0    0    0  501  0.00000000000E+00  0.00000000000E+00 -0.18008915411E+03  0.18008915418E+03  0.50400001928E-02 0.  1.
    10030    2    1    2    0    0  0.00000000000E+00  0.00000000000E+00  0.95282179625E+03  0.13130001046E+04  0.90338247667E+03 0.  0.
        4    1    3    3  502    0 -0.29037398041E+03  0.32284130316E+03  0.29557865878E+03  0.52527317841E+03  0.12699999809E+01 0.  1.
       -4    1    3    3    0  502  0.29037398041E+03 -0.32284130316E+03  0.65724313748E+03  0.78772692615E+03  0.12699999809E+01 0. -1.
</event>
<event>
 5   0  0.1454652E-02  0.8743686E+03  0.7818609E-02  0.9458201E-01
        2   -1    0    0  501    0  0.00000000000E+00  0.00000000000E+00  0.66002439421E+03  0.66002439421E+03  0.25500000920E-02 0. -1.
       -2   -1    0    0    0  501  0.00000000000E+00  0.00000000000E+00 -0.28958039628E+03  0.28958039630E+03  0.25500000920E-02 0.  1.
    10030    2    1    2    0    0  0.00000000000E+00  0.00000000000E+00  0.37044399792E+03  0.94960479051E+03  0.87436863082E+03 0.  0.
        4    1    3    3  502    0  0.17752401413E+03 -0.85079989439E+02 -0.23871895891E+03  0.30942161276E+03  0.12699999809E+01 0.  1.
       -4    1    3    3    0  502 -0.17752401413E+03  0.85079989439E+02  0.60916295684E+03  0.64018317775E+03  0.12699999809E+01 0. -1.
</event>
<event>
 5   0  0.5770125E-03  0.8927352E+03  0.7818609E-02  0.9434709E-01
       -3   -1    0    0    0  501  0.00000000000E+00  0.00000000000E+00  0.25260122705E+03  0.25260124724E+03  0.10100000352E+00 0. -1.
        3   -1    0    0  501    0  0.00000000000E+00  0.00000000000E+00 -0.78876897126E+03  0.78876897773E+03  0.10100000352E+00 0.  1.
    10030    2    1    2    0    0  0.00000000000E+00  0.00000000000E+00 -0.53616774421E+03  0.10413702250E+04  0.89273517660E+03 0.  0.
        1    1    3    3  502    0  0.15474884347E+03 -0.94206960610E+00  0.22030799924E+03  0.26922798257E+03  0.50400001928E-02 0. -1.
       -1    1    3    3    0  502 -0.15474884347E+03  0.94206960610E+00 -0.75647574345E+03  0.77214224240E+03  0.50400001928E-02 0.  1.
</event>
<event>
 5   0  0.8612969E-03  0.9014120E+03  0.7818609E-02  0.9423818E-01
       -1   -1    0    0    0  501  0.00000000000E+00  0.00000000000E+00  0.62429820428E+03  0.62429820430E+03  0.50400001928E-02 0.  1.
        1   -1    0    0  501    0  0.00000000000E+00  0.00000000000E+00 -0.32538281415E+03  0.32538281419E+03  0.50400001928E-02 0. -1.
    10030    2    1    2    0    0  0.00000000000E+00  0.00000000000E+00  0.29891539013E+03  0.94968101849E+03  0.90141201813E+03 0.  0.
        4    1    3    3  502    0 -0.91099281448E+02  0.42712409976E+03  0.32138500076E+02  0.43791388624E+03  0.12699999809E+01 0. -1.
       -4    1    3    3    0  502  0.91099281448E+02 -0.42712409976E+03  0.26677689005E+03  0.51176713224E+03  0.12699999809E+01 0.  1.
</event>
<event>
 5   0  0.8612969E-03  0.8125234E+03  0.7818609E-02  0.9542065E-01
       -1   -1    0    0    0  501  0.00000000000E+00  0.00000000000E+00  0.14778004511E+03  0.14778004520E+03  0.50400001928E-02 0.  1.
        1   -1    0    0  501    0  0.00000000000E+00  0.00000000000E+00 -0.11168528605E+04  0.11168528605E+04  0.50400001928E-02 0. -1.
    10030    2    1    2    0    0  0.00000000000E+00  0.00000000000E+00 -0.96907281540E+03  0.12646329057E+04  0.81252339333E+03 0.  0.
        4    1    3    3  502    0  0.44518264625E+02 -0.32687674578E+03 -0.85356597538E+03  0.91509932250E+03  0.12699999809E+01 0. -1.
       -4    1    3    3    0  502 -0.44518264625E+02  0.32687674578E+03 -0.11550684002E+03  0.34953358323E+03  0.12699999809E+01 0.  1.
</event>
<event>
 5   0  0.8291252E-03  0.9053175E+03  0.7818609E-02  0.9418959E-01
        1   -1    0    0  501    0  0.00000000000E+00  0.00000000000E+00  0.66648426204E+03  0.66648426206E+03  0.50400001928E-02 0.  1.
       -1   -1    0    0    0  501  0.00000000000E+00  0.00000000000E+00 -0.30743403713E+03  0.30743403717E+03  0.50400001928E-02 0. -1.
    10030    2    1    2    0    0  0.00000000000E+00  0.00000000000E+00  0.35905022492E+03  0.97391829923E+03  0.90531750760E+03 0.  0.
        1    1    3    3  502    0  0.20014253007E+02 -0.38798801165E+03 -0.70380729950E+02  0.39482744925E+03  0.50400001928E-02 0. -1.
       -1    1    3    3    0  502 -0.20014253007E+02  0.38798801165E+03  0.42943095487E+03  0.57909084998E+03  0.50400001928E-02 0.  1.
</event>
<event>
 5   0  0.1483326E-02  0.8243141E+03  0.7818609E-02  0.9525475E-01
        2   -1    0    0  501    0  0.00000000000E+00  0.00000000000E+00  0.15927599315E+04  0.15927599315E+04  0.25500000920E-02 0.  1.
       -2   -1    0    0    0  501  0.00000000000E+00  0.00000000000E+00 -0.10665350850E+03  0.10665350853E+03  0.25500000920E-02 0. -1.
    10030    2    1    2    0    0  0.00000000000E+00  0.00000000000E+00  0.14861064230E+04  0.16994134401E+04  0.82431410257E+03 0.  0.
        1    1    3    3  502    0  0.40188000434E+03  0.81530002242E+02  0.65758327135E+03  0.77496479787E+03  0.50400001928E-02 0. -1.
       -1    1    3    3    0  502 -0.40188000434E+03 -0.81530002242E+02  0.82852315166E+03  0.92444864218E+03  0.50400001928E-02 0.  1.
</event>
<event>
 5   0  0.8738044E-03  0.8862578E+03  0.7818609E-02  0.9442925E-01
        1   -1    0    0  501    0  0.00000000000E+00  0.00000000000E+00  0.15361468328E+04  0.15361468328E+04  0.50400001928E-02 0. -1.
       -1   -1    0    0    0  501  0.00000000000E+00  0.00000000000E+00 -0.12782840947E+03  0.12782840957E+03  0.50400001928E-02 0.  1.
    10030    2    1    2    0    0  0.00000000000E+00  0.00000000000E+00  0.14083184233E+04  0.16639752424E+04  0.88625776484E+03 0.  0.
        3    1    3    3  502    0  0.22816535105E+03 -0.37462016908E+03  0.82236156248E+03  0.93202910263E+03  0.10100000352E+00 0. -1.
       -3    1    3    3    0  502 -0.22816535105E+03  0.37462016908E+03  0.58595686087E+03  0.73194613976E+03  0.10100000352E+00 0.  1.
</event>
<event>
 5   0  0.1535906E-02  0.8914890E+03  0.7818609E-02  0.9436284E-01
       -2   -1    0    0    0  501  0.00000000000E+00  0.00000000000E+00  0.90081492474E+02  0.90081492510E+02  0.25500000920E-02 0. -1.
        2   -1    0    0  501    0  0.00000000000E+00  0.00000000000E+00 -0.22056492194E+04  0.22056492194E+04  0.25500000920E-02 0.  1.
    10030    2    1    2    0    0  0.00000000000E+00  0.00000000000E+00 -0.21155677269E+04  0.22957307119E+04  0.89148903212E+03 0.  0.
        2    1    3    3  502    0  0.30992878100E+03 -0.22068311195E+02 -0.18808110164E+04  0.19063034750E+04  0.25500000920E-02 0. -1.
       -2    1    3    3    0  502 -0.30992878100E+03  0.22068311195E+02 -0.23475671053E+03  0.38942723685E+03  0.25500000920E-02 0.  1.
</event>
<event>
 5   0  0.1440615E-02  0.8601431E+03  0.7818609E-02  0.9476823E-01
       -2   -1    0    0    0  501  0.00000000000E+00  0.00000000000E+00  0.29168192528E+03  0.29168192529E+03  0.25500000920E-02 0.  1.
        2   -1    0    0  501    0  0.00000000000E+00  0.00000000000E+00 -0.63412065014E+03  0.63412065014E+03  0.25500000920E-02 0. -1.
    10030    2    1    2    0    0  0.00000000000E+00  0.00000000000E+00 -0.34243872486E+03  0.92580257544E+03  0.86014308601E+03 0.  0.
        3    1    3    3  502    0 -0.30627284930E+03  0.44709910621E+02  0.15016997459E+03  0.34402480404E+03  0.10100000352E+00 0.  1.
       -3    1    3    3    0  502  0.30627284930E+03 -0.44709910621E+02 -0.49260869944E+03  0.58177777140E+03  0.10100000352E+00 0. -1.
</event>
<event>
 5   0  0.5770125E-03  0.8901875E+03  0.7818609E-02  0.9437931E-01
        3   -1    0    0  501    0  0.00000000000E+00  0.00000000000E+00  0.21859740964E+03  0.21859743297E+03  0.10100000352E+00 0.  1.
       -3   -1    0    0    0  501  0.00000000000E+00  0.00000000000E+00 -0.90627071252E+03  0.90627071815E+03  0.10100000352E+00 0. -1.
    10030    2    1    2    0    0  0.00000000000E+00  0.00000000000E+00 -0.68767330289E+03  0.11248681511E+04  0.89018750042E+03 0.  0.
        2    1    3    3  502    0  0.35915733958E+03  0.21371501334E+03 -0.15037177597E+03  0.44416187648E+03  0.25500000920E-02 0.  1.
       -2    1    3    3    0  502 -0.35915733958E+03 -0.21371501334E+03 -0.53730152692E+03  0.68070627464E+03  0.25500000920E-02 0. -1.
</event>
<event>
 5   0  0.8524692E-03  0.9197204E+03  0.7818609E-02  0.9401260E-01
        1   -1    0    0  501    0  0.00000000000E+00  0.00000000000E+00  0.18403676052E+04  0.18403676053E+04  0.50400001928E-02 0.  1.
       -1   -1    0    0    0  501  0.00000000000E+00  0.00000000000E+00 -0.11490715870E+03  0.11490715881E+03  0.50400001928E-02 0. -1.
    10030    2    1    2    0    0  0.00000000000E+00  0.00000000000E+00  0.17254604465E+04  0.19552747641E+04  0.91972041969E+03 0.  0.
        5    1    3    3  502    0  0.38337871018E+03  0.25182439786E+03  0.93176812390E+03  0.10385608742E+04  0.46999998093E+01 0.  1.
       -5    1    3    3    0  502 -0.38337871018E+03 -0.25182439786E+03  0.79369232264E+03  0.91671388983E+03  0.46999998093E+01 0. -1.
</event>
<event>
 5   0  0.1454652E-02  0.8944337E+03  0.7818609E-02  0.9432566E-01
        2   -1    0    0  501    0  0.00000000000E+00  0.00000000000E+00  0.22366537331E+03  0.22366537332E+03  0.25500000920E-02 0.  1.
       -2   -1    0    0    0  501  0.00000000000E+00  0.00000000000E+00 -0.89420587914E+03  0.89420587914E+03  0.25500000920E-02 0. -1.
    10030    2    1    2    0    0  0.00000000000E+00  0.00000000000E+00 -0.67054050583E+03  0.11178712525E+04  0.89443365720E+03 0.  0.
        4    1    3    3  502    0  0.38377796542E+03  0.29531100182E+02 -0.61984182152E+03  0.72963217392E+03  0.12699999809E+01 0. -1.
       -4    1    3    3    0  502 -0.38377796542E+03 -0.29531100182E+02 -0.50698684319E+02  0.38823907855E+03  0.12699999809E+01 0.  1.
</event>
<event>
 5   0  0.1454652E-02  0.9089834E+03  0.7818609E-02  0.9414421E-01
        2   -1    0    0  501    0  0.00000000000E+00  0.00000000000E+00  0.10129529356E+04  0.10129529356E+04  0.25500000920E-02 0.  1.
       -2   -1    0    0    0  501  0.00000000000E+00  0.00000000000E+00 -0.20392134634E+03  0.20392134636E+03  0.25500000920E-02 0. -1.
    10030    2    1    2    0    0  0.00000000000E+00  0.00000000000E+00  0.80903158927E+03  0.12168742820E+04  0.90898344633E+03 0.  0.
        4    1    3    3  502    0  0.24074204610E+03 -0.14867601434E+03 -0.71624238845E+02  0.29187828712E+03  0.12699999809E+01 0. -1.
       -4    1    3    3    0  502 -0.24074204610E+03  0.14867601434E+03  0.88065582812E+03  0.92499599486E+03  0.12699999809E+01 0.  1.
</event>
<event>
 5   0  0.1535906E-02  0.8946879E+03  0.7818609E-02  0.9432246E-01
       -2   -1    0    0    0  501  0.00000000000E+00  0.00000000000E+00  0.13386382903E+03  0.13386382905E+03  0.25500000920E-02 0.  1.
        2   -1    0    0  501    0  0.00000000000E+00  0.00000000000E+00 -0.14949267450E+04  0.14949267450E+04  0.25500000920E-02 0. -1.
    10030    2    1    2    0    0  0.00000000000E+00  0.00000000000E+00 -0.13610629160E+04  0.16287905740E+04  0.89468791927E+03 0.  0.
        2    1    3    3  502    0  0.34727646524E+03 -0.25823194967E+03 -0.88675571656E+03  0.98672203989E+03  0.25500000920E-02 0.  1.
       -2    1    3    3    0  502 -0.34727646524E+03  0.25823194967E+03 -0.47430719939E+03  0.64206853415E+03  0.25500000920E-02 0. -1.
</event>
<event>
 5   0  0.8738044E-03  0.9416066E+03  0.7818609E-02  0.9375015E-01
       -1   -1    0    0    0  501  0.00000000000E+00  0.00000000000E+00  0.32062392063E+03  0.32062392067E+03  0.50400001928E-02 0. -1.
        1   -1    0    0  501    0  0.00000000000E+00  0.00000000000E+00 -0.69132630820E+03  0.69132630821E+03  0.50400001928E-02 0.  1.
    10030    2    1    2    0    0  0.00000000000E+00  0.00000000000E+00 -0.37070238757E+03  0.10119502289E+04  0.94160660872E+03 0.  0.
        3    1    3    3  502    0  0.43907909932E+03 -0.16421470474E+03 -0.23218194792E+03  0.52313037749E+03  0.10100000352E+00 0.  1.
       -3    1    3    3    0  502 -0.43907909932E+03  0.16421470474E+03 -0.13852043965E+03  0.48881985139E+03  0.10100000352E+00 0. -1.
</event>
<event>
 5   0  0.1440615E-02  0.7919499E+03  0.7818609E-02  0.9571743E-01
        2   -1    0    0  501    0  0.00000000000E+00  0.00000000000E+00  0.45033660461E+03  0.45033660462E+03  0.25500000920E-02 0. -1.
       -2   -1    0    0    0  501  0.00000000000E+00  0.00000000000E+00 -0.34817544610E+03  0.34817544611E+03  0.25500000920E-02 0.  1.
    10030    2    1    2    0    0  0.00000000000E+00  0.00000000000E+00  0.10216115851E+03  0.79851205072E+03  0.79194986763E+03 0.  0.
        3    1    3    3  502    0 -0.39280551504E+02 -0.11460762382E+03  0.43119009192E+03  0.44788701113E+03  0.10100000352E+00 0. -1.
       -3    1    3    3    0  502  0.39280551504E+02  0.11460762382E+03 -0.32902893341E+03  0.35062503959E+03  0.10100000352E+00 0.  1.
</event>
<event>
 5   0  0.8524692E-03  0.8995207E+03  0.7818609E-02  0.9426181E-01
       -1   -1    0    0    0  501  0.00000000000E+00  0.00000000000E+00  0.26219853529E+03  0.26219853533E+03  0.50400001928E-02 0.  1.
        1   -1    0    0  501    0  0.00000000000E+00  0.00000000000E+00 -0.77149320715E+03  0.77149320716E+03  0.50400001928E-02 0. -1.
    10030    2    1    2    0    0  0.00000000000E+00  0.00000000000E+00 -0.50929467186E+03  0.10336917425E+04  0.89952073668E+03 0.  0.
        5    1    3    3  502    0  0.82068389068E+02  0.10095166610E+03 -0.74936745478E+03  0.76059196134E+03  0.46999998093E+01 0. -1.
       -5    1    3    3    0  502 -0.82068389068E+02 -0.10095166610E+03  0.24007278292E+03  0.27309978116E+03  0.46999998093E+01 0.  1.
</event>
<event>
 5   0  0.8738044E-03  0.9000507E+03  0.7818609E-02  0.9425518E-01
        1   -1    0    0  501    0  0.00000000000E+00  0.00000000000E+00  0.81713963707E+03  0.81713963708E+03  0.50400001928E-02 0.  1.
       -1   -1    0    0    0  501  0.00000000000E+00  0.00000000000E+00 -0.24784360625E+03  0.24784360630E+03  0.50400001928E-02 0. -1.
    10030    2    1    2    0    0  0.00000000000E+00  0.00000000000E+00  0.56929603082E+03  0.10649832434E+04  0.90005074189E+03 0.  0.
        3    1    3    3  502    0 -0.24579236690E+03 -0.41646178203E+01 -0.16137777486E+03  0.29406466651E+03  0.10100000352E+00 0. -1.
       -3    1    3    3    0  502  0.24579236690E+03  0.41646178203E+01  0.73067380568E+03  0.77091857688E+03  0.10100000352E+00 0.  1.
</event>
<event>
 5   0  0.8524692E-03  0.8631024E+03  0.7818609E-02  0.9472918E-01
       -1   -1    0    0    0  501  0.00000000000E+00  0.00000000000E+00  0.17135990851E+03  0.17135990858E+03  0.50400001928E-02 0. -1.
        1   -1    0    0  501    0  0.00000000000E+00  0.00000000000E+00 -0.10868145021E+04  0.10868145022E+04  0.50400001928E-02 0.  1.
    10030    2    1    2    0    0  0.00000000000E+00  0.00000000000E+00 -0.91545459363E+03  0.12581744107E+04  0.86310238953E+03 0.  0.
        5    1    3    3  502    0 -0.23667780373E+03 -0.19646400893E+02 -0.98294083959E+03  0.10112354563E+04  0.46999998093E+01 0.  1.
       -5    1    3    3    0  502  0.23667780373E+03  0.19646400893E+02  0.67486245958E+02  0.24693895448E+03  0.46999998093E+01 0. -1.
</event>
<event>
 5   0  0.1454652E-02  0.8854854E+03  0.7818609E-02  0.9443909E-01
        2   -1    0    0  501    0  0.00000000000E+00  0.00000000000E+00  0.40493889110E+03  0.40493889110E+03  0.25500000920E-02 0. -1.
       -2   -1    0    0    0  501  0.00000000000E+00  0.00000000000E+00 -0.48407576320E+03  0.48407576321E+03  0.25500000920E-02 0.  1.
    10030    2    1    2    0    0  0.00000000000E+00  0.00000000000E+00 -0.79136872104E+02  0.88901465431E+03  0.88548540985E+03 0.  0.
        4    1    3    3  502    0 -0.35968976502E+03  0.24576910441E+03 -0.11887891942E+03  0.45156725980E+03  0.12699999809E+01 0.  1.
       -4    1    3    3    0  502  0.35968976502E+03 -0.24576910441E+03  0.39742047320E+02  0.43744739451E+03  0.12699999809E+01 0. -1.
</event>
<event>
 5   0  0.8612969E-03  0.8947498E+03  0.7818609E-02  0.9432168E-01
        1   -1    0    0  501    0  0.00000000000E+00  0.00000000000E+00  0.12656997676E+04  0.12656997676E+04  0.50400001928E-02 0. -1.
       -1   -1    0    0    0  501  0.00000000000E+00  0.00000000000E+00 -0.15812936568E+03  0.15812936576E+03  0.50400001928E-02 0.  1.
    10030    2    1    2    0    0  0.00000000000E+00  0.00000000000E+00  0.11075704019E+04  0.14238291334E+04  0.89474980071E+03 0.  0.
        4    1    3    3  502    0 -0.34288595196E+03 -0.76512338020E+02  0.11302308130E+03  0.36905384936E+03  0.12699999809E+01 0.  1.
       -4    1    3    3    0  502  0.34288595196E+03  0.76512338020E+02  0.99454732065E+03  0.10547752840E+04  0.12699999809E+01 0. -1.
</event>
<event>
 5   0  0.8738044E-03  0.8943482E+03  0.7818609E-02  0.9432674E-01
        1   -1    0    0  501    0  0.00000000000E+00  0.00000000000E+00  0.48370361772E+03  0.48370361774E+03  0.50400001928E-02 0.  1.
       -1   -1    0    0    0  501  0.00000000000E+00  0.00000000000E+00 -0.41340331120E+03  0.41340331124E+03  0.50400001928E-02 0. -1.
    10030    2    1    2    0    0  0.00000000000E+00  0.00000000000E+00  0.70300306514E+02  0.89710692898E+03  0.89434820340E+03 0.  0.
        3    1    3    3  502    0 -0.25892698167E+01 -0.16815061762E+03  0.45077513110E+03  0.48112323114E+03  0.10100000352E+00 0.  1.
       -3    1    3    3    0  502  0.25892698167E+01  0.16815061762E+03 -0.38047482459E+03  0.41598369784E+03  0.10100000352E+00 0. -1.
</event>
<event>
 5   0  0.1535906E-02  0.8983721E+03  0.7818609E-02  0.9427619E-01
       -2   -1    0    0    0  501  0.00000000000E+00  0.00000000000E+00  0.12677609839E+03  0.12677609842E+03  0.25500000920E-02 0.  1.
        2   -1    0    0  501    0  0.00000000000E+00  0.00000000000E+00 -0.15915310420E+04  0.15915310420E+04  0.25500000920E-02 0. -1.
    10030    2    1    2    0    0  0.00000000000E+00  0.00000000000E+00 -0.14647549436E+04  0.17183071405E+04  0.89837207438E+03 0.  0.
        2    1    3    3  502    0  0.45084232672E+02  0.30868148146E+03 -0.13505381478E+04  0.13860988903E+04  0.25500000920E-02 0. -1.
       -2    1    3    3    0  502 -0.45084232672E+02 -0.30868148146E+03 -0.11421679588E+03  0.33220825020E+03  0.25500000920E-02 0.  1.
</event>
<event>
 5   0  0.8738044E-03  0.8899813E+03  0.7818609E-02  0.9438193E-01
       -1   -1    0    0    0  501  0.00000000000E+00  0.00000000000E+00  0.20937828394E+03  0.20937828400E+03  0.50400001928E-02 0.  1.
        1   -1    0    0  501    0  0.00000000000E+00  0.00000000000E+00 -0.94573650906E+03  0.94573650908E+03  0.50400001928E-02 0. -1.
    10030    2    1    2    0    0  0.00000000000E+00  0.00000000000E+00 -0.73635822512E+03  0.11551147931E+04  0.88998131974E+03 0.  0.
        3    1    3    3  502    0  0.49478635487E+02  0.32094230748E+03 -0.76306050114E+03  0.82928489598E+03  0.10100000352E+00 0. -1.
       -3    1    3    3    0  502 -0.49478635487E+02 -0.32094230748E+03  0.26702276021E+02  0.32582989710E+03  0.10100000352E+00 0.  1.
</event>
<event>
 5   0  0.1454652E-02  0.8988156E+03  0.7818609E-02  0.9427063E-01
       -2   -1    0    0    0  501  0.00000000000E+00  0.00000000000E+00  0.14570908203E+03  0.14570908205E+03  0.25500000920E-02 0.  1.
        2   -1    0    0  501    0  0.00000000000E+00  0.00000000000E+00 -0.13861002019E+04  0.13861002019E+04  0.25500000920E-02 0. -1.
    10030    2    1    2    0    0  0.00000000000E+00  0.00000000000E+00 -0.12403911199E+04  0.15318092840E+04  0.89881563858E+03 0.  0.
        4    1    3    3  502    0  0.13439456315E+03 -0.19870454142E+03  0.27466298263E+02  0.24145683636E+03  0.12699999809E+01 0.  1.
       -4    1    3    3    0  502 -0.13439456315E+03  0.19870454142E+03 -0.12678574181E+04  0.12903524476E+04  0.12699999809E+01 0. -1.
</event>
<event>
 5   0  0.1483326E-02  0.9018607E+03  0.7818609E-02  0.9423258E-01
       -2   -1    0    0    0  501  0.00000000000E+00  0.00000000000E+00  0.24079674708E+03  0.24079674709E+03  0.25500000920E-02 0. -1.
        2   -1    0    0  501    0  0.00000000000E+00  0.00000000000E+00 -0.84443903056E+03  0.84443903057E+03  0.25500000920E-02 0.  1.
    10030    2    1    2    0    0  0.00000000000E+00  0.00000000000E+00 -0.60364228349E+03  0.10852357777E+04  0.90186068031E+03 0.  0.
        1    1    3    3  502    0 -0.21539389957E+03 -0.16010595742E+03  0.13422564576E+03  0.30007494661E+03  0.50400001928E-02 0. -1.
       -1    1    3    3    0  502  0.21539389957E+03  0.16010595742E+03 -0.73786792925E+03  0.78516083105E+03  0.50400001928E-02 0.  1.
</event>
<event>
 5   0  0.1440615E-02  0.7341395E+03  0.7818609E-02  0.9660567E-01
        2   -1    0    0  501    0  0.00000000000E+00  0.00000000000E+00  0.13132197052E+04  0.13132197052E+04  0.25500000920E-02 0. -1.
       -2   -1    0    0    0  501  0.00000000000E+00  0.00000000000E+00 -0.10260293287E+03  0.10260293290E+03  0.25500000920E-02 0.  1.
    10030    2    1    2    0    0  0.00000000000E+00  0.00000000000E+00  0.12106167723E+04  0.14158226381E+04  0.73413947795E+03 0.  0.
        3    1    3    3  502    0 -0.22851932797E+03 -0.28456602918E+03  0.68102136255E+03  0.77265064206E+03  0.10100000352E+00 0. -1.
       -3    1    3    3    0  502  0.22851932797E+03  0.28456602918E+03  0.52959540975E+03  0.64317199601E+03  0.10100000352E+00 0.  1.
</event>
<event>
 5   0  0.1440615E-02  0.9113720E+03  0.7818609E-02  0.9411477E-01
        2   -1    0    0  501    0  0.00000000000E+00  0.00000000000E+00  0.53648298246E+03  0.53648298247E+03  0.25500000920E-02 0. -1.
       -2   -1    0    0    0  501  0.00000000000E+00  0.00000000000E+00 -0.38705741204E+03  0.38705741205E+03  0.25500000920E-02 0.  1.
    10030    2    1    2    0    0  0.00000000000E+00  0.00000000000E+00  0.14942557042E+03  0.92354039452E+03  0.91137196534E+03 0.  0.
        3    1    3    3  502    0  0.96273082966E+02 -0.22380854295E+02 -0.37606396226E+03  0.38883611336E+03  0.10100000352E+00 0.  1.
       -3    1    3    3    0  502 -0.96273082966E+02  0.22380854295E+02  0.52548953267E+03  0.53470428116E+03  0.10100000352E+00 0. -1.
</event>
<event>
 5   0  0.1441195E-02  0.8895810E+03  0.7818609E-02  0.9438700E-01
        2   -1    0    0  501    0  0.00000000000E+00  0.00000000000E+00  0.43500372745E+03  0.43500372745E+03  0.25500000920E-02 0.  1.
       -2   -1    0    0    0  501  0.00000000000E+00  0.00000000000E+00 -0.45479742125E+03  0.45479742125E+03  0.25500000920E-02 0. -1.
    10030    2    1    2    0    0  0.00000000000E+00  0.00000000000E+00 -0.19793693800E+02  0.88980114870E+03  0.88958096536E+03 0.  0.
        5    1    3    3  502    0 -0.32139403561E+03  0.29542835795E+03  0.75238511883E+02  0.44300673186E+03  0.46999998093E+01 0. -1.
       -5    1    3    3    0  502  0.32139403561E+03 -0.29542835795E+03 -0.95032205683E+02  0.44679441684E+03  0.46999998093E+01 0.  1.
</event>
<event>
 5   0  0.8738044E-03  0.9061321E+03  0.7818609E-02  0.9417948E-01
       -1   -1    0    0    0  501  0.00000000000E+00  0.00000000000E+00  0.52542032267E+03  0.52542032269E+03  0.50400001928E-02 0.  1.
        1   -1    0    0  501    0  0.00000000000E+00  0.00000000000E+00 -0.39067551539E+03  0.39067551542E+03  0.50400001928E-02 0. -1.
    10030    2    1    2    0    0  0.00000000000E+00  0.00000000000E+00  0.13474480728E+03  0.91609583811E+03  0.90613212145E+03 0.  0.
        3    1    3    3  502    0 -0.40871199253E+03  0.19325512932E+03  0.97291858194E+02  0.46244864982E+03  0.10100000352E+00 0. -1.
       -3    1    3    3    0  502  0.40871199253E+03 -0.19325512932E+03  0.37452949088E+02  0.45364718829E+03  0.10100000352E+00 0.  1.
</event>
<event>
 5   0  0.8612969E-03  0.9096284E+03  0.7818609E-02  0.9413625E-01
        1   -1    0    0  501    0  0.00000000000E+00  0.00000000000E+00  0.66724925815E+03  0.66724925817E+03  0.50400001928E-02 0. -1.
       -1   -1    0    0    0  501  0.00000000000E+00  0.00000000000E+00 -0.31001300748E+03  0.31001300752E+03  0.50400001928E-02 0.  1.
    10030    2    1    2    0    0  0.00000000000E+00  0.00000000000E+00  0.35723625067E+03  0.97726226569E+03  0.90962838409E+03 0.  0.
        4    1    3    3  502    0 -0.16689960518E+03  0.40227577087E+03  0.37828387671E+02  0.43716572813E+03  0.12699999809E+01 0. -1.
       -4    1    3    3    0  502  0.16689960518E+03 -0.40227577087E+03  0.31940786300E+03  0.54009653756E+03  0.12699999809E+01 0.  1.
</event>
<event>
 5   0  0.1454652E-02  0.9061674E+03  0.7818609E-02  0.9417905E-01
       -2   -1    0    0    0  501  0.00000000000E+00  0.00000000000E+00  0.10902445222E+03  0.10902445225E+03  0.25500000920E-02 0.  1.
        2   -1    0    0  501    0  0.00000000000E+00  0.00000000000E+00 -0.18829248063E+04  0.18829248063E+04  0.25500000920E-02 0. -1.
    10030    2    1    2    0    0  0.00000000000E+00  0.00000000000E+00 -0.17739003541E+04  0.19919492586E+04  0.90616741415E+03 0.  0.
        4    1    3    3  502    0  0.14260913937E+03 -0.21056414811E+03 -0.62668243426E+02  0.26192279155E+03  0.12699999809E+01 0.  1.
       -4    1    3    3    0  502 -0.14260913937E+03  0.21056414811E+03 -0.17112321107E+04  0.17300264670E+04  0.12699999809E+01 0. -1.
</event>
<event>
 5   0  0.8738044E-03  0.9004341E+03  0.7818609E-02  0.9425039E-01
        1   -1    0    0  501    0  0.00000000000E+00  0.00000000000E+00  0.51550666686E+03  0.51550666689E+03  0.50400001928E-02 0.  1.
       -1   -1    0    0    0  501  0.00000000000E+00  0.00000000000E+00 -0.39319643785E+03  0.39319643788E+03  0.50400001928E-02 0. -1.
    10030    2    1    2    0    0  0.00000000000E+00  0.00000000000E+00  0.12231022901E+03  0.90870310477E+03  0.90043408448E+03 0.  0.
        3    1    3    3  502    0 -0.48402791338E+02  0.21839987539E+03  0.45545280722E+03  0.50742349727E+03  0.10100000352E+00 0.  1.
       -3    1    3    3    0  502  0.48402791338E+02 -0.21839987539E+03 -0.33314257821E+03  0.40127960750E+03  0.10100000352E+00 0. -1.
</event>
<event>
 5   0  0.8885324E-03  0.8692265E+03  0.7818609E-02  0.9464889E-01
        1   -1    0    0  501    0  0.00000000000E+00  0.00000000000E+00  0.36900661778E+03  0.36900661781E+03  0.50400001928E-02 0.  1.
       -1   -1    0    0    0  501  0.00000000000E+00  0.00000000000E+00 -0.51188422325E+03  0.51188422328E+03  0.50400001928E-02 0. -1.
    10030    2    1    2    0    0  0.00000000000E+00  0.00000000000E+00 -0.14287760547E+03  0.88089084109E+03  0.86922647439E+03 0.  0.
        2    1    3    3  502    0  0.32919825613E+03 -0.25976911460E+03  0.44273889962E+02  0.42167720128E+03  0.25500000920E-02 0.  1.
       -2    1    3    3    0  502 -0.32919825613E+03  0.25976911460E+03 -0.18715149544E+03  0.45921363981E+03  0.25500000920E-02 0. -1.
</event>
<event>
 5   0  0.8738044E-03  0.9082093E+03  0.7818609E-02  0.9415377E-01
        1   -1    0    0  501    0  0.00000000000E+00  0.00000000000E+00  0.15252141309E+03  0.15252141318E+03  0.50400001928E-02 0. -1.
       -1   -1    0    0    0  501  0.00000000000E+00  0.00000000000E+00 -0.13520137975E+04  0.13520137975E+04  0.50400001928E-02 0.  1.
    10030    2    1    2    0    0  0.00000000000E+00  0.00000000000E+00 -0.11994923844E+04  0.15045352107E+04  0.90820934809E+03 0.  0.
        3    1    3    3  502    0  0.25992820215E+03 -0.11589889843E+03 -0.11859464283E+04  0.12196164011E+04  0.10100000352E+00 0.  1.
       -3    1    3    3    0  502 -0.25992820215E+03  0.11589889843E+03 -0.13545956160E+02  0.28491880960E+03  0.10100000352E+00 0. -1.
</event>
<event>
 5   0  0.8738044E-03  0.9010533E+03  0.7818609E-02  0.9424266E-01
       -1   -1    0    0    0  501  0.00000000000E+00  0.00000000000E+00  0.50921873513E+03  0.50921873515E+03  0.50400001928E-02 0. -1.
        1   -1    0    0  501    0  0.00000000000E+00  0.00000000000E+00 -0.39859932466E+03  0.39859932470E+03  0.50400001928E-02 0.  1.
    10030    2    1    2    0    0  0.00000000000E+00  0.00000000000E+00  0.11061941047E+03  0.90781805985E+03  0.90105325915E+03 0.  0.
        3    1    3    3  502    0 -0.17294928664E+03  0.38286830536E+03 -0.10862215905E+03  0.43393361086E+03  0.10100000352E+00 0.  1.
       -3    1    3    3    0  502  0.17294928664E+03 -0.38286830536E+03  0.21924156951E+03  0.47388444899E+03  0.10100000352E+00 0. -1.
</event>
<event>
 5   0  0.8524692E-03  0.8838703E+03  0.7818609E-02  0.9445972E-01
        1   -1    0    0  501    0  0.00000000000E+00  0.00000000000E+00  0.12944825561E+04  0.12944825561E+04  0.50400001928E-02 0. -1.
       -1   -1    0    0    0  501  0.00000000000E+00  0.00000000000E+00 -0.15087624596E+03  0.15087624604E+03  0.50400001928E-02 0.  1.
    10030    2    1    2    0    0  0.00000000000E+00  0.00000000000E+00  0.11436063102E+04  0.14453588022E+04  0.88387028142E+03 0.  0.
        5    1    3    3  502    0 -0.96264653569E+02 -0.65066190995E+02  0.12690155032E+04  0.12743323468E+04  0.46999998093E+01 0. -1.
       -5    1    3    3    0  502  0.96264653569E+02  0.65066190995E+02 -0.12540919304E+03  0.17102645537E+03  0.46999998093E+01 0.  1.
</event>
<event>
 5   0  0.8885324E-03  0.8760654E+03  0.7818609E-02  0.9456005E-01
       -1   -1    0    0    0  501  0.00000000000E+00  0.00000000000E+00  0.25023145031E+03  0.25023145036E+03  0.50400001928E-02 0.  1.
        1   -1    0    0  501    0  0.00000000000E+00  0.00000000000E+00 -0.76678072053E+03  0.76678072055E+03  0.50400001928E-02 0. -1.
    10030    2    1    2    0    0  0.00000000000E+00  0.00000000000E+00 -0.51654927022E+03  0.10170121709E+04  0.87606541263E+03 0.  0.
        2    1    3    3  502    0  0.10199170079E+03  0.41907984660E+02  0.23385628284E+03  0.25854853943E+03  0.25500000920E-02 0.  1.
       -2    1    3    3    0  502 -0.10199170079E+03 -0.41907984660E+02 -0.75040555306E+03  0.75846363148E+03  0.25500000920E-02 0. -1.
</event>
<event>
 5   0  0.5770125E-03  0.9027306E+03  0.7818609E-02  0.9422174E-01
       -3   -1    0    0    0  501  0.00000000000E+00  0.00000000000E+00  0.20902459239E+03  0.20902461679E+03  0.10100000352E+00 0.  1.
        3   -1    0    0  501    0  0.00000000000E+00  0.00000000000E+00 -0.97467304041E+03  0.97467304564E+03  0.10100000352E+00 0. -1.
    10030    2    1    2    0    0  0.00000000000E+00  0.00000000000E+00 -0.76564844802E+03  0.11836976624E+04  0.90273064094E+03 0.  0.
        2    1    3    3  502    0 -0.40529796446E+03 -0.99387523599E+02 -0.60836661199E+03  0.73773589748E+03  0.25500000920E-02 0. -1.
       -2    1    3    3    0  502  0.40529796446E+03  0.99387523599E+02 -0.15728183603E+03  0.44596176495E+03  0.25500000920E-02 0.  1.
</event>
<event>
 5   0  0.5770125E-03  0.9043595E+03  0.7818609E-02  0.9420148E-01
       -4   -1    0    0    0  501  0.00000000000E+00  0.00000000000E+00  0.12565645955E+03  0.12566287728E+03  0.12699999809E+01 0. -1.
        4   -1    0    0  501    0  0.00000000000E+00  0.00000000000E+00 -0.16271387079E+04  0.16271392035E+04  0.12699999809E+01 0.  1.
    10030    2    1    2    0    0  0.00000000000E+00  0.00000000000E+00 -0.15014822483E+04  0.17528020808E+04  0.90435954817E+03 0.  0.
        1    1    3    3  502    0  0.43586437947E+02 -0.74463185014E+02 -0.16110395310E+04  0.16133483548E+04  0.50400001928E-02 0.  1.
       -1    1    3    3    0  502 -0.43586437947E+02  0.74463185014E+02  0.10955728263E+03  0.13945372601E+03  0.50400001928E-02 0. -1.
</event>
<event>
 5   0  0.1441195E-02  0.8918429E+03  0.7818609E-02  0.9435836E-01
        2   -1    0    0  501    0  0.00000000000E+00  0.00000000000E+00  0.22808792188E+04  0.22808792188E+04  0.25500000920E-02 0.  1.
       -2   -1    0    0    0  501  0.00000000000E+00  0.00000000000E+00 -0.87179514716E+02  0.87179514753E+02  0.25500000920E-02 0. -1.
    10030    2    1    2    0    0  0.00000000000E+00  0.00000000000E+00  0.21936997041E+04  0.23680587335E+04  0.89184290873E+03 0.  0.
        5    1    3    3  502    0 -0.30758513693E+03 -0.39059732756E+02  0.19477278288E+04  0.19722576059E+04  0.46999998093E+01 0.  1.
       -5    1    3    3    0  502  0.30758513693E+03  0.39059732756E+02  0.24597187529E+03  0.39580112761E+03  0.46999998093E+01 0. -1.
</event>
<event>
 5   0  0.8291252E-03  0.9021581E+03  0.7818609E-02  0.9422888E-01
        1   -1    0    0  501    0  0.00000000000E+00  0.00000000000E+00  0.48378864941E+03  0.48378864944E+03  0.50400001928E-02 0.  1.
       -1   -1    0    0    0  501  0.00000000000E+00  0.00000000000E+00 -0.42058100205E+03  0.42058100208E+03  0.50400001928E-02 0. -1.
    10030    2    1    2    0    0  0.00000000000E+00  0.00000000000E+00  0.63207647358E+02  0.90436965152E+03  0.90215811248E+03 0.  0.
        1    1    3    3  502    0  0.92389607945E+02  0.33214970630E+03 -0.25999246417E+03  0.43180475739E+03  0.50400001928E-02 0. -1.
       -1    1    3    3    0  502 -0.92389607945E+02 -0.33214970630E+03  0.32320011153E+03  0.47256489414E+03  0.50400001928E-02 0.  1.
</event>
<event>
 5   0  0.1441195E-02  0.8472295E+03  0.7818609E-02  0.9494063E-01
       -2   -1    0    0    0  501  0.00000000000E+00  0.00000000000E+00  0.43591895545E+03  0.43591895545E+03  0.25500000920E-02 0.  1.
        2   -1    0    0  501    0  0.00000000000E+00  0.00000000000E+00 -0.41165787720E+03  0.41165787721E+03  0.25500000920E-02 0. -1.
    10030    2    1    2    0    0  0.00000000000E+00  0.00000000000E+00  0.24261078244E+02  0.84757683266E+03  0.84722953640E+03 0.  0.
        5    1    3    3  502    0  0.20121547062E+03 -0.89743404665E+02 -0.34979923992E+03  0.41342852169E+03  0.46999998093E+01 0. -1.
       -5    1    3    3    0  502 -0.20121547062E+03  0.89743404665E+02  0.37406031817E+03  0.43414831097E+03  0.46999998093E+01 0.  1.
</event>
<event>
 5   0  0.8738044E-03  0.9289475E+03  0.7818609E-02  0.9390102E-01
        1   -1    0    0  501    0  0.00000000000E+00  0.00000000000E+00  0.36298451947E+03  0.36298451951E+03  0.50400001928E-02 0. -1.
       -1   -1    0    0    0  501  0.00000000000E+00  0.00000000000E+00 -0.59433898419E+03  0.59433898421E+03  0.50400001928E-02 0.  1.
    10030    2    1    2    0    0  0.00000000000E+00  0.00000000000E+00 -0.23135446472E+03  0.95732350371E+03  0.92894747021E+03 0.  0.
        3    1    3    3  502    0 -0.66288609758E+02  0.33583327938E+03 -0.43920590589E+03  0.55684828211E+03  0.10100000352E+00 0.  1.
       -3    1    3    3    0  502  0.66288609758E+02 -0.33583327938E+03  0.20785144117E+03  0.40047522160E+03  0.10100000352E+00 0. -1.
</event>
<event>
 5   0  0.1454652E-02  0.9063166E+03  0.7818609E-02  0.9417720E-01
        2   -1    0    0  501    0  0.00000000000E+00  0.00000000000E+00  0.10385697862E+04  0.10385697862E+04  0.25500000920E-02 0.  1.
       -2   -1    0    0    0  501  0.00000000000E+00  0.00000000000E+00 -0.19772617111E+03  0.19772617113E+03  0.25500000920E-02 0. -1.
    10030    2    1    2    0    0  0.00000000000E+00  0.00000000000E+00  0.84084361509E+03  0.12362959573E+04  0.90631656118E+03 0.  0.
        4    1    3    3  502    0 -0.29677282089E+03  0.32036615925E+03  0.58548345007E+03  0.73041157331E+03  0.12699999809E+01 0.  1.
       -4    1    3    3    0  502  0.29677282089E+03 -0.32036615925E+03  0.25536016501E+03  0.50588438402E+03  0.12699999809E+01 0. -1.
</event>
<event>
 5   0  0.8612969E-03  0.8952921E+03  0.7818609E-02  0.9431486E-01
       -1   -1    0    0    0  501  0.00000000000E+00  0.00000000000E+00  0.26824045448E+03  0.26824045453E+03  0.50400001928E-02 0.  1.
        1   -1    0    0  501    0  0.00000000000E+00  0.00000000000E+00 -0.74704230623E+03  0.74704230625E+03  0.50400001928E-02 0. -1.
    10030    2    1    2    0    0  0.00000000000E+00  0.00000000000E+00 -0.47880185176E+03  0.10152827608E+04  0.89529205910E+03 0.  0.
        4    1    3    3  502    0  0.11175725188E+03  0.29625309538E+03  0.11944159563E+03  0.33841319055E+03  0.12699999809E+01 0.  1.
       -4    1    3    3    0  502 -0.11175725188E+03 -0.29625309538E+03 -0.59824344738E+03  0.67686957023E+03  0.12699999809E+01 0. -1.
</event>
<event>
 5   0  0.1454652E-02  0.8958611E+03  0.7818609E-02  0.9430770E-01
        2   -1    0    0  501    0  0.00000000000E+00  0.00000000000E+00  0.14741736219E+04  0.14741736219E+04  0.25500000920E-02 0.  1.
       -2   -1    0    0    0  501  0.00000000000E+00  0.00000000000E+00 -0.13610458446E+03  0.13610458449E+03  0.25500000920E-02 0. -1.
    10030    2    1    2    0    0  0.00000000000E+00  0.00000000000E+00  0.13380690374E+04  0.16102782064E+04  0.89586112374E+03 0.  0.
        4    1    3    3  502    0  0.16800234613E+02  0.39265785077E+03  0.10552916941E+04  0.11261015088E+04  0.12699999809E+01 0. -1.
       -4    1    3    3    0  502 -0.16800234613E+02 -0.39265785077E+03  0.28277734333E+03  0.48417669756E+03  0.12699999809E+01 0.  1.
</event>
<event>
 5   0  0.1535906E-02  0.8982516E+03  0.7818609E-02  0.9427770E-01
       -2   -1    0    0    0  501  0.00000000000E+00  0.00000000000E+00  0.14371325258E+03  0.14371325260E+03  0.25500000920E-02 0.  1.
        2   -1    0    0  501    0  0.00000000000E+00  0.00000000000E+00 -0.14035865131E+04  0.14035865131E+04  0.25500000920E-02 0. -1.
    10030    2    1    2    0    0  0.00000000000E+00  0.00000000000E+00 -0.12598732605E+04  0.15472997657E+04  0.89825159747E+03 0.  0.
        2    1    3    3  502    0 -0.26236876444E+03 -0.18225916572E+03 -0.86144391324E+02  0.33087252561E+03  0.25500000920E-02 0.  1.
       -2    1    3    3    0  502  0.26236876444E+03  0.18225916572E+03 -0.11737288692E+04  0.12164272401E+04  0.25500000920E-02 0. -1.
</event>
<event>
 5   0  0.8291252E-03  0.8957478E+03  0.7818609E-02  0.9430913E-01
        1   -1    0    0  501    0  0.00000000000E+00  0.00000000000E+00  0.81136252493E+03  0.81136252494E+03  0.50400001928E-02 0.  1.
       -1   -1    0    0    0  501  0.00000000000E+00  0.00000000000E+00 -0.24722736728E+03  0.24722736733E+03  0.50400001928E-02 0. -1.
    10030    2    1    2    0    0  0.00000000000E+00  0.00000000000E+00  0.56413515765E+03  0.10585898923E+04  0.89574777919E+03 0.  0.
        1    1    3    3  502    0 -0.39464144842E+03 -0.22893263971E+02  0.53087687532E+03  0.66188838268E+03  0.50400001928E-02 0.  1.
       -1    1    3    3    0  502  0.39464144842E+03  0.22893263971E+02  0.33258282333E+02  0.39670150960E+03  0.50400001928E-02 0. -1.
</event>
<event>
 5   0  0.8524692E-03  0.1019330E+04  0.7818609E-02  0.9287594E-01
       -1   -1    0    0    0  501  0.00000000000E+00  0.00000000000E+00  0.10154809283E+04  0.10154809283E+04  0.50400001928E-02 0.  1.
        1   -1    0    0  501    0  0.00000000000E+00  0.00000000000E+00 -0.25579853237E+03  0.25579853242E+03  0.50400001928E-02 0. -1.
    10030    2    1    2    0    0  0.00000000000E+00  0.00000000000E+00  0.75968239594E+03  0.12712794607E+04  0.10193302333E+04 0.  0.
        5    1    3    3  502    0  0.36016354934E+03  0.31822987725E+03  0.16837887665E+03  0.50927553755E+03  0.46999998093E+01 0. -1.
       -5    1    3    3    0  502 -0.36016354934E+03 -0.31822987725E+03  0.59130351929E+03  0.76200392320E+03  0.46999998093E+01 0.  1.
</event>
<event>
 5   0  0.8291252E-03  0.9238373E+03  0.7818609E-02  0.9396265E-01
       -1   -1    0    0    0  501  0.00000000000E+00  0.00000000000E+00  0.16636215518E+03  0.16636215526E+03  0.50400001928E-02 0. -1.
        1   -1    0    0  501    0  0.00000000000E+00  0.00000000000E+00 -0.12825563789E+04  0.12825563789E+04  0.50400001928E-02 0.  1.
    10030    2    1    2    0    0  0.00000000000E+00  0.00000000000E+00 -0.11161942237E+04  0.14489185341E+04  0.92383730904E+03 0.  0.
        1    1    3    3  502    0 -0.31766072098E+03  0.32218766681E+03 -0.70401128819E+03  0.83686624990E+03  0.50400001928E-02 0.  1.
       -1    1    3    3    0  502  0.31766072098E+03 -0.32218766681E+03 -0.41218293548E+03  0.61205228422E+03  0.50400001928E-02 0. -1.
</event>
<event>
 5   0  0.1441195E-02  0.8932972E+03  0.7818609E-02  0.9433999E-01
        2   -1    0    0  501    0  0.00000000000E+00  0.00000000000E+00  0.66329883301E+03  0.66329883302E+03  0.25500000920E-02 0. -1.
       -2   -1    0    0    0  501  0.00000000000E+00  0.00000000000E+00 -0.30076182189E+03  0.30076182190E+03  0.25500000920E-02 0.  1.
    10030    2    1    2    0    0  0.00000000000E+00  0.00000000000E+00  0.36253701112E+03  0.96406065491E+03  0.89329718567E+03 0.  0.
        5    1    3    3  502    0 -0.21111612531E+03  0.97989447763E+02  0.59264794591E+03  0.63673042022E+03  0.46999998093E+01 0. -1.
       -5    1    3    3    0  502  0.21111612531E+03 -0.97989447763E+02 -0.23011093479E+03  0.32733023470E+03  0.46999998093E+01 0.  1.
</event>
<event>
 5   0  0.1440615E-02  0.8924081E+03  0.7818609E-02  0.9435122E-01
       -2   -1    0    0    0  501  0.00000000000E+00  0.00000000000E+00  0.63453012291E+02  0.63453012342E+02  0.25500000920E-02 0.  1.
        2   -1    0    0  501    0  0.00000000000E+00  0.00000000000E+00 -0.31377245691E+04  0.31377245691E+04  0.25500000920E-02 0. -1.
    10030    2    1    2    0    0  0.00000000000E+00  0.00000000000E+00 -0.30742715568E+04  0.32011775815E+04  0.89240814818E+03 0.  0.
        3    1    3    3  502    0 -0.30556501840E+03 -0.32045829388E+03 -0.17347392641E+04  0.17903585739E+04  0.10100000352E+00 0. -1.
       -3    1    3    3    0  502  0.30556501840E+03  0.32045829388E+03 -0.13395322928E+04  0.14108190076E+04  0.10100000352E+00 0.  1.
</event>
<event>
 5   0  0.1441195E-02  0.8941336E+03  0.7818609E-02  0.9432945E-01
       -2   -1    0    0    0  501  0.00000000000E+00  0.00000000000E+00  0.13676594641E+03  0.13676594644E+03  0.25500000920E-02 0. -1.
        2   -1    0    0  501    0  0.00000000000E+00  0.00000000000E+00 -0.14613925576E+04  0.14613925577E+04  0.25500000920E-02 0.  1.
    10030    2    1    2    0    0  0.00000000000E+00  0.00000000000E+00 -0.13246266112E+04  0.15981585041E+04  0.89413362816E+03 0.  0.
        5    1    3    3  502    0 -0.30198878283E+02 -0.43173208560E+03 -0.46214182153E+03  0.63316800234E+03  0.46999998093E+01 0.  1.
       -5    1    3    3    0  502  0.30198878283E+02  0.43173208560E+03 -0.86248478971E+03  0.96499050175E+03  0.46999998093E+01 0. -1.
</event>
<event>
 5   0  0.8885324E-03  0.8746557E+03  0.7818609E-02  0.9457830E-01
        1   -1    0    0  501    0  0.00000000000E+00  0.00000000000E+00  0.27584236393E+03  0.27584236397E+03  0.50400001928E-02 0. -1.
       -1   -1    0    0    0  501  0.00000000000E+00  0.00000000000E+00 -0.69335126394E+03  0.69335126396E+03  0.50400001928E-02 0.  1.
    10030    2    1    2    0    0  0.00000000000E+00  0.00000000000E+00 -0.41750890001E+03  0.96919362793E+03  0.87465570759E+03 0.  0.
        2    1    3    3  502    0  0.18653989957E+03 -0.19838770430E+03  0.17043252772E+03  0.32125077721E+03  0.25500000920E-02 0. -1.
       -2    1    3    3    0  502 -0.18653989957E+03  0.19838770430E+03 -0.58794142773E+03  0.64794285072E+03  0.25500000920E-02 0.  1.
</event>
<event>
 5   0  0.1454652E-02  0.9638689E+03  0.7818609E-02  0.9349085E-01
        2   -1    0    0  501    0  0.00000000000E+00  0.00000000000E+00  0.24082644758E+04  0.24082644758E+04  0.25500000920E-02 0. -1.
       -2   -1    0    0    0  501  0.00000000000E+00  0.00000000000E+00 -0.96443241334E+02  0.96443241367E+02  0.25500000920E-02 0.  1.
    10030    2    1    2    0    0  0.00000000000E+00  0.00000000000E+00  0.23118212344E+04  0.25047077171E+04  0.96386893731E+03 0.  0.
        4    1    3    3  502    0  0.36969849699E+03 -0.80121368282E+02  0.37996562397E+03  0.53616406130E+03  0.12699999809E+01 0.  1.
       -4    1    3    3    0  502 -0.36969849699E+03  0.80121368282E+02  0.19318556105E+04  0.19685436558E+04  0.12699999809E+01 0. -1.
</event>
<event>
 5   0  0.8291252E-03  0.9013496E+03  0.7818609E-02  0.9423896E-01
       -1   -1    0    0    0  501  0.00000000000E+00  0.00000000000E+00  0.57583170189E+03  0.57583170192E+03  0.50400001928E-02 0. -1.
        1   -1    0    0  501    0  0.00000000000E+00  0.00000000000E+00 -0.35272075559E+03  0.35272075563E+03  0.50400001928E-02 0.  1.
    10030    2    1    2    0    0  0.00000000000E+00  0.00000000000E+00  0.22311094630E+03  0.92855245754E+03  0.90134963918E+03 0.  0.
        1    1    3    3  502    0  0.14338374012E+03  0.42622974716E+03  0.81045811852E+02  0.45694542118E+03  0.50400001928E-02 0. -1.
       -1    1    3    3    0  502 -0.14338374012E+03 -0.42622974716E+03  0.14206513445E+03  0.47160703636E+03  0.50400001928E-02 0.  1.
</event>
<event>
 5   0  0.1440615E-02  0.8965890E+03  0.7818609E-02  0.9429855E-01
        2   -1    0    0  501    0  0.00000000000E+00  0.00000000000E+00  0.14824930556E+04  0.14824930556E+04  0.25500000920E-02 0.  1.
       -2   -1    0    0    0  501  0.00000000000E+00  0.00000000000E+00 -0.13556081209E+03  0.13556081211E+03  0.25500000920E-02 0. -1.
    10030    2    1    2    0    0  0.00000000000E+00  0.00000000000E+00  0.13469322435E+04  0.16180538677E+04  0.89658900852E+03 0.  0.
        3    1    3    3  502    0 -0.44041824189E+03  0.55327066576E+02  0.78672512191E+03  0.90330821967E+03  0.10100000352E+00 0.  1.
       -3    1    3    3    0  502  0.44041824189E+03 -0.55327066576E+02  0.56020712156E+03  0.71474564800E+03  0.10100000352E+00 0. -1.
</event>
<event>
 5   0  0.8291252E-03  0.8597168E+03  0.7818609E-02  0.9477387E-01
        1   -1    0    0  501    0  0.00000000000E+00  0.00000000000E+00  0.80538690204E+03  0.80538690206E+03  0.50400001928E-02 0.  1.
       -1   -1    0    0    0  501  0.00000000000E+00  0.00000000000E+00 -0.22942794749E+03  0.22942794755E+03  0.50400001928E-02 0. -1.
    10030    2    1    2    0    0  0.00000000000E+00  0.00000000000E+00  0.57595895455E+03  0.10348148496E+04  0.85971684620E+03 0.  0.
        1    1    3    3  502    0 -0.14277032463E+03 -0.34756310262E+03  0.53929800122E+03  0.65728670308E+03  0.50400001928E-02 0.  1.
       -1    1    3    3    0  502  0.14277032463E+03  0.34756310262E+03  0.36660953331E+02  0.37752814653E+03  0.50400001928E-02 0. -1.
</event>
<event>
 5   0  0.1441195E-02  0.9439025E+03  0.7818609E-02  0.9372306E-01
        2   -1    0    0  501    0  0.00000000000E+00  0.00000000000E+00  0.12297194095E+04  0.12297194095E+04  0.25500000920E-02 0.  1.
       -2   -1    0    0    0  501  0.00000000000E+00  0.00000000000E+00 -0.18112909557E+03  0.18112909559E+03  0.25500000920E-02 0. -1.
    10030    2    1    2    0    0  0.00000000000E+00  0.00000000000E+00  0.10485903140E+04  0.14108485051E+04  0.94390246206E+03 0.  0.
        5    1    3    3  502    0  0.45550450465E+03  0.75355226910E+02  0.67038689775E+03  0.81400457410E+03  0.46999998093E+01 0. -1.
       -5    1    3    3    0  502 -0.45550450465E+03 -0.75355226910E+02  0.37820341623E+03  0.59684393104E+03  0.46999998093E+01 0.  1.
</event>
<event>
 5   0  0.5770125E-03  0.8908618E+03  0.7818609E-02  0.9437077E-01
        3   -1    0    0  501    0  0.00000000000E+00  0.00000000000E+00  0.47374426628E+03  0.47374427704E+03  0.10100000352E+00 0. -1.
       -3   -1    0    0    0  501  0.00000000000E+00  0.00000000000E+00 -0.41880968725E+03  0.41880969943E+03  0.10100000352E+00 0.  1.
    10030    2    1    2    0    0  0.00000000000E+00  0.00000000000E+00  0.54934579022E+02  0.89255397647E+03  0.89086182596E+03 0.  0.
        2    1    3    3  502    0  0.25007891817E+03 -0.18749381631E+03 -0.29049225694E+03  0.42670733274E+03  0.25500000920E-02 0.  1.
       -2    1    3    3    0  502 -0.25007891817E+03  0.18749381631E+03  0.34542683596E+03  0.46584664373E+03  0.25500000920E-02 0. -1.
</event>
<event>
 5   0  0.8612969E-03  0.9016498E+03  0.7818609E-02  0.9423521E-01
       -1   -1    0    0    0  501  0.00000000000E+00  0.00000000000E+00  0.21104237717E+03  0.21104237723E+03  0.50400001928E-02 0.  1.
        1   -1    0    0  501    0  0.00000000000E+00  0.00000000000E+00 -0.96304394071E+03  0.96304394073E+03  0.50400001928E-02 0. -1.
    10030    2    1    2    0    0  0.00000000000E+00  0.00000000000E+00 -0.75200156355E+03  0.11740863180E+04  0.90164978258E+03 0.  0.
        4    1    3    3  502    0  0.38963828000E+03 -0.87823841458E+01 -0.67106526310E+03  0.77603177754E+03  0.12699999809E+01 0. -1.
       -4    1    3    3    0  502 -0.38963828000E+03  0.87823841458E+01 -0.80936300444E+02  0.39805454041E+03  0.12699999809E+01 0.  1.
</event>
<event>
 5   0  0.1535906E-02  0.9022718E+03  0.7818609E-02  0.9422746E-01
        2   -1    0    0  501    0  0.00000000000E+00  0.00000000000E+00  0.66497229026E+03  0.66497229027E+03  0.25500000920E-02 0. -1.
       -2   -1    0    0    0  501  0.00000000000E+00  0.00000000000E+00 -0.30606328187E+03  0.30606328188E+03  0.25500000920E-02 0.  1.
    10030    2    1    2    0    0  0.00000000000E+00  0.00000000000E+00  0.35890900839E+03  0.97103557215E+03  0.90227180277E+03 0.  0.
        2    1    3    3  502    0 -0.12982093338E+03 -0.20792150334E+03 -0.22814255193E+03  0.33486392804E+03  0.25500000920E-02 0.  1.
       -2    1    3    3    0  502  0.12982093338E+03  0.20792150334E+03  0.58705156032E+03  0.63617164411E+03  0.25500000920E-02 0. -1.
</event>
<event>
 5   0  0.1440615E-02  0.9027207E+03  0.7818609E-02  0.9422187E-01
        2   -1    0    0  501    0  0.00000000000E+00  0.00000000000E+00  0.26593853117E+03  0.26593853118E+03  0.25500000920E-02 0. -1.
       -2   -1    0    0    0  501  0.00000000000E+00  0.00000000000E+00 -0.76606484573E+03  0.76606484573E+03  0.25500000920E-02 0.  1.
    10030    2    1    2    0    0  0.00000000000E+00  0.00000000000E+00 -0.50012631456E+03  0.10320033769E+04  0.90272068739E+03 0.  0.
        3    1    3    3  502    0 -0.49240673325E+02 -0.18032035634E+03  0.21961031353E+03  0.28838997006E+03  0.10100000352E+00 0. -1.
       -3    1    3    3    0  502  0.49240673325E+02  0.18032035634E+03 -0.71973662809E+03  0.74361340685E+03  0.10100000352E+00 0.  1.
</event>
<event>
 5   0  0.8738044E-03  0.8858107E+03  0.7818609E-02  0.9443495E-01
        1   -1    0    0  501    0  0.00000000000E+00  0.00000000000E+00  0.42037495909E+03  0.42037495912E+03  0.50400001928E-02 0.  1.
       -1   -1    0    0    0  501  0.00000000000E+00  0.00000000000E+00 -0.46664323723E+03  0.46664323726E+03  0.50400001928E-02 0. -1.
    10030    2    1    2    0    0  0.00000000000E+00  0.00000000000E+00 -0.46268278138E+02  0.88701819638E+03  0.88581066100E+03 0.  0.
        3    1    3    3  502    0  0.12950302823E+03  0.37421511426E+03 -0.22179090791E+03  0.45387135082E+03  0.10100000352E+00 0. -1.
       -3    1    3    3    0  502 -0.12950302823E+03 -0.37421511426E+03  0.17552262977E+03  0.43314684556E+03  0.10100000352E+00 0.  1.
</event>
<event>
 5   0  0.5770125E-03  0.8824105E+03  0.7818609E-02  0.9447840E-01
        4   -1    0    0  501    0  0.00000000000E+00  0.00000000000E+00  0.31584857219E+03  0.31585112546E+03  0.12699999809E+01 0.  1.
       -4   -1    0    0    0  501  0.00000000000E+00  0.00000000000E+00 -0.61630886304E+03  0.61631017155E+03  0.12699999809E+01 0. -1.
    10030    2    1    2    0    0  0.00000000000E+00  0.00000000000E+00 -0.30046029086E+03  0.93216129701E+03  0.88241050383E+03 0.  0.
        2    1    3    3  502    0  0.29810170323E+02 -0.42253448711E+03 -0.19827955399E+02  0.42404856664E+03  0.25500000920E-02 0.  1.
       -2    1    3    3    0  502 -0.29810170323E+02  0.42253448711E+03 -0.28063233546E+03  0.50811273037E+03  0.25500000920E-02 0. -1.
</event>
<event>
 5   0  0.1454652E-02  0.8998762E+03  0.7818609E-02  0.9425736E-01
       -2   -1    0    0    0  501  0.00000000000E+00  0.00000000000E+00  0.21622502496E+03  0.21622502498E+03  0.25500000920E-02 0. -1.
        2   -1    0    0  501    0  0.00000000000E+00  0.00000000000E+00 -0.93626662744E+03  0.93626662744E+03  0.25500000920E-02 0.  1.
    10030    2    1    2    0    0  0.00000000000E+00  0.00000000000E+00 -0.72004160248E+03  0.11524916524E+04  0.89987615792E+03 0.  0.
        4    1    3    3  502    0 -0.34574614851E+03  0.25253102068E+03 -0.53716072763E+03  0.68691744469E+03  0.12699999809E+01 0.  1.
       -4    1    3    3    0  502  0.34574614851E+03 -0.25253102068E+03 -0.18288087484E+03  0.46557420772E+03  0.12699999809E+01 0. -1.
</event>
<event>
 5   0  0.1535906E-02  0.9314531E+03  0.7818609E-02  0.9387096E-01
        2   -1    0    0  501    0  0.00000000000E+00  0.00000000000E+00  0.53630773508E+03  0.53630773509E+03  0.25500000920E-02 0. -1.
       -2   -1    0    0    0  501  0.00000000000E+00  0.00000000000E+00 -0.40443421423E+03  0.40443421424E+03  0.25500000920E-02 0.  1.
    10030    2    1    2    0    0  0.00000000000E+00  0.00000000000E+00  0.13187352085E+03  0.94074194932E+03  0.93145305288E+03 0.  0.
        2    1    3    3  502    0  0.15237526900E+03 -0.33928656776E+03  0.34903116319E+03  0.51005524265E+03  0.25500000920E-02 0. -1.
       -2    1    3    3    0  502 -0.15237526900E+03  0.33928656776E+03 -0.21715764235E+03  0.43068670667E+03  0.25500000920E-02 0.  1.
</event>
<event>
 5   0  0.5770125E-03  0.8834638E+03  0.7818609E-02  0.9446492E-01
       -4   -1    0    0    0  501  0.00000000000E+00  0.00000000000E+00  0.62357309616E+03  0.62357438943E+03  0.12699999809E+01 0. -1.
        4   -1    0    0  501    0  0.00000000000E+00  0.00000000000E+00 -0.31291483834E+03  0.31291741555E+03  0.12699999809E+01 0.  1.
    10030    2    1    2    0    0  0.00000000000E+00  0.00000000000E+00  0.31065825782E+03  0.93649180498E+03  0.88346383494E+03 0.  0.
        5    1    3    3  502    0 -0.25223102093E+03  0.11675535019E+03  0.51923156954E+03  0.58896163926E+03  0.46999998093E+01 0. -1.
       -5    1    3    3    0  502  0.25223102093E+03 -0.11675535019E+03 -0.20857331172E+03  0.34753016571E+03  0.46999998093E+01 0.  1.
</event>
<event>
 5   0  0.1454652E-02  0.8987290E+03  0.7818609E-02  0.9427172E-01
        2   -1    0    0  501    0  0.00000000000E+00  0.00000000000E+00  0.64920817087E+03  0.64920817087E+03  0.25500000920E-02 0.  1.
       -2   -1    0    0    0  501  0.00000000000E+00  0.00000000000E+00 -0.31103806125E+03  0.31103806126E+03  0.25500000920E-02 0. -1.
    10030    2    1    2    0    0  0.00000000000E+00  0.00000000000E+00  0.33817010962E+03  0.96024623213E+03  0.89872899323E+03 0.  0.
        4    1    3    3  502    0  0.17900209129E+03  0.12659184626E+03  0.58818359681E+03  0.62771713429E+03  0.12699999809E+01 0.  1.
       -4    1    3    3    0  502 -0.17900209129E+03 -0.12659184626E+03 -0.25001348720E+03  0.33252909783E+03  0.12699999809E+01 0. -1.
</event>
<event>
 5   0  0.1441195E-02  0.9136539E+03  0.7818609E-02  0.9408673E-01
        2   -1    0    0  501    0  0.00000000000E+00  0.00000000000E+00  0.58213370215E+03  0.58213370215E+03  0.25500000920E-02 0. -1.
       -2   -1    0    0    0  501  0.00000000000E+00  0.00000000000E+00 -0.35849300151E+03  0.35849300152E+03  0.25500000920E-02 0.  1.
    10030    2    1    2    0    0  0.00000000000E+00  0.00000000000E+00  0.22364070064E+03  0.94062670367E+03  0.91365389108E+03 0.  0.
        5    1    3    3  502    0 -0.44824632671E+03  0.74361954325E+02  0.63374823850E+02  0.45879508275E+03  0.46999998093E+01 0. -1.
       -5    1    3    3    0  502  0.44824632671E+03 -0.74361954325E+02  0.16026587679E+03  0.48183162092E+03  0.46999998093E+01 0.  1.
</event>
<event>
 5   0  0.1454652E-02  0.9099991E+03  0.7818609E-02  0.9413168E-01
        2   -1    0    0  501    0  0.00000000000E+00  0.00000000000E+00  0.10754057812E+04  0.10754057812E+04  0.25500000920E-02 0.  1.
       -2   -1    0    0    0  501  0.00000000000E+00  0.00000000000E+00 -0.19250833903E+03  0.19250833905E+03  0.25500000920E-02 0. -1.
    10030    2    1    2    0    0  0.00000000000E+00  0.00000000000E+00  0.88289744215E+03  0.12679141202E+04  0.90999907853E+03 0.  0.
        4    1    3    3  502    0  0.16795991793E+02  0.55326033168E+02  0.10702638246E+04  0.10718252387E+04  0.12699999809E+01 0.  1.
       -4    1    3    3    0  502 -0.16795991793E+02 -0.55326033168E+02 -0.18736638242E+03  0.19608888150E+03  0.12699999809E+01 0. -1.
</event>
<event>
 5   0  0.1535906E-02  0.8939368E+03  0.7818609E-02  0.9433193E-01
       -2   -1    0    0    0  501  0.00000000000E+00  0.00000000000E+00  0.22541138767E+03  0.22541138768E+03  0.25500000920E-02 0.  1.
        2   -1    0    0  501    0  0.00000000000E+00  0.00000000000E+00 -0.88629402444E+03  0.88629402444E+03  0.25500000920E-02 0. -1.
    10030    2    1    2    0    0  0.00000000000E+00  0.00000000000E+00 -0.66088263677E+03  0.11117054121E+04  0.89393683433E+03 0.  0.
        2    1    3    3  502    0  0.10015252580E+03 -0.14190135167E+03  0.18172857707E+03  0.25137978789E+03  0.25500000920E-02 0.  1.
       -2    1    3    3    0  502 -0.10015252580E+03  0.14190135167E+03 -0.84261121383E+03  0.86032562423E+03  0.25500000920E-02 0. -1.
</event>
<event>
 5   0  0.1441195E-02  0.8934396E+03  0.7818609E-02  0.9433820E-01
        2   -1    0    0  501    0  0.00000000000E+00  0.00000000000E+00  0.96157770503E+03  0.96157770504E+03  0.25500000920E-02 0. -1.
       -2   -1    0    0    0  501  0.00000000000E+00  0.00000000000E+00 -0.20753246355E+03  0.20753246356E+03  0.25500000920E-02 0.  1.
    10030    2    1    2    0    0  0.00000000000E+00  0.00000000000E+00  0.75404524149E+03  0.11691101686E+04  0.89343962309E+03 0.  0.
        5    1    3    3  502    0  0.39881447377E+03  0.42362261336E+02  0.11963732935E+03  0.41854835592E+03  0.46999998093E+01 0.  1.
       -5    1    3    3    0  502 -0.39881447377E+03 -0.42362261336E+02  0.63440791213E+03  0.75056181268E+03  0.46999998093E+01 0. -1.
</event>
<event>
 5   0  0.8291252E-03  0.8833397E+03  0.7818609E-02  0.9446651E-01
       -1   -1    0    0    0  501  0.00000000000E+00  0.00000000000E+00  0.73381337172E+03  0.73381337174E+03  0.50400001928E-02 0. -1.
        1   -1    0    0  501    0  0.00000000000E+00  0.00000000000E+00 -0.26583363035E+03  0.26583363040E+03  0.50400001928E-02 0.  1.
    10030    2    1    2    0    0  0.00000000000E+00  0.00000000000E+00  0.46797974137E+03  0.99964700214E+03  0.88333973677E+03 0.  0.
        1    1    3    3  502    0 -0.99490834950E+02  0.29689635066E+03 -0.11851398111E+03  0.33480058694E+03  0.50400001928E-02 0.  1.
       -1    1    3    3    0  502  0.99490834950E+02 -0.29689635066E+03  0.58649372248E+03  0.66484641520E+03  0.50400001928E-02 0. -1.
</event>
<event>
 5   0  0.1440615E-02  0.9102613E+03  0.7818609E-02  0.9412844E-01
        2   -1    0    0  501    0  0.00000000000E+00  0.00000000000E+00  0.38827720278E+03  0.38827720279E+03  0.25500000920E-02 0. -1.
       -2   -1    0    0    0  501  0.00000000000E+00  0.00000000000E+00 -0.53349489440E+03  0.53349489441E+03  0.25500000920E-02 0.  1.
    10030    2    1    2    0    0  0.00000000000E+00  0.00000000000E+00 -0.14521769163E+03  0.92177209720E+03  0.91026129282E+03 0.  0.
        3    1    3    3  502    0  0.19949151124E+03  0.34296564301E+03 -0.29841201273E+03  0.49645949974E+03  0.10100000352E+00 0.  1.
       -3    1    3    3    0  502 -0.19949151124E+03 -0.34296564301E+03  0.15319432110E+03  0.42531259746E+03  0.10100000352E+00 0. -1.
</event>
<event>
 5   0  0.8291252E-03  0.9056065E+03  0.7818609E-02  0.9418600E-01
       -1   -1    0    0    0  501  0.00000000000E+00  0.00000000000E+00  0.41421927813E+03  0.41421927817E+03  0.50400001928E-02 0. -1.
        1   -1    0    0  501    0  0.00000000000E+00  0.00000000000E+00 -0.49498124800E+03  0.49498124802E+03  0.50400001928E-02 0.  1.
    10030    2    1    2    0    0  0.00000000000E+00  0.00000000000E+00 -0.80761969863E+02  0.90920052619E+03  0.90560648244E+03 0.  0.
        1    1    3    3  502    0 -0.12155921248E+03 -0.14982338317E+03 -0.45164935027E+03  0.49113218578E+03  0.50400001928E-02 0.  1.
       -1    1    3    3    0  502  0.12155921248E+03  0.14982338317E+03  0.37088738040E+03  0.41806834041E+03  0.50400001928E-02 0. -1.
</event>
<event>
 5   0  0.1535906E-02  0.9102458E+03  0.7818609E-02  0.9412864E-01
       -2   -1    0    0    0  501  0.00000000000E+00  0.00000000000E+00  0.38169987524E+03  0.38169987525E+03  0.25500000920E-02 0.  1.
        2   -1    0    0  501    0  0.00000000000E+00  0.00000000000E+00 -0.54266939103E+03  0.54266939104E+03  0.25500000920E-02 0. -1.
    10030    2    1    2    0    0  0.00000000000E+00  0.00000000000E+00 -0.16096951579E+03  0.92436926629E+03  0.91024576650E+03 0.  0.
        2    1    3    3  502    0 -0.27630127584E+03 -0.40515280106E+02 -0.44543949477E+03  0.52573779250E+03  0.25500000920E-02 0. -1.
       -2    1    3    3    0  502  0.27630127584E+03  0.40515280106E+02  0.28446997897E+03  0.39863147379E+03  0.25500000920E-02 0.  1.
</event>
<event>
 5   0  0.1441195E-02  0.9633912E+03  0.7818609E-02  0.9349634E-01
        2   -1    0    0  501    0  0.00000000000E+00  0.00000000000E+00  0.16984130582E+04  0.16984130582E+04  0.25500000920E-02 0.  1.
       -2   -1    0    0    0  501  0.00000000000E+00  0.00000000000E+00 -0.13661616261E+03  0.13661616263E+03  0.25500000920E-02 0. -1.
    10030    2    1    2    0    0  0.00000000000E+00  0.00000000000E+00  0.15617968956E+04  0.18350292209E+04  0.96339124879E+03 0.  0.
        5    1    3    3  502    0 -0.38933995928E+02 -0.39873410913E+03  0.27156175238E+03  0.48401717033E+03  0.46999998093E+01 0. -1.
       -5    1    3    3    0  502  0.38933995928E+02  0.39873410913E+03  0.12902351433E+04  0.13510120505E+04  0.46999998093E+01 0.  1.
</event>
<event>
 5   0  0.8291252E-03  0.8714376E+03  0.7818609E-02  0.9462007E-01
       -1   -1    0    0    0  501  0.00000000000E+00  0.00000000000E+00  0.14337359809E+03  0.14337359817E+03  0.50400001928E-02 0.  1.
        1   -1    0    0  501    0  0.00000000000E+00  0.00000000000E+00 -0.13241691349E+04  0.13241691349E+04  0.50400001928E-02 0. -1.
    10030    2    1    2    0    0  0.00000000000E+00  0.00000000000E+00 -0.11807955368E+04  0.14675427331E+04  0.87143764760E+03 0.  0.
        1    1    3    3  502    0  0.32662303750E+03 -0.49102474827E+02 -0.11182812209E+03  0.34871075489E+03  0.50400001928E-02 0.  1.
       -1    1    3    3    0  502 -0.32662303750E+03  0.49102474827E+02 -0.10689674147E+04  0.11188319782E+04  0.50400001928E-02 0. -1.
</event>
<event>
 5   0  0.8612969E-03  0.9047317E+03  0.7818609E-02  0.9419686E-01
       -1   -1    0    0    0  501  0.00000000000E+00  0.00000000000E+00  0.37217706625E+03  0.37217706628E+03  0.50400001928E-02 0.  1.
        1   -1    0    0  501    0  0.00000000000E+00  0.00000000000E+00 -0.54983199175E+03  0.54983199178E+03  0.50400001928E-02 0. -1.
    10030    2    1    2    0    0  0.00000000000E+00  0.00000000000E+00 -0.17765492551E+03  0.92200905806E+03  0.90473168983E+03 0.  0.
        4    1    3    3  502    0  0.63675123164E+02 -0.75374495036E+02  0.36107504911E+03  0.37431622968E+03  0.12699999809E+01 0.  1.
       -4    1    3    3    0  502 -0.63675123164E+02  0.75374495036E+02 -0.53872997461E+03  0.54769282838E+03  0.12699999809E+01 0. -1.
</event>
<event>
 5   0  0.8738044E-03  0.9014444E+03  0.7818609E-02  0.9423778E-01
       -1   -1    0    0    0  501  0.00000000000E+00  0.00000000000E+00  0.21546638635E+03  0.21546638641E+03  0.50400001928E-02 0. -1.
        1   -1    0    0  501    0  0.00000000000E+00  0.00000000000E+00 -0.94284082444E+03  0.94284082445E+03  0.50400001928E-02 0.  1.
    10030    2    1    2    0    0  0.00000000000E+00  0.00000000000E+00 -0.72737443809E+03  0.11583072109E+04  0.90144440846E+03 0.  0.
        3    1    3    3  502    0 -0.98382950560E+02 -0.32440971508E+03 -0.74536074092E+03  0.81883057619E+03  0.10100000352E+00 0.  1.
       -3    1    3    3    0  502  0.98382950560E+02  0.32440971508E+03  0.17986302835E+02  0.33947663467E+03  0.10100000352E+00 0. -1.
</event>
<event>
 5   0  0.5770125E-03  0.8424882E+03  0.7818609E-02  0.9500475E-01
       -3   -1    0    0    0  501  0.00000000000E+00  0.00000000000E+00  0.27885517122E+03  0.27885518951E+03  0.10100000352E+00 0.  1.
        3   -1    0    0  501    0  0.00000000000E+00  0.00000000000E+00 -0.63633949528E+03  0.63633950329E+03  0.10100000352E+00 0. -1.
    10030    2    1    2    0    0  0.00000000000E+00  0.00000000000E+00 -0.35748432406E+03  0.91519469280E+03  0.84248815054E+03 0.  0.
        2    1    3    3  502    0 -0.51900572372E+02  0.50742206250E+01  0.27533524418E+03  0.28023010870E+03  0.25500000920E-02 0.  1.
       -2    1    3    3    0  502  0.51900572372E+02 -0.50742206250E+01 -0.63281956823E+03  0.63496458411E+03  0.25500000920E-02 0. -1.
</event>
<event>
 5   0  0.8524692E-03  0.9056904E+03  0.7818609E-02  0.9418496E-01
       -1   -1    0    0    0  501  0.00000000000E+00  0.00000000000E+00  0.18144408107E+03  0.18144408114E+03  0.50400001928E-02 0.  1.
        1   -1    0    0  501    0  0.00000000000E+00  0.00000000000E+00 -0.11302038009E+04  0.11302038009E+04  0.50400001928E-02 0. -1.
    10030    2    1    2    0    0  0.00000000000E+00  0.00000000000E+00 -0.94875971983E+03  0.13116478821E+04  0.90569043306E+03 0.  0.
        5    1    3    3  502    0 -0.14332630744E+03 -0.16702774600E+03  0.98735018406E+02  0.24127037157E+03  0.46999998093E+01 0.  1.
       -5    1    3    3    0  502  0.14332630744E+03  0.16702774600E+03 -0.10474947382E+04  0.10703775105E+04  0.46999998093E+01 0. -1.
</event>
<event>
 5   0  0.8738044E-03  0.9101361E+03  0.7818609E-02  0.9412999E-01
       -1   -1    0    0    0  501  0.00000000000E+00  0.00000000000E+00  0.80149322100E+03  0.80149322102E+03  0.50400001928E-02 0. -1.
        1   -1    0    0  501    0  0.00000000000E+00  0.00000000000E+00 -0.25837639635E+03  0.25837639640E+03  0.50400001928E-02 0.  1.
    10030    2    1    2    0    0  0.00000000000E+00  0.00000000000E+00  0.54311682465E+03  0.10598696174E+04  0.91013610010E+03 0.  0.
        3    1    3    3  502    0  0.28345104983E+02  0.35016343386E+03 -0.65285347926E+02  0.35732347004E+03  0.10100000352E+00 0.  1.
       -3    1    3    3    0  502 -0.28345104983E+02 -0.35016343386E+03  0.60840217258E+03  0.70254614737E+03  0.10100000352E+00 0. -1.
</event>
<event>
 5   0  0.1441195E-02  0.8925667E+03  0.7818609E-02  0.9434921E-01
        2   -1    0    0  501    0  0.00000000000E+00  0.00000000000E+00  0.13736401971E+03  0.13736401974E+03  0.25500000920E-02 0. -1.
       -2   -1    0    0    0  501  0.00000000000E+00  0.00000000000E+00 -0.14499344831E+04  0.14499344831E+04  0.25500000920E-02 0.  1.
    10030    2    1    2    0    0  0.00000000000E+00  0.00000000000E+00 -0.13125704634E+04  0.15872985028E+04  0.89256670101E+03 0.  0.
        5    1    3    3  502    0  0.44443905222E+03  0.12917286509E+02 -0.72409183302E+03  0.84971995392E+03  0.46999998093E+01 0.  1.
       -5    1    3    3    0  502 -0.44443905222E+03 -0.12917286509E+02 -0.58847863033E+03  0.73757854890E+03  0.46999998093E+01 0. -1.
</event>
<event>
 5   0  0.5770125E-03  0.8889866E+03  0.7818609E-02  0.9439454E-01
       -3   -1    0    0    0  501  0.00000000000E+00  0.00000000000E+00  0.46263685214E+03  0.46263686317E+03  0.10100000352E+00 0. -1.
        3   -1    0    0  501    0  0.00000000000E+00  0.00000000000E+00 -0.42706128267E+03  0.42706129461E+03  0.10100000352E+00 0.  1.
    10030    2    1    2    0    0  0.00000000000E+00  0.00000000000E+00  0.35575569474E+02  0.88969815778E+03  0.88898660891E+03 0.  0.
        5    1    3    3  502    0  0.29163334145E+03  0.26309928015E+03  0.22599509235E+03  0.45317447945E+03  0.46999998093E+01 0. -1.
       -5    1    3    3    0  502 -0.29163334145E+03 -0.26309928015E+03 -0.19041952288E+03  0.43652367834E+03  0.46999998093E+01 0.  1.
</event>
<event>
 5   0  0.8524692E-03  0.9174289E+03  0.7818609E-02  0.9404053E-01
       -1   -1    0    0    0  501  0.00000000000E+00  0.00000000000E+00  0.75088251812E+03  0.75088251814E+03  0.50400001928E-02 0.  1.
        1   -1    0    0  501    0  0.00000000000E+00  0.00000000000E+00 -0.28022888165E+03  0.28022888169E+03  0.50400001928E-02 0. -1.
    10030    2    1    2    0    0  0.00000000000E+00  0.00000000000E+00  0.47065363647E+03  0.10311113998E+04  0.91742894730E+03 0.  0.
        5    1    3    3  502    0 -0.39393771750E+03 -0.20696233327E+03  0.11029145109E+03  0.45848296244E+03  0.46999998093E+01 0.  1.
       -5    1    3    3    0  502  0.39393771750E+03  0.20696233327E+03  0.36036218538E+03  0.57262843739E+03  0.46999998093E+01 0. -1.
</event>
<event>
 5   0  0.1441195E-02  0.9131191E+03  0.7818609E-02  0.9409329E-01
        2   -1    0    0  501    0  0.00000000000E+00  0.00000000000E+00  0.24985797091E+04  0.24985797091E+04  0.25500000920E-02 0. -1.
       -2   -1    0    0    0  501  0.00000000000E+00  0.00000000000E+00 -0.83426044973E+02  0.83426045012E+02  0.25500000920E-02 0.  1.
    10030    2    1    2    0    0  0.00000000000E+00  0.00000000000E+00  0.24151536642E+04  0.25820057542E+04  0.91311910118E+03 0.  0.
        5    1    3    3  502    0 -0.19214005202E+03  0.39938331890E+03  0.15173294177E+04  0.15807389054E+04  0.46999998093E+01 0. -1.
       -5    1    3    3    0  502  0.19214005202E+03 -0.39938331890E+03  0.89782424644E+03  0.10012668488E+04  0.46999998093E+01 0.  1.
</event>
<event>
 5   0  0.8612969E-03  0.8968376E+03  0.7818609E-02  0.9429543E-01
        1   -1    0    0  501    0  0.00000000000E+00  0.00000000000E+00  0.99855506385E+03  0.99855506387E+03  0.50400001928E-02 0.  1.
       -1   -1    0    0    0  501  0.00000000000E+00  0.00000000000E+00 -0.20137039843E+03  0.20137039850E+03  0.50400001928E-02 0. -1.
    10030    2    1    2    0    0  0.00000000000E+00  0.00000000000E+00  0.79718466542E+03  0.11999254624E+04  0.89683762435E+03 0.  0.
        4    1    3    3  502    0 -0.10533551290E+03 -0.94748259165E+02 -0.17063501087E+03  0.22178981655E+03  0.12699999809E+01 0. -1.
       -4    1    3    3    0  502  0.10533551290E+03  0.94748259165E+02  0.96781967629E+03  0.97813564581E+03  0.12699999809E+01 0.  1.
</event>
<event>
 5   0  0.8524692E-03  0.8014585E+03  0.7818609E-02  0.9557908E-01
        1   -1    0    0  501    0  0.00000000000E+00  0.00000000000E+00  0.15464296793E+04  0.15464296793E+04  0.50400001928E-02 0. -1.
       -1   -1    0    0    0  501  0.00000000000E+00  0.00000000000E+00 -0.10384173184E+03  0.10384173196E+03  0.50400001928E-02 0.  1.
    10030    2    1    2    0    0  0.00000000000E+00  0.00000000000E+00  0.14425879475E+04  0.16502714113E+04  0.80145851089E+03 0.  0.
        5    1    3    3  502    0  0.49581610580E+02  0.14380755612E+03  0.14846091210E+04  0.14923891186E+04  0.46999998093E+01 0. -1.
       -5    1    3    3    0  502 -0.49581610580E+02 -0.14380755612E+03 -0.42021173523E+02  0.15788229263E+03  0.46999998093E+01 0.  1.
</event>
<event>
 5   0  0.1440615E-02  0.9079745E+03  0.7818609E-02  0.9415667E-01
       -2   -1    0    0    0  501  0.00000000000E+00  0.00000000000E+00  0.28301161090E+03  0.28301161091E+03  0.25500000920E-02 0. -1.
        2   -1    0    0  501    0  0.00000000000E+00  0.00000000000E+00 -0.72825424383E+03  0.72825424383E+03  0.25500000920E-02 0.  1.
    10030    2    1    2    0    0  0.00000000000E+00  0.00000000000E+00 -0.44524263293E+03  0.10112658547E+04  0.90797446374E+03 0.  0.
        3    1    3    3  502    0 -0.16398292243E+03 -0.42242874856E+03 -0.25348574156E+03  0.51922199283E+03  0.10100000352E+00 0.  1.
       -3    1    3    3    0  502  0.16398292243E+03  0.42242874856E+03 -0.19175689137E+03  0.49204386192E+03  0.10100000352E+00 0. -1.
</event>
<event>
 5   0  0.1441195E-02  0.9072654E+03  0.7818609E-02  0.9416545E-01
       -2   -1    0    0    0  501  0.00000000000E+00  0.00000000000E+00  0.73347416732E+03  0.73347416732E+03  0.25500000920E-02 0.  1.
        2   -1    0    0  501    0  0.00000000000E+00  0.00000000000E+00 -0.28055879455E+03  0.28055879457E+03  0.25500000920E-02 0. -1.
    10030    2    1    2    0    0  0.00000000000E+00  0.00000000000E+00  0.45291537276E+03  0.10140329619E+04  0.90726540379E+03 0.  0.
        5    1    3    3  502    0  0.38008056043E+03 -0.24449497089E+03  0.18286076286E+03  0.48754402037E+03  0.46999998093E+01 0.  1.
       -5    1    3    3    0  502 -0.38008056043E+03  0.24449497089E+03  0.27005460991E+03  0.52648894152E+03  0.46999998093E+01 0. -1.
</event>
<event>
 5   0  0.8524692E-03  0.9135889E+03  0.7818609E-02  0.9408752E-01
       -1   -1    0    0    0  501  0.00000000000E+00  0.00000000000E+00  0.35714412636E+03  0.35714412639E+03  0.50400001928E-02 0. -1.
        1   -1    0    0  501    0  0.00000000000E+00  0.00000000000E+00 -0.58424923910E+03  0.58424923912E+03  0.50400001928E-02 0.  1.
    10030    2    1    2    0    0  0.00000000000E+00  0.00000000000E+00 -0.22710511274E+03  0.94139336551E+03  0.91358893185E+03 0.  0.
        5    1    3    3  502    0  0.40611625449E+03 -0.12023530162E+03  0.62685311767E+02  0.42818042719E+03  0.46999998093E+01 0. -1.
       -5    1    3    3    0  502 -0.40611625449E+03  0.12023530162E+03 -0.28979042451E+03  0.51321293832E+03  0.46999998093E+01 0.  1.
</event>
<event>
 5   0  0.1454652E-02  0.8848694E+03  0.7818609E-02  0.9444696E-01
       -2   -1    0    0    0  501  0.00000000000E+00  0.00000000000E+00  0.13482572652E+03  0.13482572655E+03  0.25500000920E-02 0. -1.
        2   -1    0    0  501    0  0.00000000000E+00  0.00000000000E+00 -0.14518627479E+04  0.14518627479E+04  0.25500000920E-02 0.  1.
    10030    2    1    2    0    0  0.00000000000E+00  0.00000000000E+00 -0.13170370214E+04  0.15866884745E+04  0.88486936849E+03 0.  0.
        4    1    3    3  502    0 -0.37236709912E+03  0.13704058313E+03 -0.30755213160E+03  0.50202321110E+03  0.12699999809E+01 0.  1.
       -4    1    3    3    0  502  0.37236709912E+03 -0.13704058313E+03 -0.10094848898E+04  0.10846652634E+04  0.12699999809E+01 0. -1.
</event>
<event>
 5   0  0.8291252E-03  0.8523437E+03  0.7818609E-02  0.9487197E-01
        1   -1    0    0  501    0  0.00000000000E+00  0.00000000000E+00  0.35909956476E+03  0.35909956480E+03  0.50400001928E-02 0. -1.
       -1   -1    0    0    0  501  0.00000000000E+00  0.00000000000E+00 -0.50577189095E+03  0.50577189098E+03  0.50400001928E-02 0.  1.
    10030    2    1    2    0    0  0.00000000000E+00  0.00000000000E+00 -0.14667232619E+03  0.86487145577E+03  0.85234374741E+03 0.  0.
        1    1    3    3  502    0  0.12714048086E+03  0.87854849777E+02  0.32966539414E+03  0.36409126414E+03  0.50400001928E-02 0. -1.
       -1    1    3    3    0  502 -0.12714048086E+03 -0.87854849777E+02 -0.47633772033E+03  0.50078019164E+03  0.50400001928E-02 0.  1.
</event>
<event>
 5   0  0.8885324E-03  0.9183213E+03  0.7818609E-02  0.9402964E-01
        1   -1    0    0  501    0  0.00000000000E+00  0.00000000000E+00  0.15942841834E+04  0.15942841834E+04  0.50400001928E-02 0.  1.
       -1   -1    0    0    0  501  0.00000000000E+00  0.00000000000E+00 -0.13224022273E+03  0.13224022283E+03  0.50400001928E-02 0. -1.
    10030    2    1    2    0    0  0.00000000000E+00  0.00000000000E+00  0.14620439607E+04  0.17265244063E+04  0.91832128496E+03 0.  0.
        2    1    3    3  502    0 -0.18326487729E+03  0.33676078159E+03  0.25600806350E+03  0.46101406470E+03  0.25500000920E-02 0. -1.
       -2    1    3    3    0  502  0.18326487729E+03 -0.33676078159E+03  0.12060358972E+04  0.12655103416E+04  0.25500000920E-02 0.  1.
</event>
<event>
 5   0  0.8612969E-03  0.9121438E+03  0.7818609E-02  0.9410527E-01
        1   -1    0    0  501    0  0.00000000000E+00  0.00000000000E+00  0.71835180854E+03  0.71835180856E+03  0.50400001928E-02 0. -1.
       -1   -1    0    0    0  501  0.00000000000E+00  0.00000000000E+00 -0.28955392958E+03  0.28955392963E+03  0.50400001928E-02 0.  1.
    10030    2    1    2    0    0  0.00000000000E+00  0.00000000000E+00  0.42879787896E+03  0.10079057382E+04  0.91214382422E+03 0.  0.
        4    1    3    3  502    0 -0.31531613836E+03 -0.12227600200E+03 -0.12370549000E+03  0.36011157845E+03  0.12699999809E+01 0.  1.
       -4    1    3    3    0  502  0.31531613836E+03  0.12227600200E+03  0.55250336896E+03  0.64779415973E+03  0.12699999809E+01 0. -1.
</event>
<event>
 5   0  0.8612969E-03  0.9265763E+03  0.7818609E-02  0.9392956E-01
        1   -1    0    0  501    0  0.00000000000E+00  0.00000000000E+00  0.52092230124E+03  0.52092230127E+03  0.50400001928E-02 0. -1.
       -1   -1    0    0    0  501  0.00000000000E+00  0.00000000000E+00 -0.41203056390E+03  0.41203056393E+03  0.50400001928E-02 0.  1.
    10030    2    1    2    0    0  0.00000000000E+00  0.00000000000E+00  0.10889173734E+03  0.93295286519E+03  0.92657629919E+03 0.  0.
        4    1    3    3  502    0  0.35753096007E+03 -0.29282656015E+03  0.87204594972E+02  0.47029994261E+03  0.12699999809E+01 0.  1.
       -4    1    3    3    0  502 -0.35753096007E+03  0.29282656015E+03  0.21687142371E+02  0.46265292259E+03  0.12699999809E+01 0. -1.
</event>
<event>
 5   0  0.8291252E-03  0.9020262E+03  0.7818609E-02  0.9423052E-01
        1   -1    0    0  501    0  0.00000000000E+00  0.00000000000E+00  0.42340956534E+03  0.42340956537E+03  0.50400001928E-02 0.  1.
       -1   -1    0    0    0  501  0.00000000000E+00  0.00000000000E+00 -0.48041621201E+03  0.48041621204E+03  0.50400001928E-02 0. -1.
    10030    2    1    2    0    0  0.00000000000E+00  0.00000000000E+00 -0.57006646668E+02  0.90382577741E+03  0.90202620701E+03 0.  0.
        1    1    3    3  502    0 -0.14493041865E+03  0.37535185851E+03 -0.23267189125E+03  0.46479033224E+03  0.50400001928E-02 0. -1.
       -1    1    3    3    0  502  0.14493041865E+03 -0.37535185851E+03  0.17566524459E+03  0.43903544517E+03  0.50400001928E-02 0.  1.
</event>
<event>
 5   0  0.8524692E-03  0.9159019E+03  0.7818609E-02  0.9405919E-01
       -1   -1    0    0    0  501  0.00000000000E+00  0.00000000000E+00  0.53893963456E+03  0.53893963458E+03  0.50400001928E-02 0. -1.
        1   -1    0    0  501    0  0.00000000000E+00  0.00000000000E+00 -0.38913274825E+03  0.38913274829E+03  0.50400001928E-02 0.  1.
    10030    2    1    2    0    0  0.00000000000E+00  0.00000000000E+00  0.14980688630E+03  0.92807238287E+03  0.91590187502E+03 0.  0.
        5    1    3    3  502    0  0.33121702265E+03 -0.14014592081E+03  0.36213328580E+03  0.51040004104E+03  0.46999998093E+01 0. -1.
       -5    1    3    3    0  502 -0.33121702265E+03  0.14014592081E+03 -0.21232639949E+03  0.41767234183E+03  0.46999998093E+01 0.  1.
</event>
<event>
 5   0  0.1454652E-02  0.9022128E+03  0.7818609E-02  0.9422820E-01
        2   -1    0    0  501    0  0.00000000000E+00  0.00000000000E+00  0.38710067147E+03  0.38710067148E+03  0.25500000920E-02 0. -1.
       -2   -1    0    0    0  501  0.00000000000E+00  0.00000000000E+00 -0.52569526312E+03  0.52569526313E+03  0.25500000920E-02 0.  1.
    10030    2    1    2    0    0  0.00000000000E+00  0.00000000000E+00 -0.13859459165E+03  0.91279593461E+03  0.90221281159E+03 0.  0.
        4    1    3    3  502    0 -0.19394946942E+03 -0.35643633727E+03 -0.26866749484E+03  0.48666938972E+03  0.12699999809E+01 0. -1.
       -4    1    3    3    0  502  0.19394946942E+03  0.35643633727E+03  0.13007290319E+03  0.42612654489E+03  0.12699999809E+01 0.  1.
</event>
<event>
 5   0  0.8524692E-03  0.8939002E+03  0.7818609E-02  0.9433239E-01
        1   -1    0    0  501    0  0.00000000000E+00  0.00000000000E+00  0.72680534002E+03  0.72680534004E+03  0.50400001928E-02 0.  1.
       -1   -1    0    0    0  501  0.00000000000E+00  0.00000000000E+00 -0.27485264503E+03  0.27485264508E+03  0.50400001928E-02 0. -1.
    10030    2    1    2    0    0  0.00000000000E+00  0.00000000000E+00  0.45195269499E+03  0.10016579851E+04  0.89390015139E+03 0.  0.
        5    1    3    3  502    0 -0.20438598177E+03 -0.34679388855E+03  0.44355504969E+03  0.59900150483E+03  0.46999998093E+01 0.  1.
       -5    1    3    3    0  502  0.20438598177E+03  0.34679388855E+03  0.83976452993E+01  0.40265648029E+03  0.46999998093E+01 0. -1.
</event>
<event>
 5   0  0.1454652E-02  0.8885757E+03  0.7818609E-02  0.9439976E-01
       -2   -1    0    0    0  501  0.00000000000E+00  0.00000000000E+00  0.63752888877E+03  0.63752888877E+03  0.25500000920E-02 0. -1.
        2   -1    0    0  501    0  0.00000000000E+00  0.00000000000E+00 -0.30961999526E+03  0.30961999527E+03  0.25500000920E-02 0.  1.
    10030    2    1    2    0    0  0.00000000000E+00  0.00000000000E+00  0.32790889351E+03  0.94714888404E+03  0.88857569520E+03 0.  0.
        4    1    3    3  502    0  0.15838986123E+01  0.44384717019E+03  0.14297834367E+03  0.46631238337E+03  0.12699999809E+01 0. -1.
       -4    1    3    3    0  502 -0.15838986123E+01 -0.44384717019E+03  0.18493054984E+03  0.48083650068E+03  0.12699999809E+01 0.  1.
</event>
<event>
 5   0  0.8291252E-03  0.9006251E+03  0.7818609E-02  0.9424800E-01
        1   -1    0    0  501    0  0.00000000000E+00  0.00000000000E+00  0.13221798737E+04  0.13221798737E+04  0.50400001928E-02 0. -1.
       -1   -1    0    0    0  501  0.00000000000E+00  0.00000000000E+00 -0.15336899788E+03  0.15336899797E+03  0.50400001928E-02 0.  1.
    10030    2    1    2    0    0  0.00000000000E+00  0.00000000000E+00  0.11688108758E+04  0.14755488717E+04  0.90062512139E+03 0.  0.
        1    1    3    3  502    0 -0.17494643355E+03 -0.28971752765E+03  0.10710810558E+04  0.11232796306E+04  0.50400001928E-02 0. -1.
       -1    1    3    3    0  502  0.17494643355E+03  0.28971752765E+03  0.97729819996E+02  0.35226924104E+03  0.50400001928E-02 0.  1.
</event>
<event>
 5   0  0.5770125E-03  0.9322432E+03  0.7818609E-02  0.9386150E-01
        3   -1    0    0  501    0  0.00000000000E+00  0.00000000000E+00  0.31763607947E+03  0.31763609553E+03  0.10100000352E+00 0. -1.
       -3   -1    0    0    0  501  0.00000000000E+00  0.00000000000E+00 -0.68401968904E+03  0.68401969649E+03  0.10100000352E+00 0.  1.
    10030    2    1    2    0    0  0.00000000000E+00  0.00000000000E+00 -0.36638360957E+03  0.10016557920E+04  0.93224319592E+03 0.  0.
        1    1    3    3  502    0 -0.25009017594E+03  0.21054156117E+03 -0.54019075146E+03  0.63141024150E+03  0.50400001928E-02 0.  1.
       -1    1    3    3    0  502  0.25009017594E+03 -0.21054156117E+03  0.17380714189E+03  0.37024555052E+03  0.50400001928E-02 0. -1.
</event>
<event>
 5   0  0.1483326E-02  0.8955585E+03  0.7818609E-02  0.9431151E-01
        2   -1    0    0  501    0  0.00000000000E+00  0.00000000000E+00  0.99402171459E+03  0.99402171459E+03  0.25500000920E-02 0. -1.
       -2   -1    0    0    0  501  0.00000000000E+00  0.00000000000E+00 -0.20171215311E+03  0.20171215312E+03  0.25500000920E-02 0.  1.
    10030    2    1    2    0    0  0.00000000000E+00  0.00000000000E+00  0.79230956148E+03  0.11957338677E+04  0.89555850796E+03 0.  0.
        1    1    3    3  502    0  0.25962718603E+03 -0.13562209705E+03 -0.56049666401E+02  0.29823010254E+03  0.50400001928E-02 0.  1.
       -1    1    3    3    0  502 -0.25962718603E+03  0.13562209705E+03  0.84835922788E+03  0.89750376517E+03  0.50400001928E-02 0. -1.
</event>
<event>
 5   0  0.8291252E-03  0.9158534E+03  0.7818609E-02  0.9405978E-01
       -1   -1    0    0    0  501  0.00000000000E+00  0.00000000000E+00  0.45375921847E+03  0.45375921849E+03  0.50400001928E-02 0. -1.
        1   -1    0    0  501    0  0.00000000000E+00  0.00000000000E+00 -0.46213243409E+03  0.46213243412E+03  0.50400001928E-02 0.  1.
    10030    2    1    2    0    0  0.00000000000E+00  0.00000000000E+00 -0.83732156211E+01  0.91589165261E+03  0.91585337723E+03 0.  0.
        1    1    3    3  502    0  0.39264964404E+03  0.22290985412E+03 -0.80572429531E+02  0.45864415667E+03  0.50400001928E-02 0.  1.
       -1    1    3    3    0  502 -0.39264964404E+03 -0.22290985412E+03  0.72199213910E+02  0.45724749594E+03  0.50400001928E-02 0. -1.
</event>
<event>
 5   0  0.1535906E-02  0.9033898E+03  0.7818609E-02  0.9421354E-01
       -2   -1    0    0    0  501  0.00000000000E+00  0.00000000000E+00  0.19414461232E+03  0.19414461234E+03  0.25500000920E-02 0. -1.
        2   -1    0    0  501    0  0.00000000000E+00  0.00000000000E+00 -0.10509087464E+04  0.10509087464E+04  0.25500000920E-02 0.  1.
    10030    2    1    2    0    0  0.00000000000E+00  0.00000000000E+00 -0.85676413406E+03  0.12450533587E+04  0.90338977449E+03 0.  0.
        2    1    3    3  502    0  0.12782482724E+03 -0.17394541390E+03 -0.97522097488E+03  0.99882538180E+03  0.25500000920E-02 0.  1.
       -2    1    3    3    0  502 -0.12782482724E+03  0.17394541390E+03  0.11845684082E+03  0.24622797692E+03  0.25500000920E-02 0. -1.
</event>
<event>
 5   0  0.8291252E-03  0.8490821E+03  0.7818609E-02  0.9491570E-01
       -1   -1    0    0    0  501  0.00000000000E+00  0.00000000000E+00  0.25293201685E+03  0.25293201690E+03  0.50400001928E-02 0. -1.
        1   -1    0    0  501    0  0.00000000000E+00  0.00000000000E+00 -0.71258318726E+03  0.71258318728E+03  0.50400001928E-02 0.  1.
    10030    2    1    2    0    0  0.00000000000E+00  0.00000000000E+00 -0.45965117041E+03  0.96551520418E+03  0.84908209911E+03 0.  0.
        1    1    3    3  502    0 -0.25690547474E+03 -0.31052962612E+03 -0.38156311013E+03  0.55499502582E+03  0.50400001928E-02 0.  1.
       -1    1    3    3    0  502  0.25690547474E+03  0.31052962612E+03 -0.78088060283E+02  0.41052017835E+03  0.50400001928E-02 0. -1.
</event>
<event>
 5   0  0.8738044E-03  0.8837276E+03  0.7818609E-02  0.9446154E-01
       -1   -1    0    0    0  501  0.00000000000E+00  0.00000000000E+00  0.54370478116E+03  0.54370478118E+03  0.50400001928E-02 0. -1.
        1   -1    0    0  501    0  0.00000000000E+00  0.00000000000E+00 -0.35909857029E+03  0.35909857033E+03  0.50400001928E-02 0.  1.
    10030    2    1    2    0    0  0.00000000000E+00  0.00000000000E+00  0.18460621087E+03  0.90280335151E+03  0.88372758156E+03 0.  0.
        3    1    3    3  502    0  0.23392962774E+03  0.37236787955E+03  0.48212592125E+02  0.44238599966E+03  0.10100000352E+00 0.  1.
       -3    1    3    3    0  502 -0.23392962774E+03 -0.37236787955E+03  0.13639361874E+03  0.46041735185E+03  0.10100000352E+00 0. -1.
</event>
<event>
 5   0  0.8291252E-03  0.9061658E+03  0.7818609E-02  0.9417907E-01
        1   -1    0    0  501    0  0.00000000000E+00  0.00000000000E+00  0.10525507732E+04  0.10525507733E+04  0.50400001928E-02 0. -1.
       -1   -1    0    0    0  501  0.00000000000E+00  0.00000000000E+00 -0.19503488294E+03  0.19503488301E+03  0.50400001928E-02 0.  1.
    10030    2    1    2    0    0  0.00000000000E+00  0.00000000000E+00  0.85751589030E+03  0.12475856563E+04  0.90616580580E+03 0.  0.
        1    1    3    3  502    0 -0.38831850506E+03  0.91070194520E+02  0.72468136945E+03  0.82719292124E+03  0.50400001928E-02 0. -1.
       -1    1    3    3    0  502  0.38831850506E+03 -0.91070194520E+02  0.13283452086E+03  0.42039273502E+03  0.50400001928E-02 0.  1.
</event>
<event>
 5   0  0.1441195E-02  0.9057037E+03  0.7818609E-02  0.9418479E-01
        2   -1    0    0  501    0  0.00000000000E+00  0.00000000000E+00  0.13820374212E+04  0.13820374212E+04  0.25500000920E-02 0.  1.
       -2   -1    0    0    0  501  0.00000000000E+00  0.00000000000E+00 -0.14838584958E+03  0.14838584960E+03  0.25500000920E-02 0. -1.
    10030    2    1    2    0    0  0.00000000000E+00  0.00000000000E+00  0.12336515716E+04  0.15304232708E+04  0.90570369749E+03 0.  0.
        5    1    3    3  502    0  0.29763108538E+03 -0.55065742855E+02  0.47709164023E+02  0.30645514084E+03  0.46999998093E+01 0. -1.
       -5    1    3    3    0  502 -0.29763108538E+03  0.55065742855E+02  0.11859424076E+04  0.12239681299E+04  0.46999998093E+01 0.  1.
</event>
<event>
 5   0  0.1440615E-02  0.9036034E+03  0.7818609E-02  0.9421088E-01
       -2   -1    0    0    0  501  0.00000000000E+00  0.00000000000E+00  0.40351432270E+03  0.40351432271E+03  0.25500000920E-02 0. -1.
        2   -1    0    0  501    0  0.00000000000E+00  0.00000000000E+00 -0.50586750945E+03  0.50586750946E+03  0.25500000920E-02 0.  1.
    10030    2    1    2    0    0  0.00000000000E+00  0.00000000000E+00 -0.10235318675E+03  0.90938183217E+03  0.90360342067E+03 0.  0.
        3    1    3    3  502    0 -0.21682425715E+03 -0.28707696150E+03 -0.32623525239E+03  0.48564945220E+03  0.10100000352E+00 0.  1.
       -3    1    3    3    0  502  0.21682425715E+03  0.28707696150E+03  0.22388206565E+03  0.42373237997E+03  0.10100000352E+00 0. -1.
</event>
<event>
 5   0  0.1483326E-02  0.9009233E+03  0.7818609E-02  0.9424428E-01
       -2   -1    0    0    0  501  0.00000000000E+00  0.00000000000E+00  0.17583278636E+03  0.17583278638E+03  0.25500000920E-02 0. -1.
        2   -1    0    0  501    0  0.00000000000E+00  0.00000000000E+00 -0.11540266162E+04  0.11540266162E+04  0.25500000920E-02 0.  1.
    10030    2    1    2    0    0  0.00000000000E+00  0.00000000000E+00 -0.97819382979E+03  0.13298594025E+04  0.90092333852E+03 0.  0.
        1    1    3    3  502    0 -0.13468491414E+03  0.31649757208E+02 -0.11218873468E+04  0.11303861961E+04  0.50400001928E-02 0.  1.
       -1    1    3    3    0  502  0.13468491414E+03 -0.31649757208E+02  0.14369351706E+03  0.19947320647E+03  0.50400001928E-02 0. -1.
</event>
<event>
 5   0  0.8885324E-03  0.9011767E+03  0.7818609E-02  0.9424112E-01
       -1   -1    0    0    0  501  0.00000000000E+00  0.00000000000E+00  0.35367610184E+03  0.35367610188E+03  0.50400001928E-02 0.  1.
        1   -1    0    0  501    0  0.00000000000E+00  0.00000000000E+00 -0.57405594580E+03  0.57405594582E+03  0.50400001928E-02 0. -1.
    10030    2    1    2    0    0  0.00000000000E+00  0.00000000000E+00 -0.22037984395E+03  0.92773204770E+03  0.90117671780E+03 0.  0.
        2    1    3    3  502    0 -0.40590484880E+03 -0.16127447591E+03 -0.22418532613E+03  0.49094527528E+03  0.25500000920E-02 0.  1.
       -2    1    3    3    0  502  0.40590484880E+03  0.16127447591E+03  0.38054821724E+01  0.43678677242E+03  0.25500000920E-02 0. -1.
</event>
<event>
 5   0  0.8291252E-03  0.8948642E+03  0.7818609E-02  0.9432024E-01
       -1   -1    0    0    0  501  0.00000000000E+00  0.00000000000E+00  0.18339416080E+03  0.18339416087E+03  0.50400001928E-02 0. -1.
        1   -1    0    0  501    0  0.00000000000E+00  0.00000000000E+00 -0.10916131829E+04  0.10916131830E+04  0.50400001928E-02 0.  1.
    10030    2    1    2    0    0  0.00000000000E+00  0.00000000000E+00 -0.90821902214E+03  0.12750073438E+04  0.89486419899E+03 0.  0.
        1    1    3    3  502    0  0.15514559424E+03 -0.84764570135E+02  0.13151895406E+03  0.22034614375E+03  0.50400001928E-02 0. -1.
       -1    1    3    3    0  502 -0.15514559424E+03  0.84764570135E+02 -0.10397379762E+04  0.10546612001E+04  0.50400001928E-02 0.  1.
</event>
<event>
 5   0  0.1441195E-02  0.9042376E+03  0.7818609E-02  0.9420300E-01
       -2   -1    0    0    0  501  0.00000000000E+00  0.00000000000E+00  0.10861962647E+03  0.10861962650E+03  0.25500000920E-02 0. -1.
        2   -1    0    0  501    0  0.00000000000E+00  0.00000000000E+00 -0.18819011424E+04  0.18819011424E+04  0.25500000920E-02 0.  1.
    10030    2    1    2    0    0  0.00000000000E+00  0.00000000000E+00 -0.17732815159E+04  0.19905207689E+04  0.90423757759E+03 0.  0.
        5    1    3    3  502    0 -0.13177560332E+03  0.59050073260E+02  0.56435198367E+02  0.15510880824E+03  0.46999998093E+01 0. -1.
       -5    1    3    3    0  502  0.13177560332E+03 -0.59050073260E+02 -0.18297167143E+04  0.18354119607E+04  0.46999998093E+01 0.  1.
</event>
<event>
 5   0  0.8738044E-03  0.7944408E+03  0.7818609E-02  0.9568099E-01
       -1   -1    0    0    0  501  0.00000000000E+00  0.00000000000E+00  0.15140230666E+03  0.15140230675E+03  0.50400001928E-02 0.  1.
        1   -1    0    0  501    0  0.00000000000E+00  0.00000000000E+00 -0.10421508222E+04  0.10421508222E+04  0.50400001928E-02 0. -1.
    10030    2    1    2    0    0  0.00000000000E+00  0.00000000000E+00 -0.89074851551E+03  0.11935531289E+04  0.79444078049E+03 0.  0.
        3    1    3    3  502    0  0.11005994055E+02  0.18390133363E+03 -0.97408276864E+03  0.99135164436E+03  0.10100000352E+00 0. -1.
       -3    1    3    3    0  502 -0.11005994055E+02 -0.18390133363E+03  0.83334253132E+02  0.20220148457E+03  0.10100000352E+00 0.  1.
</event>
<event>
 5   0  0.8612969E-03  0.9039961E+03  0.7818609E-02  0.9420600E-01
        1   -1    0    0  501    0  0.00000000000E+00  0.00000000000E+00  0.54074721862E+03  0.54074721865E+03  0.50400001928E-02 0. -1.
       -1   -1    0    0    0  501  0.00000000000E+00  0.00000000000E+00 -0.37781468431E+03  0.37781468434E+03  0.50400001928E-02 0.  1.
    10030    2    1    2    0    0  0.00000000000E+00  0.00000000000E+00  0.16293253431E+03  0.91856190299E+03  0.90399610557E+03 0.  0.
        4    1    3    3  502    0 -0.30432395942E+03 -0.16701830358E+03  0.37559963141E+03  0.51145369490E+03  0.12699999809E+01 0. -1.
       -4    1    3    3    0  502  0.30432395942E+03  0.16701830358E+03 -0.21266709709E+03  0.40710820809E+03  0.12699999809E+01 0.  1.
</event>
<event>
 5   0  0.1441195E-02  0.9089242E+03  0.7818609E-02  0.9414494E-01
        2   -1    0    0  501    0  0.00000000000E+00  0.00000000000E+00  0.51623517906E+03  0.51623517907E+03  0.25500000920E-02 0. -1.
       -2   -1    0    0    0  501  0.00000000000E+00  0.00000000000E+00 -0.40008087270E+03  0.40008087271E+03  0.25500000920E-02 0.  1.
    10030    2    1    2    0    0  0.00000000000E+00  0.00000000000E+00  0.11615430636E+03  0.91631605178E+03  0.90892424539E+03 0.  0.
        5    1    3    3  502    0 -0.38127354516E+03  0.11966396339E+03 -0.16007290974E+03  0.43050482786E+03  0.46999998093E+01 0.  1.
       -5    1    3    3    0  502  0.38127354516E+03 -0.11966396339E+03  0.27622721610E+03  0.48581122392E+03  0.46999998093E+01 0. -1.
</event>
<event>
 5   0  0.8524692E-03  0.8995822E+03  0.7818609E-02  0.9426104E-01
        1   -1    0    0  501    0  0.00000000000E+00  0.00000000000E+00  0.56154575130E+03  0.56154575132E+03  0.50400001928E-02 0.  1.
       -1   -1    0    0    0  501  0.00000000000E+00  0.00000000000E+00 -0.36027704703E+03  0.36027704707E+03  0.50400001928E-02 0. -1.
    10030    2    1    2    0    0  0.00000000000E+00  0.00000000000E+00  0.20126870427E+03  0.92182279839E+03  0.89958222543E+03 0.  0.
        5    1    3    3  502    0  0.35783688387E+02  0.41691665730E+02  0.55806888000E+03  0.56078661911E+03  0.46999998093E+01 0.  1.
       -5    1    3    3    0  502 -0.35783688387E+02 -0.41691665730E+02 -0.35680017574E+03  0.36103617928E+03  0.46999998093E+01 0. -1.
</event>
<event>
 5   0  0.1441195E-02  0.9008189E+03  0.7818609E-02  0.9424558E-01
        2   -1    0    0  501    0  0.00000000000E+00  0.00000000000E+00  0.15255195329E+04  0.15255195329E+04  0.25500000920E-02 0.  1.
       -2   -1    0    0    0  501  0.00000000000E+00  0.00000000000E+00 -0.13298333622E+03  0.13298333624E+03  0.25500000920E-02 0. -1.
    10030    2    1    2    0    0  0.00000000000E+00  0.00000000000E+00  0.13925361967E+04  0.16585028691E+04  0.90081890960E+03 0.  0.
        5    1    3    3  502    0  0.36514044679E+03 -0.21791517734E+03  0.96954684543E+03  0.10587056937E+04  0.46999998093E+01 0.  1.
       -5    1    3    3    0  502 -0.36514044679E+03  0.21791517734E+03  0.42298935125E+03  0.59979717544E+03  0.46999998093E+01 0. -1.
</event>
<event>
 5   0  0.1454652E-02  0.9094549E+03  0.7818609E-02  0.9413839E-01
        2   -1    0    0  501    0  0.00000000000E+00  0.00000000000E+00  0.25554753839E+04  0.25554753839E+04  0.25500000920E-02 0.  1.
       -2   -1    0    0    0  501  0.00000000000E+00  0.00000000000E+00 -0.80915307282E+02  0.80915307322E+02  0.25500000920E-02 0. -1.
    10030    2    1    2    0    0  0.00000000000E+00  0.00000000000E+00  0.24745600766E+04  0.26363906912E+04  0.90945494884E+03 0.  0.
        4    1    3    3  502    0  0.29375852608E+03 -0.34175283085E+03  0.14132868425E+04  0.14833982544E+04  0.12699999809E+01 0.  1.
       -4    1    3    3    0  502 -0.29375852608E+03  0.34175283085E+03  0.10612732341E+04  0.11529924368E+04  0.12699999809E+01 0. -1.
</event>
<event>
 5   0  0.1483326E-02  0.8598407E+03  0.7818609E-02  0.9477224E-01
       -2   -1    0    0    0  501  0.00000000000E+00  0.00000000000E+00  0.70140659673E+02  0.70140659719E+02  0.25500000920E-02 0. -1.
        2   -1    0    0  501    0  0.00000000000E+00  0.00000000000E+00 -0.26351547111E+04  0.26351547111E+04  0.25500000920E-02 0.  1.
    10030    2    1    2    0    0  0.00000000000E+00  0.00000000000E+00 -0.25650140514E+04  0.27052953708E+04  0.85984065929E+03 0.  0.
        1    1    3    3  502    0  0.36080754202E+02  0.42816151192E+03 -0.12371975266E+04  0.13096876807E+04  0.50400001928E-02 0.  1.
       -1    1    3    3    0  502 -0.36080754202E+02 -0.42816151192E+03 -0.13278165249E+04  0.13956076902E+04  0.50400001928E-02 0. -1.
</event>
<event>
 5   0  0.1483326E-02  0.8953502E+03  0.7818609E-02  0.9431413E-01
       -2   -1    0    0    0  501  0.00000000000E+00  0.00000000000E+00  0.11764618030E+03  0.11764618032E+03  0.25500000920E-02 0. -1.
        2   -1    0    0  501    0  0.00000000000E+00  0.00000000000E+00 -0.17035232419E+04  0.17035232419E+04  0.25500000920E-02 0.  1.
    10030    2    1    2    0    0  0.00000000000E+00  0.00000000000E+00 -0.15858770616E+04  0.18211694223E+04  0.89535021637E+03 0.  0.
        1    1    3    3  502    0 -0.80429765889E+02  0.40418817314E+03 -0.43726825579E+03  0.60086650272E+03  0.50400001928E-02 0.  1.
       -1    1    3    3    0  502  0.80429765889E+02 -0.40418817314E+03 -0.11486088059E+04  0.12203029195E+04  0.50400001928E-02 0. -1.
</event>
<event>
 5   0  0.8885324E-03  0.9000008E+03  0.7818609E-02  0.9425580E-01
        1   -1    0    0  501    0  0.00000000000E+00  0.00000000000E+00  0.71357088736E+03  0.71357088737E+03  0.50400001928E-02 0. -1.
       -1   -1    0    0    0  501  0.00000000000E+00  0.00000000000E+00 -0.28378452454E+03  0.28378452459E+03  0.50400001928E-02 0.  1.
    10030    2    1    2    0    0  0.00000000000E+00  0.00000000000E+00  0.42978636281E+03  0.99735541196E+03  0.90000083339E+03 0.  0.
        2    1    3    3  502    0  0.40470236704E+03 -0.19440002619E+03  0.18118947553E+03  0.48415390334E+03  0.25500000920E-02 0.  1.
       -2    1    3    3    0  502 -0.40470236704E+03  0.19440002619E+03  0.24859688728E+03  0.51320150862E+03  0.25500000920E-02 0. -1.
</event>
<event>
 5   0  0.1483326E-02  0.8873503E+03  0.7818609E-02  0.9441534E-01
       -2   -1    0    0    0  501  0.00000000000E+00  0.00000000000E+00  0.17722502835E+03  0.17722502837E+03  0.25500000920E-02 0. -1.
        2   -1    0    0  501    0  0.00000000000E+00  0.00000000000E+00 -0.11107213162E+04  0.11107213162E+04  0.25500000920E-02 0.  1.
    10030    2    1    2    0    0  0.00000000000E+00  0.00000000000E+00 -0.93349628781E+03  0.12879463445E+04  0.88735025048E+03 0.  0.
        1    1    3    3  502    0 -0.21184114003E+03  0.10128935383E+03  0.79644837088E+02  0.24795060377E+03  0.50400001928E-02 0. -1.
       -1    1    3    3    0  502  0.21184114003E+03 -0.10128935383E+03 -0.10131411249E+04  0.10399957408E+04  0.50400001928E-02 0.  1.
</event>
<event>
 5   0  0.8524692E-03  0.9053673E+03  0.7818609E-02  0.9418897E-01
       -1   -1    0    0    0  501  0.00000000000E+00  0.00000000000E+00  0.12102042145E+03  0.12102042156E+03  0.50400001928E-02 0.  1.
        1   -1    0    0  501    0  0.00000000000E+00  0.00000000000E+00 -0.16932883307E+04  0.16932883307E+04  0.50400001928E-02 0. -1.
    10030    2    1    2    0    0  0.00000000000E+00  0.00000000000E+00 -0.15722679092E+04  0.18143087522E+04  0.90536725702E+03 0.  0.
        5    1    3    3  502    0  0.24367622919E+03 -0.27748703074E+03 -0.13107061834E+04  0.13617451840E+04  0.46999998093E+01 0. -1.
       -5    1    3    3    0  502 -0.24367622919E+03  0.27748703074E+03 -0.26156172581E+03  0.45256356825E+03  0.46999998093E+01 0.  1.
</event>
<event>
 5   0  0.8738044E-03  0.9003147E+03  0.7818609E-02  0.9425188E-01
       -1   -1    0    0    0  501  0.00000000000E+00  0.00000000000E+00  0.84952014057E+03  0.84952014059E+03  0.50400001928E-02 0. -1.
        1   -1    0    0  501    0  0.00000000000E+00  0.00000000000E+00 -0.23853657999E+03  0.23853658005E+03  0.50400001928E-02 0.  1.
    10030    2    1    2    0    0  0.00000000000E+00  0.00000000000E+00  0.61098356058E+03  0.10880567206E+04  0.90031467611E+03 0.  0.
        3    1    3    3  502    0 -0.31573967535E+03  0.22689725828E+03  0.31318814189E+02  0.39007023307E+03  0.10100000352E+00 0.  1.
       -3    1    3    3    0  502  0.31573967535E+03 -0.22689725828E+03  0.57966474639E+03  0.69798648756E+03  0.10100000352E+00 0. -1.
</event>
<event>
 5   0  0.1454652E-02  0.9114415E+03  0.7818609E-02  0.9411391E-01
       -2   -1    0    0    0  501  0.00000000000E+00  0.00000000000E+00  0.11799816200E+03  0.11799816203E+03  0.25500000920E-02 0.  1.
        2   -1    0    0  501    0  0.00000000000E+00  0.00000000000E+00 -0.17600394824E+04  0.17600394824E+04  0.25500000920E-02 0. -1.
    10030    2    1    2    0    0  0.00000000000E+00  0.00000000000E+00 -0.16420413204E+04  0.18780376444E+04  0.91144154831E+03 0.  0.
        4    1    3    3  502    0  0.74032965761E+02 -0.41343160072E+03 -0.45663445428E+03  0.62042179702E+03  0.12699999809E+01 0.  1.
       -4    1    3    3    0  502 -0.74032965761E+02  0.41343160072E+03 -0.11854068661E+04  0.12576158474E+04  0.12699999809E+01 0. -1.
</event>
<event>
 5   0  0.8612969E-03  0.8941931E+03  0.7818609E-02  0.9432870E-01
        1   -1    0    0  501    0  0.00000000000E+00  0.00000000000E+00  0.13261769487E+04  0.13261769487E+04  0.50400001928E-02 0. -1.
       -1   -1    0    0    0  501  0.00000000000E+00  0.00000000000E+00 -0.15073049866E+03  0.15073049874E+03  0.50400001928E-02 0.  1.
    10030    2    1    2    0    0  0.00000000000E+00  0.00000000000E+00  0.11754464501E+04  0.14769074475E+04  0.89419307280E+03 0.  0.
        4    1    3    3  502    0 -0.23118988321E+03  0.33192661389E+03  0.27317030101E+03  0.48810620295E+03  0.12699999809E+01 0.  1.
       -4    1    3    3    0  502  0.23118988321E+03 -0.33192661389E+03  0.90227614906E+03  0.98880124452E+03  0.12699999809E+01 0. -1.
</event>
<event>
 5   0  0.1440615E-02  0.8921082E+03  0.7818609E-02  0.9435501E-01
       -2   -1    0    0    0  501  0.00000000000E+00  0.00000000000E+00  0.37341448471E+03  0.37341448472E+03  0.25500000920E-02 0. -1.
        2   -1    0    0  501    0  0.00000000000E+00  0.00000000000E+00 -0.53282418719E+03  0.53282418719E+03  0.25500000920E-02 0.  1.
    10030    2    1    2    0    0  0.00000000000E+00  0.00000000000E+00 -0.15940970247E+03  0.90623867191E+03  0.89210822058E+03 0.  0.
        3    1    3    3  502    0  0.24790883486E+03 -0.19954775804E+03 -0.39720327292E+03  0.50896812117E+03  0.10100000352E+00 0.  1.
       -3    1    3    3    0  502 -0.24790883486E+03  0.19954775804E+03  0.23779357045E+03  0.39727055075E+03  0.10100000352E+00 0. -1.
</event>
<event>
 5   0  0.1440615E-02  0.9041551E+03  0.7818609E-02  0.9420402E-01
       -2   -1    0    0    0  501  0.00000000000E+00  0.00000000000E+00  0.27631717312E+03  0.27631717313E+03  0.25500000920E-02 0. -1.
        2   -1    0    0  501    0  0.00000000000E+00  0.00000000000E+00 -0.73963597181E+03  0.73963597181E+03  0.25500000920E-02 0.  1.
    10030    2    1    2    0    0  0.00000000000E+00  0.00000000000E+00 -0.46331879869E+03  0.10159531449E+04  0.90415512136E+03 0.  0.
        3    1    3    3  502    0  0.26943110339E+03  0.19103362203E+02 -0.63899741339E+03  0.69374041430E+03  0.10100000352E+00 0.  1.
       -3    1    3    3    0  502 -0.26943110339E+03 -0.19103362203E+02  0.17567861470E+03  0.32221273063E+03  0.10100000352E+00 0. -1.
</event>
<event>
 5   0  0.1440615E-02  0.8827082E+03  0.7818609E-02  0.9447459E-01
       -2   -1    0    0    0  501  0.00000000000E+00  0.00000000000E+00  0.13143257961E+03  0.13143257964E+03  0.25500000920E-02 0.  1.
        2   -1    0    0  501    0  0.00000000000E+00  0.00000000000E+00 -0.14820786464E+04  0.14820786464E+04  0.25500000920E-02 0. -1.
    10030    2    1    2    0    0  0.00000000000E+00  0.00000000000E+00 -0.13506460668E+04  0.16135112261E+04  0.88270815044E+03 0.  0.
        3    1    3    3  502    0  0.44105083546E+03  0.13448171119E+02 -0.69234486690E+03  0.82100433475E+03  0.10100000352E+00 0. -1.
       -3    1    3    3    0  502 -0.44105083546E+03 -0.13448171119E+02 -0.65830119992E+03  0.79250689132E+03  0.10100000352E+00 0.  1.
</event>
<event>
 5   0  0.8885324E-03  0.9048217E+03  0.7818609E-02  0.9419574E-01
        1   -1    0    0  501    0  0.00000000000E+00  0.00000000000E+00  0.48239590956E+03  0.48239590959E+03  0.50400001928E-02 0.  1.
       -1   -1    0    0    0  501  0.00000000000E+00  0.00000000000E+00 -0.42428966652E+03  0.42428966655E+03  0.50400001928E-02 0. -1.
    10030    2    1    2    0    0  0.00000000000E+00  0.00000000000E+00  0.58106243046E+02  0.90668557614E+03  0.90482174957E+03 0.  0.
        2    1    3    3  502    0  0.28047816724E+03 -0.11865747740E+03 -0.30619244873E+03  0.43185809580E+03  0.25500000920E-02 0. -1.
       -2    1    3    3    0  502 -0.28047816724E+03  0.11865747740E+03  0.36429869178E+03  0.47482748033E+03  0.25500000920E-02 0.  1.
</event>
<event>
 5   0  0.1441195E-02  0.8776719E+03  0.7818609E-02  0.9453931E-01
        2   -1    0    0  501    0  0.00000000000E+00  0.00000000000E+00  0.92957856608E+03  0.92957856609E+03  0.25500000920E-02 0.  1.
       -2   -1    0    0    0  501  0.00000000000E+00  0.00000000000E+00 -0.20716591474E+03  0.20716591475E+03  0.25500000920E-02 0. -1.
    10030    2    1    2    0    0  0.00000000000E+00  0.00000000000E+00  0.72241265134E+03  0.11367444808E+04  0.87767190675E+03 0.  0.
        5    1    3    3  502    0  0.39164485831E+03 -0.54559937814E+02  0.60760563221E+03  0.72496149977E+03  0.46999998093E+01 0.  1.
       -5    1    3    3    0  502 -0.39164485831E+03  0.54559937814E+02  0.11480701913E+03  0.41178298107E+03  0.46999998093E+01 0. -1.
</event>
<event>
 5   0  0.1441195E-02  0.9281007E+03  0.7818609E-02  0.9391120E-01
       -2   -1    0    0    0  501  0.00000000000E+00  0.00000000000E+00  0.15383753099E+03  0.15383753101E+03  0.25500000920E-02 0.  1.
        2   -1    0    0  501    0  0.00000000000E+00  0.00000000000E+00 -0.13998060575E+04  0.13998060575E+04  0.25500000920E-02 0. -1.
    10030    2    1    2    0    0  0.00000000000E+00  0.00000000000E+00 -0.12459685265E+04  0.15536435885E+04  0.92810065785E+03 0.  0.
        5    1    3    3  502    0 -0.40210059337E+03  0.22297193422E+03 -0.72778338463E+03  0.86086707196E+03  0.46999998093E+01 0. -1.
       -5    1    3    3    0  502  0.40210059337E+03 -0.22297193422E+03 -0.51818514189E+03  0.69277651657E+03  0.46999998093E+01 0.  1.
</event>
<event>
 5   0  0.1454652E-02  0.9038897E+03  0.7818609E-02  0.9420732E-01
       -2   -1    0    0    0  501  0.00000000000E+00  0.00000000000E+00  0.32584491508E+03  0.32584491509E+03  0.25500000920E-02 0.  1.
        2   -1    0    0  501    0  0.00000000000E+00  0.00000000000E+00 -0.62684465704E+03  0.62684465704E+03  0.25500000920E-02 0. -1.
    10030    2    1    2    0    0  0.00000000000E+00  0.00000000000E+00 -0.30099974196E+03  0.95268957213E+03  0.90388969249E+03 0.  0.
        4    1    3    3  502    0 -0.24496866250E+03  0.36346264030E+03 -0.34380180270E+02  0.43965707796E+03  0.12699999809E+01 0.  1.
       -4    1    3    3    0  502  0.24496866250E+03 -0.36346264030E+03 -0.26661956169E+03  0.51303249417E+03  0.12699999809E+01 0. -1.
</event>
<event>
 5   0  0.1454652E-02  0.8965805E+03  0.7818609E-02  0.9429866E-01
        2   -1    0    0  501    0  0.00000000000E+00  0.00000000000E+00  0.56208484978E+03  0.56208484979E+03  0.25500000920E-02 0.  1.
       -2   -1    0    0    0  501  0.00000000000E+00  0.00000000000E+00 -0.35753348512E+03  0.35753348513E+03  0.25500000920E-02 0. -1.
    10030    2    1    2    0    0  0.00000000000E+00  0.00000000000E+00  0.20455136466E+03  0.91961833492E+03  0.89658051570E+03 0.  0.
        4    1    3    3  502    0  0.58040136763E+02  0.38626574470E+03 -0.12336014999E+03  0.40962082773E+03  0.12699999809E+01 0. -1.
       -4    1    3    3    0  502 -0.58040136763E+02 -0.38626574470E+03  0.32791151465E+03  0.50999750719E+03  0.12699999809E+01 0.  1.
</event>
<event>
 5   0  0.8885324E-03  0.9048784E+03  0.7818609E-02  0.9419504E-01
        1   -1    0    0  501    0  0.00000000000E+00  0.00000000000E+00  0.16443258769E+04  0.16443258769E+04  0.50400001928E-02 0.  1.
       -1   -1    0    0    0  501  0.00000000000E+00  0.00000000000E+00 -0.12448945038E+03  0.12448945048E+03  0.50400001928E-02 0. -1.
    10030    2    1    2    0    0  0.00000000000E+00  0.00000000000E+00  0.15198364265E+04  0.17688153273E+04  0.90487838906E+03 0.  0.
        2    1    3    3  502    0  0.38320224605E+03 -0.15942480874E+03  0.40783983820E+03  0.58188793135E+03  0.25500000920E-02 0. -1.
       -2    1    3    3    0  502 -0.38320224605E+03  0.15942480874E+03  0.11119965883E+04  0.11869273960E+04  0.25500000920E-02 0.  1.
</event>
<event>
 5   0  0.1440615E-02  0.8799829E+03  0.7818609E-02  0.9450956E-01
        2   -1    0    0  501    0  0.00000000000E+00  0.00000000000E+00  0.86031471141E+03  0.86031471141E+03  0.25500000920E-02 0. -1.
       -2   -1    0    0    0  501  0.00000000000E+00  0.00000000000E+00 -0.22502515900E+03  0.22502515901E+03  0.25500000920E-02 0.  1.
    10030    2    1    2    0    0  0.00000000000E+00  0.00000000000E+00  0.63528955241E+03  0.10853398704E+04  0.87998285149E+03 0.  0.
        3    1    3    3  502    0 -0.22379197102E+03 -0.36183896125E+03  0.17929794210E+03  0.46169041837E+03  0.10100000352E+00 0.  1.
       -3    1    3    3    0  502  0.22379197102E+03  0.36183896125E+03  0.45599161031E+03  0.62364945205E+03  0.10100000352E+00 0. -1.
</event>
<event>
 5   0  0.8612969E-03  0.8989821E+03  0.7818609E-02  0.9426855E-01
        1   -1    0    0  501    0  0.00000000000E+00  0.00000000000E+00  0.25826212665E+03  0.25826212670E+03  0.50400001928E-02 0. -1.
       -1   -1    0    0    0  501  0.00000000000E+00  0.00000000000E+00 -0.78231456133E+03  0.78231456135E+03  0.50400001928E-02 0.  1.
    10030    2    1    2    0    0  0.00000000000E+00  0.00000000000E+00 -0.52405243468E+03  0.10405766880E+04  0.89898214076E+03 0.  0.
        4    1    3    3  502    0  0.42770806408E+03 -0.13128901915E+03 -0.31207564319E+03  0.54549410134E+03  0.12699999809E+01 0.  1.
       -4    1    3    3    0  502 -0.42770806408E+03  0.13128901915E+03 -0.21197679150E+03  0.49508258671E+03  0.12699999809E+01 0. -1.
</event>
<event>
 5   0  0.1483326E-02  0.9079954E+03  0.7818609E-02  0.9415642E-01
        2   -1    0    0  501    0  0.00000000000E+00  0.00000000000E+00  0.21587440612E+04  0.21587440612E+04  0.25500000920E-02 0. -1.
       -2   -1    0    0    0  501  0.00000000000E+00  0.00000000000E+00 -0.95478618215E+02  0.95478618249E+02  0.25500000920E-02 0.  1.
    10030    2    1    2    0    0  0.00000000000E+00  0.00000000000E+00  0.20632654430E+04  0.22542226795E+04  0.90799537463E+03 0.  0.
        1    1    3    3  502    0  0.69897024618E+02 -0.36150083771E+03  0.16910308099E+04  0.17306512213E+04  0.50400001928E-02 0. -1.
       -1    1    3    3    0  502 -0.69897024618E+02  0.36150083771E+03  0.37223463314E+03  0.52357145821E+03  0.50400001928E-02 0.  1.
</event>
<event>
 5   0  0.1535906E-02  0.8813814E+03  0.7818609E-02  0.9449160E-01
       -2   -1    0    0    0  501  0.00000000000E+00  0.00000000000E+00  0.14857127781E+03  0.14857127783E+03  0.25500000920E-02 0.  1.
        2   -1    0    0  501    0  0.00000000000E+00  0.00000000000E+00 -0.13071726237E+04  0.13071726237E+04  0.25500000920E-02 0. -1.
    10030    2    1    2    0    0  0.00000000000E+00  0.00000000000E+00 -0.11586013459E+04  0.14557439016E+04  0.88138143170E+03 0.  0.
        2    1    3    3  502    0 -0.32169040315E+03  0.15192315311E+03 -0.14973225635E+03  0.38598589162E+03  0.25500000920E-02 0.  1.
       -2    1    3    3    0  502  0.32169040315E+03 -0.15192315311E+03 -0.10088690896E+04  0.10697580099E+04  0.25500000920E-02 0. -1.
</event>
<event>
 5   0  0.8612969E-03  0.8926985E+03  0.7818609E-02  0.9434755E-01
       -1   -1    0    0    0  501  0.00000000000E+00  0.00000000000E+00  0.28795471812E+03  0.28795471817E+03  0.50400001928E-02 0. -1.
        1   -1    0    0  501    0  0.00000000000E+00  0.00000000000E+00 -0.69187149641E+03  0.69187149643E+03  0.50400001928E-02 0.  1.
    10030    2    1    2    0    0  0.00000000000E+00  0.00000000000E+00 -0.40391677828E+03  0.97982621460E+03  0.89269851967E+03 0.  0.
        4    1    3    3  502    0  0.14651954769E+02 -0.26067475838E+02 -0.69076883447E+03  0.69141694270E+03  0.12699999809E+01 0.  1.
       -4    1    3    3    0  502 -0.14651954769E+02  0.26067475838E+02  0.28685205619E+03  0.28840927190E+03  0.12699999809E+01 0. -1.
</event>
<event>
 5   0  0.8885324E-03  0.8932422E+03  0.7818609E-02  0.9434069E-01
        1   -1    0    0  501    0  0.00000000000E+00  0.00000000000E+00  0.53286628732E+03  0.53286628735E+03  0.50400001928E-02 0.  1.
       -1   -1    0    0    0  501  0.00000000000E+00  0.00000000000E+00 -0.37433484207E+03  0.37433484211E+03  0.50400001928E-02 0. -1.
    10030    2    1    2    0    0  0.00000000000E+00  0.00000000000E+00  0.15853144525E+03  0.90720112945E+03  0.89324222367E+03 0.  0.
        2    1    3    3  502    0  0.96935451866E+02 -0.34738714382E+03 -0.18828239227E+03  0.40684710736E+03  0.25500000920E-02 0. -1.
       -2    1    3    3    0  502 -0.96935451866E+02  0.34738714382E+03  0.34681383752E+03  0.50035402209E+03  0.25500000920E-02 0.  1.
</event>
<event>
 5   0  0.1454652E-02  0.7825555E+03  0.7818609E-02  0.9585616E-01
       -2   -1    0    0    0  501  0.00000000000E+00  0.00000000000E+00  0.16961322754E+03  0.16961322756E+03  0.25500000920E-02 0. -1.
        2   -1    0    0  501    0  0.00000000000E+00  0.00000000000E+00 -0.90263177378E+03  0.90263177379E+03  0.25500000920E-02 0.  1.
    10030    2    1    2    0    0  0.00000000000E+00  0.00000000000E+00 -0.73301854624E+03  0.10722450014E+04  0.78255552761E+03 0.  0.
        4    1    3    3  502    0 -0.17128436218E+03  0.53922053022E+02  0.10981591852E+03  0.21049244497E+03  0.12699999809E+01 0. -1.
       -4    1    3    3    0  502  0.17128436218E+03 -0.53922053022E+02 -0.84283446476E+03  0.86175255638E+03  0.12699999809E+01 0.  1.
</event>
<event>
 5   0  0.1454652E-02  0.7735231E+03  0.7818609E-02  0.9599152E-01
        2   -1    0    0  501    0  0.00000000000E+00  0.00000000000E+00  0.39886943604E+03  0.39886943605E+03  0.25500000920E-02 0. -1.
       -2   -1    0    0    0  501  0.00000000000E+00  0.00000000000E+00 -0.37502116546E+03  0.37502116547E+03  0.25500000920E-02 0.  1.
    10030    2    1    2    0    0  0.00000000000E+00  0.00000000000E+00  0.23848270579E+02  0.77389060151E+03  0.77352305919E+03 0.  0.
        4    1    3    3  502    0  0.14133721809E+03 -0.22058598818E+03 -0.27272551724E+03  0.37817351580E+03  0.12699999809E+01 0.  1.
       -4    1    3    3    0  502 -0.14133721809E+03  0.22058598818E+03  0.29657378782E+03  0.39571708571E+03  0.12699999809E+01 0. -1.
</event>
<event>
 5   0  0.8612969E-03  0.8634069E+03  0.7818609E-02  0.9472517E-01
       -1   -1    0    0    0  501  0.00000000000E+00  0.00000000000E+00  0.25513144453E+03  0.25513144458E+03  0.50400001928E-02 0. -1.
        1   -1    0    0  501    0  0.00000000000E+00  0.00000000000E+00 -0.73047790258E+03  0.73047790259E+03  0.50400001928E-02 0.  1.
    10030    2    1    2    0    0  0.00000000000E+00  0.00000000000E+00 -0.47534645804E+03  0.98560934718E+03  0.86340693191E+03 0.  0.
        4    1    3    3  502    0  0.38852944207E+03  0.18403777203E+03 -0.19285811344E+03  0.47119093127E+03  0.12699999809E+01 0.  1.
       -4    1    3    3    0  502 -0.38852944207E+03 -0.18403777203E+03 -0.28248834461E+03  0.51441841591E+03  0.12699999809E+01 0. -1.
</event>
<event>
 5   0  0.8885324E-03  0.9519580E+03  0.7818609E-02  0.9362865E-01
        1   -1    0    0  501    0  0.00000000000E+00  0.00000000000E+00  0.13429673395E+04  0.13429673395E+04  0.50400001928E-02 0. -1.
       -1   -1    0    0    0  501  0.00000000000E+00  0.00000000000E+00 -0.16869808177E+03  0.16869808185E+03  0.50400001928E-02 0.  1.
    10030    2    1    2    0    0  0.00000000000E+00  0.00000000000E+00  0.11742692577E+04  0.15116654213E+04  0.95195801193E+03 0.  0.
        2    1    3    3  502    0  0.36321279509E+03 -0.30020724742E+03  0.48051575584E+03  0.67301063702E+03  0.25500000920E-02 0.  1.
       -2    1    3    3    0  502 -0.36321279509E+03  0.30020724742E+03  0.69375350186E+03  0.83865478433E+03  0.25500000920E-02 0. -1.
</event>
<event>
 5   0  0.1441195E-02  0.8991977E+03  0.7818609E-02  0.9426585E-01
       -2   -1    0    0    0  501  0.00000000000E+00  0.00000000000E+00  0.12445597374E+03  0.12445597377E+03  0.25500000920E-02 0. -1.
        2   -1    0    0  501    0  0.00000000000E+00  0.00000000000E+00 -0.16241817274E+04  0.16241817274E+04  0.25500000920E-02 0.  1.
    10030    2    1    2    0    0  0.00000000000E+00  0.00000000000E+00 -0.14997257537E+04  0.17486377012E+04  0.89919768338E+03 0.  0.
        5    1    3    3  502    0 -0.16209012542E+03  0.16246181576E+03 -0.15016460247E+04  0.15190885174E+04  0.46999998093E+01 0.  1.
       -5    1    3    3    0  502  0.16209012542E+03 -0.16246181576E+03  0.19202709783E+01  0.22954918379E+03  0.46999998093E+01 0. -1.
</event>
<event>
 5   0  0.1441195E-02  0.9076727E+03  0.7818609E-02  0.9416041E-01
        2   -1    0    0  501    0  0.00000000000E+00  0.00000000000E+00  0.10191144206E+04  0.10191144206E+04  0.25500000920E-02 0.  1.
       -2   -1    0    0    0  501  0.00000000000E+00  0.00000000000E+00 -0.20210434568E+03  0.20210434570E+03  0.25500000920E-02 0. -1.
    10030    2    1    2    0    0  0.00000000000E+00  0.00000000000E+00  0.81701007492E+03  0.12212187663E+04  0.90767274536E+03 0.  0.
        5    1    3    3  502    0  0.45300579211E+03  0.23207618206E+02  0.42717331681E+03  0.62309868706E+03  0.46999998093E+01 0.  1.
       -5    1    3    3    0  502 -0.45300579211E+03 -0.23207618206E+02  0.38983675812E+03  0.59812007925E+03  0.46999998093E+01 0. -1.
</event>
<event>
 5   0  0.8738044E-03  0.8993936E+03  0.7818609E-02  0.9426340E-01
        1   -1    0    0  501    0  0.00000000000E+00  0.00000000000E+00  0.33181689928E+03  0.33181689932E+03  0.50400001928E-02 0. -1.
       -1   -1    0    0    0  501  0.00000000000E+00  0.00000000000E+00 -0.60945418317E+03  0.60945418319E+03  0.50400001928E-02 0.  1.
    10030    2    1    2    0    0  0.00000000000E+00  0.00000000000E+00 -0.27763728389E+03  0.94127108252E+03  0.89939356756E+03 0.  0.
        3    1    3    3  502    0  0.22743438360E+03  0.18644227012E+02  0.26671996796E+03  0.35101788779E+03  0.10100000352E+00 0. -1.
       -3    1    3    3    0  502 -0.22743438360E+03 -0.18644227012E+02 -0.54435725185E+03  0.59025319472E+03  0.10100000352E+00 0.  1.
</event>
<event>
 5   0  0.1535906E-02  0.9117293E+03  0.7818609E-02  0.9411037E-01
       -2   -1    0    0    0  501  0.00000000000E+00  0.00000000000E+00  0.11866086444E+03  0.11866086446E+03  0.25500000920E-02 0. -1.
        2   -1    0    0  501    0  0.00000000000E+00  0.00000000000E+00 -0.17513150411E+04  0.17513150411E+04  0.25500000920E-02 0.  1.
    10030    2    1    2    0    0  0.00000000000E+00  0.00000000000E+00 -0.16326541767E+04  0.18699759056E+04  0.91172925083E+03 0.  0.
        2    1    3    3  502    0 -0.41544565465E+03  0.15562642926E+03 -0.10314192557E+04  0.11227824182E+04  0.25500000920E-02 0.  1.
       -2    1    3    3    0  502  0.41544565465E+03 -0.15562642926E+03 -0.60123492093E+03  0.74719348739E+03  0.25500000920E-02 0. -1.
</event>
<event>
 5   0  0.8612969E-03  0.9079997E+03  0.7818609E-02  0.9415636E-01
        1   -1    0    0  501    0  0.00000000000E+00  0.00000000000E+00  0.74568559113E+03  0.74568559115E+03  0.50400001928E-02 0. -1.
       -1   -1    0    0    0  501  0.00000000000E+00  0.00000000000E+00 -0.27641123563E+03  0.27641123567E+03  0.50400001928E-02 0.  1.
    10030    2    1    2    0    0  0.00000000000E+00  0.00000000000E+00  0.46927435550E+03  0.10220968268E+04  0.90799972614E+03 0.  0.
        4    1    3    3  502    0 -0.31207661153E+03 -0.32426601511E+03  0.30193232744E+03  0.54194557224E+03  0.12699999809E+01 0. -1.
       -4    1    3    3    0  502  0.31207661153E+03  0.32426601511E+03  0.16734202806E+03  0.48015125458E+03  0.12699999809E+01 0.  1.
</event>
<event>
 5   0  0.1440615E-02  0.9078217E+03  0.7818609E-02  0.9415856E-01
       -2   -1    0    0    0  501  0.00000000000E+00  0.00000000000E+00  0.17161901454E+03  0.17161901456E+03  0.25500000920E-02 0.  1.
        2   -1    0    0  501    0  0.00000000000E+00  0.00000000000E+00 -0.12005375249E+04  0.12005375249E+04  0.25500000920E-02 0. -1.
    10030    2    1    2    0    0  0.00000000000E+00  0.00000000000E+00 -0.10289185103E+04  0.13721565395E+04  0.90782171589E+03 0.  0.
        3    1    3    3  502    0  0.26471534913E+03  0.23226563402E+03 -0.81600897024E+02  0.36149724398E+03  0.10100000352E+00 0.  1.
       -3    1    3    3    0  502 -0.26471534913E+03 -0.23226563402E+03 -0.94731761332E+03  0.10106592955E+04  0.10100000352E+00 0. -1.
</event>
<event>
 5   0  0.5770125E-03  0.8267002E+03  0.7818609E-02  0.9522154E-01
       -4   -1    0    0    0  501  0.00000000000E+00  0.00000000000E+00  0.55837821095E+03  0.55837965522E+03  0.12699999809E+01 0.  1.
        4   -1    0    0  501    0  0.00000000000E+00  0.00000000000E+00 -0.30598714008E+03  0.30598977563E+03  0.12699999809E+01 0. -1.
    10030    2    1    2    0    0  0.00000000000E+00  0.00000000000E+00  0.25239107087E+03  0.86436943085E+03  0.82670022398E+03 0.  0.
        2    1    3    3  502    0 -0.27057822831E+03 -0.35357320134E+02 -0.19842795530E+03  0.33739645993E+03  0.25500000920E-02 0. -1.
       -2    1    3    3    0  502  0.27057822831E+03  0.35357320134E+02  0.45081902617E+03  0.52697297092E+03  0.25500000920E-02 0.  1.
</event>
<event>
 5   0  0.1535906E-02  0.8649846E+03  0.7818609E-02  0.9470443E-01
        2   -1    0    0  501    0  0.00000000000E+00  0.00000000000E+00  0.78244128249E+03  0.78244128249E+03  0.25500000920E-02 0.  1.
       -2   -1    0    0    0  501  0.00000000000E+00  0.00000000000E+00 -0.23905894769E+03  0.23905894771E+03  0.25500000920E-02 0. -1.
    10030    2    1    2    0    0  0.00000000000E+00  0.00000000000E+00  0.54338233479E+03  0.10215002302E+04  0.86498460017E+03 0.  0.
        2    1    3    3  502    0 -0.11264176263E+03  0.11357209450E+03  0.74622407626E+03  0.76317570673E+03  0.25500000920E-02 0.  1.
       -2    1    3    3    0  502  0.11264176263E+03 -0.11357209450E+03 -0.20284174147E+03  0.25832452347E+03  0.25500000920E-02 0. -1.
</event>
<event>
 5   0  0.8738044E-03  0.8929706E+03  0.7818609E-02  0.9434411E-01
       -1   -1    0    0    0  501  0.00000000000E+00  0.00000000000E+00  0.67450987654E+03  0.67450987656E+03  0.50400001928E-02 0. -1.
        1   -1    0    0  501    0  0.00000000000E+00  0.00000000000E+00 -0.29554662105E+03  0.29554662109E+03  0.50400001928E-02 0.  1.
    10030    2    1    2    0    0  0.00000000000E+00  0.00000000000E+00  0.37896325550E+03  0.97005649765E+03  0.89297058161E+03 0.  0.
        3    1    3    3  502    0 -0.35209356948E+03  0.25878719146E+03  0.89868429536E+02  0.44611325576E+03  0.10100000352E+00 0.  1.
       -3    1    3    3    0  502  0.35209356948E+03 -0.25878719146E+03  0.28909482596E+03  0.52394324190E+03  0.10100000352E+00 0. -1.
</event>
<event>
 5   0  0.1535906E-02  0.8957671E+03  0.7818609E-02  0.9430888E-01
       -2   -1    0    0    0  501  0.00000000000E+00  0.00000000000E+00  0.11123340729E+04  0.11123340729E+04  0.25500000920E-02 0. -1.
        2   -1    0    0  501    0  0.00000000000E+00  0.00000000000E+00 -0.18034119733E+03  0.18034119734E+03  0.25500000920E-02 0.  1.
    10030    2    1    2    0    0  0.00000000000E+00  0.00000000000E+00  0.93199287561E+03  0.12926752703E+04  0.89576706470E+03 0.  0.
        2    1    3    3  502    0  0.25091971597E+02 -0.26016221705E+03 -0.58872358613E+02  0.26791778745E+03  0.25500000920E-02 0.  1.
       -2    1    3    3    0  502 -0.25091971597E+02  0.26016221705E+03  0.99086523422E+03  0.10247574828E+04  0.25500000920E-02 0. -1.
</event>
<event>
 5   0  0.8738044E-03  0.9041692E+03  0.7818609E-02  0.9420385E-01
       -1   -1    0    0    0  501  0.00000000000E+00  0.00000000000E+00  0.67111543697E+03  0.67111543699E+03  0.50400001928E-02 0. -1.
        1   -1    0    0  501    0  0.00000000000E+00  0.00000000000E+00 -0.30453846821E+03  0.30453846825E+03  0.50400001928E-02 0.  1.
    10030    2    1    2    0    0  0.00000000000E+00  0.00000000000E+00  0.36657696876E+03  0.97565390524E+03  0.90416915938E+03 0.  0.
        3    1    3    3  502    0 -0.29061991591E+03  0.34439742130E+03  0.14421905037E+03  0.47314761334E+03  0.10100000352E+00 0. -1.
       -3    1    3    3    0  502  0.29061991591E+03 -0.34439742130E+03  0.22235791839E+03  0.50250629189E+03  0.10100000352E+00 0.  1.
</event>
<event>
 5   0  0.8612969E-03  0.9011301E+03  0.7818609E-02  0.9424170E-01
        1   -1    0    0  501    0  0.00000000000E+00  0.00000000000E+00  0.55328615467E+03  0.55328615469E+03  0.50400001928E-02 0.  1.
       -1   -1    0    0    0  501  0.00000000000E+00  0.00000000000E+00 -0.36691475671E+03  0.36691475674E+03  0.50400001928E-02 0. -1.
    10030    2    1    2    0    0  0.00000000000E+00  0.00000000000E+00  0.18637139796E+03  0.92020091143E+03  0.90113007908E+03 0.  0.
        4    1    3    3  502    0 -0.31588955441E+02  0.44593796544E+03  0.35884783387E+02  0.44849510778E+03  0.12699999809E+01 0.  1.
       -4    1    3    3    0  502  0.31588955441E+02 -0.44593796544E+03  0.15048661457E+03  0.47170580365E+03  0.12699999809E+01 0. -1.
</event>
<event>
 5   0  0.1440615E-02  0.9145845E+03  0.7818609E-02  0.9407532E-01
       -2   -1    0    0    0  501  0.00000000000E+00  0.00000000000E+00  0.21728506947E+03  0.21728506949E+03  0.25500000920E-02 0.  1.
        2   -1    0    0  501    0  0.00000000000E+00  0.00000000000E+00 -0.96240479088E+03  0.96240479089E+03  0.25500000920E-02 0. -1.
    10030    2    1    2    0    0  0.00000000000E+00  0.00000000000E+00 -0.74511972141E+03  0.11796898604E+04  0.91458447802E+03 0.  0.
        3    1    3    3  502    0 -0.25695321780E+03  0.33568918810E+03 -0.59747015971E+03  0.73190353810E+03  0.10100000352E+00 0. -1.
       -3    1    3    3    0  502  0.25695321780E+03 -0.33568918810E+03 -0.14764956170E+03  0.44778632227E+03  0.10100000352E+00 0.  1.
</event>
<event>
 5   0  0.8291252E-03  0.8897088E+03  0.7818609E-02  0.9438538E-01
       -1   -1    0    0    0  501  0.00000000000E+00  0.00000000000E+00  0.48129149324E+03  0.48129149326E+03  0.50400001928E-02 0.  1.
        1   -1    0    0  501    0  0.00000000000E+00  0.00000000000E+00 -0.41117582742E+03  0.41117582745E+03  0.50400001928E-02 0. -1.
    10030    2    1    2    0    0  0.00000000000E+00  0.00000000000E+00  0.70115665819E+02  0.89246732071E+03  0.88970877929E+03 0.  0.
        1    1    3    3  502    0  0.76291512759E+02  0.16326990649E+03 -0.37291927117E+03  0.41418140967E+03  0.50400001928E-02 0. -1.
       -1    1    3    3    0  502 -0.76291512759E+02 -0.16326990649E+03  0.44303493699E+03  0.47828591104E+03  0.50400001928E-02 0.  1.
</event>
<event>
 5   0  0.8885324E-03  0.8956765E+03  0.7818609E-02  0.9431002E-01
       -1   -1    0    0    0  501  0.00000000000E+00  0.00000000000E+00  0.14322694388E+03  0.14322694397E+03  0.50400001928E-02 0.  1.
        1   -1    0    0  501    0  0.00000000000E+00  0.00000000000E+00 -0.14002888999E+04  0.14002888999E+04  0.50400001928E-02 0. -1.
    10030    2    1    2    0    0  0.00000000000E+00  0.00000000000E+00 -0.12570619560E+04  0.15435158439E+04  0.89567650358E+03 0.  0.
        2    1    3    3  502    0  0.27915425185E+03 -0.12815304497E+03 -0.66914085281E+02  0.31436888217E+03  0.25500000920E-02 0.  1.
       -2    1    3    3    0  502 -0.27915425185E+03  0.12815304497E+03 -0.11901478708E+04  0.12291469617E+04  0.25500000920E-02 0. -1.
</event>
<event>
 5   0  0.8885324E-03  0.9037056E+03  0.7818609E-02  0.9420961E-01
        1   -1    0    0  501    0  0.00000000000E+00  0.00000000000E+00  0.21144797914E+04  0.21144797914E+04  0.50400001928E-02 0.  1.
       -1   -1    0    0    0  501  0.00000000000E+00  0.00000000000E+00 -0.96558469539E+02  0.96558469670E+02  0.50400001928E-02 0. -1.
    10030    2    1    2    0    0  0.00000000000E+00  0.00000000000E+00  0.20179213218E+04  0.22110382611E+04  0.90370555532E+03 0.  0.
        2    1    3    3  502    0 -0.11401341646E+03 -0.31529475225E+02  0.20759232115E+04  0.20792908279E+04  0.25500000920E-02 0.  1.
       -2    1    3    3    0  502  0.11401341646E+03  0.31529475225E+02 -0.58001889638E+02  0.13174743318E+03  0.25500000920E-02 0. -1.
</event>
<event>
 5   0  0.1454652E-02  0.8825949E+03  0.7818609E-02  0.9447604E-01
       -2   -1    0    0    0  501  0.00000000000E+00  0.00000000000E+00  0.11409859745E+03  0.11409859748E+03  0.25500000920E-02 0.  1.
        2   -1    0    0  501    0  0.00000000000E+00  0.00000000000E+00 -0.17067994396E+04  0.17067994396E+04  0.25500000920E-02 0. -1.
    10030    2    1    2    0    0  0.00000000000E+00  0.00000000000E+00 -0.15927008422E+04  0.18208980371E+04  0.88259486111E+03 0.  0.
        4    1    3    3  502    0 -0.39320966680E+02  0.28852553978E+03 -0.11225095629E+03  0.31208174509E+03  0.12699999809E+01 0.  1.
       -4    1    3    3    0  502  0.39320966680E+02 -0.28852553978E+03 -0.14804498859E+04  0.15088162920E+04  0.12699999809E+01 0. -1.
</event>
<event>
 5   0  0.8612969E-03  0.9111869E+03  0.7818609E-02  0.9411704E-01
        1   -1    0    0  501    0  0.00000000000E+00  0.00000000000E+00  0.49970318812E+03  0.49970318814E+03  0.50400001928E-02 0.  1.
       -1   -1    0    0    0  501  0.00000000000E+00  0.00000000000E+00 -0.41537733910E+03  0.41537733913E+03  0.50400001928E-02 0. -1.
    10030    2    1    2    0    0  0.00000000000E+00  0.00000000000E+00  0.84325849019E+02  0.91508052727E+03  0.91118687577E+03 0.  0.
        4    1    3    3  502    0  0.31092230861E+02 -0.86222698660E+02  0.49034640674E+03  0.49884094869E+03  0.12699999809E+01 0.  1.
       -4    1    3    3    0  502 -0.31092230861E+02  0.86222698660E+02 -0.40602055772E+03  0.41623957858E+03  0.12699999809E+01 0. -1.
</event>
<event>
 5   0  0.8291252E-03  0.9124049E+03  0.7818609E-02  0.9410206E-01
        1   -1    0    0  501    0  0.00000000000E+00  0.00000000000E+00  0.59017569612E+03  0.59017569614E+03  0.50400001928E-02 0. -1.
       -1   -1    0    0    0  501  0.00000000000E+00  0.00000000000E+00 -0.35264189463E+03  0.35264189467E+03  0.50400001928E-02 0.  1.
    10030    2    1    2    0    0  0.00000000000E+00  0.00000000000E+00  0.23753380148E+03  0.94281759081E+03  0.91240490063E+03 0.  0.
        1    1    3    3  502    0 -0.15331533309E+03  0.37313782384E+03 -0.10136747083E+03  0.41594806299E+03  0.50400001928E-02 0.  1.
       -1    1    3    3    0  502  0.15331533309E+03 -0.37313782384E+03  0.33890127231E+03  0.52686952782E+03  0.50400001928E-02 0. -1.
</event>
<event>
 5   0  0.1441195E-02  0.9955710E+03  0.7818609E-02  0.9313416E-01
        2   -1    0    0  501    0  0.00000000000E+00  0.00000000000E+00  0.77257966681E+03  0.77257966682E+03  0.25500000920E-02 0.  1.
       -2   -1    0    0    0  501  0.00000000000E+00  0.00000000000E+00 -0.32073116848E+03  0.32073116849E+03  0.25500000920E-02 0. -1.
    10030    2    1    2    0    0  0.00000000000E+00  0.00000000000E+00  0.45184849834E+03  0.10933108353E+04  0.99557095033E+03 0.  0.
        5    1    3    3  502    0 -0.92921299989E+02  0.36133729665E+03  0.58777119714E+03  0.69620117791E+03  0.46999998093E+01 0.  1.
       -5    1    3    3    0  502  0.92921299989E+02 -0.36133729665E+03 -0.13592269880E+03  0.39710965739E+03  0.46999998093E+01 0. -1.
</event>
<event>
 5   0  0.1483326E-02  0.9061768E+03  0.7818609E-02  0.9417893E-01
       -2   -1    0    0    0  501  0.00000000000E+00  0.00000000000E+00  0.29266450014E+03  0.29266450015E+03  0.25500000920E-02 0.  1.
        2   -1    0    0  501    0  0.00000000000E+00  0.00000000000E+00 -0.70144861737E+03  0.70144861738E+03  0.25500000920E-02 0. -1.
    10030    2    1    2    0    0  0.00000000000E+00  0.00000000000E+00 -0.40878411723E+03  0.99411311753E+03  0.90617682378E+03 0.  0.
        1    1    3    3  502    0  0.21170324471E+03  0.16518549741E+03  0.19596717910E+03  0.33242690578E+03  0.50400001928E-02 0.  1.
       -1    1    3    3    0  502 -0.21170324471E+03 -0.16518549741E+03 -0.60475129633E+03  0.66168621175E+03  0.50400001928E-02 0. -1.
</event>
<event>
 5   0  0.1483326E-02  0.9136843E+03  0.7818609E-02  0.9408635E-01
        2   -1    0    0  501    0  0.00000000000E+00  0.00000000000E+00  0.10525263668E+04  0.10525263668E+04  0.25500000920E-02 0. -1.
       -2   -1    0    0    0  501  0.00000000000E+00  0.00000000000E+00 -0.19828933983E+03  0.19828933985E+03  0.25500000920E-02 0.  1.
    10030    2    1    2    0    0  0.00000000000E+00  0.00000000000E+00  0.85423702701E+03  0.12508157067E+04  0.91368431846E+03 0.  0.
        1    1    3    3  502    0 -0.15698646894E+02 -0.28051252411E+03  0.92027646357E+03  0.96220709472E+03  0.50400001928E-02 0. -1.
       -1    1    3    3    0  502  0.15698646894E+02  0.28051252411E+03 -0.66039436566E+02  0.28860861198E+03  0.50400001928E-02 0.  1.
</event>
<event>
 5   0  0.5770125E-03  0.8975021E+03  0.7818609E-02  0.9428709E-01
        3   -1    0    0  501    0  0.00000000000E+00  0.00000000000E+00  0.43553048628E+03  0.43553049799E+03  0.10100000352E+00 0.  1.
       -3   -1    0    0    0  501  0.00000000000E+00  0.00000000000E+00 -0.46237289782E+03  0.46237290885E+03  0.10100000352E+00 0. -1.
    10030    2    1    2    0    0  0.00000000000E+00  0.00000000000E+00 -0.26842411540E+02  0.89790340684E+03  0.89750209635E+03 0.  0.
        5    1    3    3  502    0  0.30693590165E+02  0.18253570827E+03  0.39553294172E+03  0.43672620628E+03  0.46999998093E+01 0.  1.
       -5    1    3    3    0  502 -0.30693590165E+02 -0.18253570827E+03 -0.42237535326E+03  0.46117720055E+03  0.46999998093E+01 0. -1.
</event>
<event>
 5   0  0.8738044E-03  0.8079912E+03  0.7818609E-02  0.9548522E-01
       -1   -1    0    0    0  501  0.00000000000E+00  0.00000000000E+00  0.16304181679E+03  0.16304181687E+03  0.50400001928E-02 0. -1.
        1   -1    0    0  501    0  0.00000000000E+00  0.00000000000E+00 -0.10010465105E+04  0.10010465105E+04  0.50400001928E-02 0.  1.
    10030    2    1    2    0    0  0.00000000000E+00  0.00000000000E+00 -0.83800469368E+03  0.11640883273E+04  0.80799119255E+03 0.  0.
        3    1    3    3  502    0  0.10217278988E+02 -0.27111026508E+03 -0.85027400019E+03  0.89250829365E+03  0.10100000352E+00 0.  1.
       -3    1    3    3    0  502 -0.10217278988E+02  0.27111026508E+03  0.12269306516E+02  0.27158003370E+03  0.10100000352E+00 0. -1.
</event>
<event>
 5   0  0.1441195E-02  0.8954200E+03  0.7818609E-02  0.9431325E-01
        2   -1    0    0  501    0  0.00000000000E+00  0.00000000000E+00  0.26598286702E+03  0.26598286704E+03  0.25500000920E-02 0.  1.
       -2   -1    0    0    0  501  0.00000000000E+00  0.00000000000E+00 -0.75359833546E+03  0.75359833546E+03  0.25500000920E-02 0. -1.
    10030    2    1    2    0    0  0.00000000000E+00  0.00000000000E+00 -0.48761546843E+03  0.10195812025E+04  0.89542000392E+03 0.  0.
        5    1    3    3  502    0 -0.21436493520E+03 -0.19402228036E+03  0.14538369403E+03  0.32365951122E+03  0.46999998093E+01 0.  1.
       -5    1    3    3    0  502  0.21436493520E+03  0.19402228036E+03 -0.63299916246E+03  0.69592169127E+03  0.46999998093E+01 0. -1.
</event>
<event>
 5   0  0.1535906E-02  0.8681423E+03  0.7818609E-02  0.9466305E-01
       -2   -1    0    0    0  501  0.00000000000E+00  0.00000000000E+00  0.52929589135E+03  0.52929589136E+03  0.25500000920E-02 0.  1.
        2   -1    0    0  501    0  0.00000000000E+00  0.00000000000E+00 -0.35597811530E+03  0.35597811531E+03  0.25500000920E-02 0. -1.
    10030    2    1    2    0    0  0.00000000000E+00  0.00000000000E+00  0.17331777605E+03  0.88527400667E+03  0.86814227831E+03 0.  0.
        2    1    3    3  502    0  0.68981417010E+02  0.29137360655E+03  0.40712268362E+03  0.50537698207E+03  0.25500000920E-02 0.  1.
       -2    1    3    3    0  502 -0.68981417010E+02 -0.29137360655E+03 -0.23380490757E+03  0.37989702459E+03  0.25500000920E-02 0. -1.
</event>
<event>
 5   0  0.8524692E-03  0.9092325E+03  0.7818609E-02  0.9414113E-01
       -1   -1    0    0    0  501  0.00000000000E+00  0.00000000000E+00  0.26481695523E+03  0.26481695528E+03  0.50400001928E-02 0.  1.
        1   -1    0    0  501    0  0.00000000000E+00  0.00000000000E+00 -0.78044832902E+03  0.78044832904E+03  0.50400001928E-02 0. -1.
    10030    2    1    2    0    0  0.00000000000E+00  0.00000000000E+00 -0.51563137379E+03  0.10452652843E+04  0.90923253405E+03 0.  0.
        5    1    3    3  502    0  0.36902499137E+03  0.20998339312E+03 -0.44453979839E+03  0.61474400525E+03  0.46999998093E+01 0. -1.
       -5    1    3    3    0  502 -0.36902499137E+03 -0.20998339312E+03 -0.71091575402E+02  0.43052127907E+03  0.46999998093E+01 0.  1.
</event>
<event>
 5   0  0.1483326E-02  0.9024197E+03  0.7818609E-02  0.9422562E-01
       -2   -1    0    0    0  501  0.00000000000E+00  0.00000000000E+00  0.23868906302E+03  0.23868906303E+03  0.25500000920E-02 0.  1.
        2   -1    0    0  501    0  0.00000000000E+00  0.00000000000E+00 -0.85295211562E+03  0.85295211562E+03  0.25500000920E-02 0. -1.
    10030    2    1    2    0    0  0.00000000000E+00  0.00000000000E+00 -0.61426305260E+03  0.10916411787E+04  0.90241972781E+03 0.  0.
        1    1    3    3  502    0 -0.10735176828E+03  0.17571986335E+03 -0.79279821147E+03  0.81910370324E+03  0.50400001928E-02 0. -1.
       -1    1    3    3    0  502  0.10735176828E+03 -0.17571986335E+03  0.17853515887E+03  0.27253747542E+03  0.50400001928E-02 0.  1.
</event>
<event>
 5   0  0.1454652E-02  0.8883753E+03  0.7818609E-02  0.9440231E-01
        2   -1    0    0  501    0  0.00000000000E+00  0.00000000000E+00  0.47466130070E+03  0.47466130071E+03  0.25500000920E-02 0.  1.
       -2   -1    0    0    0  501  0.00000000000E+00  0.00000000000E+00 -0.41567045381E+03  0.41567045382E+03  0.25500000920E-02 0. -1.
    10030    2    1    2    0    0  0.00000000000E+00  0.00000000000E+00  0.58990846892E+02  0.89033175453E+03  0.88837532220E+03 0.  0.
        4    1    3    3  502    0 -0.12953199271E+03  0.32440774200E+03 -0.24548474277E+03  0.42694647444E+03  0.12699999809E+01 0.  1.
       -4    1    3    3    0  502  0.12953199271E+03 -0.32440774200E+03  0.30447558966E+03  0.46338528009E+03  0.12699999809E+01 0. -1.
</event>
<event>
 5   0  0.1483326E-02  0.8972118E+03  0.7818609E-02  0.9429073E-01
        2   -1    0    0  501    0  0.00000000000E+00  0.00000000000E+00  0.81963620421E+03  0.81963620421E+03  0.25500000920E-02 0.  1.
       -2   -1    0    0    0  501  0.00000000000E+00  0.00000000000E+00 -0.24553242873E+03  0.24553242874E+03  0.25500000920E-02 0. -1.
    10030    2    1    2    0    0  0.00000000000E+00  0.00000000000E+00  0.57410377548E+03  0.10651686330E+04  0.89721183207E+03 0.  0.
        1    1    3    3  502    0  0.10120987008E+03 -0.15607453227E+02  0.80557402664E+03  0.81205698250E+03  0.50400001928E-02 0.  1.
       -1    1    3    3    0  502 -0.10120987008E+03  0.15607453227E+02 -0.23147025116E+03  0.25311165046E+03  0.50400001928E-02 0. -1.
</event>
<event>
 5   0  0.1535906E-02  0.8713035E+03  0.7818609E-02  0.9462182E-01
       -2   -1    0    0    0  501  0.00000000000E+00  0.00000000000E+00  0.15123800806E+03  0.15123800808E+03  0.25500000920E-02 0. -1.
        2   -1    0    0  501    0  0.00000000000E+00  0.00000000000E+00 -0.12549255712E+04  0.12549255712E+04  0.25500000920E-02 0.  1.
    10030    2    1    2    0    0  0.00000000000E+00  0.00000000000E+00 -0.11036875631E+04  0.14061635792E+04  0.87130349169E+03 0.  0.
        2    1    3    3  502    0  0.35712615802E+03  0.23159608633E+03 -0.40203597323E+03  0.58549873076E+03  0.25500000920E-02 0.  1.
       -2    1    3    3    0  502 -0.35712615802E+03 -0.23159608633E+03 -0.70165158987E+03  0.82066484847E+03  0.25500000920E-02 0. -1.
</event>
<event>
 5   0  0.8885324E-03  0.8973396E+03  0.7818609E-02  0.9428913E-01
       -1   -1    0    0    0  501  0.00000000000E+00  0.00000000000E+00  0.26371012662E+03  0.26371012666E+03  0.50400001928E-02 0. -1.
        1   -1    0    0  501    0  0.00000000000E+00  0.00000000000E+00 -0.76335561452E+03  0.76335561453E+03  0.50400001928E-02 0.  1.
    10030    2    1    2    0    0  0.00000000000E+00  0.00000000000E+00 -0.49964548790E+03  0.10270657412E+04  0.89733963646E+03 0.  0.
        2    1    3    3  502    0  0.30107261389E+03  0.28337467213E+03 -0.50396252242E+02  0.41651615321E+03  0.25500000920E-02 0. -1.
       -2    1    3    3    0  502 -0.30107261389E+03 -0.28337467213E+03 -0.44924923566E+03  0.61054958798E+03  0.25500000920E-02 0.  1.
</event>
<event>
 5   0  0.8885324E-03  0.8994786E+03  0.7818609E-02  0.9426233E-01
       -1   -1    0    0    0  501  0.00000000000E+00  0.00000000000E+00  0.21412810041E+03  0.21412810047E+03  0.50400001928E-02 0.  1.
        1   -1    0    0  501    0  0.00000000000E+00  0.00000000000E+00 -0.94460023679E+03  0.94460023680E+03  0.50400001928E-02 0. -1.
    10030    2    1    2    0    0  0.00000000000E+00  0.00000000000E+00 -0.73047213638E+03  0.11587283373E+04  0.89947863652E+03 0.  0.
        2    1    3    3  502    0  0.11627953767E+02  0.47452973124E+02 -0.94117146755E+03  0.94243871170E+03  0.25500000920E-02 0. -1.
       -2    1    3    3    0  502 -0.11627953767E+02 -0.47452973124E+02  0.21069933117E+03  0.21628962557E+03  0.25500000920E-02 0.  1.
</event>
<event>
 5   0  0.1483326E-02  0.8999159E+03  0.7818609E-02  0.9425687E-01
       -2   -1    0    0    0  501  0.00000000000E+00  0.00000000000E+00  0.24589152230E+03  0.24589152232E+03  0.25500000920E-02 0.  1.
        2   -1    0    0  501    0  0.00000000000E+00  0.00000000000E+00 -0.82338005462E+03  0.82338005463E+03  0.25500000920E-02 0. -1.
    10030    2    1    2    0    0  0.00000000000E+00  0.00000000000E+00 -0.57748853232E+03  0.10692715769E+04  0.89991594068E+03 0.  0.
        1    1    3    3  502    0  0.33812982220E+03 -0.22495419809E+02  0.62976891310E+02  0.34467942996E+03  0.50400001928E-02 0.  1.
       -1    1    3    3    0  502 -0.33812982220E+03  0.22495419809E+02 -0.64046542363E+03  0.72459214698E+03  0.50400001928E-02 0. -1.
</event>
<event>
 5   0  0.8291252E-03  0.8956233E+03  0.7818609E-02  0.9431069E-01
       -1   -1    0    0    0  501  0.00000000000E+00  0.00000000000E+00  0.23154225078E+03  0.23154225084E+03  0.50400001928E-02 0. -1.
        1   -1    0    0  501    0  0.00000000000E+00  0.00000000000E+00 -0.86608501951E+03  0.86608501953E+03  0.50400001928E-02 0.  1.
    10030    2    1    2    0    0  0.00000000000E+00  0.00000000000E+00 -0.63454276873E+03  0.10976272704E+04  0.89562330213E+03 0.  0.
        1    1    3    3  502    0  0.26495067681E+03  0.18036662245E+03  0.66001829022E+02  0.32724183885E+03  0.50400001928E-02 0. -1.
       -1    1    3    3    0  502 -0.26495067681E+03 -0.18036662245E+03 -0.70054459775E+03  0.77038543152E+03  0.50400001928E-02 0.  1.
</event>
<event>
 5   0  0.8524692E-03  0.7940533E+03  0.7818609E-02  0.9568665E-01
        1   -1    0    0  501    0  0.00000000000E+00  0.00000000000E+00  0.85000776264E+03  0.85000776266E+03  0.50400001928E-02 0.  1.
       -1   -1    0    0    0  501  0.00000000000E+00  0.00000000000E+00 -0.18544557566E+03  0.18544557573E+03  0.50400001928E-02 0. -1.
    10030    2    1    2    0    0  0.00000000000E+00  0.00000000000E+00  0.66456218698E+03  0.10354533384E+04  0.79405334556E+03 0.  0.
        5    1    3    3  502    0  0.10517978358E+03 -0.13684388952E+03  0.79848794176E+03  0.81694193190E+03  0.46999998093E+01 0.  1.
       -5    1    3    3    0  502 -0.10517978358E+03  0.13684388952E+03 -0.13392575477E+03  0.21851140648E+03  0.46999998093E+01 0. -1.
</event>
<event>
 5   0  0.1440615E-02  0.9014072E+03  0.7818609E-02  0.9423824E-01
       -2   -1    0    0    0  501  0.00000000000E+00  0.00000000000E+00  0.30766771780E+03  0.30766771781E+03  0.25500000920E-02 0. -1.
        2   -1    0    0  501    0  0.00000000000E+00  0.00000000000E+00 -0.66023739621E+03  0.66023739621E+03  0.25500000920E-02 0.  1.
    10030    2    1    2    0    0  0.00000000000E+00  0.00000000000E+00 -0.35256967841E+03  0.96790511402E+03  0.90140719524E+03 0.  0.
        3    1    3    3  502    0  0.41408456718E+03 -0.98665950364E+02 -0.33530714727E+03  0.54187811521E+03  0.10100000352E+00 0.  1.
       -3    1    3    3    0  502 -0.41408456718E+03  0.98665950364E+02 -0.17262531139E+02  0.42602699881E+03  0.10100000352E+00 0. -1.
</event>
<event>
 5   0  0.8612969E-03  0.9035092E+03  0.7818609E-02  0.9421205E-01
       -1   -1    0    0    0  501  0.00000000000E+00  0.00000000000E+00  0.57012582670E+03  0.57012582672E+03  0.50400001928E-02 0.  1.
        1   -1    0    0  501    0  0.00000000000E+00  0.00000000000E+00 -0.35795993910E+03  0.35795993914E+03  0.50400001928E-02 0. -1.
    10030    2    1    2    0    0  0.00000000000E+00  0.00000000000E+00  0.21216588759E+03  0.92808576586E+03  0.90350917258E+03 0.  0.
        4    1    3    3  502    0 -0.42642262663E+03 -0.94101147676E+02 -0.12776763903E+02  0.43687085173E+03  0.12699999809E+01 0. -1.
       -4    1    3    3    0  502  0.42642262663E+03  0.94101147676E+02  0.22494265150E+03  0.49121491413E+03  0.12699999809E+01 0.  1.
</event>
<event>
 5   0  0.1535906E-02  0.8970364E+03  0.7818609E-02  0.9429294E-01
       -2   -1    0    0    0  501  0.00000000000E+00  0.00000000000E+00  0.17548865893E+03  0.17548865895E+03  0.25500000920E-02 0. -1.
        2   -1    0    0  501    0  0.00000000000E+00  0.00000000000E+00 -0.11463336492E+04  0.11463336492E+04  0.25500000920E-02 0.  1.
    10030    2    1    2    0    0  0.00000000000E+00  0.00000000000E+00 -0.97084499026E+03  0.13218223082E+04  0.89703635334E+03 0.  0.
        2    1    3    3  502    0 -0.11435293016E+03 -0.68467743363E+02  0.14563305305E+03  0.19741684493E+03  0.25500000920E-02 0. -1.
       -2    1    3    3    0  502  0.11435293016E+03  0.68467743363E+02 -0.11164780433E+04  0.11244054632E+04  0.25500000920E-02 0.  1.
</event>
<event>
 5   0  0.8612969E-03  0.9113595E+03  0.7818609E-02  0.9411492E-01
       -1   -1    0    0    0  501  0.00000000000E+00  0.00000000000E+00  0.35149554657E+03  0.35149554661E+03  0.50400001928E-02 0. -1.
        1   -1    0    0  501    0  0.00000000000E+00  0.00000000000E+00 -0.59074444726E+03  0.59074444728E+03  0.50400001928E-02 0.  1.
    10030    2    1    2    0    0  0.00000000000E+00  0.00000000000E+00 -0.23924890068E+03  0.94223999389E+03  0.91135951721E+03 0.  0.
        4    1    3    3  502    0 -0.12873646676E+03 -0.18172070223E+03  0.29139733758E+03  0.36675538543E+03  0.12699999809E+01 0. -1.
       -4    1    3    3    0  502  0.12873646676E+03  0.18172070223E+03 -0.53064623826E+03  0.57548460846E+03  0.12699999809E+01 0.  1.
</event>
<event>
 5   0  0.8291252E-03  0.8945141E+03  0.7818609E-02  0.9432465E-01
       -1   -1    0    0    0  501  0.00000000000E+00  0.00000000000E+00  0.24204807123E+03  0.24204807128E+03  0.50400001928E-02 0. -1.
        1   -1    0    0  501    0  0.00000000000E+00  0.00000000000E+00 -0.82644271287E+03  0.82644271289E+03  0.50400001928E-02 0.  1.
    10030    2    1    2    0    0  0.00000000000E+00  0.00000000000E+00 -0.58439464164E+03  0.10684907842E+04  0.89451409082E+03 0.  0.
        1    1    3    3  502    0 -0.16176512674E+03  0.16516860253E+02 -0.78988407298E+03  0.80644752568E+03  0.50400001928E-02 0.  1.
       -1    1    3    3    0  502  0.16176512674E+03 -0.16516860253E+02  0.20548943134E+03  0.26204325849E+03  0.50400001928E-02 0. -1.
</event>
<event>
 5   0  0.1441195E-02  0.9461836E+03  0.7818609E-02  0.9369622E-01
       -2   -1    0    0    0  501  0.00000000000E+00  0.00000000000E+00  0.86718822088E+02  0.86718822125E+02  0.25500000920E-02 0.  1.
        2   -1    0    0  501    0  0.00000000000E+00  0.00000000000E+00 -0.25809375523E+04  0.25809375523E+04  0.25500000920E-02 0. -1.
    10030    2    1    2    0    0  0.00000000000E+00  0.00000000000E+00 -0.24942187302E+04  0.26676563745E+04  0.94618362800E+03 0.  0.
        5    1    3    3  502    0 -0.36072486086E+03  0.22860617450E+03 -0.67337608572E+03  0.79739616946E+03  0.46999998093E+01 0.  1.
       -5    1    3    3    0  502  0.36072486086E+03 -0.22860617450E+03 -0.18208426445E+04  0.18702602050E+04  0.46999998093E+01 0. -1.
</event>
<event>
 5   0  0.8738044E-03  0.9071715E+03  0.7818609E-02  0.9416661E-01
        1   -1    0    0  501    0  0.00000000000E+00  0.00000000000E+00  0.35387453740E+03  0.35387453744E+03  0.50400001928E-02 0.  1.
       -1   -1    0    0    0  501  0.00000000000E+00  0.00000000000E+00 -0.58139263941E+03  0.58139263943E+03  0.50400001928E-02 0. -1.
    10030    2    1    2    0    0  0.00000000000E+00  0.00000000000E+00 -0.22751810200E+03  0.93526717687E+03  0.90717154133E+03 0.  0.
        3    1    3    3  502    0  0.16653826015E+03  0.37514735877E+03  0.85273040527E+02  0.41921597599E+03  0.10100000352E+00 0.  1.
       -3    1    3    3    0  502 -0.16653826015E+03 -0.37514735877E+03 -0.31279114253E+03  0.51605120088E+03  0.10100000352E+00 0. -1.
</event>
<event>
 5   0  0.8738044E-03  0.9240329E+03  0.7818609E-02  0.9396028E-01
       -1   -1    0    0    0  501  0.00000000000E+00  0.00000000000E+00  0.27293431589E+03  0.27293431594E+03  0.50400001928E-02 0.  1.
        1   -1    0    0  501    0  0.00000000000E+00  0.00000000000E+00 -0.78209004264E+03  0.78209004266E+03  0.50400001928E-02 0. -1.
    10030    2    1    2    0    0  0.00000000000E+00  0.00000000000E+00 -0.50915572675E+03  0.10550243586E+04  0.92403292320E+03 0.  0.
        3    1    3    3  502    0  0.11635390227E+03 -0.38189296053E+03 -0.52009240439E+03  0.65564974124E+03  0.10100000352E+00 0. -1.
       -3    1    3    3    0  502 -0.11635390227E+03  0.38189296053E+03  0.10936677645E+02  0.39937461736E+03  0.10100000352E+00 0.  1.
</event>
<event>
 5   0  0.1535906E-02  0.8994678E+03  0.7818609E-02  0.9426247E-01
        2   -1    0    0  501    0  0.00000000000E+00  0.00000000000E+00  0.12692390661E+04  0.12692390661E+04  0.25500000920E-02 0. -1.
       -2   -1    0    0    0  501  0.00000000000E+00  0.00000000000E+00 -0.15935578541E+03  0.15935578543E+03  0.25500000920E-02 0.  1.
    10030    2    1    2    0    0  0.00000000000E+00  0.00000000000E+00  0.11098832807E+04  0.14285948516E+04  0.89946781660E+03 0.  0.
        2    1    3    3  502    0  0.31142488677E+03  0.29828072801E+03  0.75774120206E+03  0.87185353249E+03  0.25500000920E-02 0. -1.
       -2    1    3    3    0  502 -0.31142488677E+03 -0.29828072801E+03  0.35214207864E+03  0.55674131906E+03  0.25500000920E-02 0.  1.
</event>
<event>
 5   0  0.1454652E-02  0.6778803E+03  0.7818609E-02  0.9755826E-01
       -2   -1    0    0    0  501  0.00000000000E+00  0.00000000000E+00  0.12340415597E+03  0.12340415600E+03  0.25500000920E-02 0.  1.
        2   -1    0    0  501    0  0.00000000000E+00  0.00000000000E+00 -0.93092845596E+03  0.93092845596E+03  0.25500000920E-02 0. -1.
    10030    2    1    2    0    0  0.00000000000E+00  0.00000000000E+00 -0.80752429999E+03  0.10543326120E+04  0.67788034458E+03 0.  0.
        4    1    3    3  502    0  0.14184127247E+02 -0.69658263803E+02 -0.91919954660E+03  0.92194516245E+03  0.12699999809E+01 0. -1.
       -4    1    3    3    0  502 -0.14184127247E+02  0.69658263803E+02  0.11167524662E+03  0.13238744951E+03  0.12699999809E+01 0.  1.
</event>
<event>
 5   0  0.8738044E-03  0.8978695E+03  0.7818609E-02  0.9428249E-01
        1   -1    0    0  501    0  0.00000000000E+00  0.00000000000E+00  0.12298817405E+04  0.12298817405E+04  0.50400001928E-02 0.  1.
       -1   -1    0    0    0  501  0.00000000000E+00  0.00000000000E+00 -0.16387135691E+03  0.16387135699E+03  0.50400001928E-02 0. -1.
    10030    2    1    2    0    0  0.00000000000E+00  0.00000000000E+00  0.10660103836E+04  0.13937530975E+04  0.89786945535E+03 0.  0.
        3    1    3    3  502    0  0.70591358285E+02 -0.17799227564E+03 -0.97304506584E+02  0.21478493256E+03  0.10100000352E+00 0. -1.
       -3    1    3    3    0  502 -0.70591358285E+02  0.17799227564E+03  0.11633148901E+04  0.11789681649E+04  0.10100000352E+00 0.  1.
</event>
<event>
 5   0  0.1535906E-02  0.8936038E+03  0.7818609E-02  0.9433612E-01
        2   -1    0    0  501    0  0.00000000000E+00  0.00000000000E+00  0.19789074804E+03  0.19789074805E+03  0.25500000920E-02 0. -1.
       -2   -1    0    0    0  501  0.00000000000E+00  0.00000000000E+00 -0.10087987816E+04  0.10087987816E+04  0.25500000920E-02 0.  1.
    10030    2    1    2    0    0  0.00000000000E+00  0.00000000000E+00 -0.81090803359E+03  0.12066895297E+04  0.89360381720E+03 0.  0.
        2    1    3    3  502    0 -0.88936960129E+02 -0.28248037359E+02  0.18458540866E+03  0.20683207582E+03  0.25500000920E-02 0. -1.
       -2    1    3    3    0  502  0.88936960129E+02  0.28248037359E+02 -0.99549344225E+03  0.99985745387E+03  0.25500000920E-02 0.  1.
</event>
<event>
 5   0  0.1454652E-02  0.8987565E+03  0.7818609E-02  0.9427137E-01
        2   -1    0    0  501    0  0.00000000000E+00  0.00000000000E+00  0.30737117702E+03  0.30737117703E+03  0.25500000920E-02 0. -1.
       -2   -1    0    0    0  501  0.00000000000E+00  0.00000000000E+00 -0.65699337844E+03  0.65699337845E+03  0.25500000920E-02 0.  1.
    10030    2    1    2    0    0  0.00000000000E+00  0.00000000000E+00 -0.34962220143E+03  0.96436455547E+03  0.89875653662E+03 0.  0.
        4    1    3    3  502    0 -0.86614686531E+02 -0.10611303994E+03 -0.63404591861E+03  0.64867397125E+03  0.12699999809E+01 0.  1.
       -4    1    3    3    0  502  0.86614686531E+02  0.10611303994E+03  0.28442371719E+03  0.31569058422E+03  0.12699999809E+01 0. -1.
</event>
<event>
 5   0  0.1440615E-02  0.8601214E+03  0.7818609E-02  0.9476852E-01
       -2   -1    0    0    0  501  0.00000000000E+00  0.00000000000E+00  0.69666908240E+03  0.69666908240E+03  0.25500000920E-02 0.  1.
        2   -1    0    0  501    0  0.00000000000E+00  0.00000000000E+00 -0.26548072945E+03  0.26548072946E+03  0.25500000920E-02 0. -1.
    10030    2    1    2    0    0  0.00000000000E+00  0.00000000000E+00  0.43118835295E+03  0.96214981186E+03  0.86012142442E+03 0.  0.
        3    1    3    3  502    0 -0.26994902725E+03 -0.79253449883E+02 -0.14825628825E+03  0.31801497423E+03  0.10100000352E+00 0. -1.
       -3    1    3    3    0  502  0.26994902725E+03  0.79253449883E+02  0.57944464120E+03  0.64413483763E+03  0.10100000352E+00 0.  1.
</event>
<event>
 5   0  0.8738044E-03  0.9104436E+03  0.7818609E-02  0.9412620E-01
       -1   -1    0    0    0  501  0.00000000000E+00  0.00000000000E+00  0.49150627593E+03  0.49150627595E+03  0.50400001928E-02 0. -1.
        1   -1    0    0  501    0  0.00000000000E+00  0.00000000000E+00 -0.42161596817E+03  0.42161596820E+03  0.50400001928E-02 0.  1.
    10030    2    1    2    0    0  0.00000000000E+00  0.00000000000E+00  0.69890307759E+02  0.91312224415E+03  0.91044361585E+03 0.  0.
        3    1    3    3  502    0  0.22450952802E+03 -0.33653625393E+03 -0.17439293014E+03  0.44053840090E+03  0.10100000352E+00 0.  1.
       -3    1    3    3    0  502 -0.22450952802E+03  0.33653625393E+03  0.24428323790E+03  0.47258384325E+03  0.10100000352E+00 0. -1.
</event>
<event>
 5   0  0.1535906E-02  0.9071406E+03  0.7818609E-02  0.9416699E-01
        2   -1    0    0  501    0  0.00000000000E+00  0.00000000000E+00  0.11741208931E+04  0.11741208931E+04  0.25500000920E-02 0. -1.
       -2   -1    0    0    0  501  0.00000000000E+00  0.00000000000E+00 -0.17521707820E+03  0.17521707822E+03  0.25500000920E-02 0.  1.
    10030    2    1    2    0    0  0.00000000000E+00  0.00000000000E+00  0.99890381494E+03  0.13493379714E+04  0.90714063378E+03 0.  0.
        2    1    3    3  502    0 -0.39534268401E+03 -0.14107329065E+03  0.75505550977E+03  0.86389023260E+03  0.25500000920E-02 0. -1.
       -2    1    3    3    0  502  0.39534268401E+03  0.14107329065E+03  0.24384830517E+03  0.48544773877E+03  0.25500000920E-02 0.  1.
</event>
<event>
 5   0  0.8524692E-03  0.8906426E+03  0.7818609E-02  0.9437355E-01
        1   -1    0    0  501    0  0.00000000000E+00  0.00000000000E+00  0.13038916861E+04  0.13038916861E+04  0.50400001928E-02 0. -1.
       -1   -1    0    0    0  501  0.00000000000E+00  0.00000000000E+00 -0.15209165655E+03  0.15209165663E+03  0.50400001928E-02 0.  1.
    10030    2    1    2    0    0  0.00000000000E+00  0.00000000000E+00  0.11518000295E+04  0.14559833427E+04  0.89064256930E+03 0.  0.
        5    1    3    3  502    0 -0.42663182099E+03  0.29943911246E+02  0.77862036660E+03  0.88835978848E+03  0.46999998093E+01 0. -1.
       -5    1    3    3    0  502  0.42663182099E+03 -0.29943911246E+02  0.37317966295E+03  0.56762355425E+03  0.46999998093E+01 0.  1.
</event>
<event>
 5   0  0.8612969E-03  0.8866915E+03  0.7818609E-02  0.9442372E-01
        1   -1    0    0  501    0  0.00000000000E+00  0.00000000000E+00  0.17593600950E+04  0.17593600950E+04  0.50400001928E-02 0.  1.
       -1   -1    0    0    0  501  0.00000000000E+00  0.00000000000E+00 -0.11171986252E+03  0.11171986263E+03  0.50400001928E-02 0. -1.
    10030    2    1    2    0    0  0.00000000000E+00  0.00000000000E+00  0.16476402324E+04  0.18710799576E+04  0.88669153157E+03 0.  0.
        4    1    3    3  502    0 -0.14719652707E+03 -0.12357948696E+03 -0.19236689143E+02  0.19315892495E+03  0.12699999809E+01 0. -1.
       -4    1    3    3    0  502  0.14719652707E+03  0.12357948696E+03  0.16668769216E+04  0.16779210326E+04  0.12699999809E+01 0.  1.
</event>
<event>
 5   0  0.1535906E-02  0.9049355E+03  0.7818609E-02  0.9419433E-01
        2   -1    0    0  501    0  0.00000000000E+00  0.00000000000E+00  0.10858806373E+04  0.10858806373E+04  0.25500000920E-02 0. -1.
       -2   -1    0    0    0  501  0.00000000000E+00  0.00000000000E+00 -0.18853553013E+03  0.18853553015E+03  0.25500000920E-02 0.  1.
    10030    2    1    2    0    0  0.00000000000E+00  0.00000000000E+00  0.89734510719E+03  0.12744161675E+04  0.90493553721E+03 0.  0.
        2    1    3    3  502    0 -0.35935948332E+03 -0.13427452241E+03  0.11080443322E+03  0.39930753568E+03  0.25500000920E-02 0. -1.
       -2    1    3    3    0  502  0.35935948332E+03  0.13427452241E+03  0.78654067397E+03  0.87510863179E+03  0.25500000920E-02 0.  1.
</event>
<event>
 5   0  0.8738044E-03  0.9118294E+03  0.7818609E-02  0.9410914E-01
       -1   -1    0    0    0  501  0.00000000000E+00  0.00000000000E+00  0.17255962036E+03  0.17255962043E+03  0.50400001928E-02 0. -1.
        1   -1    0    0  501    0  0.00000000000E+00  0.00000000000E+00 -0.12045589095E+04  0.12045589095E+04  0.50400001928E-02 0.  1.
    10030    2    1    2    0    0  0.00000000000E+00  0.00000000000E+00 -0.10319992891E+04  0.13771185299E+04  0.91182943179E+03 0.  0.
        3    1    3    3  502    0  0.94544595979E+02  0.21826699429E+03 -0.11034174677E+04  0.11287644926E+04  0.10100000352E+00 0.  1.
       -3    1    3    3    0  502 -0.94544595979E+02 -0.21826699429E+03  0.71418178603E+02  0.24835403734E+03  0.10100000352E+00 0. -1.
</event>
<event>
 5   0  0.8738044E-03  0.9482906E+03  0.7818609E-02  0.9367151E-01
        1   -1    0    0  501    0  0.00000000000E+00  0.00000000000E+00  0.36666085208E+03  0.36666085211E+03  0.50400001928E-02 0. -1.
       -1   -1    0    0    0  501  0.00000000000E+00  0.00000000000E+00 -0.61313820460E+03  0.61313820462E+03  0.50400001928E-02 0.  1.
    10030    2    1    2    0    0  0.00000000000E+00  0.00000000000E+00 -0.24647735252E+03  0.97979905673E+03  0.94829062331E+03 0.  0.
        3    1    3    3  502    0 -0.25411485114E+03 -0.57498797168E+02 -0.53254938799E+03  0.59286535579E+03  0.10100000352E+00 0.  1.
       -3    1    3    3    0  502  0.25411485114E+03  0.57498797168E+02  0.28607203547E+03  0.38693370094E+03  0.10100000352E+00 0. -1.
</event>
<event>
 5   0  0.8738044E-03  0.8962332E+03  0.7818609E-02  0.9430302E-01
        1   -1    0    0  501    0  0.00000000000E+00  0.00000000000E+00  0.94814129163E+03  0.94814129164E+03  0.50400001928E-02 0.  1.
       -1   -1    0    0    0  501  0.00000000000E+00  0.00000000000E+00 -0.21179174371E+03  0.21179174377E+03  0.50400001928E-02 0. -1.
    10030    2    1    2    0    0  0.00000000000E+00  0.00000000000E+00  0.73634954792E+03  0.11599330354E+04  0.89623322294E+03 0.  0.
        3    1    3    3  502    0 -0.19684986068E+03 -0.35826992824E+03  0.13058099528E+03  0.42913705929E+03  0.10100000352E+00 0. -1.
       -3    1    3    3    0  502  0.19684986068E+03  0.35826992824E+03  0.60576855264E+03  0.73079597611E+03  0.10100000352E+00 0.  1.
</event>
<event>
 5   0  0.8885324E-03  0.8978223E+03  0.7818609E-02  0.9428308E-01
       -1   -1    0    0    0  501  0.00000000000E+00  0.00000000000E+00  0.56411354753E+03  0.56411354756E+03  0.50400001928E-02 0.  1.
        1   -1    0    0  501    0  0.00000000000E+00  0.00000000000E+00 -0.35723522181E+03  0.35723522184E+03  0.50400001928E-02 0. -1.
    10030    2    1    2    0    0  0.00000000000E+00  0.00000000000E+00  0.20687832572E+03  0.92134876940E+03  0.89782231718E+03 0.  0.
        2    1    3    3  502    0 -0.43134203393E+03  0.89600410805E+02  0.19193724360E+03  0.48054561629E+03  0.25500000920E-02 0.  1.
       -2    1    3    3    0  502  0.43134203393E+03 -0.89600410805E+02  0.14941082122E+02  0.44080315311E+03  0.25500000920E-02 0. -1.
</event>
<event>
 5   0  0.1441195E-02  0.9056312E+03  0.7818609E-02  0.9418569E-01
        2   -1    0    0  501    0  0.00000000000E+00  0.00000000000E+00  0.15184938718E+04  0.15184938718E+04  0.25500000920E-02 0.  1.
       -2   -1    0    0    0  501  0.00000000000E+00  0.00000000000E+00 -0.13502983580E+03  0.13502983583E+03  0.25500000920E-02 0. -1.
    10030    2    1    2    0    0  0.00000000000E+00  0.00000000000E+00  0.13834640360E+04  0.16535237076E+04  0.90563122339E+03 0.  0.
        5    1    3    3  502    0  0.41893516106E+03  0.70485046713E+02  0.97778154904E+03  0.10660927064E+04  0.46999998093E+01 0.  1.
       -5    1    3    3    0  502 -0.41893516106E+03 -0.70485046713E+02  0.40568248694E+03  0.58743100122E+03  0.46999998093E+01 0. -1.
</event>
<event>
 5   0  0.8612969E-03  0.9010522E+03  0.7818609E-02  0.9424267E-01
        1   -1    0    0  501    0  0.00000000000E+00  0.00000000000E+00  0.26312439525E+03  0.26312439530E+03  0.50400001928E-02 0. -1.
       -1   -1    0    0    0  501  0.00000000000E+00  0.00000000000E+00 -0.77139854817E+03  0.77139854819E+03  0.50400001928E-02 0.  1.
    10030    2    1    2    0    0  0.00000000000E+00  0.00000000000E+00 -0.50827415293E+03  0.10345229435E+04  0.90105222161E+03 0.  0.
        4    1    3    3  502    0 -0.26735239031E+03  0.35641927679E+03 -0.33081414285E+03  0.55493388028E+03  0.12699999809E+01 0.  1.
       -4    1    3    3    0  502  0.26735239031E+03 -0.35641927679E+03 -0.17746001008E+03  0.47958906321E+03  0.12699999809E+01 0. -1.
</event>
<event>
 5   0  0.8738044E-03  0.8040359E+03  0.7818609E-02  0.9554194E-01
        1   -1    0    0  501    0  0.00000000000E+00  0.00000000000E+00  0.73378377781E+03  0.73378377783E+03  0.50400001928E-02 0.  1.
       -1   -1    0    0    0  501  0.00000000000E+00  0.00000000000E+00 -0.22025349114E+03  0.22025349120E+03  0.50400001928E-02 0. -1.
    10030    2    1    2    0    0  0.00000000000E+00  0.00000000000E+00  0.51353028667E+03  0.95403726903E+03  0.80403591671E+03 0.  0.
        3    1    3    3  502    0 -0.56741833043E+02  0.31227712127E+03  0.54953988517E+03  0.63461069301E+03  0.10100000352E+00 0.  1.
       -3    1    3    3    0  502  0.56741833043E+02 -0.31227712127E+03 -0.36009598499E+02  0.31942657602E+03  0.10100000352E+00 0. -1.
</event>
<event>
 5   0  0.1535906E-02  0.7914121E+03  0.7818609E-02  0.9572532E-01
        2   -1    0    0  501    0  0.00000000000E+00  0.00000000000E+00  0.86673159563E+03  0.86673159564E+03  0.25500000920E-02 0. -1.
       -2   -1    0    0    0  501  0.00000000000E+00  0.00000000000E+00 -0.18065946841E+03  0.18065946843E+03  0.25500000920E-02 0.  1.
    10030    2    1    2    0    0  0.00000000000E+00  0.00000000000E+00  0.68607212722E+03  0.10473910641E+04  0.79141207808E+03 0.  0.
        2    1    3    3  502    0  0.27710508966E+03 -0.28247220643E+03  0.34613733670E+03  0.52572695764E+03  0.25500000920E-02 0. -1.
       -2    1    3    3    0  502 -0.27710508966E+03  0.28247220643E+03  0.33993479052E+03  0.52166410643E+03  0.25500000920E-02 0.  1.
</event>
<event>
 5   0  0.5770125E-03  0.8982467E+03  0.7818609E-02  0.9427776E-01
        4   -1    0    0  501    0  0.00000000000E+00  0.00000000000E+00  0.57243601524E+03  0.57243742405E+03  0.12699999809E+01 0.  1.
       -4   -1    0    0    0  501  0.00000000000E+00  0.00000000000E+00 -0.35237142339E+03  0.35237371202E+03  0.12699999809E+01 0. -1.
    10030    2    1    2    0    0  0.00000000000E+00  0.00000000000E+00  0.22006459185E+03  0.92481113606E+03  0.89824674383E+03 0.  0.
        3    1    3    3  502    0  0.35278892108E+03  0.13589818523E+03 -0.13959090469E+03  0.40300616677E+03  0.10100000352E+00 0. -1.
       -3    1    3    3    0  502 -0.35278892108E+03 -0.13589818523E+03  0.35965549654E+03  0.52180496929E+03  0.10100000352E+00 0.  1.
</event>
<event>
 5   0  0.1441195E-02  0.9082217E+03  0.7818609E-02  0.9415362E-01
       -2   -1    0    0    0  501  0.00000000000E+00  0.00000000000E+00  0.15217689930E+03  0.15217689932E+03  0.25500000920E-02 0.  1.
        2   -1    0    0  501    0  0.00000000000E+00  0.00000000000E+00 -0.13551114329E+04  0.13551114329E+04  0.25500000920E-02 0. -1.
    10030    2    1    2    0    0  0.00000000000E+00  0.00000000000E+00 -0.12029345336E+04  0.15072883323E+04  0.90822168239E+03 0.  0.
        5    1    3    3  502    0 -0.35648451244E+03 -0.16764864838E+03 -0.22664913375E+03  0.45450984229E+03  0.46999998093E+01 0.  1.
       -5    1    3    3    0  502  0.35648451244E+03  0.16764864838E+03 -0.97628539988E+03  0.10527784900E+04  0.46999998093E+01 0. -1.
</event>
<event>
 5   0  0.8291252E-03  0.9207529E+03  0.7818609E-02  0.9400005E-01
        1   -1    0    0  501    0  0.00000000000E+00  0.00000000000E+00  0.14755788164E+04  0.14755788164E+04  0.50400001928E-02 0.  1.
       -1   -1    0    0    0  501  0.00000000000E+00  0.00000000000E+00 -0.14363614995E+03  0.14363615004E+03  0.50400001928E-02 0. -1.
    10030    2    1    2    0    0  0.00000000000E+00  0.00000000000E+00  0.13319426665E+04  0.16192149665E+04  0.92075286636E+03 0.  0.
        1    1    3    3  502    0 -0.88545408783E+02  0.18835143074E+03 -0.56180857563E+02  0.21557560080E+03  0.50400001928E-02 0. -1.
       -1    1    3    3    0  502  0.88545408783E+02 -0.18835143074E+03  0.13881235240E+04  0.14036393657E+04  0.50400001928E-02 0.  1.
</event>
<event>
 5   0  0.1440615E-02  0.9174995E+03  0.7818609E-02  0.9403967E-01
        2   -1    0    0  501    0  0.00000000000E+00  0.00000000000E+00  0.48304744041E+03  0.48304744042E+03  0.25500000920E-02 0. -1.
       -2   -1    0    0    0  501  0.00000000000E+00  0.00000000000E+00 -0.43567421647E+03  0.43567421647E+03  0.25500000920E-02 0.  1.
    10030    2    1    2    0    0  0.00000000000E+00  0.00000000000E+00  0.47373223945E+02  0.91872165689E+03  0.91749946076E+03 0.  0.
        3    1    3    3  502    0 -0.42532201008E+03  0.29056622466E+02 -0.14597405051E+03  0.45061239795E+03  0.10100000352E+00 0.  1.
       -3    1    3    3    0  502  0.42532201008E+03 -0.29056622466E+02  0.19334727446E+03  0.46810925894E+03  0.10100000352E+00 0. -1.
</event>
<event>
 5   0  0.1441195E-02  0.8958805E+03  0.7818609E-02  0.9430746E-01
       -2   -1    0    0    0  501  0.00000000000E+00  0.00000000000E+00  0.13698669465E+03  0.13698669467E+03  0.25500000920E-02 0.  1.
        2   -1    0    0  501    0  0.00000000000E+00  0.00000000000E+00 -0.14647441544E+04  0.14647441544E+04  0.25500000920E-02 0. -1.
    10030    2    1    2    0    0  0.00000000000E+00  0.00000000000E+00 -0.13277574597E+04  0.16017308491E+04  0.89588048362E+03 0.  0.
        5    1    3    3  502    0 -0.88818562948E+02 -0.42742377838E+03 -0.84310063673E+03  0.94943172325E+03  0.46999998093E+01 0. -1.
       -5    1    3    3    0  502  0.88818562948E+02  0.42742377838E+03 -0.48465682300E+03  0.65229912580E+03  0.46999998093E+01 0.  1.
</event>
<event>
 5   0  0.8291252E-03  0.8967916E+03  0.7818609E-02  0.9429601E-01
       -1   -1    0    0    0  501  0.00000000000E+00  0.00000000000E+00  0.36314851267E+03  0.36314851270E+03  0.50400001928E-02 0.  1.
        1   -1    0    0  501    0  0.00000000000E+00  0.00000000000E+00 -0.55365445452E+03  0.55365445454E+03  0.50400001928E-02 0. -1.
    10030    2    1    2    0    0  0.00000000000E+00  0.00000000000E+00 -0.19050594185E+03  0.91680296724E+03  0.89679159612E+03 0.  0.
        1    1    3    3  502    0  0.26680231231E+03 -0.16732088229E+03  0.23105441403E+03  0.39059684301E+03  0.50400001928E-02 0.  1.
       -1    1    3    3    0  502 -0.26680231231E+03  0.16732088229E+03 -0.42156035588E+03  0.52620612423E+03  0.50400001928E-02 0. -1.
</event>
<event>
 5   0  0.1535906E-02  0.8881467E+03  0.7818609E-02  0.9440521E-01
        2   -1    0    0  501    0  0.00000000000E+00  0.00000000000E+00  0.43964276170E+03  0.43964276171E+03  0.25500000920E-02 0.  1.
       -2   -1    0    0    0  501  0.00000000000E+00  0.00000000000E+00 -0.44854858568E+03  0.44854858569E+03  0.25500000920E-02 0. -1.
    10030    2    1    2    0    0  0.00000000000E+00  0.00000000000E+00 -0.89058239777E+01  0.88819134739E+03  0.88814669728E+03 0.  0.
        2    1    3    3  502    0  0.12107336897E+03 -0.69810653784E+02  0.41707610881E+03  0.43986903574E+03  0.25500000920E-02 0.  1.
       -2    1    3    3    0  502 -0.12107336897E+03  0.69810653784E+02 -0.42598193279E+03  0.44832231165E+03  0.25500000920E-02 0. -1.
</event>
<event>
 5   0  0.1441195E-02  0.8941127E+03  0.7818609E-02  0.9432971E-01
        2   -1    0    0  501    0  0.00000000000E+00  0.00000000000E+00  0.74844952126E+03  0.74844952126E+03  0.25500000920E-02 0.  1.
       -2   -1    0    0    0  501  0.00000000000E+00  0.00000000000E+00 -0.26703120420E+03  0.26703120422E+03  0.25500000920E-02 0. -1.
    10030    2    1    2    0    0  0.00000000000E+00  0.00000000000E+00  0.48141831705E+03  0.10154807255E+04  0.89411269302E+03 0.  0.
        5    1    3    3  502    0  0.37779032442E+03  0.14126501564E+03  0.21785031165E+02  0.40395298174E+03  0.46999998093E+01 0. -1.
       -5    1    3    3    0  502 -0.37779032442E+03 -0.14126501564E+03  0.45963328589E+03  0.61152774374E+03  0.46999998093E+01 0.  1.
</event>
<event>
 5   0  0.8885324E-03  0.8988982E+03  0.7818609E-02  0.9426960E-01
        1   -1    0    0  501    0  0.00000000000E+00  0.00000000000E+00  0.35963697053E+03  0.35963697056E+03  0.50400001928E-02 0.  1.
       -1   -1    0    0    0  501  0.00000000000E+00  0.00000000000E+00 -0.56168998361E+03  0.56168998364E+03  0.50400001928E-02 0. -1.
    10030    2    1    2    0    0  0.00000000000E+00  0.00000000000E+00 -0.20205301309E+03  0.92132695420E+03  0.89889817912E+03 0.  0.
        2    1    3    3  502    0 -0.39268918407E+03  0.21839604605E+03 -0.90631665790E+02  0.45838382069E+03  0.25500000920E-02 0. -1.
       -2    1    3    3    0  502  0.39268918407E+03 -0.21839604605E+03 -0.11142134730E+03  0.46294313351E+03  0.25500000920E-02 0.  1.
</event>
<event>
 5   0  0.1441195E-02  0.8965363E+03  0.7818609E-02  0.9429922E-01
        2   -1    0    0  501    0  0.00000000000E+00  0.00000000000E+00  0.10479855671E+04  0.10479855671E+04  0.25500000920E-02 0. -1.
       -2   -1    0    0    0  501  0.00000000000E+00  0.00000000000E+00 -0.19174340241E+03  0.19174340242E+03  0.25500000920E-02 0.  1.
    10030    2    1    2    0    0  0.00000000000E+00  0.00000000000E+00  0.85624216473E+03  0.12397289696E+04  0.89653626436E+03 0.  0.
        5    1    3    3  502    0  0.47906953958E+02 -0.14919200875E+03 -0.15260306836E+03  0.21877641139E+03  0.46999998093E+01 0.  1.
       -5    1    3    3    0  502 -0.47906953958E+02  0.14919200875E+03  0.10088452331E+04  0.10209525582E+04  0.46999998093E+01 0. -1.
</event>
<event>
 5   0  0.8612969E-03  0.8547857E+03  0.7818609E-02  0.9483936E-01
       -1   -1    0    0    0  501  0.00000000000E+00  0.00000000000E+00  0.24665393942E+03  0.24665393947E+03  0.50400001928E-02 0.  1.
        1   -1    0    0  501    0  0.00000000000E+00  0.00000000000E+00 -0.74057050768E+03  0.74057050769E+03  0.50400001928E-02 0. -1.
    10030    2    1    2    0    0  0.00000000000E+00  0.00000000000E+00 -0.49391656826E+03  0.98722444716E+03  0.85478566476E+03 0.  0.
        4    1    3    3  502    0  0.10889633041E+03  0.28648065058E+03 -0.59099306136E+03  0.66573567233E+03  0.12699999809E+01 0. -1.
       -4    1    3    3    0  502 -0.10889633041E+03 -0.28648065058E+03  0.97076493104E+02  0.32148877483E+03  0.12699999809E+01 0.  1.
</event>
<event>
 5   0  0.8524692E-03  0.9077040E+03  0.7818609E-02  0.9416002E-01
        1   -1    0    0  501    0  0.00000000000E+00  0.00000000000E+00  0.23892435280E+03  0.23892435285E+03  0.50400001928E-02 0. -1.
       -1   -1    0    0    0  501  0.00000000000E+00  0.00000000000E+00 -0.86212064013E+03  0.86212064015E+03  0.50400001928E-02 0.  1.
    10030    2    1    2    0    0  0.00000000000E+00  0.00000000000E+00 -0.62319628733E+03  0.11010449930E+04  0.90770395177E+03 0.  0.
        5    1    3    3  502    0  0.10265240321E+03  0.43922290328E+03 -0.37231181484E+03  0.58488670024E+03  0.46999998093E+01 0.  1.
       -5    1    3    3    0  502 -0.10265240321E+03 -0.43922290328E+03 -0.25088447249E+03  0.51615829276E+03  0.46999998093E+01 0. -1.
</event>
<event>
 5   0  0.8524692E-03  0.8852493E+03  0.7818609E-02  0.9444211E-01
        1   -1    0    0  501    0  0.00000000000E+00  0.00000000000E+00  0.60809541357E+03  0.60809541359E+03  0.50400001928E-02 0.  1.
       -1   -1    0    0    0  501  0.00000000000E+00  0.00000000000E+00 -0.32218062989E+03  0.32218062993E+03  0.50400001928E-02 0. -1.
    10030    2    1    2    0    0  0.00000000000E+00  0.00000000000E+00  0.28591478367E+03  0.93027604352E+03  0.88524926073E+03 0.  0.
        5    1    3    3  502    0 -0.36078723947E+03  0.13688995731E+03  0.37075049982E+03  0.53514887246E+03  0.46999998093E+01 0.  1.
       -5    1    3    3    0  502  0.36078723947E+03 -0.13688995731E+03 -0.84835716147E+02  0.39512717106E+03  0.46999998093E+01 0. -1.
</event>
<event>
 5   0  0.8524692E-03  0.8868660E+03  0.7818609E-02  0.9442150E-01
       -1   -1    0    0    0  501  0.00000000000E+00  0.00000000000E+00  0.41318337589E+03  0.41318337592E+03  0.50400001928E-02 0. -1.
        1   -1    0    0  501    0  0.00000000000E+00  0.00000000000E+00 -0.47589721525E+03  0.47589721528E+03  0.50400001928E-02 0.  1.
    10030    2    1    2    0    0  0.00000000000E+00  0.00000000000E+00 -0.62713839363E+02  0.88908059120E+03  0.88686598311E+03 0.  0.
        5    1    3    3  502    0  0.16343096397E+03  0.35808176128E+03 -0.23601984335E+03  0.45897677959E+03  0.46999998093E+01 0.  1.
       -5    1    3    3    0  502 -0.16343096397E+03 -0.35808176128E+03  0.17330600399E+03  0.43010381161E+03  0.46999998093E+01 0. -1.
</event>
<event>
 5   0  0.1440615E-02  0.9007192E+03  0.7818609E-02  0.9424683E-01
        2   -1    0    0  501    0  0.00000000000E+00  0.00000000000E+00  0.14941612360E+04  0.14941612360E+04  0.25500000920E-02 0. -1.
       -2   -1    0    0    0  501  0.00000000000E+00  0.00000000000E+00 -0.13574422799E+03  0.13574422802E+03  0.25500000920E-02 0.  1.
    10030    2    1    2    0    0  0.00000000000E+00  0.00000000000E+00  0.13584170080E+04  0.16299054640E+04  0.90071918708E+03 0.  0.
        3    1    3    3  502    0 -0.14250032756E+03  0.31507163287E+03  0.15710330538E+03  0.37981302763E+03  0.10100000352E+00 0.  1.
       -3    1    3    3    0  502  0.14250032756E+03 -0.31507163287E+03  0.12013137026E+04  0.12500924363E+04  0.10100000352E+00 0. -1.
</event>
<event>
 5   0  0.8524692E-03  0.8961965E+03  0.7818609E-02  0.9430348E-01
       -1   -1    0    0    0  501  0.00000000000E+00  0.00000000000E+00  0.31427128524E+03  0.31427128528E+03  0.50400001928E-02 0. -1.
        1   -1    0    0  501    0  0.00000000000E+00  0.00000000000E+00 -0.63891317078E+03  0.63891317080E+03  0.50400001928E-02 0.  1.
    10030    2    1    2    0    0  0.00000000000E+00  0.00000000000E+00 -0.32464188553E+03  0.95318445608E+03  0.89619654846E+03 0.  0.
        5    1    3    3  502    0  0.12315971258E+03  0.10768569655E+03 -0.60598588139E+03  0.62769857613E+03  0.46999998093E+01 0.  1.
       -5    1    3    3    0  502 -0.12315971258E+03 -0.10768569655E+03  0.28134399585E+03  0.32548587995E+03  0.46999998093E+01 0. -1.
</event>
<event>
 5   0  0.8524692E-03  0.8816253E+03  0.7818609E-02  0.9448847E-01
       -1   -1    0    0    0  501  0.00000000000E+00  0.00000000000E+00  0.62893579161E+03  0.62893579163E+03  0.50400001928E-02 0. -1.
        1   -1    0    0  501    0  0.00000000000E+00  0.00000000000E+00 -0.30895968336E+03  0.30895968340E+03  0.50400001928E-02 0.  1.
    10030    2    1    2    0    0  0.00000000000E+00  0.00000000000E+00  0.31997610825E+03  0.93789547502E+03  0.88162532417E+03 0.  0.
        5    1    3    3  502    0  0.42947357089E+03  0.96681394292E+02  0.13622701842E+03  0.46084132914E+03  0.46999998093E+01 0. -1.
       -5    1    3    3    0  502 -0.42947357089E+03 -0.96681394292E+02  0.18374908983E+03  0.47705414589E+03  0.46999998093E+01 0.  1.
</event>
<event>
 5   0  0.1440615E-02  0.9037265E+03  0.7818609E-02  0.9420935E-01
       -2   -1    0    0    0  501  0.00000000000E+00  0.00000000000E+00  0.11489949991E+03  0.11489949994E+03  0.25500000920E-02 0. -1.
        2   -1    0    0  501    0  0.00000000000E+00  0.00000000000E+00 -0.17770345349E+04  0.17770345349E+04  0.25500000920E-02 0.  1.
    10030    2    1    2    0    0  0.00000000000E+00  0.00000000000E+00 -0.16621350349E+04  0.18919340348E+04  0.90372646174E+03 0.  0.
        3    1    3    3  502    0 -0.75971719909E+02  0.41093210607E+03 -0.47123554327E+03  0.62984112717E+03  0.10100000352E+00 0. -1.
       -3    1    3    3    0  502  0.75971719909E+02 -0.41093210607E+03 -0.11908994917E+04  0.12620929076E+04  0.10100000352E+00 0.  1.
</event>
<event>
 5   0  0.1483326E-02  0.9083832E+03  0.7818609E-02  0.9415162E-01
        2   -1    0    0  501    0  0.00000000000E+00  0.00000000000E+00  0.56432092947E+03  0.56432092948E+03  0.25500000920E-02 0.  1.
       -2   -1    0    0    0  501  0.00000000000E+00  0.00000000000E+00 -0.36555438650E+03  0.36555438650E+03  0.25500000920E-02 0. -1.
    10030    2    1    2    0    0  0.00000000000E+00  0.00000000000E+00  0.19876654298E+03  0.92987531598E+03  0.90838315961E+03 0.  0.
        1    1    3    3  502    0 -0.89989136027E+02 -0.13898683530E+03  0.53232554185E+03  0.55748171945E+03  0.50400001928E-02 0.  1.
       -1    1    3    3    0  502  0.89989136027E+02  0.13898683530E+03 -0.33355899887E+03  0.37239359654E+03  0.50400001928E-02 0. -1.
</event>
<event>
 5   0  0.1454652E-02  0.8927738E+03  0.7818609E-02  0.9434660E-01
       -2   -1    0    0    0  501  0.00000000000E+00  0.00000000000E+00  0.46172329244E+03  0.46172329245E+03  0.25500000920E-02 0. -1.
        2   -1    0    0  501    0  0.00000000000E+00  0.00000000000E+00 -0.43155994907E+03  0.43155994907E+03  0.25500000920E-02 0.  1.
    10030    2    1    2    0    0  0.00000000000E+00  0.00000000000E+00  0.30163343376E+02  0.89328324152E+03  0.89277383603E+03 0.  0.
        4    1    3    3  502    0  0.17560934775E+03 -0.40692767298E+03 -0.38154829771E+02  0.44484399287E+03  0.12699999809E+01 0.  1.
       -4    1    3    3    0  502 -0.17560934775E+03  0.40692767298E+03  0.68318173147E+02  0.44843924866E+03  0.12699999809E+01 0. -1.
</event>
<event>
 5   0  0.8885324E-03  0.8946093E+03  0.7818609E-02  0.9432345E-01
       -1   -1    0    0    0  501  0.00000000000E+00  0.00000000000E+00  0.32721724237E+03  0.32721724241E+03  0.50400001928E-02 0. -1.
        1   -1    0    0  501    0  0.00000000000E+00  0.00000000000E+00 -0.61146362148E+03  0.61146362150E+03  0.50400001928E-02 0.  1.
    10030    2    1    2    0    0  0.00000000000E+00  0.00000000000E+00 -0.28424637910E+03  0.93868086391E+03  0.89460927798E+03 0.  0.
        2    1    3    3  502    0  0.33541297945E+03  0.69580999125E+02 -0.44393569288E+03  0.56073369940E+03  0.25500000920E-02 0.  1.
       -2    1    3    3    0  502 -0.33541297945E+03 -0.69580999125E+02  0.15968931378E+03  0.37794716451E+03  0.25500000920E-02 0. -1.
</event>
<event>
 5   0  0.1441195E-02  0.8750320E+03  0.7818609E-02  0.9457342E-01
       -2   -1    0    0    0  501  0.00000000000E+00  0.00000000000E+00  0.88179967033E+02  0.88179967069E+02  0.25500000920E-02 0.  1.
        2   -1    0    0  501    0  0.00000000000E+00  0.00000000000E+00 -0.21707906853E+04  0.21707906853E+04  0.25500000920E-02 0. -1.
    10030    2    1    2    0    0  0.00000000000E+00  0.00000000000E+00 -0.20826107183E+04  0.22589706524E+04  0.87503200195E+03 0.  0.
        5    1    3    3  502    0  0.28328605226E+01 -0.32380301475E+03 -0.28185485822E+03  0.42932583030E+03  0.46999998093E+01 0. -1.
       -5    1    3    3    0  502 -0.28328605226E+01  0.32380301475E+03 -0.18007558600E+04  0.18296448221E+04  0.46999998093E+01 0.  1.
</event>
<event>
 5   0  0.8612969E-03  0.8965046E+03  0.7818609E-02  0.9429961E-01
        1   -1    0    0  501    0  0.00000000000E+00  0.00000000000E+00  0.49494833060E+03  0.49494833062E+03  0.50400001928E-02 0. -1.
       -1   -1    0    0    0  501  0.00000000000E+00  0.00000000000E+00 -0.40596182166E+03  0.40596182169E+03  0.50400001928E-02 0.  1.
    10030    2    1    2    0    0  0.00000000000E+00  0.00000000000E+00  0.88986508935E+02  0.90091015232E+03  0.89650460332E+03 0.  0.
        4    1    3    3  502    0 -0.30374146070E+03 -0.28241034749E+03 -0.12638362277E+03  0.43357688167E+03  0.12699999809E+01 0.  1.
       -4    1    3    3    0  502  0.30374146070E+03  0.28241034749E+03  0.21537013171E+03  0.46733327064E+03  0.12699999809E+01 0. -1.
</event>
<event>
 5   0  0.1483326E-02  0.9135962E+03  0.7818609E-02  0.9408743E-01
        2   -1    0    0  501    0  0.00000000000E+00  0.00000000000E+00  0.96905516668E+03  0.96905516669E+03  0.25500000920E-02 0. -1.
       -2   -1    0    0    0  501  0.00000000000E+00  0.00000000000E+00 -0.21532778392E+03  0.21532778394E+03  0.25500000920E-02 0.  1.
    10030    2    1    2    0    0  0.00000000000E+00  0.00000000000E+00  0.75372738276E+03  0.11843829506E+04  0.91359619428E+03 0.  0.
        1    1    3    3  502    0  0.15902542370E+03 -0.36542612632E+03  0.87447227833E+02  0.40801024112E+03  0.50400001928E-02 0.  1.
       -1    1    3    3    0  502 -0.15902542370E+03  0.36542612632E+03  0.66628015493E+03  0.77637270950E+03  0.50400001928E-02 0. -1.
</event>
<event>
 5   0  0.1441195E-02  0.9035644E+03  0.7818609E-02  0.9421137E-01
       -2   -1    0    0    0  501  0.00000000000E+00  0.00000000000E+00  0.14460880665E+03  0.14460880667E+03  0.25500000920E-02 0.  1.
        2   -1    0    0  501    0  0.00000000000E+00  0.00000000000E+00 -0.14114436042E+04  0.14114436042E+04  0.25500000920E-02 0. -1.
    10030    2    1    2    0    0  0.00000000000E+00  0.00000000000E+00 -0.12668347976E+04  0.15560524109E+04  0.90356444215E+03 0.  0.
        5    1    3    3  502    0 -0.14115945637E+02 -0.85811245089E+02  0.13001565437E+03  0.15648958459E+03  0.46999998093E+01 0.  1.
       -5    1    3    3    0  502  0.14115945637E+02  0.85811245089E+02 -0.13968504519E+04  0.13995628263E+04  0.46999998093E+01 0. -1.
</event>
<event>
 5   0  0.1535906E-02  0.8520472E+03  0.7818609E-02  0.9487593E-01
        2   -1    0    0  501    0  0.00000000000E+00  0.00000000000E+00  0.84329010689E+03  0.84329010690E+03  0.25500000920E-02 0.  1.
       -2   -1    0    0    0  501  0.00000000000E+00  0.00000000000E+00 -0.21522382534E+03  0.21522382535E+03  0.25500000920E-02 0. -1.
    10030    2    1    2    0    0  0.00000000000E+00  0.00000000000E+00  0.62806628156E+03  0.10585139323E+04  0.85204723504E+03 0.  0.
        2    1    3    3  502    0  0.12860906402E+03  0.32969940875E+03  0.60868563249E+03  0.70408819808E+03  0.25500000920E-02 0.  1.
       -2    1    3    3    0  502 -0.12860906402E+03 -0.32969940875E+03  0.19380649070E+02  0.35442573417E+03  0.25500000920E-02 0. -1.
</event>
<event>
 5   0  0.8291252E-03  0.9236205E+03  0.7818609E-02  0.9396527E-01
       -1   -1    0    0    0  501  0.00000000000E+00  0.00000000000E+00  0.93134248428E+02  0.93134248564E+02  0.50400001928E-02 0. -1.
        1   -1    0    0  501    0  0.00000000000E+00  0.00000000000E+00 -0.22899062293E+04  0.22899062294E+04  0.50400001928E-02 0.  1.
    10030    2    1    2    0    0  0.00000000000E+00  0.00000000000E+00 -0.21967719809E+04  0.23830404779E+04  0.92362047576E+03 0.  0.
        1    1    3    3  502    0  0.38590372791E+03  0.79238924059E+02 -0.17201234790E+04  0.17646601025E+04  0.50400001928E-02 0.  1.
       -1    1    3    3    0  502 -0.38590372791E+03 -0.79238924059E+02 -0.47664850192E+03  0.61838037543E+03  0.50400001928E-02 0. -1.
</event>
<event>
 5   0  0.8612969E-03  0.8429371E+03  0.7818609E-02  0.9499866E-01
        1   -1    0    0  501    0  0.00000000000E+00  0.00000000000E+00  0.34080716198E+03  0.34080716202E+03  0.50400001928E-02 0.  1.
       -1   -1    0    0    0  501  0.00000000000E+00  0.00000000000E+00 -0.52122065880E+03  0.52122065882E+03  0.50400001928E-02 0. -1.
    10030    2    1    2    0    0  0.00000000000E+00  0.00000000000E+00 -0.18041349682E+03  0.86202782084E+03  0.84293708785E+03 0.  0.
        4    1    3    3  502    0  0.50987630360E+01  0.23917998442E+03  0.26464036113E+03  0.35674808475E+03  0.12699999809E+01 0.  1.
       -4    1    3    3    0  502 -0.50987630360E+01 -0.23917998442E+03 -0.44505385795E+03  0.50527973609E+03  0.12699999809E+01 0. -1.
</event>
<event>
 5   0  0.1535906E-02  0.9004281E+03  0.7818609E-02  0.9425046E-01
       -2   -1    0    0    0  501  0.00000000000E+00  0.00000000000E+00  0.11077647399E+03  0.11077647402E+03  0.25500000920E-02 0.  1.
        2   -1    0    0  501    0  0.00000000000E+00  0.00000000000E+00 -0.18297447292E+04  0.18297447292E+04  0.25500000920E-02 0. -1.
    10030    2    1    2    0    0  0.00000000000E+00  0.00000000000E+00 -0.17189682552E+04  0.19405212032E+04  0.90042805250E+03 0.  0.
        2    1    3    3  502    0  0.29749402403E+03 -0.98455167158E+02 -0.15561433047E+04  0.15873808929E+04  0.25500000920E-02 0. -1.
       -2    1    3    3    0  502 -0.29749402403E+03  0.98455167158E+02 -0.16282495049E+03  0.35314031033E+03  0.25500000920E-02 0.  1.
</event>
<event>
 5   0  0.1441195E-02  0.9045009E+03  0.7818609E-02  0.9419972E-01
       -2   -1    0    0    0  501  0.00000000000E+00  0.00000000000E+00  0.23803618408E+03  0.23803618409E+03  0.25500000920E-02 0. -1.
        2   -1    0    0  501    0  0.00000000000E+00  0.00000000000E+00 -0.85924115876E+03  0.85924115877E+03  0.25500000920E-02 0.  1.
    10030    2    1    2    0    0  0.00000000000E+00  0.00000000000E+00 -0.62120497469E+03  0.10972773429E+04  0.90450093785E+03 0.  0.
        5    1    3    3  502    0  0.12718146128E+03 -0.90821996038E+02 -0.82541100445E+03  0.84008879014E+03  0.46999998093E+01 0.  1.
       -5    1    3    3    0  502 -0.12718146128E+03  0.90821996038E+02  0.20420602976E+03  0.25718855271E+03  0.46999998093E+01 0. -1.
</event>
<event>
 5   0  0.8612969E-03  0.8955132E+03  0.7818609E-02  0.9431208E-01
        1   -1    0    0  501    0  0.00000000000E+00  0.00000000000E+00  0.14958117165E+04  0.14958117166E+04  0.50400001928E-02 0.  1.
       -1   -1    0    0    0  501  0.00000000000E+00  0.00000000000E+00 -0.13403154789E+03  0.13403154798E+03  0.50400001928E-02 0. -1.
    10030    2    1    2    0    0  0.00000000000E+00  0.00000000000E+00  0.13617801687E+04  0.16298432645E+04  0.89551317086E+03 0.  0.
        4    1    3    3  502    0  0.11305236768E+01 -0.24102756923E+03 -0.58805998645E+01  0.24110529145E+03  0.12699999809E+01 0. -1.
       -4    1    3    3    0  502 -0.11305236768E+01  0.24102756923E+03  0.13676607685E+04  0.13887379731E+04  0.12699999809E+01 0.  1.
</event>
<event>
 5   0  0.8885324E-03  0.9012752E+03  0.7818609E-02  0.9423989E-01
       -1   -1    0    0    0  501  0.00000000000E+00  0.00000000000E+00  0.53825777186E+03  0.53825777188E+03  0.50400001928E-02 0.  1.
        1   -1    0    0  501    0  0.00000000000E+00  0.00000000000E+00 -0.37728064207E+03  0.37728064210E+03  0.50400001928E-02 0. -1.
    10030    2    1    2    0    0  0.00000000000E+00  0.00000000000E+00  0.16097712979E+03  0.91553841398E+03  0.90127518060E+03 0.  0.
        2    1    3    3  502    0 -0.36155152836E+03  0.24949733164E+03 -0.21630013175E+02  0.43981391932E+03  0.25500000920E-02 0. -1.
       -2    1    3    3    0  502  0.36155152836E+03 -0.24949733164E+03  0.18260714297E+03  0.47572449466E+03  0.25500000920E-02 0.  1.
</event>
<event>
 5   0  0.5770125E-03  0.9216891E+03  0.7818609E-02  0.9398868E-01
       -3   -1    0    0    0  501  0.00000000000E+00  0.00000000000E+00  0.36165667818E+03  0.36165669229E+03  0.10100000352E+00 0.  1.
        3   -1    0    0  501    0  0.00000000000E+00  0.00000000000E+00 -0.58723566341E+03  0.58723567209E+03  0.10100000352E+00 0. -1.
    10030    2    1    2    0    0  0.00000000000E+00  0.00000000000E+00 -0.22557898523E+03  0.94889236438E+03  0.92168912362E+03 0.  0.
        3    1    3    3  502    0  0.39110581097E+03  0.10996639921E+03  0.11116562254E+03  0.42120561507E+03  0.10100000352E+00 0.  1.
       -3    1    3    3    0  502 -0.39110581097E+03 -0.10996639921E+03 -0.33674460776E+03  0.52768674931E+03  0.10100000352E+00 0. -1.
</event>
<event>
 5   0  0.1454652E-02  0.8893644E+03  0.7818609E-02  0.9438975E-01
        2   -1    0    0  501    0  0.00000000000E+00  0.00000000000E+00  0.48069874131E+03  0.48069874131E+03  0.25500000920E-02 0. -1.
       -2   -1    0    0    0  501  0.00000000000E+00  0.00000000000E+00 -0.41136425719E+03  0.41136425720E+03  0.25500000920E-02 0.  1.
    10030    2    1    2    0    0  0.00000000000E+00  0.00000000000E+00  0.69334484111E+02  0.89206299852E+03  0.88936444871E+03 0.  0.
        4    1    3    3  502    0  0.70811504082E+02  0.63168804818E+00  0.47500498726E+03  0.48025620138E+03  0.12699999809E+01 0. -1.
       -4    1    3    3    0  502 -0.70811504082E+02 -0.63168804818E+00 -0.40567050315E+03  0.41180679714E+03  0.12699999809E+01 0.  1.
</event>
<event>
 5   0  0.8524692E-03  0.9034690E+03  0.7818609E-02  0.9421255E-01
        1   -1    0    0  501    0  0.00000000000E+00  0.00000000000E+00  0.58250025068E+03  0.58250025070E+03  0.50400001928E-02 0. -1.
       -1   -1    0    0    0  501  0.00000000000E+00  0.00000000000E+00 -0.35032439987E+03  0.35032439990E+03  0.50400001928E-02 0.  1.
    10030    2    1    2    0    0  0.00000000000E+00  0.00000000000E+00  0.23217585081E+03  0.93282465060E+03  0.90346898291E+03 0.  0.
        5    1    3    3  502    0 -0.58937112661E+02 -0.12407873929E+03  0.56038700663E+03  0.57699636393E+03  0.46999998093E+01 0. -1.
       -5    1    3    3    0  502  0.58937112661E+02  0.12407873929E+03 -0.32821115582E+03  0.35582828667E+03  0.46999998093E+01 0.  1.
</event>
<event>
 5   0  0.1454652E-02  0.8992762E+03  0.7818609E-02  0.9426487E-01
       -2   -1    0    0    0  501  0.00000000000E+00  0.00000000000E+00  0.11249127083E+03  0.11249127086E+03  0.25500000920E-02 0. -1.
        2   -1    0    0  501    0  0.00000000000E+00  0.00000000000E+00 -0.17972452374E+04  0.17972452374E+04  0.25500000920E-02 0.  1.
    10030    2    1    2    0    0  0.00000000000E+00  0.00000000000E+00 -0.16847539666E+04  0.19097365082E+04  0.89927615507E+03 0.  0.
        4    1    3    3  502    0 -0.31240907571E+03 -0.30817231338E+03 -0.63426937166E+03  0.77127741704E+03  0.12699999809E+01 0. -1.
       -4    1    3    3    0  502  0.31240907571E+03  0.30817231338E+03 -0.10504845949E+04  0.11384590912E+04  0.12699999809E+01 0.  1.
</event>
<event>
 5   0  0.1454652E-02  0.9030572E+03  0.7818609E-02  0.9421768E-01
        2   -1    0    0  501    0  0.00000000000E+00  0.00000000000E+00  0.14394705080E+04  0.14394705080E+04  0.25500000920E-02 0.  1.
       -2   -1    0    0    0  501  0.00000000000E+00  0.00000000000E+00 -0.14163406806E+03  0.14163406808E+03  0.25500000920E-02 0. -1.
    10030    2    1    2    0    0  0.00000000000E+00  0.00000000000E+00  0.12978364400E+04  0.15811045761E+04  0.90305717189E+03 0.  0.
        4    1    3    3  502    0 -0.35574574579E+03  0.19632138019E+03  0.99370095166E+03  0.10735643037E+04  0.12699999809E+01 0.  1.
       -4    1    3    3    0  502  0.35574574579E+03 -0.19632138019E+03  0.30413548831E+03  0.50754027240E+03  0.12699999809E+01 0. -1.
</event>
<event>
 5   0  0.1440615E-02  0.9095625E+03  0.7818609E-02  0.9413706E-01
       -2   -1    0    0    0  501  0.00000000000E+00  0.00000000000E+00  0.15557768136E+03  0.15557768139E+03  0.25500000920E-02 0. -1.
        2   -1    0    0  501    0  0.00000000000E+00  0.00000000000E+00 -0.13294065516E+04  0.13294065516E+04  0.25500000920E-02 0.  1.
    10030    2    1    2    0    0  0.00000000000E+00  0.00000000000E+00 -0.11738288702E+04  0.14849842330E+04  0.90956250781E+03 0.  0.
        3    1    3    3  502    0  0.33213409738E+03 -0.15838499104E+03 -0.15057863650E+03  0.39758370188E+03  0.10100000352E+00 0. -1.
       -3    1    3    3    0  502 -0.33213409738E+03  0.15838499104E+03 -0.10232502337E+04  0.10874005311E+04  0.10100000352E+00 0.  1.
</event>
<event>
 5   0  0.8885324E-03  0.8798090E+03  0.7818609E-02  0.9451179E-01
        1   -1    0    0  501    0  0.00000000000E+00  0.00000000000E+00  0.49597955050E+03  0.49597955052E+03  0.50400001928E-02 0. -1.
       -1   -1    0    0    0  501  0.00000000000E+00  0.00000000000E+00 -0.39016921831E+03  0.39016921834E+03  0.50400001928E-02 0.  1.
    10030    2    1    2    0    0  0.00000000000E+00  0.00000000000E+00  0.10581033219E+03  0.88614876886E+03  0.87980896458E+03 0.  0.
        2    1    3    3  502    0 -0.29461216199E+03 -0.27070362625E+03 -0.13127634342E+03  0.42108224565E+03  0.25500000920E-02 0.  1.
       -2    1    3    3    0  502  0.29461216199E+03  0.27070362625E+03  0.23708667561E+03  0.46506652321E+03  0.25500000920E-02 0. -1.
</event>
<event>
 5   0  0.8612969E-03  0.8703979E+03  0.7818609E-02  0.9463361E-01
       -1   -1    0    0    0  501  0.00000000000E+00  0.00000000000E+00  0.55825758886E+03  0.55825758889E+03  0.50400001928E-02 0. -1.
        1   -1    0    0  501    0  0.00000000000E+00  0.00000000000E+00 -0.33926654291E+03  0.33926654295E+03  0.50400001928E-02 0.  1.
    10030    2    1    2    0    0  0.00000000000E+00  0.00000000000E+00  0.21899104595E+03  0.89752413184E+03  0.87039789121E+03 0.  0.
        4    1    3    3  502    0  0.19219601283E+03 -0.29356126353E+03 -0.15597495624E+03  0.38398870122E+03  0.12699999809E+01 0. -1.
       -4    1    3    3    0  502 -0.19219601283E+03  0.29356126353E+03  0.37496600219E+03  0.51353543061E+03  0.12699999809E+01 0.  1.
</event>
<event>
 5   0  0.8524692E-03  0.9061164E+03  0.7818609E-02  0.9417968E-01
        1   -1    0    0  501    0  0.00000000000E+00  0.00000000000E+00  0.14452109527E+04  0.14452109527E+04  0.50400001928E-02 0.  1.
       -1   -1    0    0    0  501  0.00000000000E+00  0.00000000000E+00 -0.14202890899E+03  0.14202890908E+03  0.50400001928E-02 0. -1.
    10030    2    1    2    0    0  0.00000000000E+00  0.00000000000E+00  0.13031820437E+04  0.15872398618E+04  0.90611640523E+03 0.  0.
        5    1    3    3  502    0  0.44881073448E+03 -0.16629364681E+02  0.54748616437E+03  0.70814603107E+03  0.46999998093E+01 0. -1.
       -5    1    3    3    0  502 -0.44881073448E+03  0.16629364681E+02  0.75569587934E+03  0.87909383072E+03  0.46999998093E+01 0.  1.
</event>
<event>
 5   0  0.1483326E-02  0.9228787E+03  0.7818609E-02  0.9397425E-01
        2   -1    0    0  501    0  0.00000000000E+00  0.00000000000E+00  0.20344406108E+04  0.20344406108E+04  0.25500000920E-02 0. -1.
       -2   -1    0    0    0  501  0.00000000000E+00  0.00000000000E+00 -0.10466084920E+03  0.10466084923E+03  0.25500000920E-02 0.  1.
    10030    2    1    2    0    0  0.00000000000E+00  0.00000000000E+00  0.19297797616E+04  0.21391014600E+04  0.92287871794E+03 0.  0.
        1    1    3    3  502    0 -0.15961144089E+03  0.26710201738E+03  0.17546876846E+04  0.17820628974E+04  0.50400001928E-02 0. -1.
       -1    1    3    3    0  502  0.15961144089E+03 -0.26710201738E+03  0.17509207697E+03  0.35703856261E+03  0.50400001928E-02 0.  1.
</event>
<event>
 5   0  0.1441195E-02  0.8943210E+03  0.7818609E-02  0.9432708E-01
       -2   -1    0    0    0  501  0.00000000000E+00  0.00000000000E+00  0.20549589038E+03  0.20549589039E+03  0.25500000920E-02 0. -1.
        2   -1    0    0  501    0  0.00000000000E+00  0.00000000000E+00 -0.97302430653E+03  0.97302430653E+03  0.25500000920E-02 0.  1.
    10030    2    1    2    0    0  0.00000000000E+00  0.00000000000E+00 -0.76752841615E+03  0.11785201969E+04  0.89432096305E+03 0.  0.
        5    1    3    3  502    0 -0.52486316296E+02  0.87684104216E+02  0.18986787432E+03  0.21567386311E+03  0.46999998093E+01 0. -1.
       -5    1    3    3    0  502  0.52486316296E+02 -0.87684104216E+02 -0.95739629047E+03  0.96284633381E+03  0.46999998093E+01 0.  1.
</event>
<event>
 5   0  0.1454652E-02  0.9035391E+03  0.7818609E-02  0.9421168E-01
        2   -1    0    0  501    0  0.00000000000E+00  0.00000000000E+00  0.19425987605E+04  0.19425987605E+04  0.25500000920E-02 0.  1.
       -2   -1    0    0    0  501  0.00000000000E+00  0.00000000000E+00 -0.10506323650E+03  0.10506323653E+03  0.25500000920E-02 0. -1.
    10030    2    1    2    0    0  0.00000000000E+00  0.00000000000E+00  0.18375355240E+04  0.20476619970E+04  0.90353907059E+03 0.  0.
        4    1    3    3  502    0 -0.33316572539E+03 -0.40362742451E+02  0.23337406705E+03  0.40877086445E+03  0.12699999809E+01 0. -1.
       -4    1    3    3    0  502  0.33316572539E+03  0.40362742451E+02  0.16041614569E+04  0.16388911326E+04  0.12699999809E+01 0.  1.
</event>
<event>
 5   0  0.8524692E-03  0.9087093E+03  0.7818609E-02  0.9414759E-01
        1   -1    0    0  501    0  0.00000000000E+00  0.00000000000E+00  0.64998288781E+03  0.64998288783E+03  0.50400001928E-02 0. -1.
       -1   -1    0    0    0  501  0.00000000000E+00  0.00000000000E+00 -0.31760548169E+03  0.31760548173E+03  0.50400001928E-02 0.  1.
    10030    2    1    2    0    0  0.00000000000E+00  0.00000000000E+00  0.33237740612E+03  0.96758836956E+03  0.90870925648E+03 0.  0.
        5    1    3    3  502    0  0.40451486055E+03 -0.20682836765E+03  0.16875132881E+03  0.48467447533E+03  0.46999998093E+01 0. -1.
       -5    1    3    3    0  502 -0.40451486055E+03  0.20682836765E+03  0.16362607731E+03  0.48291389423E+03  0.46999998093E+01 0.  1.
</event>
<event>
 5   0  0.8291252E-03  0.9243587E+03  0.7818609E-02  0.9395634E-01
       -1   -1    0    0    0  501  0.00000000000E+00  0.00000000000E+00  0.10335919392E+03  0.10335919405E+03  0.50400001928E-02 0. -1.
        1   -1    0    0  501    0  0.00000000000E+00  0.00000000000E+00 -0.20666741231E+04  0.20666741231E+04  0.50400001928E-02 0.  1.
    10030    2    1    2    0    0  0.00000000000E+00  0.00000000000E+00 -0.19633149292E+04  0.21700333172E+04  0.92435874337E+03 0.  0.
        1    1    3    3  502    0  0.11125701862E+03  0.45736888115E+02 -0.20292800788E+04  0.20328422529E+04  0.50400001928E-02 0.  1.
       -1    1    3    3    0  502 -0.11125701862E+03 -0.45736888115E+02  0.65965149577E+02  0.13719106425E+03  0.50400001928E-02 0. -1.
</event>
<event>
 5   0  0.5770125E-03  0.8959240E+03  0.7818609E-02  0.9430691E-01
       -4   -1    0    0    0  501  0.00000000000E+00  0.00000000000E+00  0.34474895901E+03  0.34475129824E+03  0.12699999809E+01 0.  1.
        4   -1    0    0  501    0  0.00000000000E+00  0.00000000000E+00 -0.58207056975E+03  0.58207195523E+03  0.12699999809E+01 0. -1.
    10030    2    1    2    0    0  0.00000000000E+00  0.00000000000E+00 -0.23732161074E+03  0.92682325347E+03  0.89592399022E+03 0.  0.
        5    1    3    3  502    0  0.16090142515E+03  0.41039888040E+03 -0.20097484138E+03  0.48448889205E+03  0.46999998093E+01 0.  1.
       -5    1    3    3    0  502 -0.16090142515E+03 -0.41039888040E+03 -0.36346769356E+02  0.44233436142E+03  0.46999998093E+01 0. -1.
</event>
<event>
 5   0  0.8885324E-03  0.8875241E+03  0.7818609E-02  0.9441313E-01
       -1   -1    0    0    0  501  0.00000000000E+00  0.00000000000E+00  0.36030246626E+03  0.36030246630E+03  0.50400001928E-02 0.  1.
        1   -1    0    0  501    0  0.00000000000E+00  0.00000000000E+00 -0.54655404753E+03  0.54655404755E+03  0.50400001928E-02 0. -1.
    10030    2    1    2    0    0  0.00000000000E+00  0.00000000000E+00 -0.18625158127E+03  0.90685651385E+03  0.88752413217E+03 0.  0.
        2    1    3    3  502    0 -0.14072353958E+03  0.32338396142E+03  0.18208189806E+03  0.39690567985E+03  0.25500000920E-02 0.  1.
       -2    1    3    3    0  502  0.14072353958E+03 -0.32338396142E+03 -0.36833347932E+03  0.50995083399E+03  0.25500000920E-02 0. -1.
</event>
<event>
 5   0  0.8738044E-03  0.9002944E+03  0.7818609E-02  0.9425213E-01
       -1   -1    0    0    0  501  0.00000000000E+00  0.00000000000E+00  0.10459454645E+04  0.10459454645E+04  0.50400001928E-02 0. -1.
        1   -1    0    0  501    0  0.00000000000E+00  0.00000000000E+00 -0.19373142856E+03  0.19373142862E+03  0.50400001928E-02 0.  1.
    10030    2    1    2    0    0  0.00000000000E+00  0.00000000000E+00  0.85221403593E+03  0.12396768931E+04  0.90029441646E+03 0.  0.
        3    1    3    3  502    0  0.11379077277E+03 -0.26946816800E+03  0.89724566972E+03  0.94372201181E+03  0.10100000352E+00 0. -1.
       -3    1    3    3    0  502 -0.11379077277E+03  0.26946816800E+03 -0.45031633793E+02  0.29595488132E+03  0.10100000352E+00 0.  1.
</event>
<event>
 5   0  0.1483326E-02  0.9545036E+03  0.7818609E-02  0.9359902E-01
        2   -1    0    0  501    0  0.00000000000E+00  0.00000000000E+00  0.76431254670E+03  0.76431254671E+03  0.25500000920E-02 0. -1.
       -2   -1    0    0    0  501  0.00000000000E+00  0.00000000000E+00 -0.29800543717E+03  0.29800543718E+03  0.25500000920E-02 0.  1.
    10030    2    1    2    0    0  0.00000000000E+00  0.00000000000E+00  0.46630710953E+03  0.10623179839E+04  0.95450362937E+03 0.  0.
        1    1    3    3  502    0  0.13888679021E+03 -0.11543155605E+03 -0.25850900264E+03  0.31534249491E+03  0.50400001928E-02 0.  1.
       -1    1    3    3    0  502 -0.13888679021E+03  0.11543155605E+03  0.72481611218E+03  0.74697548897E+03  0.50400001928E-02 0. -1.
</event>
<event>
 5   0  0.8885324E-03  0.8947878E+03  0.7818609E-02  0.9432121E-01
       -1   -1    0    0    0  501  0.00000000000E+00  0.00000000000E+00  0.37931184015E+03  0.37931184018E+03  0.50400001928E-02 0.  1.
        1   -1    0    0  501    0  0.00000000000E+00  0.00000000000E+00 -0.52769585630E+03  0.52769585632E+03  0.50400001928E-02 0. -1.
    10030    2    1    2    0    0  0.00000000000E+00  0.00000000000E+00 -0.14838401615E+03  0.90700769651E+03  0.89478776549E+03 0.  0.
        2    1    3    3  502    0 -0.45402969260E+02 -0.30752352890E+03 -0.40034564790E+03  0.50686170524E+03  0.25500000920E-02 0. -1.
       -2    1    3    3    0  502  0.45402969260E+02  0.30752352890E+03  0.25196163175E+03  0.40014599127E+03  0.25500000920E-02 0.  1.
</event>
<event>
 5   0  0.8612969E-03  0.8753054E+03  0.7818609E-02  0.9456988E-01
        1   -1    0    0  501    0  0.00000000000E+00  0.00000000000E+00  0.29158793931E+03  0.29158793935E+03  0.50400001928E-02 0. -1.
       -1   -1    0    0    0  501  0.00000000000E+00  0.00000000000E+00 -0.65688548726E+03  0.65688548728E+03  0.50400001928E-02 0.  1.
    10030    2    1    2    0    0  0.00000000000E+00  0.00000000000E+00 -0.36529754795E+03  0.94847342663E+03  0.87530539955E+03 0.  0.
        4    1    3    3  502    0 -0.39701684118E+02 -0.49042488651E+02 -0.65192879370E+03  0.65497645330E+03  0.12699999809E+01 0.  1.
       -4    1    3    3    0  502  0.39701684118E+02  0.49042488651E+02  0.28663124575E+03  0.29349697333E+03  0.12699999809E+01 0. -1.
</event>
<event>
 5   0  0.1454652E-02  0.9031324E+03  0.7818609E-02  0.9421674E-01
        2   -1    0    0  501    0  0.00000000000E+00  0.00000000000E+00  0.13941643761E+03  0.13941643764E+03  0.25500000920E-02 0.  1.
       -2   -1    0    0    0  501  0.00000000000E+00  0.00000000000E+00 -0.14626112603E+04  0.14626112603E+04  0.25500000920E-02 0. -1.
    10030    2    1    2    0    0  0.00000000000E+00  0.00000000000E+00 -0.13231948227E+04  0.16020276980E+04  0.90313244111E+03 0.  0.
        4    1    3    3  502    0 -0.38450138632E+03  0.39096176871E+02 -0.10758627325E+04  0.11431763027E+04  0.12699999809E+01 0. -1.
       -4    1    3    3    0  502  0.38450138632E+03 -0.39096176871E+02 -0.24733209023E+03  0.45885139521E+03  0.12699999809E+01 0.  1.
</event>
<event>
 5   0  0.8524692E-03  0.9121301E+03  0.7818609E-02  0.9410544E-01
       -1   -1    0    0    0  501  0.00000000000E+00  0.00000000000E+00  0.19013890045E+03  0.19013890052E+03  0.50400001928E-02 0. -1.
        1   -1    0    0  501    0  0.00000000000E+00  0.00000000000E+00 -0.10939125127E+04  0.10939125127E+04  0.50400001928E-02 0.  1.
    10030    2    1    2    0    0  0.00000000000E+00  0.00000000000E+00 -0.90377361224E+03  0.12840514132E+04  0.91213008371E+03 0.  0.
        5    1    3    3  502    0  0.34716753754E+03  0.31977121936E+02 -0.86574001303E+03  0.93331436055E+03  0.46999998093E+01 0.  1.
       -5    1    3    3    0  502 -0.34716753754E+03 -0.31977121936E+02 -0.38033599205E+02  0.35073705267E+03  0.46999998093E+01 0. -1.
</event>
<event>
 5   0  0.8524692E-03  0.9055028E+03  0.7818609E-02  0.9418729E-01
        1   -1    0    0  501    0  0.00000000000E+00  0.00000000000E+00  0.24637994213E+04  0.24637994213E+04  0.50400001928E-02 0. -1.
       -1   -1    0    0    0  501  0.00000000000E+00  0.00000000000E+00 -0.83198269443E+02  0.83198269595E+02  0.50400001928E-02 0.  1.
    10030    2    1    2    0    0  0.00000000000E+00  0.00000000000E+00  0.23806011518E+04  0.25469976909E+04  0.90550283999E+03 0.  0.
        5    1    3    3  502    0 -0.96095300684E+02  0.31435657915E+03  0.31467751913E+03  0.45508064858E+03  0.46999998093E+01 0.  1.
       -5    1    3    3    0  502  0.96095300684E+02 -0.31435657915E+03  0.20659236327E+04  0.20919170423E+04  0.46999998093E+01 0. -1.
</event>
<event>
 5   0  0.5770125E-03  0.8981898E+03  0.7818609E-02  0.9427847E-01
       -3   -1    0    0    0  501  0.00000000000E+00  0.00000000000E+00  0.27295762837E+03  0.27295764706E+03  0.10100000352E+00 0. -1.
        3   -1    0    0  501    0  0.00000000000E+00  0.00000000000E+00 -0.73889202590E+03  0.73889203280E+03  0.10100000352E+00 0.  1.
    10030    2    1    2    0    0  0.00000000000E+00  0.00000000000E+00 -0.46593439753E+03  0.10118496799E+04  0.89818979722E+03 0.  0.
        5    1    3    3  502    0 -0.11588215276E+03  0.91458341091E+02 -0.71074752019E+03  0.72593211042E+03  0.46999998093E+01 0.  1.
       -5    1    3    3    0  502  0.11588215276E+03 -0.91458341091E+02  0.24481312266E+03  0.28591756943E+03  0.46999998093E+01 0. -1.
</event>
<event>
 5   0  0.8885324E-03  0.9446815E+03  0.7818609E-02  0.9371389E-01
        1   -1    0    0  501    0  0.00000000000E+00  0.00000000000E+00  0.47265609030E+03  0.47265609033E+03  0.50400001928E-02 0.  1.
       -1   -1    0    0    0  501  0.00000000000E+00  0.00000000000E+00 -0.47202566804E+03  0.47202566807E+03  0.50400001928E-02 0. -1.
    10030    2    1    2    0    0  0.00000000000E+00  0.00000000000E+00  0.63042226118E+00  0.94468175840E+03  0.94468154804E+03 0.  0.
        2    1    3    3  502    0  0.26668383712E+03 -0.30894183495E+03 -0.23746726429E+03  0.47218219786E+03  0.25500000920E-02 0. -1.
       -2    1    3    3    0  502 -0.26668383712E+03  0.30894183495E+03  0.23809768655E+03  0.47249956054E+03  0.25500000920E-02 0.  1.
</event>
<event>
 5   0  0.1483326E-02  0.8912126E+03  0.7818609E-02  0.9436633E-01
       -2   -1    0    0    0  501  0.00000000000E+00  0.00000000000E+00  0.14701112060E+03  0.14701112062E+03  0.25500000920E-02 0. -1.
        2   -1    0    0  501    0  0.00000000000E+00  0.00000000000E+00 -0.13506800492E+04  0.13506800492E+04  0.25500000920E-02 0.  1.
    10030    2    1    2    0    0  0.00000000000E+00  0.00000000000E+00 -0.12036689286E+04  0.14976911699E+04  0.89121262923E+03 0.  0.
        1    1    3    3  502    0  0.31108553451E+02 -0.38386762325E+03 -0.97851940456E+03  0.10515808668E+04  0.50400001928E-02 0.  1.
       -1    1    3    3    0  502 -0.31108553451E+02  0.38386762325E+03 -0.22514952408E+03  0.44611030307E+03  0.50400001928E-02 0. -1.
</event>
<event>
 5   0  0.8885324E-03  0.9092185E+03  0.7818609E-02  0.9414131E-01
        1   -1    0    0  501    0  0.00000000000E+00  0.00000000000E+00  0.86126926319E+03  0.86126926321E+03  0.50400001928E-02 0.  1.
       -1   -1    0    0    0  501  0.00000000000E+00  0.00000000000E+00 -0.23995930379E+03  0.23995930384E+03  0.50400001928E-02 0. -1.
    10030    2    1    2    0    0  0.00000000000E+00  0.00000000000E+00  0.62130995941E+03  0.11012285670E+04  0.90921850576E+03 0.  0.
        2    1    3    3  502    0  0.22623468407E+03  0.11465546853E+03  0.76761170047E+03  0.80842793832E+03  0.25500000920E-02 0.  1.
       -2    1    3    3    0  502 -0.22623468407E+03 -0.11465546853E+03 -0.14630174107E+03  0.29280062873E+03  0.25500000920E-02 0. -1.
</event>
<event>
 5   0  0.1483326E-02  0.8916725E+03  0.7818609E-02  0.9436051E-01
        2   -1    0    0  501    0  0.00000000000E+00  0.00000000000E+00  0.11507625626E+04  0.11507625626E+04  0.25500000920E-02 0. -1.
       -2   -1    0    0    0  501  0.00000000000E+00  0.00000000000E+00 -0.17272892499E+03  0.17272892501E+03  0.25500000920E-02 0.  1.
    10030    2    1    2    0    0  0.00000000000E+00  0.00000000000E+00  0.97803363756E+03  0.13234914876E+04  0.89167254162E+03 0.  0.
        1    1    3    3  502    0  0.41324060187E+03  0.14739473651E+03  0.60661240635E+03  0.74864652203E+03  0.50400001928E-02 0. -1.
       -1    1    3    3    0  502 -0.41324060187E+03 -0.14739473651E+03  0.37142123121E+03  0.57484496554E+03  0.50400001928E-02 0.  1.
</event>
<event>
 5   0  0.1440615E-02  0.9026681E+03  0.7818609E-02  0.9422252E-01
        2   -1    0    0  501    0  0.00000000000E+00  0.00000000000E+00  0.10517407384E+04  0.10517407384E+04  0.25500000920E-02 0. -1.
       -2   -1    0    0    0  501  0.00000000000E+00  0.00000000000E+00 -0.19368122665E+03  0.19368122667E+03  0.25500000920E-02 0.  1.
    10030    2    1    2    0    0  0.00000000000E+00  0.00000000000E+00  0.85805951175E+03  0.12454219651E+04  0.90266812582E+03 0.  0.
        3    1    3    3  502    0 -0.39909707611E+03 -0.20633881347E+03  0.48834523882E+03  0.66357762514E+03  0.10100000352E+00 0.  1.
       -3    1    3    3    0  502  0.39909707611E+03  0.20633881347E+03  0.36971427293E+03  0.58184433994E+03  0.10100000352E+00 0. -1.
</event>
<event>
 5   0  0.1440615E-02  0.9034885E+03  0.7818609E-02  0.9421231E-01
        2   -1    0    0  501    0  0.00000000000E+00  0.00000000000E+00  0.27826108753E+03  0.27826108754E+03  0.25500000920E-02 0. -1.
       -2   -1    0    0    0  501  0.00000000000E+00  0.00000000000E+00 -0.73338632649E+03  0.73338632650E+03  0.25500000920E-02 0.  1.
    10030    2    1    2    0    0  0.00000000000E+00  0.00000000000E+00 -0.45512523896E+03  0.10116474140E+04  0.90348852079E+03 0.  0.
        3    1    3    3  502    0 -0.34887203010E+02 -0.19794170173E+03  0.22543663692E+03  0.30202602815E+03  0.10100000352E+00 0. -1.
       -3    1    3    3    0  502  0.34887203010E+02  0.19794170173E+03 -0.68056187588E+03  0.70962138589E+03  0.10100000352E+00 0.  1.
</event>
<event>
 5   0  0.8291252E-03  0.9004733E+03  0.7818609E-02  0.9424990E-01
       -1   -1    0    0    0  501  0.00000000000E+00  0.00000000000E+00  0.11850840520E+03  0.11850840531E+03  0.50400001928E-02 0. -1.
        1   -1    0    0  501    0  0.00000000000E+00  0.00000000000E+00 -0.17105370556E+04  0.17105370556E+04  0.50400001928E-02 0.  1.
    10030    2    1    2    0    0  0.00000000000E+00  0.00000000000E+00 -0.15920286504E+04  0.18290454609E+04  0.90047325024E+03 0.  0.
        1    1    3    3  502    0  0.11684194795E+03 -0.35114660152E+03 -0.27514975364E+03  0.46115438143E+03  0.50400001928E-02 0. -1.
       -1    1    3    3    0  502 -0.11684194795E+03  0.35114660152E+03 -0.13168788968E+04  0.13678910795E+04  0.50400001928E-02 0.  1.
</event>
<event>
 5   0  0.8738044E-03  0.8712882E+03  0.7818609E-02  0.9462202E-01
        1   -1    0    0  501    0  0.00000000000E+00  0.00000000000E+00  0.12976025293E+04  0.12976025293E+04  0.50400001928E-02 0.  1.
       -1   -1    0    0    0  501  0.00000000000E+00  0.00000000000E+00 -0.14625880565E+03  0.14625880574E+03  0.50400001928E-02 0. -1.
    10030    2    1    2    0    0  0.00000000000E+00  0.00000000000E+00  0.11513437236E+04  0.14438613350E+04  0.87128823293E+03 0.  0.
        3    1    3    3  502    0  0.66463870376E+02  0.32918213040E+03  0.10355365382E+04  0.10886295298E+04  0.10100000352E+00 0.  1.
       -3    1    3    3    0  502 -0.66463870376E+02 -0.32918213040E+03  0.11580718545E+03  0.35523180523E+03  0.10100000352E+00 0. -1.
</event>
<event>
 5   0  0.1440615E-02  0.8965872E+03  0.7818609E-02  0.9429858E-01
       -2   -1    0    0    0  501  0.00000000000E+00  0.00000000000E+00  0.13797801176E+03  0.13797801179E+03  0.25500000920E-02 0. -1.
        2   -1    0    0  501    0  0.00000000000E+00  0.00000000000E+00 -0.14565156366E+04  0.14565156366E+04  0.25500000920E-02 0.  1.
    10030    2    1    2    0    0  0.00000000000E+00  0.00000000000E+00 -0.13185376249E+04  0.15944936484E+04  0.89658715509E+03 0.  0.
        3    1    3    3  502    0 -0.19285291913E+03 -0.24228488993E+03 -0.12357374053E+04  0.12739470795E+04  0.10100000352E+00 0.  1.
       -3    1    3    3    0  502  0.19285291913E+03  0.24228488993E+03 -0.82800219605E+02  0.32054656896E+03  0.10100000352E+00 0. -1.
</event>
<event>
 5   0  0.8524692E-03  0.9002871E+03  0.7818609E-02  0.9425223E-01
       -1   -1    0    0    0  501  0.00000000000E+00  0.00000000000E+00  0.72082497384E+02  0.72082497560E+02  0.50400001928E-02 0.  1.
        1   -1    0    0  501    0  0.00000000000E+00  0.00000000000E+00 -0.28110739329E+04  0.28110739329E+04  0.50400001928E-02 0. -1.
    10030    2    1    2    0    0  0.00000000000E+00  0.00000000000E+00 -0.27389914356E+04  0.28831564305E+04  0.90028713126E+03 0.  0.
        5    1    3    3  502    0  0.41511159662E+03  0.60496216855E+02 -0.84689454417E+03  0.94510840058E+03  0.46999998093E+01 0.  1.
       -5    1    3    3    0  502 -0.41511159662E+03 -0.60496216855E+02 -0.18920968914E+04  0.19380480299E+04  0.46999998093E+01 0. -1.
</event>
<event>
 5   0  0.1535906E-02  0.8794505E+03  0.7818609E-02  0.9451640E-01
       -2   -1    0    0    0  501  0.00000000000E+00  0.00000000000E+00  0.25515893929E+03  0.25515893930E+03  0.25500000920E-02 0. -1.
        2   -1    0    0  501    0  0.00000000000E+00  0.00000000000E+00 -0.75779546865E+03  0.75779546865E+03  0.25500000920E-02 0.  1.
    10030    2    1    2    0    0  0.00000000000E+00  0.00000000000E+00 -0.50263652936E+03  0.10129544080E+04  0.87945048294E+03 0.  0.
        2    1    3    3  502    0 -0.14391406287E+03 -0.32359979695E+03 -0.55151776127E+03  0.65543872870E+03  0.25500000920E-02 0.  1.
       -2    1    3    3    0  502  0.14391406287E+03  0.32359979695E+03  0.48881231913E+02  0.35751567926E+03  0.25500000920E-02 0. -1.
</event>
<event>
 5   0  0.8291252E-03  0.8961454E+03  0.7818609E-02  0.9430413E-01
        1   -1    0    0  501    0  0.00000000000E+00  0.00000000000E+00  0.28054939908E+03  0.28054939912E+03  0.50400001928E-02 0. -1.
       -1   -1    0    0    0  501  0.00000000000E+00  0.00000000000E+00 -0.71562852483E+03  0.71562852485E+03  0.50400001928E-02 0.  1.
    10030    2    1    2    0    0  0.00000000000E+00  0.00000000000E+00 -0.43507912575E+03  0.99617792397E+03  0.89614541818E+03 0.  0.
        1    1    3    3  502    0  0.39879053059E+03 -0.41766095225E+02 -0.43983921796E+03  0.59517798319E+03  0.50400001928E-02 0.  1.
       -1    1    3    3    0  502 -0.39879053059E+03  0.41766095225E+02  0.47600922089E+01  0.40099994077E+03  0.50400001928E-02 0. -1.
</event>
<event>
 5   0  0.8291252E-03  0.8990653E+03  0.7818609E-02  0.9426751E-01
        1   -1    0    0  501    0  0.00000000000E+00  0.00000000000E+00  0.53997263866E+03  0.53997263868E+03  0.50400001928E-02 0. -1.
       -1   -1    0    0    0  501  0.00000000000E+00  0.00000000000E+00 -0.37424041051E+03  0.37424041054E+03  0.50400001928E-02 0.  1.
    10030    2    1    2    0    0  0.00000000000E+00  0.00000000000E+00  0.16573222815E+03  0.91421304922E+03  0.89906525231E+03 0.  0.
        1    1    3    3  502    0 -0.16748663658E+03  0.48300750228E+02  0.50420819153E+03  0.53348911548E+03  0.50400001928E-02 0. -1.
       -1    1    3    3    0  502  0.16748663658E+03 -0.48300750228E+02 -0.33847596339E+03  0.38072393374E+03  0.50400001928E-02 0.  1.
</event>
<event>
 5   0  0.8885324E-03  0.8937268E+03  0.7818609E-02  0.9433457E-01
        1   -1    0    0  501    0  0.00000000000E+00  0.00000000000E+00  0.88960043362E+03  0.88960043364E+03  0.50400001928E-02 0.  1.
       -1   -1    0    0    0  501  0.00000000000E+00  0.00000000000E+00 -0.22446808865E+03  0.22446808870E+03  0.50400001928E-02 0. -1.
    10030    2    1    2    0    0  0.00000000000E+00  0.00000000000E+00  0.66513234498E+03  0.11140685223E+04  0.89372682411E+03 0.  0.
        2    1    3    3  502    0 -0.34077804953E+03  0.14046889199E+03  0.17642742306E+02  0.36901552138E+03  0.25500000920E-02 0. -1.
       -2    1    3    3    0  502  0.34077804953E+03 -0.14046889199E+03  0.64748960267E+03  0.74505300095E+03  0.25500000920E-02 0.  1.
</event>
<event>
 5   0  0.1454652E-02  0.9052715E+03  0.7818609E-02  0.9419016E-01
       -2   -1    0    0    0  501  0.00000000000E+00  0.00000000000E+00  0.32821253079E+03  0.32821253080E+03  0.25500000920E-02 0. -1.
        2   -1    0    0  501    0  0.00000000000E+00  0.00000000000E+00 -0.62422695362E+03  0.62422695363E+03  0.25500000920E-02 0.  1.
    10030    2    1    2    0    0  0.00000000000E+00  0.00000000000E+00 -0.29601442284E+03  0.95243948442E+03  0.90527146921E+03 0.  0.
        4    1    3    3  502    0 -0.62451620962E+02  0.18241430685E+03 -0.57885918016E+03  0.61012682916E+03  0.12699999809E+01 0.  1.
       -4    1    3    3    0  502  0.62451620962E+02 -0.18241430685E+03  0.28284475733E+03  0.34231265526E+03  0.12699999809E+01 0. -1.
</event>
<event>
 5   0  0.8738044E-03  0.9060239E+03  0.7818609E-02  0.9418082E-01
       -1   -1    0    0    0  501  0.00000000000E+00  0.00000000000E+00  0.89287145556E+03  0.89287145557E+03  0.50400001928E-02 0.  1.
        1   -1    0    0  501    0  0.00000000000E+00  0.00000000000E+00 -0.22984254589E+03  0.22984254594E+03  0.50400001928E-02 0. -1.
    10030    2    1    2    0    0  0.00000000000E+00  0.00000000000E+00  0.66302890967E+03  0.11227140015E+04  0.90602394789E+03 0.  0.
        3    1    3    3  502    0  0.24963284114E+03  0.29691161868E+03  0.62145485032E+03  0.73258392411E+03  0.10100000352E+00 0.  1.
       -3    1    3    3    0  502 -0.24963284114E+03 -0.29691161868E+03  0.41574059354E+02  0.39013007740E+03  0.10100000352E+00 0. -1.
</event>
<event>
 5   0  0.8524692E-03  0.9706721E+03  0.7818609E-02  0.9341309E-01
       -1   -1    0    0    0  501  0.00000000000E+00  0.00000000000E+00  0.23680313257E+03  0.23680313262E+03  0.50400001928E-02 0.  1.
        1   -1    0    0  501    0  0.00000000000E+00  0.00000000000E+00 -0.99471278486E+03  0.99471278487E+03  0.50400001928E-02 0. -1.
    10030    2    1    2    0    0  0.00000000000E+00  0.00000000000E+00 -0.75790965229E+03  0.12315159175E+04  0.97067214548E+03 0.  0.
        5    1    3    3  502    0 -0.10363460522E+03  0.24441519284E+03 -0.89439154343E+03  0.93297226156E+03  0.46999998093E+01 0.  1.
       -5    1    3    3    0  502  0.10363460522E+03 -0.24441519284E+03  0.13648189114E+03  0.29854365593E+03  0.46999998093E+01 0. -1.
</event>
<event>
 5   0  0.8885324E-03  0.9435300E+03  0.7818609E-02  0.9372745E-01
       -1   -1    0    0    0  501  0.00000000000E+00  0.00000000000E+00  0.12332374459E+03  0.12332374469E+03  0.50400001928E-02 0. -1.
        1   -1    0    0  501    0  0.00000000000E+00  0.00000000000E+00 -0.18046988345E+04  0.18046988345E+04  0.50400001928E-02 0.  1.
    10030    2    1    2    0    0  0.00000000000E+00  0.00000000000E+00 -0.16813750900E+04  0.19280225792E+04  0.94353000638E+03 0.  0.
        2    1    3    3  502    0 -0.31230801106E+03  0.33548898835E+03 -0.10689019007E+04  0.11630307082E+04  0.25500000920E-02 0.  1.
       -2    1    3    3    0  502  0.31230801106E+03 -0.33548898835E+03 -0.61247318930E+03  0.76499187100E+03  0.25500000920E-02 0. -1.
</event>
<event>
 5   0  0.1535906E-02  0.8647572E+03  0.7818609E-02  0.9470742E-01
       -2   -1    0    0    0  501  0.00000000000E+00  0.00000000000E+00  0.36237207002E+03  0.36237207003E+03  0.25500000920E-02 0.  1.
        2   -1    0    0  501    0  0.00000000000E+00  0.00000000000E+00 -0.51590966373E+03  0.51590966374E+03  0.25500000920E-02 0. -1.
    10030    2    1    2    0    0  0.00000000000E+00  0.00000000000E+00 -0.15353759371E+03  0.87828173376E+03  0.86475719782E+03 0.  0.
        2    1    3    3  502    0 -0.29009507278E+03 -0.29141623236E+03 -0.21254839457E+03  0.46287729667E+03  0.25500000920E-02 0. -1.
       -2    1    3    3    0  502  0.29009507278E+03  0.29141623236E+03  0.59010800859E+02  0.41540443709E+03  0.25500000920E-02 0.  1.
</event>
<event>
 5   0  0.5770125E-03  0.8930388E+03  0.7818609E-02  0.9434325E-01
        3   -1    0    0  501    0  0.00000000000E+00  0.00000000000E+00  0.16513452132E+03  0.16513455221E+03  0.10100000352E+00 0. -1.
       -3   -1    0    0    0  501  0.00000000000E+00  0.00000000000E+00 -0.12073766241E+04  0.12073766283E+04  0.10100000352E+00 0.  1.
    10030    2    1    2    0    0  0.00000000000E+00  0.00000000000E+00 -0.10422421028E+04  0.13725111805E+04  0.89303882327E+03 0.  0.
        4    1    3    3  502    0 -0.23883866421E+03  0.14506210628E+03  0.14132957910E+02  0.27980042102E+03  0.12699999809E+01 0. -1.
       -4    1    3    3    0  502  0.23883866421E+03 -0.14506210628E+03 -0.10563750607E+04  0.10927107595E+04  0.12699999809E+01 0.  1.
</event>
<event>
 5   0  0.1454652E-02  0.9099392E+03  0.7818609E-02  0.9413242E-01
       -2   -1    0    0    0  501  0.00000000000E+00  0.00000000000E+00  0.26150198573E+03  0.26150198575E+03  0.25500000920E-02 0.  1.
        2   -1    0    0  501    0  0.00000000000E+00  0.00000000000E+00 -0.79157075462E+03  0.79157075462E+03  0.25500000920E-02 0. -1.
    10030    2    1    2    0    0  0.00000000000E+00  0.00000000000E+00 -0.53006876889E+03  0.10530727404E+04  0.90993917201E+03 0.  0.
        4    1    3    3  502    0 -0.44540731406E+03 -0.17131004010E+02 -0.37056191244E+03  0.57965411287E+03  0.12699999809E+01 0. -1.
       -4    1    3    3    0  502  0.44540731406E+03  0.17131004010E+02 -0.15950685645E+03  0.47341862750E+03  0.12699999809E+01 0.  1.
</event>
<event>
 5   0  0.1454652E-02  0.8978347E+03  0.7818609E-02  0.9428292E-01
       -2   -1    0    0    0  501  0.00000000000E+00  0.00000000000E+00  0.61493290403E+03  0.61493290403E+03  0.25500000920E-02 0. -1.
        2   -1    0    0  501    0  0.00000000000E+00  0.00000000000E+00 -0.32772160633E+03  0.32772160634E+03  0.25500000920E-02 0.  1.
    10030    2    1    2    0    0  0.00000000000E+00  0.00000000000E+00  0.28721129770E+03  0.94265451037E+03  0.89783472666E+03 0.  0.
        4    1    3    3  502    0 -0.88700777760E+02 -0.13360838438E+03  0.58382911821E+03  0.60545609297E+03  0.12699999809E+01 0. -1.
       -4    1    3    3    0  502  0.88700777760E+02  0.13360838438E+03 -0.29661782051E+03  0.33719841740E+03  0.12699999809E+01 0.  1.
</event>
<event>
 5   0  0.8612969E-03  0.9102499E+03  0.7818609E-02  0.9412859E-01
       -1   -1    0    0    0  501  0.00000000000E+00  0.00000000000E+00  0.11724860913E+03  0.11724860923E+03  0.50400001928E-02 0. -1.
        1   -1    0    0  501    0  0.00000000000E+00  0.00000000000E+00 -0.17666623284E+04  0.17666623284E+04  0.50400001928E-02 0.  1.
    10030    2    1    2    0    0  0.00000000000E+00  0.00000000000E+00 -0.16494137193E+04  0.18839109376E+04  0.91024985780E+03 0.  0.
        4    1    3    3  502    0  0.48296993254E+02  0.29133182204E+03 -0.15414509678E+04  0.15694838417E+04  0.12699999809E+01 0.  1.
       -4    1    3    3    0  502 -0.48296993254E+02 -0.29133182204E+03 -0.10796275143E+03  0.31442709598E+03  0.12699999809E+01 0. -1.
</event>
<event>
 5   0  0.1535906E-02  0.9112264E+03  0.7818609E-02  0.9411656E-01
       -2   -1    0    0    0  501  0.00000000000E+00  0.00000000000E+00  0.57873654507E+03  0.57873654507E+03  0.25500000920E-02 0.  1.
        2   -1    0    0  501    0  0.00000000000E+00  0.00000000000E+00 -0.35868373305E+03  0.35868373305E+03  0.25500000920E-02 0. -1.
    10030    2    1    2    0    0  0.00000000000E+00  0.00000000000E+00  0.22005281202E+03  0.93742027813E+03  0.91122639216E+03 0.  0.
        2    1    3    3  502    0  0.17421022356E+03  0.34538735534E+03 -0.13760395169E+03  0.41058065560E+03  0.25500000920E-02 0. -1.
       -2    1    3    3    0  502 -0.17421022356E+03 -0.34538735534E+03  0.35765676372E+03  0.52683962253E+03  0.25500000920E-02 0.  1.
</event>
<event>
 5   0  0.5770125E-03  0.8811158E+03  0.7818609E-02  0.9449500E-01
        3   -1    0    0  501    0  0.00000000000E+00  0.00000000000E+00  0.10888963151E+03  0.10888967835E+03  0.10100000352E+00 0. -1.
       -3   -1    0    0    0  501  0.00000000000E+00  0.00000000000E+00 -0.17824580724E+04  0.17824580752E+04  0.10100000352E+00 0.  1.
    10030    2    1    2    0    0  0.00000000000E+00  0.00000000000E+00 -0.16735684409E+04  0.18913477536E+04  0.88111576919E+03 0.  0.
        3    1    3    3  502    0  0.26071937878E+03  0.31916589684E+03 -0.11710502736E+04  0.12414508519E+04  0.10100000352E+00 0. -1.
       -3    1    3    3    0  502 -0.26071937878E+03 -0.31916589684E+03 -0.50251816723E+03  0.64989690165E+03  0.10100000352E+00 0.  1.
</event>
<event>
 5   0  0.1454652E-02  0.8799852E+03  0.7818609E-02  0.9450953E-01
       -2   -1    0    0    0  501  0.00000000000E+00  0.00000000000E+00  0.17677503985E+03  0.17677503986E+03  0.25500000920E-02 0. -1.
        2   -1    0    0  501    0  0.00000000000E+00  0.00000000000E+00 -0.10951403648E+04  0.10951403648E+04  0.25500000920E-02 0.  1.
    10030    2    1    2    0    0  0.00000000000E+00  0.00000000000E+00 -0.91836532493E+03  0.12719154046E+04  0.87998518540E+03 0.  0.
        4    1    3    3  502    0  0.20928157531E+03  0.26892251129E+03 -0.86149210162E+03  0.92643852947E+03  0.12699999809E+01 0.  1.
       -4    1    3    3    0  502 -0.20928157531E+03 -0.26892251129E+03 -0.56873223308E+02  0.34547687517E+03  0.12699999809E+01 0. -1.
</event>
<event>
 5   0  0.1441195E-02  0.8800051E+03  0.7818609E-02  0.9450927E-01
       -2   -1    0    0    0  501  0.00000000000E+00  0.00000000000E+00  0.53778651249E+03  0.53778651250E+03  0.25500000920E-02 0. -1.
        2   -1    0    0  501    0  0.00000000000E+00  0.00000000000E+00 -0.35999834549E+03  0.35999834549E+03  0.25500000920E-02 0.  1.
    10030    2    1    2    0    0  0.00000000000E+00  0.00000000000E+00  0.17778816701E+03  0.89778485799E+03  0.88000512437E+03 0.  0.
        5    1    3    3  502    0  0.32216006692E+03 -0.71362366765E+02 -0.20801944203E+03  0.39009469923E+03  0.46999998093E+01 0.  1.
       -5    1    3    3    0  502 -0.32216006692E+03  0.71362366765E+02  0.38580760904E+03  0.50769015876E+03  0.46999998093E+01 0. -1.
</event>
<event>
 5   0  0.5770125E-03  0.8965942E+03  0.7818609E-02  0.9429849E-01
       -4   -1    0    0    0  501  0.00000000000E+00  0.00000000000E+00  0.45795930462E+03  0.45796106558E+03  0.12699999809E+01 0. -1.
        4   -1    0    0  501    0  0.00000000000E+00  0.00000000000E+00 -0.43883521976E+03  0.43883705746E+03  0.12699999809E+01 0.  1.
    10030    2    1    2    0    0  0.00000000000E+00  0.00000000000E+00  0.19124084854E+02  0.89679812304E+03  0.89659419074E+03 0.  0.
        4    1    3    3  502    0 -0.39787811292E+03 -0.16858666593E+02 -0.19634265719E+03  0.44400817483E+03  0.12699999809E+01 0.  1.
       -4    1    3    3    0  502  0.39787811292E+03  0.16858666593E+02  0.21546674204E+03  0.45278994822E+03  0.12699999809E+01 0. -1.
</event>
<event>
 5   0  0.1441195E-02  0.9004259E+03  0.7818609E-02  0.9425049E-01
       -2   -1    0    0    0  501  0.00000000000E+00  0.00000000000E+00  0.19850176408E+03  0.19850176409E+03  0.25500000920E-02 0.  1.
        2   -1    0    0  501    0  0.00000000000E+00  0.00000000000E+00 -0.10211079020E+04  0.10211079020E+04  0.25500000920E-02 0. -1.
    10030    2    1    2    0    0  0.00000000000E+00  0.00000000000E+00 -0.82260613789E+03  0.12196096661E+04  0.90042594335E+03 0.  0.
        5    1    3    3  502    0 -0.15216819808E+02  0.44947729658E+03 -0.38393591504E+03  0.59134614957E+03  0.46999998093E+01 0.  1.
       -5    1    3    3    0  502  0.15216819808E+02 -0.44947729658E+03 -0.43867022285E+03  0.62826351650E+03  0.46999998093E+01 0. -1.
</event>
<event>
 5   0  0.8524692E-03  0.8866995E+03  0.7818609E-02  0.9442362E-01
        1   -1    0    0  501    0  0.00000000000E+00  0.00000000000E+00  0.53485084732E+03  0.53485084734E+03  0.50400001928E-02 0. -1.
       -1   -1    0    0    0  501  0.00000000000E+00  0.00000000000E+00 -0.36750242253E+03  0.36750242257E+03  0.50400001928E-02 0.  1.
    10030    2    1    2    0    0  0.00000000000E+00  0.00000000000E+00  0.16734842478E+03  0.90235326990E+03  0.88669945778E+03 0.  0.
        5    1    3    3  502    0 -0.17406684341E+03  0.82545988492E+02  0.49000217702E+03  0.52653331298E+03  0.46999998093E+01 0. -1.
       -5    1    3    3    0  502  0.17406684341E+03 -0.82545988492E+02 -0.32265375224E+03  0.37581995693E+03  0.46999998093E+01 0.  1.
</event>
<event>
 5   0  0.8885324E-03  0.8993218E+03  0.7818609E-02  0.9426430E-01
        1   -1    0    0  501    0  0.00000000000E+00  0.00000000000E+00  0.39065358205E+03  0.39065358209E+03  0.50400001928E-02 0. -1.
       -1   -1    0    0    0  501  0.00000000000E+00  0.00000000000E+00 -0.51758110072E+03  0.51758110074E+03  0.50400001928E-02 0.  1.
    10030    2    1    2    0    0  0.00000000000E+00  0.00000000000E+00 -0.12692751866E+03  0.90823468283E+03  0.89932176894E+03 0.  0.
        2    1    3    3  502    0 -0.11902406682E+03 -0.38516801807E+03  0.13769306406E+03  0.42600529401E+03  0.25500000920E-02 0. -1.
       -2    1    3    3    0  502  0.11902406682E+03  0.38516801807E+03 -0.26462058272E+03  0.48222938881E+03  0.25500000920E-02 0.  1.
</event>
<event>
 5   0  0.1483326E-02  0.9026228E+03  0.7818609E-02  0.9422309E-01
        2   -1    0    0  501    0  0.00000000000E+00  0.00000000000E+00  0.13949586861E+04  0.13949586861E+04  0.25500000920E-02 0.  1.
       -2   -1    0    0    0  501  0.00000000000E+00  0.00000000000E+00 -0.14601290975E+03  0.14601290978E+03  0.25500000920E-02 0. -1.
    10030    2    1    2    0    0  0.00000000000E+00  0.00000000000E+00  0.12489457764E+04  0.15409715959E+04  0.90262279334E+03 0.  0.
        1    1    3    3  502    0 -0.27412340609E+02 -0.83640614405E+02  0.13801636498E+04  0.13829674215E+04  0.50400001928E-02 0.  1.
       -1    1    3    3    0  502  0.27412340609E+02  0.83640614405E+02 -0.13121787341E+03  0.15800417438E+03  0.50400001928E-02 0. -1.
</event>
<event>
 5   0  0.8612969E-03  0.9001686E+03  0.7818609E-02  0.9425371E-01
       -1   -1    0    0    0  501  0.00000000000E+00  0.00000000000E+00  0.13470042789E+03  0.13470042798E+03  0.50400001928E-02 0.  1.
        1   -1    0    0  501    0  0.00000000000E+00  0.00000000000E+00 -0.15038992593E+04  0.15038992593E+04  0.50400001928E-02 0. -1.
    10030    2    1    2    0    0  0.00000000000E+00  0.00000000000E+00 -0.13691988314E+04  0.16385996873E+04  0.90016859268E+03 0.  0.
        4    1    3    3  502    0  0.26570560305E+03  0.30016464740E+03 -0.10571038889E+04  0.11305611562E+04  0.12699999809E+01 0. -1.
       -4    1    3    3    0  502 -0.26570560305E+03 -0.30016464740E+03 -0.31209494248E+03  0.50803853108E+03  0.12699999809E+01 0.  1.
</event>
<event>
 5   0  0.1440615E-02  0.9090405E+03  0.7818609E-02  0.9414350E-01
       -2   -1    0    0    0  501  0.00000000000E+00  0.00000000000E+00  0.24311734309E+03  0.24311734310E+03  0.25500000920E-02 0. -1.
        2   -1    0    0  501    0  0.00000000000E+00  0.00000000000E+00 -0.84974877530E+03  0.84974877531E+03  0.25500000920E-02 0.  1.
    10030    2    1    2    0    0  0.00000000000E+00  0.00000000000E+00 -0.60663143222E+03  0.10928661184E+04  0.90904051516E+03 0.  0.
        3    1    3    3  502    0  0.37367603793E+02 -0.37772375630E+03 -0.60391162554E+03  0.71328874627E+03  0.10100000352E+00 0.  1.
       -3    1    3    3    0  502 -0.37367603793E+02  0.37772375630E+03 -0.27198066740E+01  0.37957737214E+03  0.10100000352E+00 0. -1.
</event>
<event>
 5   0  0.8738044E-03  0.9250584E+03  0.7818609E-02  0.9394788E-01
        1   -1    0    0  501    0  0.00000000000E+00  0.00000000000E+00  0.87837687750E+03  0.87837687751E+03  0.50400001928E-02 0. -1.
       -1   -1    0    0    0  501  0.00000000000E+00  0.00000000000E+00 -0.24355520246E+03  0.24355520251E+03  0.50400001928E-02 0.  1.
    10030    2    1    2    0    0  0.00000000000E+00  0.00000000000E+00  0.63482167504E+03  0.11219320800E+04  0.92505839442E+03 0.  0.
        3    1    3    3  502    0 -0.12605642811E+03 -0.43709294035E+03  0.21599108369E+03  0.50357980500E+03  0.10100000352E+00 0.  1.
       -3    1    3    3    0  502  0.12605642811E+03  0.43709294035E+03  0.41883059135E+03  0.61835227502E+03  0.10100000352E+00 0. -1.
</event>
<event>
 5   0  0.8738044E-03  0.9067024E+03  0.7818609E-02  0.9417242E-01
        1   -1    0    0  501    0  0.00000000000E+00  0.00000000000E+00  0.91551323664E+03  0.91551323665E+03  0.50400001928E-02 0.  1.
       -1   -1    0    0    0  501  0.00000000000E+00  0.00000000000E+00 -0.22449409710E+03  0.22449409716E+03  0.50400001928E-02 0. -1.
    10030    2    1    2    0    0  0.00000000000E+00  0.00000000000E+00  0.69101913954E+03  0.11400073338E+04  0.90670241531E+03 0.  0.
        3    1    3    3  502    0  0.26219214599E+03  0.18258239869E+03  0.74989942860E+03  0.81512589025E+03  0.10100000352E+00 0.  1.
       -3    1    3    3    0  502 -0.26219214599E+03 -0.18258239869E+03 -0.58880289062E+02  0.32488144357E+03  0.10100000352E+00 0. -1.
</event>
<event>
 5   0  0.8524692E-03  0.9114805E+03  0.7818609E-02  0.9411343E-01
       -1   -1    0    0    0  501  0.00000000000E+00  0.00000000000E+00  0.31127241800E+03  0.31127241804E+03  0.50400001928E-02 0. -1.
        1   -1    0    0  501    0  0.00000000000E+00  0.00000000000E+00 -0.66725850941E+03  0.66725850943E+03  0.50400001928E-02 0.  1.
    10030    2    1    2    0    0  0.00000000000E+00  0.00000000000E+00 -0.35598609142E+03  0.97853092747E+03  0.91148048730E+03 0.  0.
        5    1    3    3  502    0 -0.40040863352E+03 -0.21759258056E+03 -0.17599184666E+03  0.48853743459E+03  0.46999998093E+01 0. -1.
       -5    1    3    3    0  502  0.40040863352E+03  0.21759258056E+03 -0.17999424476E+03  0.48999349287E+03  0.46999998093E+01 0.  1.
</event>
<event>
 5   0  0.1535906E-02  0.8054397E+03  0.7818609E-02  0.9552177E-01
       -2   -1    0    0    0  501  0.00000000000E+00  0.00000000000E+00  0.34993710473E+03  0.34993710474E+03  0.25500000920E-02 0.  1.
        2   -1    0    0  501    0  0.00000000000E+00  0.00000000000E+00 -0.46346411988E+03  0.46346411989E+03  0.25500000920E-02 0. -1.
    10030    2    1    2    0    0  0.00000000000E+00  0.00000000000E+00 -0.11352701516E+03  0.81340122463E+03  0.80543973645E+03 0.  0.
        2    1    3    3  502    0 -0.28660365352E+03  0.17047666439E+03 -0.28478138340E+03  0.43852523719E+03  0.25500000920E-02 0. -1.
       -2    1    3    3    0  502  0.28660365352E+03 -0.17047666439E+03  0.17125436824E+03  0.37487598744E+03  0.25500000920E-02 0.  1.
</event>
<event>
 5   0  0.1441195E-02  0.9158385E+03  0.7818609E-02  0.9405996E-01
       -2   -1    0    0    0  501  0.00000000000E+00  0.00000000000E+00  0.27585296819E+03  0.27585296820E+03  0.25500000920E-02 0. -1.
        2   -1    0    0  501    0  0.00000000000E+00  0.00000000000E+00 -0.76015145082E+03  0.76015145082E+03  0.25500000920E-02 0.  1.
    10030    2    1    2    0    0  0.00000000000E+00  0.00000000000E+00 -0.48429848263E+03  0.10360044190E+04  0.91583848793E+03 0.  0.
        5    1    3    3  502    0 -0.31923923271E+03  0.25707485722E+03 -0.47305653758E+03  0.62594388539E+03  0.46999998093E+01 0.  1.
       -5    1    3    3    0  502  0.31923923271E+03 -0.25707485722E+03 -0.11241945044E+02  0.41006053363E+03  0.46999998093E+01 0. -1.
</event>
<event>
 5   0  0.8612969E-03  0.8709131E+03  0.7818609E-02  0.9462690E-01
       -1   -1    0    0    0  501  0.00000000000E+00  0.00000000000E+00  0.55972281557E+03  0.55972281559E+03  0.50400001928E-02 0.  1.
        1   -1    0    0  501    0  0.00000000000E+00  0.00000000000E+00 -0.33877913877E+03  0.33877913881E+03  0.50400001928E-02 0. -1.
    10030    2    1    2    0    0  0.00000000000E+00  0.00000000000E+00  0.22094367680E+03  0.89850195440E+03  0.87091311492E+03 0.  0.
        4    1    3    3  502    0  0.27311095661E+03  0.28622167873E+03 -0.77249225672E+02  0.40308994004E+03  0.12699999809E+01 0. -1.
       -4    1    3    3    0  502 -0.27311095661E+03 -0.28622167873E+03  0.29819290247E+03  0.49541201436E+03  0.12699999809E+01 0.  1.
</event>
<event>
 5   0  0.1454652E-02  0.9045502E+03  0.7818609E-02  0.9419911E-01
       -2   -1    0    0    0  501  0.00000000000E+00  0.00000000000E+00  0.63334091549E+03  0.63334091549E+03  0.25500000920E-02 0.  1.
        2   -1    0    0  501    0  0.00000000000E+00  0.00000000000E+00 -0.32297415908E+03  0.32297415909E+03  0.25500000920E-02 0. -1.
    10030    2    1    2    0    0  0.00000000000E+00  0.00000000000E+00  0.31036675640E+03  0.95631507459E+03  0.90455016356E+03 0.  0.
        4    1    3    3  502    0  0.36062443807E+02  0.18014864426E+03  0.59211008860E+03  0.61995967918E+03  0.12699999809E+01 0.  1.
       -4    1    3    3    0  502 -0.36062443807E+02 -0.18014864426E+03 -0.28174333220E+03  0.33635539541E+03  0.12699999809E+01 0. -1.
</event>
<event>
 5   0  0.8524692E-03  0.9227784E+03  0.7818609E-02  0.9397547E-01
       -1   -1    0    0    0  501  0.00000000000E+00  0.00000000000E+00  0.59734357848E+03  0.59734357850E+03  0.50400001928E-02 0. -1.
        1   -1    0    0  501    0  0.00000000000E+00  0.00000000000E+00 -0.35637778469E+03  0.35637778473E+03  0.50400001928E-02 0.  1.
    10030    2    1    2    0    0  0.00000000000E+00  0.00000000000E+00  0.24096579378E+03  0.95372136322E+03  0.92277837258E+03 0.  0.
        5    1    3    3  502    0  0.57227504816E+02  0.49337153945E+02  0.59088067445E+03  0.59571067096E+03  0.46999998093E+01 0. -1.
       -5    1    3    3    0  502 -0.57227504816E+02 -0.49337153945E+02 -0.34991488066E+03  0.35801069226E+03  0.46999998093E+01 0.  1.
</event>
<event>
 5   0  0.1535906E-02  0.9030627E+03  0.7818609E-02  0.9421761E-01
       -2   -1    0    0    0  501  0.00000000000E+00  0.00000000000E+00  0.20639565870E+03  0.20639565871E+03  0.25500000920E-02 0.  1.
        2   -1    0    0  501    0  0.00000000000E+00  0.00000000000E+00 -0.98781423741E+03  0.98781423741E+03  0.25500000920E-02 0. -1.
    10030    2    1    2    0    0  0.00000000000E+00  0.00000000000E+00 -0.78141857871E+03  0.11942098961E+04  0.90306272254E+03 0.  0.
        2    1    3    3  502    0  0.16286526369E+03  0.42039379016E+03 -0.42375704233E+03  0.61872939469E+03  0.25500000920E-02 0. -1.
       -2    1    3    3    0  502 -0.16286526369E+03 -0.42039379016E+03 -0.35766153638E+03  0.57548050144E+03  0.25500000920E-02 0.  1.
</event>
<event>
 5   0  0.1440615E-02  0.8967084E+03  0.7818609E-02  0.9429705E-01
       -2   -1    0    0    0  501  0.00000000000E+00  0.00000000000E+00  0.30757965661E+03  0.30757965662E+03  0.25500000920E-02 0.  1.
        2   -1    0    0  501    0  0.00000000000E+00  0.00000000000E+00 -0.65355913552E+03  0.65355913553E+03  0.25500000920E-02 0. -1.
    10030    2    1    2    0    0  0.00000000000E+00  0.00000000000E+00 -0.34597947891E+03  0.96113879215E+03  0.89670841300E+03 0.  0.
        3    1    3    3  502    0 -0.22875065783E+03 -0.97166636132E+02 -0.57296907626E+03  0.62454927042E+03  0.10100000352E+00 0. -1.
       -3    1    3    3    0  502  0.22875065783E+03  0.97166636132E+02  0.22698959734E+03  0.33658952173E+03  0.10100000352E+00 0.  1.
</event>
<event>
 5   0  0.8885324E-03  0.8988803E+03  0.7818609E-02  0.9426982E-01
       -1   -1    0    0    0  501  0.00000000000E+00  0.00000000000E+00  0.21885252782E+03  0.21885252788E+03  0.50400001928E-02 0. -1.
        1   -1    0    0  501    0  0.00000000000E+00  0.00000000000E+00 -0.92297964343E+03  0.92297964344E+03  0.50400001928E-02 0.  1.
    10030    2    1    2    0    0  0.00000000000E+00  0.00000000000E+00 -0.70412711560E+03  0.11418321713E+04  0.89888025483E+03 0.  0.
        2    1    3    3  502    0  0.79038741002E+02 -0.41191990272E+03 -0.14695594870E+03  0.44443354925E+03  0.25500000920E-02 0. -1.
       -2    1    3    3    0  502 -0.79038741002E+02  0.41191990272E+03 -0.55717116690E+03  0.69739862207E+03  0.25500000920E-02 0.  1.
</event>
<event>
 5   0  0.8524692E-03  0.8976099E+03  0.7818609E-02  0.9428574E-01
       -1   -1    0    0    0  501  0.00000000000E+00  0.00000000000E+00  0.24364699183E+03  0.24364699188E+03  0.50400001928E-02 0. -1.
        1   -1    0    0  501    0  0.00000000000E+00  0.00000000000E+00 -0.82671198335E+03  0.82671198337E+03  0.50400001928E-02 0.  1.
    10030    2    1    2    0    0  0.00000000000E+00  0.00000000000E+00 -0.58306499152E+03  0.10703589752E+04  0.89760991057E+03 0.  0.
        5    1    3    3  502    0 -0.19040021658E+03 -0.37082189014E+03 -0.93273958016E+02  0.42718056829E+03  0.46999998093E+01 0. -1.
       -5    1    3    3    0  502  0.19040021658E+03  0.37082189014E+03 -0.48979103351E+03  0.64317840696E+03  0.46999998093E+01 0.  1.
</event>
<event>
 5   0  0.1440615E-02  0.9139943E+03  0.7818609E-02  0.9408255E-01
       -2   -1    0    0    0  501  0.00000000000E+00  0.00000000000E+00  0.50305645462E+03  0.50305645462E+03  0.25500000920E-02 0.  1.
        2   -1    0    0  501    0  0.00000000000E+00  0.00000000000E+00 -0.41515496382E+03  0.41515496383E+03  0.25500000920E-02 0. -1.
    10030    2    1    2    0    0  0.00000000000E+00  0.00000000000E+00  0.87901490794E+02  0.91821141846E+03  0.91399427619E+03 0.  0.
        3    1    3    3  502    0  0.10327836811E+02 -0.21267966683E+03  0.45017652430E+03  0.49799419487E+03  0.10100000352E+00 0.  1.
       -3    1    3    3    0  502 -0.10327836811E+02  0.21267966683E+03 -0.36227503351E+03  0.42021722358E+03  0.10100000352E+00 0. -1.
</event>
<event>
 5   0  0.1440615E-02  0.8910382E+03  0.7818609E-02  0.9436854E-01
       -2   -1    0    0    0  501  0.00000000000E+00  0.00000000000E+00  0.20422725297E+03  0.20422725298E+03  0.25500000920E-02 0. -1.
        2   -1    0    0  501    0  0.00000000000E+00  0.00000000000E+00 -0.97189406598E+03  0.97189406599E+03  0.25500000920E-02 0.  1.
    10030    2    1    2    0    0  0.00000000000E+00  0.00000000000E+00 -0.76766681301E+03  0.11761213190E+04  0.89103817041E+03 0.  0.
        3    1    3    3  502    0 -0.75424102331E+02  0.38263358656E+03 -0.99539242228E+02  0.40249885431E+03  0.10100000352E+00 0. -1.
       -3    1    3    3    0  502  0.75424102331E+02 -0.38263358656E+03 -0.66812757079E+03  0.77362246466E+03  0.10100000352E+00 0.  1.
</event>
<event>
 5   0  0.1535906E-02  0.7559366E+03  0.7818609E-02  0.9626083E-01
       -2   -1    0    0    0  501  0.00000000000E+00  0.00000000000E+00  0.70892654504E+02  0.70892654550E+02  0.25500000920E-02 0. -1.
        2   -1    0    0  501    0  0.00000000000E+00  0.00000000000E+00 -0.20151599187E+04  0.20151599187E+04  0.25500000920E-02 0.  1.
    10030    2    1    2    0    0  0.00000000000E+00  0.00000000000E+00 -0.19442672642E+04  0.20860525733E+04  0.75593660035E+03 0.  0.
        2    1    3    3  502    0 -0.32488192428E+03 -0.12828428449E+03 -0.57361918218E+03  0.67159816002E+03  0.25500000920E-02 0.  1.
       -2    1    3    3    0  502  0.32488192428E+03  0.12828428449E+03 -0.13706480820E+04  0.14144544133E+04  0.25500000920E-02 0. -1.
</event>
<event>
 5   0  0.8291252E-03  0.8870520E+03  0.7818609E-02  0.9441913E-01
       -1   -1    0    0    0  501  0.00000000000E+00  0.00000000000E+00  0.10760578897E+03  0.10760578908E+03  0.50400001928E-02 0.  1.
        1   -1    0    0  501    0  0.00000000000E+00  0.00000000000E+00 -0.18281108308E+04  0.18281108308E+04  0.50400001928E-02 0. -1.
    10030    2    1    2    0    0  0.00000000000E+00  0.00000000000E+00 -0.17205050419E+04  0.19357166199E+04  0.88705199033E+03 0.  0.
        1    1    3    3  502    0  0.25277433927E+03  0.14150936418E+03 -0.15931423104E+04  0.16192659411E+04  0.50400001928E-02 0. -1.
       -1    1    3    3    0  502 -0.25277433927E+03 -0.14150936418E+03 -0.12736273147E+03  0.31645067884E+03  0.50400001928E-02 0.  1.
</event>
<event>
 5   0  0.1454652E-02  0.8443077E+03  0.7818609E-02  0.9498009E-01
        2   -1    0    0  501    0  0.00000000000E+00  0.00000000000E+00  0.84138960721E+03  0.84138960722E+03  0.25500000920E-02 0.  1.
       -2   -1    0    0    0  501  0.00000000000E+00  0.00000000000E+00 -0.21180896542E+03  0.21180896543E+03  0.25500000920E-02 0. -1.
    10030    2    1    2    0    0  0.00000000000E+00  0.00000000000E+00  0.62958064180E+03  0.10531985726E+04  0.84430767432E+03 0.  0.
        4    1    3    3  502    0  0.32688900551E+03  0.16668897079E+03  0.54411073609E+02  0.37094987901E+03  0.12699999809E+01 0. -1.
       -4    1    3    3    0  502 -0.32688900551E+03 -0.16668897079E+03  0.57516956819E+03  0.68224869364E+03  0.12699999809E+01 0.  1.
</event>
<event>
 5   0  0.1440615E-02  0.8962516E+03  0.7818609E-02  0.9430279E-01
       -2   -1    0    0    0  501  0.00000000000E+00  0.00000000000E+00  0.19485514706E+03  0.19485514708E+03  0.25500000920E-02 0.  1.
        2   -1    0    0  501    0  0.00000000000E+00  0.00000000000E+00 -0.10305949060E+04  0.10305949060E+04  0.25500000920E-02 0. -1.
    10030    2    1    2    0    0  0.00000000000E+00  0.00000000000E+00 -0.83573975893E+03  0.12254500531E+04  0.89625157625E+03 0.  0.
        3    1    3    3  502    0  0.25885859935E+03 -0.23563346880E+03 -0.35303152571E+02  0.35181988128E+03  0.10100000352E+00 0.  1.
       -3    1    3    3    0  502 -0.25885859935E+03  0.23563346880E+03 -0.80043660636E+03  0.87363017180E+03  0.10100000352E+00 0. -1.
</event>
<event>
 5   0  0.5770125E-03  0.9520063E+03  0.7818609E-02  0.9362809E-01
       -4   -1    0    0    0  501  0.00000000000E+00  0.00000000000E+00  0.96466702288E+03  0.96466785887E+03  0.12699999809E+01 0.  1.
        4   -1    0    0  501    0  0.00000000000E+00  0.00000000000E+00 -0.23487528251E+03  0.23487871600E+03  0.12699999809E+01 0. -1.
    10030    2    1    2    0    0  0.00000000000E+00  0.00000000000E+00  0.72979174038E+03  0.11995465749E+04  0.95200630301E+03 0.  0.
        5    1    3    3  502    0 -0.72850015213E+02  0.17755589237E+03 -0.18393442138E+03  0.26587060950E+03  0.46999998093E+01 0. -1.
       -5    1    3    3    0  502  0.72850015213E+02 -0.17755589237E+03  0.91372616176E+03  0.93367596537E+03  0.46999998093E+01 0.  1.
</event>
<event>
 5   0  0.8291252E-03  0.8159300E+03  0.7818609E-02  0.9537241E-01
       -1   -1    0    0    0  501  0.00000000000E+00  0.00000000000E+00  0.27116417824E+03  0.27116417829E+03  0.50400001928E-02 0. -1.
        1   -1    0    0  501    0  0.00000000000E+00  0.00000000000E+00 -0.61378101509E+03  0.61378101511E+03  0.50400001928E-02 0.  1.
    10030    2    1    2    0    0  0.00000000000E+00  0.00000000000E+00 -0.34261683685E+03  0.88494519339E+03  0.81592995926E+03 0.  0.
        1    1    3    3  502    0 -0.31082255087E+03  0.24057326848E+03 -0.52749517971E+02  0.39657113776E+03  0.50400001928E-02 0. -1.
       -1    1    3    3    0  502  0.31082255087E+03 -0.24057326848E+03 -0.28986731888E+03  0.48837405563E+03  0.50400001928E-02 0.  1.
</event>
<event>
 5   0  0.1483326E-02  0.9163456E+03  0.7818609E-02  0.9405376E-01
       -2   -1    0    0    0  501  0.00000000000E+00  0.00000000000E+00  0.21685267878E+03  0.21685267880E+03  0.25500000920E-02 0. -1.
        2   -1    0    0  501    0  0.00000000000E+00  0.00000000000E+00 -0.96804121147E+03  0.96804121148E+03  0.25500000920E-02 0.  1.
    10030    2    1    2    0    0  0.00000000000E+00  0.00000000000E+00 -0.75118853269E+03  0.11848938903E+04  0.91634563324E+03 0.  0.
        1    1    3    3  502    0  0.27356589687E+03  0.19205035370E+03 -0.78080171366E+03  0.84933677323E+03  0.50400001928E-02 0.  1.
       -1    1    3    3    0  502 -0.27356589687E+03 -0.19205035370E+03  0.29613180967E+02  0.33555711704E+03  0.50400001928E-02 0. -1.
</event>
<event>
 5   0  0.8524692E-03  0.9001568E+03  0.7818609E-02  0.9425385E-01
        1   -1    0    0  501    0  0.00000000000E+00  0.00000000000E+00  0.16788559520E+04  0.16788559520E+04  0.50400001928E-02 0.  1.
       -1   -1    0    0    0  501  0.00000000000E+00  0.00000000000E+00 -0.12065989523E+03  0.12065989533E+03  0.50400001928E-02 0. -1.
    10030    2    1    2    0    0  0.00000000000E+00  0.00000000000E+00  0.15581960568E+04  0.17995158473E+04  0.90015683827E+03 0.  0.
        5    1    3    3  502    0  0.11135663994E+03  0.11064720668E+03  0.16223008300E+04  0.16298850201E+04  0.46999998093E+01 0.  1.
       -5    1    3    3    0  502 -0.11135663994E+03 -0.11064720668E+03 -0.64104773245E+02  0.16963082726E+03  0.46999998093E+01 0. -1.
</event>
<event>
 5   0  0.8612969E-03  0.8543527E+03  0.7818609E-02  0.9484514E-01
       -1   -1    0    0    0  501  0.00000000000E+00  0.00000000000E+00  0.18196205341E+03  0.18196205348E+03  0.50400001928E-02 0. -1.
        1   -1    0    0  501    0  0.00000000000E+00  0.00000000000E+00 -0.10028443664E+04  0.10028443664E+04  0.50400001928E-02 0.  1.
    10030    2    1    2    0    0  0.00000000000E+00  0.00000000000E+00 -0.82088231303E+03  0.11848064199E+04  0.85435266773E+03 0.  0.
        4    1    3    3  502    0 -0.14551925741E+03  0.39892578265E+03 -0.47489882415E+03  0.63706211661E+03  0.12699999809E+01 0. -1.
       -4    1    3    3    0  502  0.14551925741E+03 -0.39892578265E+03 -0.34598348888E+03  0.54774430332E+03  0.12699999809E+01 0.  1.
</event>
<event>
 5   0  0.1440615E-02  0.8909117E+03  0.7818609E-02  0.9437014E-01
        2   -1    0    0  501    0  0.00000000000E+00  0.00000000000E+00  0.87211180061E+03  0.87211180062E+03  0.25500000920E-02 0. -1.
       -2   -1    0    0    0  501  0.00000000000E+00  0.00000000000E+00 -0.22752921887E+03  0.22752921888E+03  0.25500000920E-02 0.  1.
    10030    2    1    2    0    0  0.00000000000E+00  0.00000000000E+00  0.64458258174E+03  0.10996410195E+04  0.89091170555E+03 0.  0.
        3    1    3    3  502    0  0.62022022735E+02 -0.11046163674E+03  0.84940915204E+03  0.85880406512E+03  0.10100000352E+00 0. -1.
       -3    1    3    3    0  502 -0.62022022735E+02  0.11046163674E+03 -0.20482657030E+03  0.24083695438E+03  0.10100000352E+00 0.  1.
</event>
<event>
 5   0  0.8612969E-03  0.9845432E+03  0.7818609E-02  0.9325662E-01
        1   -1    0    0  501    0  0.00000000000E+00  0.00000000000E+00  0.27137618600E+03  0.27137618605E+03  0.50400001928E-02 0.  1.
       -1   -1    0    0    0  501  0.00000000000E+00  0.00000000000E+00 -0.89297188275E+03  0.89297188277E+03  0.50400001928E-02 0. -1.
    10030    2    1    2    0    0  0.00000000000E+00  0.00000000000E+00 -0.62159569675E+03  0.11643480688E+04  0.98454315047E+03 0.  0.
        4    1    3    3  502    0 -0.35714538222E+03  0.19171491046E+03 -0.64113493552E+03  0.75852689430E+03  0.12699999809E+01 0. -1.
       -4    1    3    3    0  502  0.35714538222E+03 -0.19171491046E+03  0.19539238769E+02  0.40582117452E+03  0.12699999809E+01 0.  1.
</event>
<event>
 5   0  0.8291252E-03  0.9177396E+03  0.7818609E-02  0.9403674E-01
        1   -1    0    0  501    0  0.00000000000E+00  0.00000000000E+00  0.21015081069E+03  0.21015081075E+03  0.50400001928E-02 0. -1.
       -1   -1    0    0    0  501  0.00000000000E+00  0.00000000000E+00 -0.10019542014E+04  0.10019542014E+04  0.50400001928E-02 0.  1.
    10030    2    1    2    0    0  0.00000000000E+00  0.00000000000E+00 -0.79180339067E+03  0.12121050121E+04  0.91773958775E+03 0.  0.
        1    1    3    3  502    0  0.35507581762E+03 -0.22777609859E+02 -0.77860913650E+03  0.85605481322E+03  0.50400001928E-02 0.  1.
       -1    1    3    3    0  502 -0.35507581762E+03  0.22777609859E+02 -0.13194254175E+02  0.35605019890E+03  0.50400001928E-02 0. -1.
</event>
<event>
 5   0  0.8885324E-03  0.9297630E+03  0.7818609E-02  0.9389122E-01
       -1   -1    0    0    0  501  0.00000000000E+00  0.00000000000E+00  0.73831639144E+03  0.73831639146E+03  0.50400001928E-02 0. -1.
        1   -1    0    0  501    0  0.00000000000E+00  0.00000000000E+00 -0.29271298756E+03  0.29271298760E+03  0.50400001928E-02 0.  1.
    10030    2    1    2    0    0  0.00000000000E+00  0.00000000000E+00  0.44560340388E+03  0.10310293791E+04  0.92976297353E+03 0.  0.
        2    1    3    3  502    0 -0.71660557467E+02 -0.12269611974E+03  0.71364624708E+03  0.72765413437E+03  0.25500000920E-02 0. -1.
       -2    1    3    3    0  502  0.71660557467E+02  0.12269611974E+03 -0.26804284319E+03  0.30337524469E+03  0.25500000920E-02 0.  1.
</event>
<event>
 5   0  0.1483326E-02  0.8674000E+03  0.7818609E-02  0.9467276E-01
       -2   -1    0    0    0  501  0.00000000000E+00  0.00000000000E+00  0.14998788777E+03  0.14998788779E+03  0.25500000920E-02 0. -1.
        2   -1    0    0  501    0  0.00000000000E+00  0.00000000000E+00 -0.12540726145E+04  0.12540726145E+04  0.25500000920E-02 0.  1.
    10030    2    1    2    0    0  0.00000000000E+00  0.00000000000E+00 -0.11040847268E+04  0.14040605023E+04  0.86740002900E+03 0.  0.
        1    1    3    3  502    0  0.36930936884E+03  0.16027463271E+03 -0.81314192252E+03  0.90734621506E+03  0.50400001928E-02 0.  1.
       -1    1    3    3    0  502 -0.36930936884E+03 -0.16027463271E+03 -0.29094280425E+03  0.49671428727E+03  0.50400001928E-02 0. -1.
</event>
<event>
 5   0  0.8524692E-03  0.7542493E+03  0.7818609E-02  0.9628707E-01
        1   -1    0    0  501    0  0.00000000000E+00  0.00000000000E+00  0.63260330315E+03  0.63260330317E+03  0.50400001928E-02 0. -1.
       -1   -1    0    0    0  501  0.00000000000E+00  0.00000000000E+00 -0.22482176577E+03  0.22482176582E+03  0.50400001928E-02 0.  1.
    10030    2    1    2    0    0  0.00000000000E+00  0.00000000000E+00  0.40778153738E+03  0.85742506899E+03  0.75424927359E+03 0.  0.
        5    1    3    3  502    0 -0.13335472390E+03 -0.35262551963E+03  0.21358103105E+03  0.43332111223E+03  0.46999998093E+01 0. -1.
       -5    1    3    3    0  502  0.13335472390E+03  0.35262551963E+03  0.19420050634E+03  0.42410395676E+03  0.46999998093E+01 0.  1.
</event>
<event>
 5   0  0.1440615E-02  0.8784586E+03  0.7818609E-02  0.9452917E-01
       -2   -1    0    0    0  501  0.00000000000E+00  0.00000000000E+00  0.12304739330E+03  0.12304739333E+03  0.25500000920E-02 0. -1.
        2   -1    0    0  501    0  0.00000000000E+00  0.00000000000E+00 -0.15678705876E+04  0.15678705876E+04  0.25500000920E-02 0.  1.
    10030    2    1    2    0    0  0.00000000000E+00  0.00000000000E+00 -0.14448231943E+04  0.16909179810E+04  0.87845862479E+03 0.  0.
        3    1    3    3  502    0  0.39841221643E+02 -0.25063488342E+03 -0.32359504546E+02  0.25583650143E+03  0.10100000352E+00 0. -1.
       -3    1    3    3    0  502 -0.39841221643E+02  0.25063488342E+03 -0.14124636898E+04  0.14350814795E+04  0.10100000352E+00 0.  1.
</event>
<event>
 5   0  0.1535906E-02  0.9000895E+03  0.7818609E-02  0.9425470E-01
       -2   -1    0    0    0  501  0.00000000000E+00  0.00000000000E+00  0.13836011181E+03  0.13836011183E+03  0.25500000920E-02 0. -1.
        2   -1    0    0  501    0  0.00000000000E+00  0.00000000000E+00 -0.14638630751E+04  0.14638630751E+04  0.25500000920E-02 0.  1.
    10030    2    1    2    0    0  0.00000000000E+00  0.00000000000E+00 -0.13255029633E+04  0.16022231870E+04  0.90008945948E+03 0.  0.
        2    1    3    3  502    0 -0.19980032090E+03  0.15885167745E+03 -0.13225463717E+04  0.13469532022E+04  0.25500000920E-02 0. -1.
       -2    1    3    3    0  502  0.19980032090E+03 -0.15885167745E+03 -0.29565916052E+01  0.25526998473E+03  0.25500000920E-02 0.  1.
</event>
<event>
 5   0  0.1483326E-02  0.8974048E+03  0.7818609E-02  0.9428831E-01
        2   -1    0    0  501    0  0.00000000000E+00  0.00000000000E+00  0.13617418793E+04  0.13617418793E+04  0.25500000920E-02 0.  1.
       -2   -1    0    0    0  501  0.00000000000E+00  0.00000000000E+00 -0.14785022277E+03  0.14785022279E+03  0.25500000920E-02 0. -1.
    10030    2    1    2    0    0  0.00000000000E+00  0.00000000000E+00  0.12138916565E+04  0.15095921021E+04  0.89740479210E+03 0.  0.
        1    1    3    3  502    0  0.12115124529E+03  0.10476353398E+03 -0.98126065954E+02  0.18783436089E+03  0.50400001928E-02 0. -1.
       -1    1    3    3    0  502 -0.12115124529E+03 -0.10476353398E+03  0.13120177224E+04  0.13217577412E+04  0.50400001928E-02 0.  1.
</event>
<event>
 5   0  0.1440615E-02  0.9087723E+03  0.7818609E-02  0.9414682E-01
        2   -1    0    0  501    0  0.00000000000E+00  0.00000000000E+00  0.12367735754E+04  0.12367735754E+04  0.25500000920E-02 0. -1.
       -2   -1    0    0    0  501  0.00000000000E+00  0.00000000000E+00 -0.16693984350E+03  0.16693984352E+03  0.25500000920E-02 0.  1.
    10030    2    1    2    0    0  0.00000000000E+00  0.00000000000E+00  0.10698337319E+04  0.14037134189E+04  0.90877233042E+03 0.  0.
        3    1    3    3  502    0 -0.42275967231E+03 -0.15066339965E+03  0.64459158562E+03  0.78544479308E+03  0.10100000352E+00 0.  1.
       -3    1    3    3    0  502  0.42275967231E+03  0.15066339965E+03  0.42524214628E+03  0.61826862584E+03  0.10100000352E+00 0. -1.
</event>
<event>
 5   0  0.8291252E-03  0.8812290E+03  0.7818609E-02  0.9449355E-01
       -1   -1    0    0    0  501  0.00000000000E+00  0.00000000000E+00  0.15423600479E+03  0.15423600487E+03  0.50400001928E-02 0.  1.
        1   -1    0    0  501    0  0.00000000000E+00  0.00000000000E+00 -0.12587276316E+04  0.12587276316E+04  0.50400001928E-02 0. -1.
    10030    2    1    2    0    0  0.00000000000E+00  0.00000000000E+00 -0.11044916268E+04  0.14129636365E+04  0.88122896249E+03 0.  0.
        1    1    3    3  502    0 -0.29643605389E+03 -0.16084746047E+03 -0.10068740674E+04  0.10618576304E+04  0.50400001928E-02 0. -1.
       -1    1    3    3    0  502  0.29643605389E+03  0.16084746047E+03 -0.97617559408E+02  0.35110600610E+03  0.50400001928E-02 0.  1.
</event>
<event>
 5   0  0.8524692E-03  0.8801759E+03  0.7818609E-02  0.9450707E-01
        1   -1    0    0  501    0  0.00000000000E+00  0.00000000000E+00  0.78213011676E+03  0.78213011677E+03  0.50400001928E-02 0. -1.
       -1   -1    0    0    0  501  0.00000000000E+00  0.00000000000E+00 -0.24762811659E+03  0.24762811664E+03  0.50400001928E-02 0.  1.
    10030    2    1    2    0    0  0.00000000000E+00  0.00000000000E+00  0.53450200017E+03  0.10297582334E+04  0.88017590918E+03 0.  0.
        5    1    3    3  502    0 -0.16290010068E+03  0.37171251756E+03  0.46630924599E+03  0.61820145698E+03  0.46999998093E+01 0. -1.
       -5    1    3    3    0  502  0.16290010068E+03 -0.37171251756E+03  0.68192754177E+02  0.41155677644E+03  0.46999998093E+01 0.  1.
</event>
<event>
 5   0  0.5770125E-03  0.9265571E+03  0.7818609E-02  0.9392979E-01
        3   -1    0    0  501    0  0.00000000000E+00  0.00000000000E+00  0.65931980841E+03  0.65931981615E+03  0.10100000352E+00 0.  1.
       -3   -1    0    0    0  501  0.00000000000E+00  0.00000000000E+00 -0.32552791280E+03  0.32552792847E+03  0.10100000352E+00 0. -1.
    10030    2    1    2    0    0  0.00000000000E+00  0.00000000000E+00  0.33379189561E+03  0.98484774462E+03  0.92655709511E+03 0.  0.
        2    1    3    3  502    0  0.41465068713E+03 -0.66992457313E+02 -0.40858517039E+02  0.42201018956E+03  0.25500000920E-02 0. -1.
       -2    1    3    3    0  502 -0.41465068713E+03  0.66992457313E+02  0.37465041265E+03  0.56283755505E+03  0.25500000920E-02 0.  1.
</event>
<event>
 5   0  0.1454652E-02  0.9001927E+03  0.7818609E-02  0.9425341E-01
       -2   -1    0    0    0  501  0.00000000000E+00  0.00000000000E+00  0.78371064080E+03  0.78371064081E+03  0.25500000920E-02 0. -1.
        2   -1    0    0  501    0  0.00000000000E+00  0.00000000000E+00 -0.25849684522E+03  0.25849684523E+03  0.25500000920E-02 0.  1.
    10030    2    1    2    0    0  0.00000000000E+00  0.00000000000E+00  0.52521379558E+03  0.10422074860E+04  0.90019270875E+03 0.  0.
        4    1    3    3  502    0  0.15707899594E+03  0.38860491301E+03  0.45248499232E+03  0.61679159411E+03  0.12699999809E+01 0. -1.
       -4    1    3    3    0  502 -0.15707899594E+03 -0.38860491301E+03  0.72728803262E+02  0.42541589193E+03  0.12699999809E+01 0.  1.
</event>
<event>
 5   0  0.1535906E-02  0.9293913E+03  0.7818609E-02  0.9389569E-01
        2   -1    0    0  501    0  0.00000000000E+00  0.00000000000E+00  0.14477786042E+04  0.14477786042E+04  0.25500000920E-02 0.  1.
       -2   -1    0    0    0  501  0.00000000000E+00  0.00000000000E+00 -0.14915405494E+03  0.14915405496E+03  0.25500000920E-02 0. -1.
    10030    2    1    2    0    0  0.00000000000E+00  0.00000000000E+00  0.12986245493E+04  0.15969326592E+04  0.92939130508E+03 0.  0.
        2    1    3    3  502    0 -0.95380221930E+02  0.11604893519E+03  0.14049101918E+04  0.14129180404E+04  0.25500000920E-02 0.  1.
       -2    1    3    3    0  502  0.95380221930E+02 -0.11604893519E+03 -0.10628564250E+03  0.18401461872E+03  0.25500000920E-02 0. -1.
</event>
<event>
 5   0  0.8885324E-03  0.9246118E+03  0.7818609E-02  0.9395328E-01
       -1   -1    0    0    0  501  0.00000000000E+00  0.00000000000E+00  0.45049553369E+03  0.45049553372E+03  0.50400001928E-02 0. -1.
        1   -1    0    0  501    0  0.00000000000E+00  0.00000000000E+00 -0.47442587258E+03  0.47442587261E+03  0.50400001928E-02 0.  1.
    10030    2    1    2    0    0  0.00000000000E+00  0.00000000000E+00 -0.23930338890E+02  0.92492140633E+03  0.92461178165E+03 0.  0.
        2    1    3    3  502    0  0.18391634413E+03  0.33863807851E+03  0.24351371117E+03  0.45585074025E+03  0.25500000920E-02 0. -1.
       -2    1    3    3    0  502 -0.18391634413E+03 -0.33863807851E+03 -0.26744405006E+03  0.46907066608E+03  0.25500000920E-02 0.  1.
</event>
<event>
 5   0  0.5770125E-03  0.7941313E+03  0.7818609E-02  0.9568551E-01
       -4   -1    0    0    0  501  0.00000000000E+00  0.00000000000E+00  0.26140195976E+03  0.26140504483E+03  0.12699999809E+01 0.  1.
        4   -1    0    0  501    0  0.00000000000E+00  0.00000000000E+00 -0.60312949333E+03  0.60313083043E+03  0.12699999809E+01 0. -1.
    10030    2    1    2    0    0  0.00000000000E+00  0.00000000000E+00 -0.34172753357E+03  0.86453587527E+03  0.79413133197E+03 0.  0.
        4    1    3    3  502    0 -0.11141355668E+03  0.13679923285E+03 -0.55811406990E+03  0.58533745706E+03  0.12699999809E+01 0. -1.
       -4    1    3    3    0  502  0.11141355668E+03 -0.13679923285E+03  0.21638653633E+03  0.27919841820E+03  0.12699999809E+01 0.  1.
</event>
<event>
 5   0  0.1483326E-02  0.9003474E+03  0.7818609E-02  0.9425147E-01
        2   -1    0    0  501    0  0.00000000000E+00  0.00000000000E+00  0.45308601729E+03  0.45308601729E+03  0.25500000920E-02 0. -1.
       -2   -1    0    0    0  501  0.00000000000E+00  0.00000000000E+00 -0.44728007925E+03  0.44728007925E+03  0.25500000920E-02 0.  1.
    10030    2    1    2    0    0  0.00000000000E+00  0.00000000000E+00  0.58059380405E+01  0.90036609655E+03  0.90034737679E+03 0.  0.
        1    1    3    3  502    0  0.28377297154E+03 -0.10555331779E+03 -0.33025219411E+03  0.44803472412E+03  0.50400001928E-02 0.  1.
       -1    1    3    3    0  502 -0.28377297154E+03  0.10555331779E+03  0.33605813215E+03  0.45233137243E+03  0.50400001928E-02 0. -1.
</event>
<event>
 5   0  0.8612969E-03  0.8877241E+03  0.7818609E-02  0.9441058E-01
       -1   -1    0    0    0  501  0.00000000000E+00  0.00000000000E+00  0.92720284731E+02  0.92720284868E+02  0.50400001928E-02 0.  1.
        1   -1    0    0  501    0  0.00000000000E+00  0.00000000000E+00 -0.21248158686E+04  0.21248158686E+04  0.50400001928E-02 0. -1.
    10030    2    1    2    0    0  0.00000000000E+00  0.00000000000E+00 -0.20320955838E+04  0.22175361534E+04  0.88772412943E+03 0.  0.
        4    1    3    3  502    0 -0.66170127565E+02  0.21161672500E+03 -0.55528734896E+02  0.22857203981E+03  0.12699999809E+01 0.  1.
       -4    1    3    3    0  502  0.66170127565E+02 -0.21161672500E+03 -0.19765668489E+04  0.19889641136E+04  0.12699999809E+01 0. -1.
</event>
<event>
 5   0  0.8524692E-03  0.8893803E+03  0.7818609E-02  0.9438955E-01
       -1   -1    0    0    0  501  0.00000000000E+00  0.00000000000E+00  0.35850089809E+03  0.35850089812E+03  0.50400001928E-02 0. -1.
        1   -1    0    0  501    0  0.00000000000E+00  0.00000000000E+00 -0.55160063705E+03  0.55160063707E+03  0.50400001928E-02 0.  1.
    10030    2    1    2    0    0  0.00000000000E+00  0.00000000000E+00 -0.19309973896E+03  0.91010153520E+03  0.88938028715E+03 0.  0.
        5    1    3    3  502    0 -0.16939892988E+03 -0.11227817229E+03  0.30817064557E+03  0.36917966115E+03  0.46999998093E+01 0. -1.
       -5    1    3    3    0  502  0.16939892988E+03  0.11227817229E+03 -0.50127038453E+03  0.54092187405E+03  0.46999998093E+01 0.  1.
</event>
<event>
 5   0  0.8291252E-03  0.8937918E+03  0.7818609E-02  0.9433375E-01
        1   -1    0    0  501    0  0.00000000000E+00  0.00000000000E+00  0.34009021851E+03  0.34009021855E+03  0.50400001928E-02 0.  1.
       -1   -1    0    0    0  501  0.00000000000E+00  0.00000000000E+00 -0.58724407136E+03  0.58724407138E+03  0.50400001928E-02 0. -1.
    10030    2    1    2    0    0  0.00000000000E+00  0.00000000000E+00 -0.24715385285E+03  0.92733428993E+03  0.89379184282E+03 0.  0.
        1    1    3    3  502    0 -0.31693474448E+03  0.31110658505E+03 -0.71897759409E+02  0.44989357336E+03  0.50400001928E-02 0.  1.
       -1    1    3    3    0  502  0.31693474448E+03 -0.31110658505E+03 -0.17525609344E+03  0.47744071656E+03  0.50400001928E-02 0. -1.
</event>
<event>
 5   0  0.8738044E-03  0.8499394E+03  0.7818609E-02  0.9490418E-01
        1   -1    0    0  501    0  0.00000000000E+00  0.00000000000E+00  0.36651805173E+03  0.36651805176E+03  0.50400001928E-02 0. -1.
       -1   -1    0    0    0  501  0.00000000000E+00  0.00000000000E+00 -0.49274305680E+03  0.49274305682E+03  0.50400001928E-02 0.  1.
    10030    2    1    2    0    0  0.00000000000E+00  0.00000000000E+00 -0.12622500507E+03  0.85926110858E+03  0.84993935126E+03 0.  0.
        3    1    3    3  502    0 -0.44385436695E+02  0.27116854401E+03  0.26462934698E+03  0.38148544892E+03  0.10100000352E+00 0. -1.
       -3    1    3    3    0  502  0.44385436695E+02 -0.27116854401E+03 -0.39085435205E+03  0.47777565967E+03  0.10100000352E+00 0.  1.
</event>
<event>
 5   0  0.1440615E-02  0.9088450E+03  0.7818609E-02  0.9414592E-01
        2   -1    0    0  501    0  0.00000000000E+00  0.00000000000E+00  0.13671144032E+04  0.13671144032E+04  0.25500000920E-02 0.  1.
       -2   -1    0    0    0  501  0.00000000000E+00  0.00000000000E+00 -0.15104794632E+03  0.15104794634E+03  0.25500000920E-02 0. -1.
    10030    2    1    2    0    0  0.00000000000E+00  0.00000000000E+00  0.12160664569E+04  0.15181623496E+04  0.90884503193E+03 0.  0.
        3    1    3    3  502    0 -0.15746628447E+03  0.24981470239E+03  0.11849893294E+04  0.12212300099E+04  0.10100000352E+00 0.  1.
       -3    1    3    3    0  502  0.15746628447E+03 -0.24981470239E+03  0.31077127559E+02  0.29693233965E+03  0.10100000352E+00 0. -1.
</event>
<event>
 5   0  0.1483326E-02  0.8975226E+03  0.7818609E-02  0.9428684E-01
        2   -1    0    0  501    0  0.00000000000E+00  0.00000000000E+00  0.17076296186E+04  0.17076296186E+04  0.25500000920E-02 0.  1.
       -2   -1    0    0    0  501  0.00000000000E+00  0.00000000000E+00 -0.11793348521E+03  0.11793348524E+03  0.25500000920E-02 0. -1.
    10030    2    1    2    0    0  0.00000000000E+00  0.00000000000E+00  0.15896961334E+04  0.18255631039E+04  0.89752261788E+03 0.  0.
        1    1    3    3  502    0 -0.19793581695E+03  0.36968455139E+03  0.46978001852E+03  0.62971304655E+03  0.50400001928E-02 0. -1.
       -1    1    3    3    0  502  0.19793581695E+03 -0.36968455139E+03  0.11199161149E+04  0.11958500573E+04  0.50400001928E-02 0.  1.
</event>
<event>
 5   0  0.8524692E-03  0.8974109E+03  0.7818609E-02  0.9428824E-01
       -1   -1    0    0    0  501  0.00000000000E+00  0.00000000000E+00  0.19707946982E+03  0.19707946988E+03  0.50400001928E-02 0.  1.
        1   -1    0    0  501    0  0.00000000000E+00  0.00000000000E+00 -0.10216009484E+04  0.10216009485E+04  0.50400001928E-02 0. -1.
    10030    2    1    2    0    0  0.00000000000E+00  0.00000000000E+00 -0.82452147863E+03  0.12186804183E+04  0.89741088322E+03 0.  0.
        5    1    3    3  502    0  0.11573807607E+03  0.41243101513E+03 -0.23098053294E+03  0.48669162833E+03  0.46999998093E+01 0.  1.
       -5    1    3    3    0  502 -0.11573807607E+03 -0.41243101513E+03 -0.59354094570E+03  0.73198879001E+03  0.46999998093E+01 0. -1.
</event>
<event>
 5   0  0.1454652E-02  0.8830939E+03  0.7818609E-02  0.9446965E-01
       -2   -1    0    0    0  501  0.00000000000E+00  0.00000000000E+00  0.38417709492E+03  0.38417709492E+03  0.25500000920E-02 0. -1.
        2   -1    0    0  501    0  0.00000000000E+00  0.00000000000E+00 -0.50748397200E+03  0.50748397201E+03  0.25500000920E-02 0.  1.
    10030    2    1    2    0    0  0.00000000000E+00  0.00000000000E+00 -0.12330687709E+03  0.89166106694E+03  0.88309392046E+03 0.  0.
        4    1    3    3  502    0 -0.26732906003E+03 -0.38524669465E+02 -0.41434591140E+03  0.49460400695E+03  0.12699999809E+01 0.  1.
       -4    1    3    3    0  502  0.26732906003E+03  0.38524669465E+02  0.29103903431E+03  0.39705705999E+03  0.12699999809E+01 0. -1.
</event>
<event>
 5   0  0.8885324E-03  0.9475455E+03  0.7818609E-02  0.9368024E-01
       -1   -1    0    0    0  501  0.00000000000E+00  0.00000000000E+00  0.56743485229E+03  0.56743485231E+03  0.50400001928E-02 0. -1.
        1   -1    0    0  501    0  0.00000000000E+00  0.00000000000E+00 -0.39557070858E+03  0.39557070861E+03  0.50400001928E-02 0.  1.
    10030    2    1    2    0    0  0.00000000000E+00  0.00000000000E+00  0.17186414371E+03  0.96300556092E+03  0.94754547462E+03 0.  0.
        2    1    3    3  502    0  0.27203533529E+03  0.33047190079E+03  0.29233606870E+03  0.51833896045E+03  0.25500000920E-02 0. -1.
       -2    1    3    3    0  502 -0.27203533529E+03 -0.33047190079E+03 -0.12047192499E+03  0.44466660047E+03  0.25500000920E-02 0.  1.
</event>
<event>
 5   0  0.1441195E-02  0.8777187E+03  0.7818609E-02  0.9453871E-01
       -2   -1    0    0    0  501  0.00000000000E+00  0.00000000000E+00  0.16419967059E+03  0.16419967061E+03  0.25500000920E-02 0.  1.
        2   -1    0    0  501    0  0.00000000000E+00  0.00000000000E+00 -0.11729472245E+04  0.11729472245E+04  0.25500000920E-02 0. -1.
    10030    2    1    2    0    0  0.00000000000E+00  0.00000000000E+00 -0.10087475539E+04  0.13371468951E+04  0.87771874287E+03 0.  0.
        5    1    3    3  502    0  0.39163746618E+03  0.59247565178E+02 -0.21658868263E+03  0.45146752523E+03  0.46999998093E+01 0.  1.
       -5    1    3    3    0  502 -0.39163746618E+03 -0.59247565178E+02 -0.79215887125E+03  0.88567936986E+03  0.46999998093E+01 0. -1.
</event>
<event>
 5   0  0.1441195E-02  0.9036993E+03  0.7818609E-02  0.9420969E-01
       -2   -1    0    0    0  501  0.00000000000E+00  0.00000000000E+00  0.32710487138E+03  0.32710487139E+03  0.25500000920E-02 0.  1.
        2   -1    0    0  501    0  0.00000000000E+00  0.00000000000E+00 -0.62416707863E+03  0.62416707863E+03  0.25500000920E-02 0. -1.
    10030    2    1    2    0    0  0.00000000000E+00  0.00000000000E+00 -0.29706220724E+03  0.95127195003E+03  0.90369926853E+03 0.  0.
        5    1    3    3  502    0 -0.30624037903E+03  0.10927164843E+03 -0.47876986185E+03  0.57876258821E+03  0.46999998093E+01 0. -1.
       -5    1    3    3    0  502  0.30624037903E+03 -0.10927164843E+03  0.18170765461E+03  0.37250936182E+03  0.46999998093E+01 0.  1.
</event>
<event>
 5   0  0.1440615E-02  0.9042835E+03  0.7818609E-02  0.9420243E-01
        2   -1    0    0  501    0  0.00000000000E+00  0.00000000000E+00  0.39462692621E+03  0.39462692621E+03  0.25500000920E-02 0. -1.
       -2   -1    0    0    0  501  0.00000000000E+00  0.00000000000E+00 -0.51803903440E+03  0.51803903441E+03  0.25500000920E-02 0.  1.
    10030    2    1    2    0    0  0.00000000000E+00  0.00000000000E+00 -0.12341210820E+03  0.91266596062E+03  0.90428347725E+03 0.  0.
        3    1    3    3  502    0  0.35086785992E+03 -0.28326215170E+03 -0.94972783825E+02  0.46083135915E+03  0.10100000352E+00 0.  1.
       -3    1    3    3    0  502 -0.35086785992E+03  0.28326215170E+03 -0.28439324371E+02  0.45183460147E+03  0.10100000352E+00 0. -1.
</event>
<event>
 5   0  0.1441195E-02  0.9148703E+03  0.7818609E-02  0.9407181E-01
       -2   -1    0    0    0  501  0.00000000000E+00  0.00000000000E+00  0.24388626207E+03  0.24388626208E+03  0.25500000920E-02 0. -1.
        2   -1    0    0  501    0  0.00000000000E+00  0.00000000000E+00 -0.85796922318E+03  0.85796922318E+03  0.25500000920E-02 0.  1.
    10030    2    1    2    0    0  0.00000000000E+00  0.00000000000E+00 -0.61408296111E+03  0.11018554853E+04  0.91487027893E+03 0.  0.
        5    1    3    3  502    0  0.95793395601E+02 -0.18876720600E+03  0.18131431343E+03  0.27875868230E+03  0.46999998093E+01 0. -1.
       -5    1    3    3    0  502 -0.95793395601E+02  0.18876720600E+03 -0.79539727455E+03  0.82309680297E+03  0.46999998093E+01 0.  1.
</event>
<event>
 5   0  0.1535906E-02  0.6802572E+03  0.7818609E-02  0.9751604E-01
        2   -1    0    0  501    0  0.00000000000E+00  0.00000000000E+00  0.49055497021E+03  0.49055497022E+03  0.25500000920E-02 0. -1.
       -2   -1    0    0    0  501  0.00000000000E+00  0.00000000000E+00 -0.23582978642E+03  0.23582978643E+03  0.25500000920E-02 0.  1.
    10030    2    1    2    0    0  0.00000000000E+00  0.00000000000E+00  0.25472518379E+03  0.72638475665E+03  0.68025722740E+03 0.  0.
        2    1    3    3  502    0  0.25492975466E+03  0.78501382342E+02  0.35270779508E+03  0.44221537237E+03  0.25500000920E-02 0. -1.
       -2    1    3    3    0  502 -0.25492975466E+03 -0.78501382342E+02 -0.97982611285E+02  0.28416938428E+03  0.25500000920E-02 0.  1.
</event>
<event>
 5   0  0.1441195E-02  0.9025410E+03  0.7818609E-02  0.9422411E-01
       -2   -1    0    0    0  501  0.00000000000E+00  0.00000000000E+00  0.36668034807E+03  0.36668034808E+03  0.25500000920E-02 0.  1.
        2   -1    0    0  501    0  0.00000000000E+00  0.00000000000E+00 -0.55537492786E+03  0.55537492787E+03  0.25500000920E-02 0. -1.
    10030    2    1    2    0    0  0.00000000000E+00  0.00000000000E+00 -0.18869457979E+03  0.92205527595E+03  0.90254101706E+03 0.  0.
        5    1    3    3  502    0  0.19601301648E+03 -0.32115639021E+03  0.16015838891E+03  0.40894416384E+03  0.46999998093E+01 0.  1.
       -5    1    3    3    0  502 -0.19601301648E+03  0.32115639021E+03 -0.34885296870E+03  0.51311111211E+03  0.46999998093E+01 0. -1.
</event>
<event>
 5   0  0.1535906E-02  0.9136839E+03  0.7818609E-02  0.9408636E-01
        2   -1    0    0  501    0  0.00000000000E+00  0.00000000000E+00  0.10622432045E+04  0.10622432045E+04  0.25500000920E-02 0.  1.
       -2   -1    0    0    0  501  0.00000000000E+00  0.00000000000E+00 -0.19647532386E+03  0.19647532388E+03  0.25500000920E-02 0. -1.
    10030    2    1    2    0    0  0.00000000000E+00  0.00000000000E+00  0.86576788069E+03  0.12587185284E+04  0.91368392269E+03 0.  0.
        2    1    3    3  502    0 -0.28325616946E+03 -0.78334979477E+02 -0.48960107243E+02  0.29793878340E+03  0.25500000920E-02 0. -1.
       -2    1    3    3    0  502  0.28325616946E+03  0.78334979477E+02  0.91472798793E+03  0.96077974503E+03  0.25500000920E-02 0.  1.
</event>
<event>
 5   0  0.1454652E-02  0.8971794E+03  0.7818609E-02  0.9429114E-01
       -2   -1    0    0    0  501  0.00000000000E+00  0.00000000000E+00  0.22431659956E+03  0.22431659957E+03  0.25500000920E-02 0.  1.
        2   -1    0    0  501    0  0.00000000000E+00  0.00000000000E+00 -0.89709244292E+03  0.89709244292E+03  0.25500000920E-02 0. -1.
    10030    2    1    2    0    0  0.00000000000E+00  0.00000000000E+00 -0.67277584336E+03  0.11214090425E+04  0.89717941638E+03 0.  0.
        4    1    3    3  502    0  0.23862245789E+02  0.41786150179E+03 -0.13463605773E+03  0.43966592135E+03  0.12699999809E+01 0.  1.
       -4    1    3    3    0  502 -0.23862245789E+02 -0.41786150179E+03 -0.53813978563E+03  0.68174312115E+03  0.12699999809E+01 0. -1.
</event>
<event>
 5   0  0.1483326E-02  0.8965706E+03  0.7818609E-02  0.9429879E-01
        2   -1    0    0  501    0  0.00000000000E+00  0.00000000000E+00  0.61654632350E+03  0.61654632350E+03  0.25500000920E-02 0.  1.
       -2   -1    0    0    0  501  0.00000000000E+00  0.00000000000E+00 -0.32594419327E+03  0.32594419328E+03  0.25500000920E-02 0. -1.
    10030    2    1    2    0    0  0.00000000000E+00  0.00000000000E+00  0.29060213023E+03  0.94249051678E+03  0.89657056395E+03 0.  0.
        1    1    3    3  502    0 -0.41706879569E+03 -0.10416626117E+03  0.11657048781E+02  0.43003822750E+03  0.50400001928E-02 0.  1.
       -1    1    3    3    0  502  0.41706879569E+03  0.10416626117E+03  0.27894508145E+03  0.51245228928E+03  0.50400001928E-02 0. -1.
</event>
<event>
 5   0  0.8291252E-03  0.9037223E+03  0.7818609E-02  0.9420940E-01
       -1   -1    0    0    0  501  0.00000000000E+00  0.00000000000E+00  0.13161332726E+03  0.13161332735E+03  0.50400001928E-02 0. -1.
        1   -1    0    0  501    0  0.00000000000E+00  0.00000000000E+00 -0.15513511411E+04  0.15513511411E+04  0.50400001928E-02 0.  1.
    10030    2    1    2    0    0  0.00000000000E+00  0.00000000000E+00 -0.14197378139E+04  0.16829644685E+04  0.90372227043E+03 0.  0.
        1    1    3    3  502    0  0.93650462081E+02 -0.41465653617E+03 -0.99515349582E+03  0.10821464468E+04  0.50400001928E-02 0.  1.
       -1    1    3    3    0  502 -0.93650462081E+02  0.41465653617E+03 -0.42458431805E+03  0.60081802170E+03  0.50400001928E-02 0. -1.
</event>
<event>
 5   0  0.8524692E-03  0.9135679E+03  0.7818609E-02  0.9408778E-01
        1   -1    0    0  501    0  0.00000000000E+00  0.00000000000E+00  0.95780744719E+03  0.95780744721E+03  0.50400001928E-02 0. -1.
       -1   -1    0    0    0  501  0.00000000000E+00  0.00000000000E+00 -0.21784294472E+03  0.21784294477E+03  0.50400001928E-02 0.  1.
    10030    2    1    2    0    0  0.00000000000E+00  0.00000000000E+00  0.73996450248E+03  0.11756503920E+04  0.91356793904E+03 0.  0.
        5    1    3    3  502    0 -0.21316707044E+03  0.90839666562E+02  0.87652436565E+03  0.90664717422E+03  0.46999998093E+01 0. -1.
       -5    1    3    3    0  502  0.21316707044E+03 -0.90839666562E+02 -0.13655986317E+03  0.26900321776E+03  0.46999998093E+01 0.  1.
</event>
<event>
 5   0  0.8885324E-03  0.9039432E+03  0.7818609E-02  0.9420666E-01
       -1   -1    0    0    0  501  0.00000000000E+00  0.00000000000E+00  0.75083663050E+03  0.75083663051E+03  0.50400001928E-02 0.  1.
        1   -1    0    0  501    0  0.00000000000E+00  0.00000000000E+00 -0.27206761834E+03  0.27206761839E+03  0.50400001928E-02 0. -1.
    10030    2    1    2    0    0  0.00000000000E+00  0.00000000000E+00  0.47876901215E+03  0.10229042489E+04  0.90394321472E+03 0.  0.
        2    1    3    3  502    0  0.31058347011E+03  0.80903552614E+02  0.59949524792E+03  0.68000149193E+03  0.25500000920E-02 0.  1.
       -2    1    3    3    0  502 -0.31058347011E+03 -0.80903552614E+02 -0.12072623577E+03  0.34290275698E+03  0.25500000920E-02 0. -1.
</event>
<event>
 5   0  0.8524692E-03  0.9017605E+03  0.7818609E-02  0.9423383E-01
       -1   -1    0    0    0  501  0.00000000000E+00  0.00000000000E+00  0.84645236542E+03  0.84645236544E+03  0.50400001928E-02 0. -1.
        1   -1    0    0  501    0  0.00000000000E+00  0.00000000000E+00 -0.24017062927E+03  0.24017062932E+03  0.50400001928E-02 0.  1.
    10030    2    1    2    0    0  0.00000000000E+00  0.00000000000E+00  0.60628173615E+03  0.10866229948E+04  0.90176049434E+03 0.  0.
        5    1    3    3  502    0 -0.12806175099E+03  0.16293089287E+03 -0.17934855213E+03  0.27410633168E+03  0.46999998093E+01 0.  1.
       -5    1    3    3    0  502  0.12806175099E+03 -0.16293089287E+03  0.78563028828E+03  0.81251666308E+03  0.46999998093E+01 0. -1.
</event>
<event>
 5   0  0.1483326E-02  0.9080031E+03  0.7818609E-02  0.9415632E-01
       -2   -1    0    0    0  501  0.00000000000E+00  0.00000000000E+00  0.71608383394E+03  0.71608383395E+03  0.25500000920E-02 0.  1.
        2   -1    0    0  501    0  0.00000000000E+00  0.00000000000E+00 -0.28783979221E+03  0.28783979222E+03  0.25500000920E-02 0. -1.
    10030    2    1    2    0    0  0.00000000000E+00  0.00000000000E+00  0.42824404173E+03  0.10039236262E+04  0.90800313209E+03 0.  0.
        1    1    3    3  502    0  0.30560376587E+03  0.19303791519E+03 -0.89597065144E+02  0.37240425954E+03  0.50400001928E-02 0. -1.
       -1    1    3    3    0  502 -0.30560376587E+03 -0.19303791519E+03  0.51784110688E+03  0.63151936662E+03  0.50400001928E-02 0.  1.
</event>
<event>
 5   0  0.1454652E-02  0.9002651E+03  0.7818609E-02  0.9425250E-01
       -2   -1    0    0    0  501  0.00000000000E+00  0.00000000000E+00  0.29144253528E+03  0.29144253529E+03  0.25500000920E-02 0. -1.
        2   -1    0    0  501    0  0.00000000000E+00  0.00000000000E+00 -0.69522896229E+03  0.69522896229E+03  0.25500000920E-02 0.  1.
    10030    2    1    2    0    0  0.00000000000E+00  0.00000000000E+00 -0.40378642700E+03  0.98667149758E+03  0.90026505292E+03 0.  0.
        4    1    3    3  502    0  0.99982882273E+02 -0.19807376696E+03 -0.63113077599E+03  0.66899735665E+03  0.12699999809E+01 0.  1.
       -4    1    3    3    0  502 -0.99982882273E+02  0.19807376696E+03  0.22734434899E+03  0.31767414094E+03  0.12699999809E+01 0. -1.
</event>
<event>
 5   0  0.8612969E-03  0.8951880E+03  0.7818609E-02  0.9431617E-01
        1   -1    0    0  501    0  0.00000000000E+00  0.00000000000E+00  0.58848307614E+03  0.58848307616E+03  0.50400001928E-02 0. -1.
       -1   -1    0    0    0  501  0.00000000000E+00  0.00000000000E+00 -0.34043528420E+03  0.34043528424E+03  0.50400001928E-02 0.  1.
    10030    2    1    2    0    0  0.00000000000E+00  0.00000000000E+00  0.24804779193E+03  0.92891836040E+03  0.89518803232E+03 0.  0.
        4    1    3    3  502    0 -0.18834064136E+03  0.35761983654E+03 -0.75509360363E+02  0.41117808924E+03  0.12699999809E+01 0.  1.
       -4    1    3    3    0  502  0.18834064136E+03 -0.35761983654E+03  0.32355715230E+03  0.51774027115E+03  0.12699999809E+01 0. -1.
</event>
<event>
 5   0  0.8885324E-03  0.9121828E+03  0.7818609E-02  0.9410479E-01
       -1   -1    0    0    0  501  0.00000000000E+00  0.00000000000E+00  0.23508586179E+03  0.23508586184E+03  0.50400001928E-02 0. -1.
        1   -1    0    0  501    0  0.00000000000E+00  0.00000000000E+00 -0.88486540060E+03  0.88486540061E+03  0.50400001928E-02 0.  1.
    10030    2    1    2    0    0  0.00000000000E+00  0.00000000000E+00 -0.64977953881E+03  0.11199512625E+04  0.91218275647E+03 0.  0.
        2    1    3    3  502    0  0.12189353607E+03 -0.21692419818E+03 -0.79418928614E+03  0.83225642930E+03  0.25500000920E-02 0.  1.
       -2    1    3    3    0  502 -0.12189353607E+03  0.21692419818E+03  0.14440974733E+03  0.28769483315E+03  0.25500000920E-02 0. -1.
</event>
<event>
 5   0  0.8885324E-03  0.8908168E+03  0.7818609E-02  0.9437134E-01
       -1   -1    0    0    0  501  0.00000000000E+00  0.00000000000E+00  0.13438117416E+03  0.13438117426E+03  0.50400001928E-02 0.  1.
        1   -1    0    0  501    0  0.00000000000E+00  0.00000000000E+00 -0.14763127271E+04  0.14763127271E+04  0.50400001928E-02 0. -1.
    10030    2    1    2    0    0  0.00000000000E+00  0.00000000000E+00 -0.13419315530E+04  0.16106939014E+04  0.89081678876E+03 0.  0.
        2    1    3    3  502    0  0.58360787040E+02 -0.39610785607E+03 -0.31812394893E+03  0.51138074074E+03  0.25500000920E-02 0.  1.
       -2    1    3    3    0  502 -0.58360787040E+02  0.39610785607E+03 -0.10238076040E+04  0.10993131606E+04  0.25500000920E-02 0. -1.
</event>
<event>
 5   0  0.1535906E-02  0.9063246E+03  0.7818609E-02  0.9417710E-01
       -2   -1    0    0    0  501  0.00000000000E+00  0.00000000000E+00  0.29795682172E+03  0.29795682173E+03  0.25500000920E-02 0. -1.
        2   -1    0    0  501    0  0.00000000000E+00  0.00000000000E+00 -0.68921426401E+03  0.68921426401E+03  0.25500000920E-02 0.  1.
    10030    2    1    2    0    0  0.00000000000E+00  0.00000000000E+00 -0.39125744229E+03  0.98717108574E+03  0.90632464734E+03 0.  0.
        2    1    3    3  502    0  0.20198273873E+02  0.30187302592E+03  0.17183921303E+03  0.34794253719E+03  0.25500000920E-02 0. -1.
       -2    1    3    3    0  502 -0.20198273873E+02 -0.30187302592E+03 -0.56309665532E+03  0.63922854855E+03  0.25500000920E-02 0.  1.
</event>
<event>
 5   0  0.8291252E-03  0.9694222E+03  0.7818609E-02  0.9342733E-01
        1   -1    0    0  501    0  0.00000000000E+00  0.00000000000E+00  0.17750052787E+04  0.17750052787E+04  0.50400001928E-02 0. -1.
       -1   -1    0    0    0  501  0.00000000000E+00  0.00000000000E+00 -0.13236291040E+03  0.13236291050E+03  0.50400001928E-02 0.  1.
    10030    2    1    2    0    0  0.00000000000E+00  0.00000000000E+00  0.16426423683E+04  0.19073681892E+04  0.96942222951E+03 0.  0.
        1    1    3    3  502    0  0.11373764561E+03  0.45359137434E+03  0.57040523237E+03  0.73759305586E+03  0.50400001928E-02 0. -1.
       -1    1    3    3    0  502 -0.11373764561E+03 -0.45359137434E+03  0.10722371360E+04  0.11697751334E+04  0.50400001928E-02 0.  1.
</event>
<event>
 5   0  0.8885324E-03  0.8982709E+03  0.7818609E-02  0.9427745E-01
       -1   -1    0    0    0  501  0.00000000000E+00  0.00000000000E+00  0.26408631160E+03  0.26408631165E+03  0.50400001928E-02 0. -1.
        1   -1    0    0  501    0  0.00000000000E+00  0.00000000000E+00 -0.76385117851E+03  0.76385117852E+03  0.50400001928E-02 0.  1.
    10030    2    1    2    0    0  0.00000000000E+00  0.00000000000E+00 -0.49976486691E+03  0.10279374902E+04  0.89827087312E+03 0.  0.
        2    1    3    3  502    0 -0.29166277185E+03 -0.68815058939E+02  0.13295390372E+03  0.32784054865E+03  0.25500000920E-02 0. -1.
       -2    1    3    3    0  502  0.29166277185E+03  0.68815058939E+02 -0.63271877062E+03  0.70009694152E+03  0.25500000920E-02 0.  1.
</event>
<event>
 5   0  0.8738044E-03  0.7954757E+03  0.7818609E-02  0.9566589E-01
        1   -1    0    0  501    0  0.00000000000E+00  0.00000000000E+00  0.12791104599E+03  0.12791104609E+03  0.50400001928E-02 0.  1.
       -1   -1    0    0    0  501  0.00000000000E+00  0.00000000000E+00 -0.12367609633E+04  0.12367609633E+04  0.50400001928E-02 0. -1.
    10030    2    1    2    0    0  0.00000000000E+00  0.00000000000E+00 -0.11088499173E+04  0.13646720094E+04  0.79547567789E+03 0.  0.
        3    1    3    3  502    0  0.38702436113E+03 -0.73973049236E+02 -0.46147628953E+03  0.60681153922E+03  0.10100000352E+00 0.  1.
       -3    1    3    3    0  502 -0.38702436113E+03  0.73973049236E+02 -0.64737362776E+03  0.75786047017E+03  0.10100000352E+00 0. -1.
</event>
<event>
 5   0  0.8612969E-03  0.9004398E+03  0.7818609E-02  0.9425032E-01
       -1   -1    0    0    0  501  0.00000000000E+00  0.00000000000E+00  0.54636033359E+03  0.54636033361E+03  0.50400001928E-02 0. -1.
        1   -1    0    0  501    0  0.00000000000E+00  0.00000000000E+00 -0.37099685056E+03  0.37099685060E+03  0.50400001928E-02 0.  1.
    10030    2    1    2    0    0  0.00000000000E+00  0.00000000000E+00  0.17536348303E+03  0.91735718421E+03  0.90043981045E+03 0.  0.
        4    1    3    3  502    0  0.11264345377E+03  0.11839939087E+03 -0.33971087731E+03  0.37697752785E+03  0.12699999809E+01 0.  1.
       -4    1    3    3    0  502 -0.11264345377E+03 -0.11839939087E+03  0.51507436034E+03  0.54037965637E+03  0.12699999809E+01 0. -1.
</event>
<event>
 5   0  0.1454652E-02  0.9013662E+03  0.7818609E-02  0.9423875E-01
       -2   -1    0    0    0  501  0.00000000000E+00  0.00000000000E+00  0.19871679934E+03  0.19871679935E+03  0.25500000920E-02 0.  1.
        2   -1    0    0  501    0  0.00000000000E+00  0.00000000000E+00 -0.10221342243E+04  0.10221342243E+04  0.25500000920E-02 0. -1.
    10030    2    1    2    0    0  0.00000000000E+00  0.00000000000E+00 -0.82341742498E+03  0.12208510237E+04  0.90136616657E+03 0.  0.
        4    1    3    3  502    0 -0.16361085848E+03 -0.43538104182E+02  0.15400452979E+03  0.22887351884E+03  0.12699999809E+01 0.  1.
       -4    1    3    3    0  502  0.16361085848E+03  0.43538104182E+02 -0.97742195477E+03  0.99197750484E+03  0.12699999809E+01 0. -1.
</event>
<event>
 5   0  0.1535906E-02  0.9240298E+03  0.7818609E-02  0.9396032E-01
        2   -1    0    0  501    0  0.00000000000E+00  0.00000000000E+00  0.53347020994E+03  0.53347020995E+03  0.25500000920E-02 0. -1.
       -2   -1    0    0    0  501  0.00000000000E+00  0.00000000000E+00 -0.40013066303E+03  0.40013066304E+03  0.25500000920E-02 0.  1.
    10030    2    1    2    0    0  0.00000000000E+00  0.00000000000E+00  0.13333954691E+03  0.93360087298E+03  0.92402984544E+03 0.  0.
        2    1    3    3  502    0  0.42463253236E+03 -0.15788747134E+03 -0.24914296585E+02  0.45372013766E+03  0.25500000920E-02 0.  1.
       -2    1    3    3    0  502 -0.42463253236E+03  0.15788747134E+03  0.15825384350E+03  0.47988073532E+03  0.25500000920E-02 0. -1.
</event>
<event>
 5   0  0.1441195E-02  0.6607887E+03  0.7818609E-02  0.9786743E-01
        2   -1    0    0  501    0  0.00000000000E+00  0.00000000000E+00  0.44829066660E+03  0.44829066661E+03  0.25500000920E-02 0.  1.
       -2   -1    0    0    0  501  0.00000000000E+00  0.00000000000E+00 -0.24350370050E+03  0.24350370051E+03  0.25500000920E-02 0. -1.
    10030    2    1    2    0    0  0.00000000000E+00  0.00000000000E+00  0.20478696610E+03  0.69179436712E+03  0.66078872940E+03 0.  0.
        5    1    3    3  502    0  0.16288921827E+03 -0.12839979336E+03  0.37159490027E+03  0.42558696440E+03  0.46999998093E+01 0.  1.
       -5    1    3    3    0  502 -0.16288921827E+03  0.12839979336E+03 -0.16680793417E+03  0.26620740272E+03  0.46999998093E+01 0. -1.
</event>
<event>
 5   0  0.1440615E-02  0.8978183E+03  0.7818609E-02  0.9428313E-01
       -2   -1    0    0    0  501  0.00000000000E+00  0.00000000000E+00  0.39969494570E+03  0.39969494571E+03  0.25500000920E-02 0. -1.
        2   -1    0    0  501    0  0.00000000000E+00  0.00000000000E+00 -0.50418308228E+03  0.50418308229E+03  0.25500000920E-02 0.  1.
    10030    2    1    2    0    0  0.00000000000E+00  0.00000000000E+00 -0.10448813658E+03  0.90387802800E+03  0.89781831058E+03 0.  0.
        3    1    3    3  502    0 -0.14018267050E+03  0.38969000021E+03  0.12215893123E+03  0.43177805879E+03  0.10100000352E+00 0.  1.
       -3    1    3    3    0  502  0.14018267050E+03 -0.38969000021E+03 -0.22664706781E+03  0.47209996920E+03  0.10100000352E+00 0. -1.
</event>
<event>
 5   0  0.1483326E-02  0.9008254E+03  0.7818609E-02  0.9424550E-01
       -2   -1    0    0    0  501  0.00000000000E+00  0.00000000000E+00  0.76951038022E+03  0.76951038022E+03  0.25500000920E-02 0.  1.
        2   -1    0    0  501    0  0.00000000000E+00  0.00000000000E+00 -0.26363724664E+03  0.26363724665E+03  0.25500000920E-02 0. -1.
    10030    2    1    2    0    0  0.00000000000E+00  0.00000000000E+00  0.50587313358E+03  0.10331476269E+04  0.90082539465E+03 0.  0.
        1    1    3    3  502    0 -0.20808305632E+03  0.38024109376E+03  0.11251980311E+03  0.44781977829E+03  0.50400001928E-02 0. -1.
       -1    1    3    3    0  502  0.20808305632E+03 -0.38024109376E+03  0.39335333047E+03  0.58532784859E+03  0.50400001928E-02 0.  1.
</event>
<event>
 5   0  0.8738044E-03  0.8894582E+03  0.7818609E-02  0.9438856E-01
       -1   -1    0    0    0  501  0.00000000000E+00  0.00000000000E+00  0.18608622753E+03  0.18608622760E+03  0.50400001928E-02 0.  1.
        1   -1    0    0  501    0  0.00000000000E+00  0.00000000000E+00 -0.10628619360E+04  0.10628619360E+04  0.50400001928E-02 0. -1.
    10030    2    1    2    0    0  0.00000000000E+00  0.00000000000E+00 -0.87677570843E+03  0.12489481636E+04  0.88945819036E+03 0.  0.
        3    1    3    3  502    0  0.34894870575E+02  0.84117483380E+02 -0.10496291095E+04  0.10535723425E+04  0.10100000352E+00 0. -1.
       -3    1    3    3    0  502 -0.34894870575E+02 -0.84117483380E+02  0.17285340111E+03  0.19537582112E+03  0.10100000352E+00 0.  1.
</event>
<event>
 5   0  0.8738044E-03  0.8789083E+03  0.7818609E-02  0.9452338E-01
       -1   -1    0    0    0  501  0.00000000000E+00  0.00000000000E+00  0.21220999893E+03  0.21220999899E+03  0.50400001928E-02 0.  1.
        1   -1    0    0  501    0  0.00000000000E+00  0.00000000000E+00 -0.91004173385E+03  0.91004173387E+03  0.50400001928E-02 0. -1.
    10030    2    1    2    0    0  0.00000000000E+00  0.00000000000E+00 -0.69783173492E+03  0.11222517329E+04  0.87890831242E+03 0.  0.
        3    1    3    3  502    0  0.35140454323E+03 -0.26186553235E+03 -0.30731977542E+03  0.53526083791E+03  0.10100000352E+00 0.  1.
       -3    1    3    3    0  502 -0.35140454323E+03  0.26186553235E+03 -0.39051195950E+03  0.58699089494E+03  0.10100000352E+00 0. -1.
</event>
<event>
 5   0  0.1441195E-02  0.8841841E+03  0.7818609E-02  0.9445571E-01
        2   -1    0    0  501    0  0.00000000000E+00  0.00000000000E+00  0.52026525724E+03  0.52026525725E+03  0.25500000920E-02 0.  1.
       -2   -1    0    0    0  501  0.00000000000E+00  0.00000000000E+00 -0.37566486843E+03  0.37566486844E+03  0.25500000920E-02 0. -1.
    10030    2    1    2    0    0  0.00000000000E+00  0.00000000000E+00  0.14460038881E+03  0.89593012569E+03  0.88418409717E+03 0.  0.
        5    1    3    3  502    0 -0.15214440194E+03  0.13302449616E+03 -0.32608930840E+03  0.38366621258E+03  0.46999998093E+01 0. -1.
       -5    1    3    3    0  502  0.15214440194E+03 -0.13302449616E+03  0.47068969721E+03  0.51226391312E+03  0.46999998093E+01 0.  1.
</event>
<event>
 5   0  0.8612969E-03  0.8818625E+03  0.7818609E-02  0.9448543E-01
        1   -1    0    0  501    0  0.00000000000E+00  0.00000000000E+00  0.43141816825E+03  0.43141816828E+03  0.50400001928E-02 0. -1.
       -1   -1    0    0    0  501  0.00000000000E+00  0.00000000000E+00 -0.45065412324E+03  0.45065412326E+03  0.50400001928E-02 0.  1.
    10030    2    1    2    0    0  0.00000000000E+00  0.00000000000E+00 -0.19235954981E+02  0.88207229155E+03  0.88186252078E+03 0.  0.
        4    1    3    3  502    0 -0.29261871043E+03 -0.16187748291E+03 -0.29706889531E+03  0.44730478494E+03  0.12699999809E+01 0.  1.
       -4    1    3    3    0  502  0.29261871043E+03  0.16187748291E+03  0.27783294033E+03  0.43476750661E+03  0.12699999809E+01 0. -1.
</event>
<event>
 5   0  0.1483326E-02  0.9032406E+03  0.7818609E-02  0.9421540E-01
       -2   -1    0    0    0  501  0.00000000000E+00  0.00000000000E+00  0.15463624281E+03  0.15463624283E+03  0.25500000920E-02 0.  1.
        2   -1    0    0  501    0  0.00000000000E+00  0.00000000000E+00 -0.13189721742E+04  0.13189721742E+04  0.25500000920E-02 0. -1.
    10030    2    1    2    0    0  0.00000000000E+00  0.00000000000E+00 -0.11643359314E+04  0.14736084170E+04  0.90324061337E+03 0.  0.
        1    1    3    3  502    0  0.32975768774E+03  0.23191077309E+03 -0.25006031621E+03  0.47439740837E+03  0.50400001928E-02 0.  1.
       -1    1    3    3    0  502 -0.32975768774E+03 -0.23191077309E+03 -0.91427561516E+03  0.99921100865E+03  0.50400001928E-02 0. -1.
</event>
<event>
 5   0  0.1440615E-02  0.9005378E+03  0.7818609E-02  0.9424909E-01
       -2   -1    0    0    0  501  0.00000000000E+00  0.00000000000E+00  0.26151551641E+03  0.26151551642E+03  0.25500000920E-02 0.  1.
        2   -1    0    0  501    0  0.00000000000E+00  0.00000000000E+00 -0.77525831786E+03  0.77525831787E+03  0.25500000920E-02 0. -1.
    10030    2    1    2    0    0  0.00000000000E+00  0.00000000000E+00 -0.51374280145E+03  0.10367738343E+04  0.90053779344E+03 0.  0.
        3    1    3    3  502    0  0.55783956773E+02  0.19816977878E+02 -0.77075840318E+03  0.77302851740E+03  0.10100000352E+00 0. -1.
       -3    1    3    3    0  502 -0.55783956773E+02 -0.19816977878E+02  0.25701560173E+03  0.26374531688E+03  0.10100000352E+00 0.  1.
</event>
<event>
 5   0  0.5770125E-03  0.9061383E+03  0.7818609E-02  0.9417941E-01
       -3   -1    0    0    0  501  0.00000000000E+00  0.00000000000E+00  0.13863699638E+03  0.13863703317E+03  0.10100000352E+00 0. -1.
        3   -1    0    0  501    0  0.00000000000E+00  0.00000000000E+00 -0.14806408959E+04  0.14806408994E+04  0.10100000352E+00 0.  1.
    10030    2    1    2    0    0  0.00000000000E+00  0.00000000000E+00 -0.13420038995E+04  0.16192779325E+04  0.90613826560E+03 0.  0.
        3    1    3    3  502    0 -0.42662638371E+03 -0.11326958684E+03 -0.85351819327E+03  0.96090238163E+03  0.10100000352E+00 0. -1.
       -3    1    3    3    0  502  0.42662638371E+03  0.11326958684E+03 -0.48848570627E+03  0.65837555089E+03  0.10100000352E+00 0.  1.
</event>
<event>
 5   0  0.8291252E-03  0.9288545E+03  0.7818609E-02  0.9390214E-01
       -1   -1    0    0    0  501  0.00000000000E+00  0.00000000000E+00  0.19796736345E+03  0.19796736351E+03  0.50400001928E-02 0.  1.
        1   -1    0    0  501    0  0.00000000000E+00  0.00000000000E+00 -0.10895364230E+04  0.10895364230E+04  0.50400001928E-02 0. -1.
    10030    2    1    2    0    0  0.00000000000E+00  0.00000000000E+00 -0.89156905953E+03  0.12875037865E+04  0.92885446242E+03 0.  0.
        1    1    3    3  502    0 -0.17424319566E+03 -0.19617359997E+03 -0.97695593127E+03  0.10115768207E+04  0.50400001928E-02 0. -1.
       -1    1    3    3    0  502  0.17424319566E+03  0.19617359997E+03  0.85386871737E+02  0.27592696579E+03  0.50400001928E-02 0.  1.
</event>
<event>
 5   0  0.1440615E-02  0.9124653E+03  0.7818609E-02  0.9410132E-01
       -2   -1    0    0    0  501  0.00000000000E+00  0.00000000000E+00  0.10985128939E+03  0.10985128942E+03  0.25500000920E-02 0. -1.
        2   -1    0    0  501    0  0.00000000000E+00  0.00000000000E+00 -0.18948181610E+04  0.18948181610E+04  0.25500000920E-02 0.  1.
    10030    2    1    2    0    0  0.00000000000E+00  0.00000000000E+00 -0.17849668716E+04  0.20046694504E+04  0.91246527203E+03 0.  0.
        3    1    3    3  502    0  0.30787373975E+03  0.54732636508E+02 -0.16261483129E+03  0.35245637274E+03  0.10100000352E+00 0.  1.
       -3    1    3    3    0  502 -0.30787373975E+03 -0.54732636508E+02 -0.16223520403E+04  0.16522130776E+04  0.10100000352E+00 0. -1.
</event>
<event>
 5   0  0.1483326E-02  0.8879858E+03  0.7818609E-02  0.9440726E-01
       -2   -1    0    0    0  501  0.00000000000E+00  0.00000000000E+00  0.18175019215E+03  0.18175019217E+03  0.25500000920E-02 0.  1.
        2   -1    0    0  501    0  0.00000000000E+00  0.00000000000E+00 -0.10846187904E+04  0.10846187904E+04  0.25500000920E-02 0. -1.
    10030    2    1    2    0    0  0.00000000000E+00  0.00000000000E+00 -0.90286859822E+03  0.12663689825E+04  0.88798575119E+03 0.  0.
        1    1    3    3  502    0 -0.70366222960E+02 -0.25202502194E+03 -0.96297340142E+03  0.99789066981E+03  0.50400001928E-02 0. -1.
       -1    1    3    3    0  502  0.70366222960E+02  0.25202502194E+03  0.60104803207E+02  0.26847831274E+03  0.50400001928E-02 0.  1.
</event>
<event>
 5   0  0.8885324E-03  0.1067247E+04  0.7818609E-02  0.9237717E-01
       -1   -1    0    0    0  501  0.00000000000E+00  0.00000000000E+00  0.53746122186E+03  0.53746122188E+03  0.50400001928E-02 0.  1.
        1   -1    0    0  501    0  0.00000000000E+00  0.00000000000E+00 -0.52981287740E+03  0.52981287742E+03  0.50400001928E-02 0. -1.
    10030    2    1    2    0    0  0.00000000000E+00  0.00000000000E+00  0.76483444612E+01  0.10672740993E+04  0.10672466940E+04 0.  0.
        2    1    3    3  502    0  0.21875728606E+03  0.38398681640E+03 -0.29527087152E+03  0.53149366219E+03  0.25500000920E-02 0. -1.
       -2    1    3    3    0  502 -0.21875728606E+03 -0.38398681640E+03  0.30291921598E+03  0.53578043711E+03  0.25500000920E-02 0.  1.
</event>
<event>
 5   0  0.1454652E-02  0.9093168E+03  0.7818609E-02  0.9414009E-01
        2   -1    0    0  501    0  0.00000000000E+00  0.00000000000E+00  0.22667347403E+03  0.22667347405E+03  0.25500000920E-02 0.  1.
       -2   -1    0    0    0  501  0.00000000000E+00  0.00000000000E+00 -0.91194724773E+03  0.91194724774E+03  0.25500000920E-02 0. -1.
    10030    2    1    2    0    0  0.00000000000E+00  0.00000000000E+00 -0.68527377370E+03  0.11386207218E+04  0.90931677822E+03 0.  0.
        4    1    3    3  502    0  0.61497330366E+01 -0.51002660464E+02  0.22302541384E+03  0.22886904271E+03  0.12699999809E+01 0.  1.
       -4    1    3    3    0  502 -0.61497330366E+01  0.51002660464E+02 -0.90829918754E+03  0.90975167907E+03  0.12699999809E+01 0. -1.
</event>
<event>
 5   0  0.1535906E-02  0.9460032E+03  0.7818609E-02  0.9369834E-01
       -2   -1    0    0    0  501  0.00000000000E+00  0.00000000000E+00  0.17938816218E+03  0.17938816220E+03  0.25500000920E-02 0.  1.
        2   -1    0    0  501    0  0.00000000000E+00  0.00000000000E+00 -0.12471866529E+04  0.12471866529E+04  0.25500000920E-02 0. -1.
    10030    2    1    2    0    0  0.00000000000E+00  0.00000000000E+00 -0.10677984907E+04  0.14265748151E+04  0.94600321685E+03 0.  0.
        2    1    3    3  502    0 -0.24701962562E+03 -0.37092271616E+03 -0.29485278082E+03  0.53435991538E+03  0.25500000920E-02 0.  1.
       -2    1    3    3    0  502  0.24701962562E+03  0.37092271616E+03 -0.77294570989E+03  0.89221489971E+03  0.25500000920E-02 0. -1.
</event>
<event>
 5   0  0.8738044E-03  0.9022881E+03  0.7818609E-02  0.9422726E-01
       -1   -1    0    0    0  501  0.00000000000E+00  0.00000000000E+00  0.48885017078E+03  0.48885017081E+03  0.50400001928E-02 0. -1.
        1   -1    0    0  501    0  0.00000000000E+00  0.00000000000E+00 -0.41634627452E+03  0.41634627455E+03  0.50400001928E-02 0.  1.
    10030    2    1    2    0    0  0.00000000000E+00  0.00000000000E+00  0.72503896261E+02  0.90519644535E+03  0.90228808576E+03 0.  0.
        3    1    3    3  502    0  0.31366171088E+03  0.32049260065E+03  0.85723790822E+02  0.45656078944E+03  0.10100000352E+00 0. -1.
       -3    1    3    3    0  502 -0.31366171088E+03 -0.32049260065E+03 -0.13219894561E+02  0.44863565591E+03  0.10100000352E+00 0.  1.
</event>
<event>
 5   0  0.8612969E-03  0.1083369E+04  0.7818609E-02  0.9221555E-01
       -1   -1    0    0    0  501  0.00000000000E+00  0.00000000000E+00  0.21252008379E+03  0.21252008385E+03  0.50400001928E-02 0.  1.
        1   -1    0    0  501    0  0.00000000000E+00  0.00000000000E+00 -0.13806801271E+04  0.13806801271E+04  0.50400001928E-02 0. -1.
    10030    2    1    2    0    0  0.00000000000E+00  0.00000000000E+00 -0.11681600433E+04  0.15932002110E+04  0.10833692932E+04 0.  0.
        4    1    3    3  502    0 -0.47542954122E+03  0.25854599507E+03 -0.54986331499E+03  0.77151186530E+03  0.12699999809E+01 0.  1.
       -4    1    3    3    0  502  0.47542954122E+03 -0.25854599507E+03 -0.61829672833E+03  0.82168834566E+03  0.12699999809E+01 0. -1.
</event>
<event>
 5   0  0.8524692E-03  0.9033152E+03  0.7818609E-02  0.9421447E-01
        1   -1    0    0  501    0  0.00000000000E+00  0.00000000000E+00  0.61545298742E+03  0.61545298744E+03  0.50400001928E-02 0. -1.
       -1   -1    0    0    0  501  0.00000000000E+00  0.00000000000E+00 -0.33145435945E+03  0.33145435949E+03  0.50400001928E-02 0.  1.
    10030    2    1    2    0    0  0.00000000000E+00  0.00000000000E+00  0.28399862797E+03  0.94690734693E+03  0.90331517367E+03 0.  0.
        5    1    3    3  502    0 -0.34878424837E+03  0.17101284005E+03 -0.99502224371E+02  0.40102197699E+03  0.46999998093E+01 0.  1.
       -5    1    3    3    0  502  0.34878424837E+03 -0.17101284005E+03  0.38350085234E+03  0.54588536994E+03  0.46999998093E+01 0. -1.
</event>
<event>
 5   0  0.8612969E-03  0.9036722E+03  0.7818609E-02  0.9421003E-01
       -1   -1    0    0    0  501  0.00000000000E+00  0.00000000000E+00  0.25934993715E+03  0.25934993720E+03  0.50400001928E-02 0.  1.
        1   -1    0    0  501    0  0.00000000000E+00  0.00000000000E+00 -0.78718308133E+03  0.78718308134E+03  0.50400001928E-02 0. -1.
    10030    2    1    2    0    0  0.00000000000E+00  0.00000000000E+00 -0.52783314418E+03  0.10465330185E+04  0.90367224744E+03 0.  0.
        4    1    3    3  502    0 -0.17411696796E+03  0.41673346308E+03 -0.27905045404E+03  0.53089948821E+03  0.12699999809E+01 0.  1.
       -4    1    3    3    0  502  0.17411696796E+03 -0.41673346308E+03 -0.24878269014E+03  0.51563353033E+03  0.12699999809E+01 0. -1.
</event>
<event>
 5   0  0.8291252E-03  0.8968768E+03  0.7818609E-02  0.9429494E-01
        1   -1    0    0  501    0  0.00000000000E+00  0.00000000000E+00  0.12858052073E+04  0.12858052073E+04  0.50400001928E-02 0.  1.
       -1   -1    0    0    0  501  0.00000000000E+00  0.00000000000E+00 -0.15639770765E+03  0.15639770774E+03  0.50400001928E-02 0. -1.
    10030    2    1    2    0    0  0.00000000000E+00  0.00000000000E+00  0.11294074996E+04  0.14422029150E+04  0.89687677409E+03 0.  0.
        1    1    3    3  502    0 -0.25581024722E+03  0.33185561876E+03  0.30777151389E+03  0.51989454611E+03  0.50400001928E-02 0. -1.
       -1    1    3    3    0  502  0.25581024722E+03 -0.33185561876E+03  0.82163598573E+03  0.92230836891E+03  0.50400001928E-02 0.  1.
</event>
<event>
 5   0  0.1441195E-02  0.8968864E+03  0.7818609E-02  0.9429482E-01
       -2   -1    0    0    0  501  0.00000000000E+00  0.00000000000E+00  0.17932113523E+03  0.17932113525E+03  0.25500000920E-02 0. -1.
        2   -1    0    0  501    0  0.00000000000E+00  0.00000000000E+00 -0.11214589322E+04  0.11214589322E+04  0.25500000920E-02 0.  1.
    10030    2    1    2    0    0  0.00000000000E+00  0.00000000000E+00 -0.94213779697E+03  0.13007800675E+04  0.89688636706E+03 0.  0.
        5    1    3    3  502    0  0.27366699470E+03 -0.31629230839E+03 -0.23656033749E+03  0.48053858493E+03  0.46999998093E+01 0. -1.
       -5    1    3    3    0  502 -0.27366699470E+03  0.31629230839E+03 -0.70557745948E+03  0.82024148252E+03  0.46999998093E+01 0.  1.
</event>
<event>
 5   0  0.8612969E-03  0.9090000E+03  0.7818609E-02  0.9414400E-01
       -1   -1    0    0    0  501  0.00000000000E+00  0.00000000000E+00  0.72760007638E+03  0.72760007640E+03  0.50400001928E-02 0.  1.
        1   -1    0    0  501    0  0.00000000000E+00  0.00000000000E+00 -0.28390633491E+03  0.28390633496E+03  0.50400001928E-02 0. -1.
    10030    2    1    2    0    0  0.00000000000E+00  0.00000000000E+00  0.44369374147E+03  0.10115064114E+04  0.90900004620E+03 0.  0.
        4    1    3    3  502    0  0.13010542379E+03 -0.38703015624E+03 -0.28602384104E+00  0.40831539017E+03  0.12699999809E+01 0. -1.
       -4    1    3    3    0  502 -0.13010542379E+03  0.38703015624E+03  0.44397976532E+03  0.60319102119E+03  0.12699999809E+01 0.  1.
</event>
<event>
 5   0  0.5770125E-03  0.9022762E+03  0.7818609E-02  0.9422741E-01
        4   -1    0    0  501    0  0.00000000000E+00  0.00000000000E+00  0.10019239273E+04  0.10019247322E+04  0.12699999809E+01 0. -1.
       -4   -1    0    0    0  501  0.00000000000E+00  0.00000000000E+00 -0.20313190753E+03  0.20313587757E+03  0.12699999809E+01 0.  1.
    10030    2    1    2    0    0  0.00000000000E+00  0.00000000000E+00  0.79879201973E+03  0.12050606097E+04  0.90227622285E+03 0.  0.
        2    1    3    3  502    0  0.38180697422E+03 -0.22649635825E+03  0.50664577829E+03  0.67362237977E+03  0.25500000920E-02 0. -1.
       -2    1    3    3    0  502 -0.38180697422E+03  0.22649635825E+03  0.29214624144E+03  0.53143822996E+03  0.25500000920E-02 0.  1.
</event>
<event>
 5   0  0.1440615E-02  0.9018227E+03  0.7818609E-02  0.9423306E-01
       -2   -1    0    0    0  501  0.00000000000E+00  0.00000000000E+00  0.85672751021E+02  0.85672751059E+02  0.25500000920E-02 0. -1.
        2   -1    0    0  501    0  0.00000000000E+00  0.00000000000E+00 -0.23732289706E+04  0.23732289706E+04  0.25500000920E-02 0.  1.
    10030    2    1    2    0    0  0.00000000000E+00  0.00000000000E+00 -0.22875562196E+04  0.24589017217E+04  0.90182272042E+03 0.  0.
        3    1    3    3  502    0 -0.19211002306E+03  0.13683582651E+03 -0.95934107509E+02  0.25462456198E+03  0.10100000352E+00 0. -1.
       -3    1    3    3    0  502  0.19211002306E+03 -0.13683582651E+03 -0.21916221121E+04  0.22042771597E+04  0.10100000352E+00 0.  1.
</event>
<event>
 5   0  0.1440615E-02  0.8999784E+03  0.7818609E-02  0.9425608E-01
        2   -1    0    0  501    0  0.00000000000E+00  0.00000000000E+00  0.42865451506E+03  0.42865451507E+03  0.25500000920E-02 0.  1.
       -2   -1    0    0    0  501  0.00000000000E+00  0.00000000000E+00 -0.47238573627E+03  0.47238573628E+03  0.25500000920E-02 0. -1.
    10030    2    1    2    0    0  0.00000000000E+00  0.00000000000E+00 -0.43731221213E+02  0.90104025134E+03  0.89997839687E+03 0.  0.
        3    1    3    3  502    0 -0.12007058058E+03  0.35177538457E+02 -0.45462074676E+03  0.47152352764E+03  0.10100000352E+00 0. -1.
       -3    1    3    3    0  502  0.12007058058E+03 -0.35177538457E+02  0.41088952555E+03  0.42951672370E+03  0.10100000352E+00 0.  1.
</event>
<event>
 5   0  0.8524692E-03  0.9057366E+03  0.7818609E-02  0.9418439E-01
       -1   -1    0    0    0  501  0.00000000000E+00  0.00000000000E+00  0.23367846226E+03  0.23367846232E+03  0.50400001928E-02 0. -1.
        1   -1    0    0  501    0  0.00000000000E+00  0.00000000000E+00 -0.87765769286E+03  0.87765769287E+03  0.50400001928E-02 0.  1.
    10030    2    1    2    0    0  0.00000000000E+00  0.00000000000E+00 -0.64397923059E+03  0.11113361552E+04  0.90573660652E+03 0.  0.
        5    1    3    3  502    0  0.21310417742E+03  0.33668445698E+03 -0.58600162423E+03  0.70865351732E+03  0.46999998093E+01 0.  1.
       -5    1    3    3    0  502 -0.21310417742E+03 -0.33668445698E+03 -0.57977606362E+02  0.40268263787E+03  0.46999998093E+01 0. -1.
</event>
<event>
 5   0  0.1441195E-02  0.8859456E+03  0.7818609E-02  0.9443323E-01
        2   -1    0    0  501    0  0.00000000000E+00  0.00000000000E+00  0.11281328097E+04  0.11281328097E+04  0.25500000920E-02 0.  1.
       -2   -1    0    0    0  501  0.00000000000E+00  0.00000000000E+00 -0.17393776738E+03  0.17393776740E+03  0.25500000920E-02 0. -1.
    10030    2    1    2    0    0  0.00000000000E+00  0.00000000000E+00  0.95419504227E+03  0.13020705771E+04  0.88594560157E+03 0.  0.
        5    1    3    3  502    0 -0.40124393698E+03  0.97780884823E+02  0.24173953583E+03  0.47855813814E+03  0.46999998093E+01 0.  1.
       -5    1    3    3    0  502  0.40124393698E+03 -0.97780884823E+02  0.71245550644E+03  0.82351243892E+03  0.46999998093E+01 0. -1.
</event>
<event>
 5   0  0.1440615E-02  0.9020266E+03  0.7818609E-02  0.9423052E-01
        2   -1    0    0  501    0  0.00000000000E+00  0.00000000000E+00  0.26398962011E+04  0.26398962011E+04  0.25500000920E-02 0. -1.
       -2   -1    0    0    0  501  0.00000000000E+00  0.00000000000E+00 -0.77053407222E+02  0.77053407264E+02  0.25500000920E-02 0.  1.
    10030    2    1    2    0    0  0.00000000000E+00  0.00000000000E+00  0.25628427938E+04  0.27169496083E+04  0.90202660064E+03 0.  0.
        3    1    3    3  502    0 -0.23538147879E+03  0.12051049639E+03  0.18094756875E+03  0.32042043183E+03  0.10100000352E+00 0.  1.
       -3    1    3    3    0  502  0.23538147879E+03 -0.12051049639E+03  0.23818952251E+04  0.23965291765E+04  0.10100000352E+00 0. -1.
</event>
<event>
 5   0  0.8291252E-03  0.9214529E+03  0.7818609E-02  0.9399155E-01
       -1   -1    0    0    0  501  0.00000000000E+00  0.00000000000E+00  0.23767981777E+03  0.23767981782E+03  0.50400001928E-02 0. -1.
        1   -1    0    0  501    0  0.00000000000E+00  0.00000000000E+00 -0.89308748505E+03  0.89308748506E+03  0.50400001928E-02 0.  1.
    10030    2    1    2    0    0  0.00000000000E+00  0.00000000000E+00 -0.65540766728E+03  0.11307673029E+04  0.92145291954E+03 0.  0.
        1    1    3    3  502    0  0.43040936304E+03 -0.15998486416E+03 -0.28143669621E+03  0.53856660735E+03  0.50400001928E-02 0.  1.
       -1    1    3    3    0  502 -0.43040936304E+03  0.15998486416E+03 -0.37397097107E+03  0.59220069553E+03  0.50400001928E-02 0. -1.
</event>
<event>
 5   0  0.8738044E-03  0.9557225E+03  0.7818609E-02  0.9358487E-01
        1   -1    0    0  501    0  0.00000000000E+00  0.00000000000E+00  0.15343853077E+04  0.15343853077E+04  0.50400001928E-02 0. -1.
       -1   -1    0    0    0  501  0.00000000000E+00  0.00000000000E+00 -0.14882269836E+03  0.14882269845E+03  0.50400001928E-02 0.  1.
    10030    2    1    2    0    0  0.00000000000E+00  0.00000000000E+00  0.13855626093E+04  0.16832080061E+04  0.95572247413E+03 0.  0.
        3    1    3    3  502    0 -0.67671251345E+02  0.16479904395E+03 -0.88149144780E+02  0.19876721327E+03  0.10100000352E+00 0.  1.
       -3    1    3    3    0  502  0.67671251345E+02 -0.16479904395E+03  0.14737117541E+04  0.14844407929E+04  0.10100000352E+00 0. -1.
</event>
<event>
 5   0  0.8612969E-03  0.9288209E+03  0.7818609E-02  0.9390254E-01
        1   -1    0    0  501    0  0.00000000000E+00  0.00000000000E+00  0.47353530892E+03  0.47353530895E+03  0.50400001928E-02 0.  1.
       -1   -1    0    0    0  501  0.00000000000E+00  0.00000000000E+00 -0.45546142517E+03  0.45546142520E+03  0.50400001928E-02 0. -1.
    10030    2    1    2    0    0  0.00000000000E+00  0.00000000000E+00  0.18073883752E+02  0.92899673415E+03  0.92882090135E+03 0.  0.
        4    1    3    3  502    0 -0.46172974851E+03 -0.49422996752E+02  0.15239770994E+02  0.46461904480E+03  0.12699999809E+01 0.  1.
       -4    1    3    3    0  502  0.46172974851E+03  0.49422996752E+02  0.28341127580E+01  0.46437768935E+03  0.12699999809E+01 0. -1.
</event>
<event>
 5   0  0.5770125E-03  0.9018916E+03  0.7818609E-02  0.9423220E-01
        3   -1    0    0  501    0  0.00000000000E+00  0.00000000000E+00  0.71538016454E+03  0.71538017167E+03  0.10100000352E+00 0. -1.
       -3   -1    0    0    0  501  0.00000000000E+00  0.00000000000E+00 -0.28425742527E+03  0.28425744322E+03  0.10100000352E+00 0.  1.
    10030    2    1    2    0    0  0.00000000000E+00  0.00000000000E+00  0.43112273926E+03  0.99963761488E+03  0.90189164803E+03 0.  0.
        3    1    3    3  502    0 -0.20768366874E+03 -0.36074524259E+03  0.40780196937E+03  0.58272814651E+03  0.10100000352E+00 0. -1.
       -3    1    3    3    0  502  0.20768366874E+03  0.36074524259E+03  0.23320769896E+02  0.41690946838E+03  0.10100000352E+00 0.  1.
</event>
<event>
 5   0  0.1483326E-02  0.8963020E+03  0.7818609E-02  0.9430216E-01
        2   -1    0    0  501    0  0.00000000000E+00  0.00000000000E+00  0.13816974945E+04  0.13816974945E+04  0.25500000920E-02 0.  1.
       -2   -1    0    0    0  501  0.00000000000E+00  0.00000000000E+00 -0.14535693037E+03  0.14535693039E+03  0.25500000920E-02 0. -1.
    10030    2    1    2    0    0  0.00000000000E+00  0.00000000000E+00  0.12363405641E+04  0.15270544249E+04  0.89630197260E+03 0.  0.
        1    1    3    3  502    0 -0.19918396281E+03 -0.13072003323E+03 -0.28522460155E+02  0.23994897143E+03  0.50400001928E-02 0. -1.
       -1    1    3    3    0  502  0.19918396281E+03  0.13072003323E+03  0.12648630243E+04  0.12871054535E+04  0.50400001928E-02 0.  1.
</event>
<event>
 5   0  0.1441195E-02  0.1108014E+04  0.7818609E-02  0.9197416E-01
       -2   -1    0    0    0  501  0.00000000000E+00  0.00000000000E+00  0.44282366534E+03  0.44282366535E+03  0.25500000920E-02 0.  1.
        2   -1    0    0  501    0  0.00000000000E+00  0.00000000000E+00 -0.69310604338E+03  0.69310604339E+03  0.25500000920E-02 0. -1.
    10030    2    1    2    0    0  0.00000000000E+00  0.00000000000E+00 -0.25028237804E+03  0.11359297087E+04  0.11080140046E+04 0.  0.
        5    1    3    3  502    0  0.45850618740E+03  0.12856390657E+03  0.16509035057E+03  0.50401737650E+03  0.46999998093E+01 0.  1.
       -5    1    3    3    0  502 -0.45850618740E+03 -0.12856390657E+03 -0.41537272861E+03  0.63191233224E+03  0.46999998093E+01 0. -1.
</event>
<event>
 5   0  0.1535906E-02  0.8887993E+03  0.7818609E-02  0.9439692E-01
       -2   -1    0    0    0  501  0.00000000000E+00  0.00000000000E+00  0.17064952931E+03  0.17064952933E+03  0.25500000920E-02 0. -1.
        2   -1    0    0  501    0  0.00000000000E+00  0.00000000000E+00 -0.11572902059E+04  0.11572902059E+04  0.25500000920E-02 0.  1.
    10030    2    1    2    0    0  0.00000000000E+00  0.00000000000E+00 -0.98664067657E+03  0.13279397352E+04  0.88879925500E+03 0.  0.
        2    1    3    3  502    0 -0.31335997326E+03  0.26755989797E+02 -0.24214785296E+02  0.31543099351E+03  0.25500000920E-02 0. -1.
       -2    1    3    3    0  502  0.31335997326E+03 -0.26755989797E+02 -0.96242589128E+03  0.10125087417E+04  0.25500000920E-02 0.  1.
</event>
<event>
 5   0  0.1440615E-02  0.8991597E+03  0.7818609E-02  0.9426632E-01
       -2   -1    0    0    0  501  0.00000000000E+00  0.00000000000E+00  0.32823662876E+03  0.32823662877E+03  0.25500000920E-02 0.  1.
        2   -1    0    0  501    0  0.00000000000E+00  0.00000000000E+00 -0.61578146204E+03  0.61578146204E+03  0.25500000920E-02 0. -1.
    10030    2    1    2    0    0  0.00000000000E+00  0.00000000000E+00 -0.28754483328E+03  0.94401809081E+03  0.89915967694E+03 0.  0.
        3    1    3    3  502    0 -0.36908803070E+03 -0.25577303581E+03 -0.12086170854E+03  0.46503051840E+03  0.10100000352E+00 0. -1.
       -3    1    3    3    0  502  0.36908803070E+03  0.25577303581E+03 -0.16668312474E+03  0.47898757241E+03  0.10100000352E+00 0.  1.
</event>
<event>
 5   0  0.8885324E-03  0.8961360E+03  0.7818609E-02  0.9430425E-01
        1   -1    0    0  501    0  0.00000000000E+00  0.00000000000E+00  0.11934393291E+04  0.11934393291E+04  0.50400001928E-02 0.  1.
       -1   -1    0    0    0  501  0.00000000000E+00  0.00000000000E+00 -0.16822381875E+03  0.16822381883E+03  0.50400001928E-02 0. -1.
    10030    2    1    2    0    0  0.00000000000E+00  0.00000000000E+00  0.10252155104E+04  0.13616631480E+04  0.89613597506E+03 0.  0.
        2    1    3    3  502    0  0.54617940933E+02  0.31642771535E+03  0.98744380935E+03  0.10383423786E+04  0.25500000920E-02 0.  1.
       -2    1    3    3    0  502 -0.54617940933E+02 -0.31642771535E+03  0.37771701024E+02  0.32332076939E+03  0.25500000920E-02 0. -1.
</event>
<event>
 5   0  0.8291252E-03  0.8910880E+03  0.7818609E-02  0.9436791E-01
       -1   -1    0    0    0  501  0.00000000000E+00  0.00000000000E+00  0.13540525403E+04  0.13540525403E+04  0.50400001928E-02 0. -1.
        1   -1    0    0  501    0  0.00000000000E+00  0.00000000000E+00 -0.14660396441E+03  0.14660396450E+03  0.50400001928E-02 0.  1.
    10030    2    1    2    0    0  0.00000000000E+00  0.00000000000E+00  0.12074485759E+04  0.15006565048E+04  0.89108803268E+03 0.  0.
        1    1    3    3  502    0 -0.19621929735E+03  0.38314661024E+03  0.79725438537E+03  0.90604519347E+03  0.50400001928E-02 0.  1.
       -1    1    3    3    0  502  0.19621929735E+03 -0.38314661024E+03  0.41019419049E+03  0.59461131130E+03  0.50400001928E-02 0. -1.
</event>
<event>
 5   0  0.1440615E-02  0.8981019E+03  0.7818609E-02  0.9427957E-01
        2   -1    0    0  501    0  0.00000000000E+00  0.00000000000E+00  0.52139014530E+03  0.52139014530E+03  0.25500000920E-02 0. -1.
       -2   -1    0    0    0  501  0.00000000000E+00  0.00000000000E+00 -0.38674834292E+03  0.38674834293E+03  0.25500000920E-02 0.  1.
    10030    2    1    2    0    0  0.00000000000E+00  0.00000000000E+00  0.13464180238E+03  0.90813848823E+03  0.89810194235E+03 0.  0.
        3    1    3    3  502    0 -0.88371526020E+02  0.28432569634E+03 -0.27258463905E+03  0.40367440327E+03  0.10100000352E+00 0.  1.
       -3    1    3    3    0  502  0.88371526020E+02 -0.28432569634E+03  0.40722644143E+03  0.50446408496E+03  0.10100000352E+00 0. -1.
</event>
<event>
 5   0  0.1441195E-02  0.9225464E+03  0.7818609E-02  0.9397828E-01
       -2   -1    0    0    0  501  0.00000000000E+00  0.00000000000E+00  0.46212678726E+03  0.46212678727E+03  0.25500000920E-02 0.  1.
        2   -1    0    0  501    0  0.00000000000E+00  0.00000000000E+00 -0.46042115418E+03  0.46042115418E+03  0.25500000920E-02 0. -1.
    10030    2    1    2    0    0  0.00000000000E+00  0.00000000000E+00  0.17056330870E+01  0.92254794145E+03  0.92254636474E+03 0.  0.
        5    1    3    3  502    0 -0.20329552955E+02  0.14510925150E+03  0.43821025276E+03  0.46208256970E+03  0.46999998093E+01 0.  1.
       -5    1    3    3    0  502  0.20329552955E+02 -0.14510925150E+03 -0.43650461967E+03  0.46046537176E+03  0.46999998093E+01 0. -1.
</event>
<event>
 5   0  0.8738044E-03  0.9025347E+03  0.7818609E-02  0.9422419E-01
       -1   -1    0    0    0  501  0.00000000000E+00  0.00000000000E+00  0.15533779357E+03  0.15533779365E+03  0.50400001928E-02 0. -1.
        1   -1    0    0  501    0  0.00000000000E+00  0.00000000000E+00 -0.13109636632E+04  0.13109636632E+04  0.50400001928E-02 0.  1.
    10030    2    1    2    0    0  0.00000000000E+00  0.00000000000E+00 -0.11556258696E+04  0.14663014568E+04  0.90253465961E+03 0.  0.
        3    1    3    3  502    0  0.24257092919E+03 -0.64456715594E+02 -0.11871034412E+04  0.12133465763E+04  0.10100000352E+00 0.  1.
       -3    1    3    3    0  502 -0.24257092919E+03  0.64456715594E+02  0.31477571603E+02  0.25295488054E+03  0.10100000352E+00 0. -1.
</event>
<event>
 5   0  0.8885324E-03  0.9004353E+03  0.7818609E-02  0.9425037E-01
       -1   -1    0    0    0  501  0.00000000000E+00  0.00000000000E+00  0.50722958445E+03  0.50722958447E+03  0.50400001928E-02 0. -1.
        1   -1    0    0  501    0  0.00000000000E+00  0.00000000000E+00 -0.39961377964E+03  0.39961377967E+03  0.50400001928E-02 0.  1.
    10030    2    1    2    0    0  0.00000000000E+00  0.00000000000E+00  0.10761580481E+03  0.90684336414E+03  0.90043529787E+03 0.  0.
        2    1    3    3  502    0 -0.90703556370E+01  0.63698565470E+02  0.50257544908E+03  0.50667727462E+03  0.25500000920E-02 0. -1.
       -2    1    3    3    0  502  0.90703556370E+01 -0.63698565470E+02 -0.39495964427E+03  0.40016608952E+03  0.25500000920E-02 0.  1.
</event>
<event>
 5   0  0.8885324E-03  0.9161205E+03  0.7818609E-02  0.9405651E-01
        1   -1    0    0  501    0  0.00000000000E+00  0.00000000000E+00  0.62316162309E+03  0.62316162311E+03  0.50400001928E-02 0. -1.
       -1   -1    0    0    0  501  0.00000000000E+00  0.00000000000E+00 -0.33670108069E+03  0.33670108073E+03  0.50400001928E-02 0.  1.
    10030    2    1    2    0    0  0.00000000000E+00  0.00000000000E+00  0.28646054239E+03  0.95986270383E+03  0.91612049855E+03 0.  0.
        2    1    3    3  502    0  0.84273239028E+02 -0.37926345496E+03 -0.11100002621E+03  0.40405909581E+03  0.25500000920E-02 0.  1.
       -2    1    3    3    0  502 -0.84273239028E+02  0.37926345496E+03  0.39746056860E+03  0.55580360802E+03  0.25500000920E-02 0. -1.
</event>
<event>
 5   0  0.1454652E-02  0.9071771E+03  0.7818609E-02  0.9416654E-01
        2   -1    0    0  501    0  0.00000000000E+00  0.00000000000E+00  0.50443976558E+03  0.50443976559E+03  0.25500000920E-02 0. -1.
       -2   -1    0    0    0  501  0.00000000000E+00  0.00000000000E+00 -0.40786353483E+03  0.40786353484E+03  0.25500000920E-02 0.  1.
    10030    2    1    2    0    0  0.00000000000E+00  0.00000000000E+00  0.96576230752E+02  0.91230330043E+03  0.90717712913E+03 0.  0.
        4    1    3    3  502    0  0.10901674468E+03  0.25375128456E+03  0.41013600006E+03  0.49445678930E+03  0.12699999809E+01 0. -1.
       -4    1    3    3    0  502 -0.10901674468E+03 -0.25375128456E+03 -0.31355976931E+03  0.41784651113E+03  0.12699999809E+01 0.  1.
</event>
<event>
 5   0  0.8524692E-03  0.9098685E+03  0.7818609E-02  0.9413329E-01
        1   -1    0    0  501    0  0.00000000000E+00  0.00000000000E+00  0.50479726151E+03  0.50479726154E+03  0.50400001928E-02 0. -1.
       -1   -1    0    0    0  501  0.00000000000E+00  0.00000000000E+00 -0.40999665347E+03  0.40999665350E+03  0.50400001928E-02 0.  1.
    10030    2    1    2    0    0  0.00000000000E+00  0.00000000000E+00  0.94800608043E+02  0.91479391504E+03  0.90986853540E+03 0.  0.
        5    1    3    3  502    0 -0.91868341224E+02 -0.41575563999E+03 -0.11362457886E+03  0.44070985832E+03  0.46999998093E+01 0.  1.
       -5    1    3    3    0  502  0.91868341224E+02  0.41575563999E+03  0.20842518691E+03  0.47408405672E+03  0.46999998093E+01 0. -1.
</event>
<event>
 5   0  0.1441195E-02  0.9049256E+03  0.7818609E-02  0.9419445E-01
        2   -1    0    0  501    0  0.00000000000E+00  0.00000000000E+00  0.47346098009E+03  0.47346098009E+03  0.25500000920E-02 0. -1.
       -2   -1    0    0    0  501  0.00000000000E+00  0.00000000000E+00 -0.43239593538E+03  0.43239593539E+03  0.25500000920E-02 0.  1.
    10030    2    1    2    0    0  0.00000000000E+00  0.00000000000E+00  0.41065044709E+02  0.90585691548E+03  0.90492563972E+03 0.  0.
        5    1    3    3  502    0  0.16972820464E+03 -0.11118132145E+03  0.42533904848E+03  0.47127947743E+03  0.46999998093E+01 0. -1.
       -5    1    3    3    0  502 -0.16972820464E+03  0.11118132145E+03 -0.38427400377E+03  0.43457743805E+03  0.46999998093E+01 0.  1.
</event>
<event>
 5   0  0.8885324E-03  0.9102382E+03  0.7818609E-02  0.9412873E-01
        1   -1    0    0  501    0  0.00000000000E+00  0.00000000000E+00  0.52643108930E+03  0.52643108932E+03  0.50400001928E-02 0. -1.
       -1   -1    0    0    0  501  0.00000000000E+00  0.00000000000E+00 -0.39346728337E+03  0.39346728340E+03  0.50400001928E-02 0.  1.
    10030    2    1    2    0    0  0.00000000000E+00  0.00000000000E+00  0.13296380593E+03  0.91989837272E+03  0.91023823390E+03 0.  0.
        2    1    3    3  502    0  0.32457743246E+03 -0.31787292030E+03  0.38995697819E+02  0.45597627962E+03  0.25500000920E-02 0. -1.
       -2    1    3    3    0  502 -0.32457743246E+03  0.31787292030E+03  0.93968108109E+02  0.46392209310E+03  0.25500000920E-02 0.  1.
</event>
<event>
 5   0  0.5770125E-03  0.9449248E+03  0.7818609E-02  0.9371102E-01
       -3   -1    0    0    0  501  0.00000000000E+00  0.00000000000E+00  0.28015491578E+03  0.28015493399E+03  0.10100000352E+00 0. -1.
        3   -1    0    0  501    0  0.00000000000E+00  0.00000000000E+00 -0.79677599146E+03  0.79677599786E+03  0.10100000352E+00 0.  1.
    10030    2    1    2    0    0  0.00000000000E+00  0.00000000000E+00 -0.51662107568E+03  0.10769309318E+04  0.94492480978E+03 0.  0.
        5    1    3    3  502    0 -0.11751718682E+03  0.15251817886E+03 -0.75000437260E+03  0.77433890061E+03  0.46999998093E+01 0.  1.
       -5    1    3    3    0  502  0.11751718682E+03 -0.15251817886E+03  0.23338329693E+03  0.30259203123E+03  0.46999998093E+01 0. -1.
</event>
<event>
 5   0  0.1483326E-02  0.9082176E+03  0.7818609E-02  0.9415367E-01
       -2   -1    0    0    0  501  0.00000000000E+00  0.00000000000E+00  0.30714430040E+03  0.30714430041E+03  0.25500000920E-02 0.  1.
        2   -1    0    0  501    0  0.00000000000E+00  0.00000000000E+00 -0.67139384126E+03  0.67139384126E+03  0.25500000920E-02 0. -1.
    10030    2    1    2    0    0  0.00000000000E+00  0.00000000000E+00 -0.36424954086E+03  0.97853814168E+03  0.90821757674E+03 0.  0.
        1    1    3    3  502    0 -0.24138973751E+03  0.22965245816E+03  0.15031957785E+03  0.36552049522E+03  0.50400001928E-02 0.  1.
       -1    1    3    3    0  502  0.24138973751E+03 -0.22965245816E+03 -0.51456911871E+03  0.61301764646E+03  0.50400001928E-02 0. -1.
</event>
<event>
 5   0  0.8524692E-03  0.8866477E+03  0.7818609E-02  0.9442428E-01
        1   -1    0    0  501    0  0.00000000000E+00  0.00000000000E+00  0.36706798144E+03  0.36706798147E+03  0.50400001928E-02 0. -1.
       -1   -1    0    0    0  501  0.00000000000E+00  0.00000000000E+00 -0.53542136308E+03  0.53542136311E+03  0.50400001928E-02 0.  1.
    10030    2    1    2    0    0  0.00000000000E+00  0.00000000000E+00 -0.16835338165E+03  0.90248934458E+03  0.88664770680E+03 0.  0.
        5    1    3    3  502    0  0.53127220619E+02  0.14572977515E+03  0.33851915195E+03  0.37239357563E+03  0.46999998093E+01 0. -1.
       -5    1    3    3    0  502 -0.53127220619E+02 -0.14572977515E+03 -0.50687253360E+03  0.53009576895E+03  0.46999998093E+01 0.  1.
</event>
<event>
 5   0  0.5770125E-03  0.8947720E+03  0.7818609E-02  0.9432140E-01
       -4   -1    0    0    0  501  0.00000000000E+00  0.00000000000E+00  0.16955360607E+03  0.16955836232E+03  0.12699999809E+01 0.  1.
        4   -1    0    0  501    0  0.00000000000E+00  0.00000000000E+00 -0.11804560457E+04  0.11804567288E+04  0.12699999809E+01 0. -1.
    10030    2    1    2    0    0  0.00000000000E+00  0.00000000000E+00 -0.10109024396E+04  0.13500150911E+04  0.89477204022E+03 0.  0.
        1    1    3    3  502    0 -0.14068139140E+03  0.24114149051E+03  0.22004862142E+02  0.28004407924E+03  0.50400001928E-02 0.  1.
       -1    1    3    3    0  502  0.14068139140E+03 -0.24114149051E+03 -0.10329073017E+04  0.10699710119E+04  0.50400001928E-02 0. -1.
</event>
<event>
 5   0  0.1535906E-02  0.9104792E+03  0.7818609E-02  0.9412576E-01
       -2   -1    0    0    0  501  0.00000000000E+00  0.00000000000E+00  0.25414816562E+03  0.25414816564E+03  0.25500000920E-02 0.  1.
        2   -1    0    0  501    0  0.00000000000E+00  0.00000000000E+00 -0.81544207299E+03  0.81544207299E+03  0.25500000920E-02 0. -1.
    10030    2    1    2    0    0  0.00000000000E+00  0.00000000000E+00 -0.56129390736E+03  0.10695902386E+04  0.91047922992E+03 0.  0.
        2    1    3    3  502    0 -0.38586969294E+03 -0.22772635073E+03 -0.18601973595E+03  0.48513714856E+03  0.25500000920E-02 0.  1.
       -2    1    3    3    0  502  0.38586969294E+03  0.22772635073E+03 -0.37527417141E+03  0.58445309006E+03  0.25500000920E-02 0. -1.
</event>
<event>
 5   0  0.1535906E-02  0.8896636E+03  0.7818609E-02  0.9438595E-01
        2   -1    0    0  501    0  0.00000000000E+00  0.00000000000E+00  0.12341377694E+04  0.12341377694E+04  0.25500000920E-02 0.  1.
       -2   -1    0    0    0  501  0.00000000000E+00  0.00000000000E+00 -0.16033486917E+03  0.16033486919E+03  0.25500000920E-02 0. -1.
    10030    2    1    2    0    0  0.00000000000E+00  0.00000000000E+00  0.10738029003E+04  0.13944726386E+04  0.88966357194E+03 0.  0.
        2    1    3    3  502    0 -0.25481493706E+02  0.15848636106E+03 -0.11335523328E+03  0.19651117546E+03  0.25500000920E-02 0. -1.
       -2    1    3    3    0  502  0.25481493706E+02 -0.15848636106E+03  0.11871581335E+04  0.11979614632E+04  0.25500000920E-02 0.  1.
</event>
<event>
 5   0  0.1454652E-02  0.9079503E+03  0.7818609E-02  0.9415697E-01
        2   -1    0    0  501    0  0.00000000000E+00  0.00000000000E+00  0.72786324368E+03  0.72786324369E+03  0.25500000920E-02 0. -1.
       -2   -1    0    0    0  501  0.00000000000E+00  0.00000000000E+00 -0.28314855664E+03  0.28314855665E+03  0.25500000920E-02 0.  1.
    10030    2    1    2    0    0  0.00000000000E+00  0.00000000000E+00  0.44471468704E+03  0.10110118003E+04  0.90795027812E+03 0.  0.
        4    1    3    3  502    0  0.37022798634E+03 -0.10697737918E+03  0.48955079627E+03  0.62303652907E+03  0.12699999809E+01 0. -1.
       -4    1    3    3    0  502 -0.37022798634E+03  0.10697737918E+03 -0.44836109227E+02  0.38797527127E+03  0.12699999809E+01 0.  1.
</event>
<event>
 5   0  0.1535906E-02  0.7614094E+03  0.7818609E-02  0.9617619E-01
       -2   -1    0    0    0  501  0.00000000000E+00  0.00000000000E+00  0.13382682508E+03  0.13382682510E+03  0.25500000920E-02 0. -1.
        2   -1    0    0  501    0  0.00000000000E+00  0.00000000000E+00 -0.10830120742E+04  0.10830120742E+04  0.25500000920E-02 0.  1.
    10030    2    1    2    0    0  0.00000000000E+00  0.00000000000E+00 -0.94918524914E+03  0.12168388993E+04  0.76140939692E+03 0.  0.
        2    1    3    3  502    0  0.11414033037E+03  0.27199743874E+03 -0.85922828341E+03  0.90845135517E+03  0.25500000920E-02 0.  1.
       -2    1    3    3    0  502 -0.11414033037E+03 -0.27199743874E+03 -0.89956965730E+02  0.30838754415E+03  0.25500000920E-02 0. -1.
</event>
<event>
 5   0  0.1535906E-02  0.9078943E+03  0.7818609E-02  0.9415767E-01
        2   -1    0    0  501    0  0.00000000000E+00  0.00000000000E+00  0.77559611403E+03  0.77559611404E+03  0.25500000920E-02 0.  1.
       -2   -1    0    0    0  501  0.00000000000E+00  0.00000000000E+00 -0.26568987216E+03  0.26568987217E+03  0.25500000920E-02 0. -1.
    10030    2    1    2    0    0  0.00000000000E+00  0.00000000000E+00  0.50990624188E+03  0.10412859862E+04  0.90789433833E+03 0.  0.
        2    1    3    3  502    0 -0.85810393352E+02  0.24622184108E+01  0.76620163723E+03  0.77099574255E+03  0.25500000920E-02 0.  1.
       -2    1    3    3    0  502  0.85810393352E+02 -0.24622184108E+01 -0.25629539536E+03  0.27029024365E+03  0.25500000920E-02 0. -1.
</event>
<event>
 5   0  0.1440615E-02  0.8763616E+03  0.7818609E-02  0.9455623E-01
       -2   -1    0    0    0  501  0.00000000000E+00  0.00000000000E+00  0.26233692572E+03  0.26233692573E+03  0.25500000920E-02 0. -1.
        2   -1    0    0  501    0  0.00000000000E+00  0.00000000000E+00 -0.73189250503E+03  0.73189250504E+03  0.25500000920E-02 0.  1.
    10030    2    1    2    0    0  0.00000000000E+00  0.00000000000E+00 -0.46955557931E+03  0.99422943077E+03  0.87636163708E+03 0.  0.
        3    1    3    3  502    0  0.61222313743E+02 -0.42917292958E+03 -0.30710891420E+03  0.53127532464E+03  0.10100000352E+00 0.  1.
       -3    1    3    3    0  502 -0.61222313743E+02  0.42917292958E+03 -0.16244666511E+03  0.46295410613E+03  0.10100000352E+00 0. -1.
</event>
<event>
 5   0  0.8612969E-03  0.9220914E+03  0.7818609E-02  0.9398380E-01
       -1   -1    0    0    0  501  0.00000000000E+00  0.00000000000E+00  0.24905225277E+03  0.24905225282E+03  0.50400001928E-02 0.  1.
        1   -1    0    0  501    0  0.00000000000E+00  0.00000000000E+00 -0.85348809843E+03  0.85348809844E+03  0.50400001928E-02 0. -1.
    10030    2    1    2    0    0  0.00000000000E+00  0.00000000000E+00 -0.60443584566E+03  0.11025403513E+04  0.92209139169E+03 0.  0.
        4    1    3    3  502    0  0.21014635701E+03  0.15840005599E+02 -0.79252462451E+03  0.82006663784E+03  0.12699999809E+01 0. -1.
       -4    1    3    3    0  502 -0.21014635701E+03 -0.15840005599E+02  0.18808877885E+03  0.28247371342E+03  0.12699999809E+01 0.  1.
</event>
<event>
 5   0  0.8291252E-03  0.8962460E+03  0.7818609E-02  0.9430286E-01
       -1   -1    0    0    0  501  0.00000000000E+00  0.00000000000E+00  0.34964754674E+03  0.34964754678E+03  0.50400001928E-02 0.  1.
        1   -1    0    0  501    0  0.00000000000E+00  0.00000000000E+00 -0.57433325859E+03  0.57433325861E+03  0.50400001928E-02 0. -1.
    10030    2    1    2    0    0  0.00000000000E+00  0.00000000000E+00 -0.22468571185E+03  0.92398080539E+03  0.89624598164E+03 0.  0.
        1    1    3    3  502    0  0.63149091331E+02  0.23946875638E+03  0.27268614619E+03  0.36836235878E+03  0.50400001928E-02 0.  1.
       -1    1    3    3    0  502 -0.63149091331E+02 -0.23946875638E+03 -0.49737185804E+03  0.55561844661E+03  0.50400001928E-02 0. -1.
</event>
<event>
 5   0  0.8738044E-03  0.9032554E+03  0.7818609E-02  0.9421521E-01
       -1   -1    0    0    0  501  0.00000000000E+00  0.00000000000E+00  0.30946377999E+03  0.30946378003E+03  0.50400001928E-02 0. -1.
        1   -1    0    0  501    0  0.00000000000E+00  0.00000000000E+00 -0.65910004264E+03  0.65910004266E+03  0.50400001928E-02 0.  1.
    10030    2    1    2    0    0  0.00000000000E+00  0.00000000000E+00 -0.34963626265E+03  0.96856382268E+03  0.90325542481E+03 0.  0.
        3    1    3    3  502    0  0.10298245982E+03  0.22826617623E+03  0.22819784613E+03  0.33879950033E+03  0.10100000352E+00 0. -1.
       -3    1    3    3    0  502 -0.10298245982E+03 -0.22826617623E+03 -0.57783410878E+03  0.62976432236E+03  0.10100000352E+00 0.  1.
</event>
<event>
 5   0  0.5770125E-03  0.9026972E+03  0.7818609E-02  0.9422216E-01
        3   -1    0    0  501    0  0.00000000000E+00  0.00000000000E+00  0.53405668786E+03  0.53405669741E+03  0.10100000352E+00 0.  1.
       -3   -1    0    0    0  501  0.00000000000E+00  0.00000000000E+00 -0.38144928083E+03  0.38144929421E+03  0.10100000352E+00 0. -1.
    10030    2    1    2    0    0  0.00000000000E+00  0.00000000000E+00  0.15260740703E+03  0.91550599161E+03  0.90269718068E+03 0.  0.
        3    1    3    3  502    0  0.19566541236E+03  0.39790339975E+03  0.16178171311E+03  0.47200148519E+03  0.10100000352E+00 0.  1.
       -3    1    3    3    0  502 -0.19566541236E+03 -0.39790339975E+03 -0.91743060874E+01  0.44350450642E+03  0.10100000352E+00 0. -1.
</event>
<event>
 5   0  0.8885324E-03  0.8934570E+03  0.7818609E-02  0.9433798E-01
        1   -1    0    0  501    0  0.00000000000E+00  0.00000000000E+00  0.77959968096E+03  0.77959968097E+03  0.50400001928E-02 0. -1.
       -1   -1    0    0    0  501  0.00000000000E+00  0.00000000000E+00 -0.25598569156E+03  0.25598569161E+03  0.50400001928E-02 0.  1.
    10030    2    1    2    0    0  0.00000000000E+00  0.00000000000E+00  0.52361398939E+03  0.10355853726E+04  0.89345702416E+03 0.  0.
        2    1    3    3  502    0  0.39576303014E+03 -0.17399339359E+03  0.39224453564E+03  0.58374468116E+03  0.25500000920E-02 0. -1.
       -2    1    3    3    0  502 -0.39576303014E+03  0.17399339359E+03  0.13136945375E+03  0.45184069142E+03  0.25500000920E-02 0.  1.
</event>
<event>
 5   0  0.8291252E-03  0.9118836E+03  0.7818609E-02  0.9410847E-01
        1   -1    0    0  501    0  0.00000000000E+00  0.00000000000E+00  0.88424920106E+03  0.88424920108E+03  0.50400001928E-02 0. -1.
       -1   -1    0    0    0  501  0.00000000000E+00  0.00000000000E+00 -0.23509539331E+03  0.23509539336E+03  0.50400001928E-02 0.  1.
    10030    2    1    2    0    0  0.00000000000E+00  0.00000000000E+00  0.64915380776E+03  0.11193445944E+04  0.91188357534E+03 0.  0.
        1    1    3    3  502    0 -0.21049435309E+03 -0.39412698221E+02  0.81867249519E+03  0.84621858162E+03  0.50400001928E-02 0. -1.
       -1    1    3    3    0  502  0.21049435309E+03  0.39412698221E+02 -0.16951868743E+03  0.27312601282E+03  0.50400001928E-02 0.  1.
</event>
<event>
 5   0  0.1454652E-02  0.6990230E+03  0.7818609E-02  0.9718905E-01
       -2   -1    0    0    0  501  0.00000000000E+00  0.00000000000E+00  0.47522622498E+02  0.47522622566E+02  0.25500000920E-02 0.  1.
        2   -1    0    0  501    0  0.00000000000E+00  0.00000000000E+00 -0.25705289516E+04  0.25705289516E+04  0.25500000920E-02 0. -1.
    10030    2    1    2    0    0  0.00000000000E+00  0.00000000000E+00 -0.25230063291E+04  0.26180515742E+04  0.69902296694E+03 0.  0.
        4    1    3    3  502    0 -0.33764241606E+03 -0.77867312704E+02 -0.14327639859E+04  0.14740691883E+04  0.12699999809E+01 0.  1.
       -4    1    3    3    0  502  0.33764241606E+03  0.77867312704E+02 -0.10902423432E+04  0.11439823859E+04  0.12699999809E+01 0. -1.
</event>
<event>
 5   0  0.1454652E-02  0.9041460E+03  0.7818609E-02  0.9420414E-01
        2   -1    0    0  501    0  0.00000000000E+00  0.00000000000E+00  0.24855577469E+03  0.24855577470E+03  0.25500000920E-02 0.  1.
       -2   -1    0    0    0  501  0.00000000000E+00  0.00000000000E+00 -0.82222990019E+03  0.82222990019E+03  0.25500000920E-02 0. -1.
    10030    2    1    2    0    0  0.00000000000E+00  0.00000000000E+00 -0.57367412550E+03  0.10707856749E+04  0.90414598340E+03 0.  0.
        4    1    3    3  502    0 -0.33709429567E+03  0.22901852388E+03 -0.51856898046E+03  0.65954336389E+03  0.12699999809E+01 0. -1.
       -4    1    3    3    0  502  0.33709429567E+03 -0.22901852388E+03 -0.55105145037E+02  0.41124231101E+03  0.12699999809E+01 0.  1.
</event>
<event>
 5   0  0.1535906E-02  0.9030235E+03  0.7818609E-02  0.9421810E-01
       -2   -1    0    0    0  501  0.00000000000E+00  0.00000000000E+00  0.71319177363E+03  0.71319177364E+03  0.25500000920E-02 0.  1.
        2   -1    0    0  501    0  0.00000000000E+00  0.00000000000E+00 -0.28584579215E+03  0.28584579216E+03  0.25500000920E-02 0. -1.
    10030    2    1    2    0    0  0.00000000000E+00  0.00000000000E+00  0.42734598149E+03  0.99903756580E+03  0.90302351574E+03 0.  0.
        2    1    3    3  502    0 -0.42066322769E+03 -0.15443009756E+03  0.27483847520E+03  0.52568278802E+03  0.25500000920E-02 0. -1.
       -2    1    3    3    0  502  0.42066322769E+03  0.15443009756E+03  0.15250750629E+03  0.47335477778E+03  0.25500000920E-02 0.  1.
</event>
<event>
 5   0  0.8524692E-03  0.8415663E+03  0.7818609E-02  0.9501727E-01
       -1   -1    0    0    0  501  0.00000000000E+00  0.00000000000E+00  0.36413315335E+03  0.36413315338E+03  0.50400001928E-02 0. -1.
        1   -1    0    0  501    0  0.00000000000E+00  0.00000000000E+00 -0.48624641473E+03  0.48624641475E+03  0.50400001928E-02 0.  1.
    10030    2    1    2    0    0  0.00000000000E+00  0.00000000000E+00 -0.12211326138E+03  0.85037956813E+03  0.84156625485E+03 0.  0.
        5    1    3    3  502    0  0.28082054327E+03  0.14490647680E+03  0.21966253744E+03  0.38487892238E+03  0.46999998093E+01 0. -1.
       -5    1    3    3    0  502 -0.28082054327E+03 -0.14490647680E+03 -0.34177579882E+03  0.46550064575E+03  0.46999998093E+01 0.  1.
</event>
<event>
 5   0  0.8612969E-03  0.8919047E+03  0.7818609E-02  0.9435758E-01
       -1   -1    0    0    0  501  0.00000000000E+00  0.00000000000E+00  0.28005654247E+03  0.28005654251E+03  0.50400001928E-02 0. -1.
        1   -1    0    0  501    0  0.00000000000E+00  0.00000000000E+00 -0.71011911787E+03  0.71011911789E+03  0.50400001928E-02 0.  1.
    10030    2    1    2    0    0  0.00000000000E+00  0.00000000000E+00 -0.43006257541E+03  0.99017566040E+03  0.89190471446E+03 0.  0.
        4    1    3    3  502    0  0.44269271211E+03  0.14148311346E+02 -0.15739931321E+03  0.47005655911E+03  0.12699999809E+01 0.  1.
       -4    1    3    3    0  502 -0.44269271211E+03 -0.14148311346E+02 -0.27266326220E+03  0.52011910129E+03  0.12699999809E+01 0. -1.
</event>
<event>
 5   0  0.8738044E-03  0.9271787E+03  0.7818609E-02  0.9392230E-01
       -1   -1    0    0    0  501  0.00000000000E+00  0.00000000000E+00  0.36701679046E+03  0.36701679049E+03  0.50400001928E-02 0. -1.
        1   -1    0    0  501    0  0.00000000000E+00  0.00000000000E+00 -0.58557293971E+03  0.58557293973E+03  0.50400001928E-02 0.  1.
    10030    2    1    2    0    0  0.00000000000E+00  0.00000000000E+00 -0.21855614925E+03  0.95258973023E+03  0.92717873345E+03 0.  0.
        3    1    3    3  502    0  0.45004068983E+03  0.84254126019E+02 -0.34625036336E+02  0.45916694523E+03  0.10100000352E+00 0.  1.
       -3    1    3    3    0  502 -0.45004068983E+03 -0.84254126019E+02 -0.18393111292E+03  0.49342278499E+03  0.10100000352E+00 0. -1.
</event>
<event>
 5   0  0.5770125E-03  0.8733275E+03  0.7818609E-02  0.9459552E-01
        3   -1    0    0  501    0  0.00000000000E+00  0.00000000000E+00  0.11129331236E+04  0.11129331282E+04  0.10100000352E+00 0. -1.
       -3   -1    0    0    0  501  0.00000000000E+00  0.00000000000E+00 -0.17132673554E+03  0.17132676531E+03  0.10100000352E+00 0.  1.
    10030    2    1    2    0    0  0.00000000000E+00  0.00000000000E+00  0.94160638806E+03  0.12842598935E+04  0.87332747810E+03 0.  0.
        1    1    3    3  502    0 -0.22229439318E+02  0.37416062762E+03  0.80023256498E+03  0.88366423562E+03  0.50400001928E-02 0. -1.
       -1    1    3    3    0  502  0.22229439318E+02 -0.37416062762E+03  0.14137382308E+03  0.40059565788E+03  0.50400001928E-02 0.  1.
</event>
<event>
 5   0  0.8612969E-03  0.7801952E+03  0.7818609E-02  0.9589135E-01
        1   -1    0    0  501    0  0.00000000000E+00  0.00000000000E+00  0.20231979060E+03  0.20231979067E+03  0.50400001928E-02 0.  1.
       -1   -1    0    0    0  501  0.00000000000E+00  0.00000000000E+00 -0.75215644528E+03  0.75215644530E+03  0.50400001928E-02 0. -1.
    10030    2    1    2    0    0  0.00000000000E+00  0.00000000000E+00 -0.54983665468E+03  0.95447623597E+03  0.78019519237E+03 0.  0.
        4    1    3    3  502    0 -0.21839059425E+03 -0.18436602255E+03 -0.59972374416E+03  0.66434589194E+03  0.12699999809E+01 0. -1.
       -4    1    3    3    0  502  0.21839059425E+03  0.18436602255E+03  0.49887089484E+02  0.29013034403E+03  0.12699999809E+01 0.  1.
</event>
<event>
 5   0  0.8885324E-03  0.8871942E+03  0.7818609E-02  0.9441732E-01
       -1   -1    0    0    0  501  0.00000000000E+00  0.00000000000E+00  0.64780144609E+03  0.64780144611E+03  0.50400001928E-02 0.  1.
        1   -1    0    0  501    0  0.00000000000E+00  0.00000000000E+00 -0.30376340649E+03  0.30376340653E+03  0.50400001928E-02 0. -1.
    10030    2    1    2    0    0  0.00000000000E+00  0.00000000000E+00  0.34403803960E+03  0.95156485263E+03  0.88719417045E+03 0.  0.
        2    1    3    3  502    0 -0.35472433459E+03  0.26094387611E+03  0.22935123158E+03  0.49651087345E+03  0.25500000920E-02 0. -1.
       -2    1    3    3    0  502  0.35472433459E+03 -0.26094387611E+03  0.11468680802E+03  0.45505397918E+03  0.25500000920E-02 0.  1.
</event>
<event>
 5   0  0.1483326E-02  0.8810124E+03  0.7818609E-02  0.9449633E-01
       -2   -1    0    0    0  501  0.00000000000E+00  0.00000000000E+00  0.12615913338E+03  0.12615913341E+03  0.25500000920E-02 0. -1.
        2   -1    0    0  501    0  0.00000000000E+00  0.00000000000E+00 -0.15381027685E+04  0.15381027685E+04  0.25500000920E-02 0.  1.
    10030    2    1    2    0    0  0.00000000000E+00  0.00000000000E+00 -0.14119436351E+04  0.16642619019E+04  0.88101240024E+03 0.  0.
        1    1    3    3  502    0  0.25865847141E+03 -0.24930104603E+03 -0.11875475300E+04  0.12406951086E+04  0.50400001928E-02 0. -1.
       -1    1    3    3    0  502 -0.25865847141E+03  0.24930104603E+03 -0.22439610505E+03  0.42356679328E+03  0.50400001928E-02 0.  1.
</event>
<event>
 5   0  0.1535906E-02  0.8590392E+03  0.7818609E-02  0.9478285E-01
        2   -1    0    0  501    0  0.00000000000E+00  0.00000000000E+00  0.11892274780E+04  0.11892274780E+04  0.25500000920E-02 0. -1.
       -2   -1    0    0    0  501  0.00000000000E+00  0.00000000000E+00 -0.15513186375E+03  0.15513186377E+03  0.25500000920E-02 0.  1.
    10030    2    1    2    0    0  0.00000000000E+00  0.00000000000E+00  0.10340956143E+04  0.13443593418E+04  0.85903917282E+03 0.  0.
        2    1    3    3  502    0 -0.40981781707E+03 -0.80249309899E+02  0.67429662870E+03  0.79313714981E+03  0.25500000920E-02 0. -1.
       -2    1    3    3    0  502  0.40981781707E+03  0.80249309899E+02  0.35979898559E+03  0.55122219201E+03  0.25500000920E-02 0.  1.
</event>
<event>
 5   0  0.1440615E-02  0.8900298E+03  0.7818609E-02  0.9438131E-01
       -2   -1    0    0    0  501  0.00000000000E+00  0.00000000000E+00  0.11945303858E+03  0.11945303861E+03  0.25500000920E-02 0.  1.
        2   -1    0    0  501    0  0.00000000000E+00  0.00000000000E+00 -0.16578754022E+04  0.16578754022E+04  0.25500000920E-02 0. -1.
    10030    2    1    2    0    0  0.00000000000E+00  0.00000000000E+00 -0.15384223636E+04  0.17773284408E+04  0.89002978469E+03 0.  0.
        3    1    3    3  502    0 -0.56381883411E+02  0.34384580562E+03 -0.13220020148E+04  0.13671496598E+04  0.10100000352E+00 0. -1.
       -3    1    3    3    0  502  0.56381883411E+02 -0.34384580562E+03 -0.21642034874E+03  0.41017878099E+03  0.10100000352E+00 0.  1.
</event>
<event>
 5   0  0.1441195E-02  0.9085800E+03  0.7818609E-02  0.9414919E-01
        2   -1    0    0  501    0  0.00000000000E+00  0.00000000000E+00  0.21122237745E+03  0.21122237746E+03  0.25500000920E-02 0. -1.
       -2   -1    0    0    0  501  0.00000000000E+00  0.00000000000E+00 -0.97707174255E+03  0.97707174256E+03  0.25500000920E-02 0.  1.
    10030    2    1    2    0    0  0.00000000000E+00  0.00000000000E+00 -0.76584936510E+03  0.11882941200E+04  0.90858002710E+03 0.  0.
        5    1    3    3  502    0 -0.35449044172E+03  0.18198458202E+03 -0.66819217429E+03  0.77800047117E+03  0.46999998093E+01 0.  1.
       -5    1    3    3    0  502  0.35449044172E+03 -0.18198458202E+03 -0.97657190813E+02  0.41029364884E+03  0.46999998093E+01 0. -1.
</event>
<event>
 5   0  0.5770125E-03  0.8978871E+03  0.7818609E-02  0.9428227E-01
       -3   -1    0    0    0  501  0.00000000000E+00  0.00000000000E+00  0.65092716429E+03  0.65092717212E+03  0.10100000352E+00 0. -1.
        3   -1    0    0  501    0  0.00000000000E+00  0.00000000000E+00 -0.30963569922E+03  0.30963571569E+03  0.10100000352E+00 0.  1.
    10030    2    1    2    0    0  0.00000000000E+00  0.00000000000E+00  0.34129146507E+03  0.96056288782E+03  0.89788707381E+03 0.  0.
        5    1    3    3  502    0 -0.11303273838E+03  0.32467091053E+03 -0.13819346785E+03  0.37054976001E+03  0.46999998093E+01 0.  1.
       -5    1    3    3    0  502  0.11303273838E+03 -0.32467091053E+03  0.47948493292E+03  0.59001312781E+03  0.46999998093E+01 0. -1.
</event>
<event>
 5   0  0.8524692E-03  0.9096188E+03  0.7818609E-02  0.9413637E-01
       -1   -1    0    0    0  501  0.00000000000E+00  0.00000000000E+00  0.32336610985E+03  0.32336610989E+03  0.50400001928E-02 0.  1.
        1   -1    0    0  501    0  0.00000000000E+00  0.00000000000E+00 -0.63968229639E+03  0.63968229641E+03  0.50400001928E-02 0. -1.
    10030    2    1    2    0    0  0.00000000000E+00  0.00000000000E+00 -0.31631618655E+03  0.96304840630E+03  0.90961876795E+03 0.  0.
        5    1    3    3  502    0  0.85178307758E+02 -0.34999859790E+02 -0.62968217488E+03  0.63639772600E+03  0.46999998093E+01 0. -1.
       -5    1    3    3    0  502 -0.85178307758E+02  0.34999859790E+02  0.31336598834E+03  0.32665068030E+03  0.46999998093E+01 0.  1.
</event>
<event>
 5   0  0.8885324E-03  0.8987996E+03  0.7818609E-02  0.9427083E-01
       -1   -1    0    0    0  501  0.00000000000E+00  0.00000000000E+00  0.16414015353E+03  0.16414015360E+03  0.50400001928E-02 0.  1.
        1   -1    0    0  501    0  0.00000000000E+00  0.00000000000E+00 -0.12304130939E+04  0.12304130939E+04  0.50400001928E-02 0. -1.
    10030    2    1    2    0    0  0.00000000000E+00  0.00000000000E+00 -0.10662729403E+04  0.13945532475E+04  0.89879963104E+03 0.  0.
        2    1    3    3  502    0 -0.14911161099E+03  0.19148315925E+03 -0.11199924179E+04  0.11459856408E+04  0.25500000920E-02 0. -1.
       -2    1    3    3    0  502  0.14911161099E+03 -0.19148315925E+03  0.53719477556E+02  0.24856760666E+03  0.25500000920E-02 0.  1.
</event>
<event>
 5   0  0.8738044E-03  0.8955856E+03  0.7818609E-02  0.9431116E-01
       -1   -1    0    0    0  501  0.00000000000E+00  0.00000000000E+00  0.31758908809E+03  0.31758908813E+03  0.50400001928E-02 0. -1.
        1   -1    0    0  501    0  0.00000000000E+00  0.00000000000E+00 -0.63137689970E+03  0.63137689972E+03  0.50400001928E-02 0.  1.
    10030    2    1    2    0    0  0.00000000000E+00  0.00000000000E+00 -0.31378781162E+03  0.94896598785E+03  0.89558564938E+03 0.  0.
        3    1    3    3  502    0 -0.21523932175E+03 -0.29190586934E+03  0.12140373698E+03  0.38246029825E+03  0.10100000352E+00 0. -1.
       -3    1    3    3    0  502  0.21523932175E+03  0.29190586934E+03 -0.43519154859E+03  0.56650568960E+03  0.10100000352E+00 0.  1.
</event>
<event>
 5   0  0.1535906E-02  0.8889184E+03  0.7818609E-02  0.9439541E-01
        2   -1    0    0  501    0  0.00000000000E+00  0.00000000000E+00  0.10998459743E+04  0.10998459743E+04  0.25500000920E-02 0.  1.
       -2   -1    0    0    0  501  0.00000000000E+00  0.00000000000E+00 -0.17961060536E+03  0.17961060537E+03  0.25500000920E-02 0. -1.
    10030    2    1    2    0    0  0.00000000000E+00  0.00000000000E+00  0.92023536894E+03  0.12794565797E+04  0.88891844678E+03 0.  0.
        2    1    3    3  502    0 -0.36983178677E+02 -0.11383762177E+03 -0.15597606610E+03  0.19660949326E+03  0.25500000920E-02 0. -1.
       -2    1    3    3    0  502  0.36983178677E+02  0.11383762177E+03  0.10762114350E+04  0.10828470864E+04  0.25500000920E-02 0.  1.
</event>
<event>
 5   0  0.1483326E-02  0.9140133E+03  0.7818609E-02  0.9408232E-01
        2   -1    0    0  501    0  0.00000000000E+00  0.00000000000E+00  0.10147393223E+04  0.10147393223E+04  0.25500000920E-02 0. -1.
       -2   -1    0    0    0  501  0.00000000000E+00  0.00000000000E+00 -0.20582139658E+03  0.20582139660E+03  0.25500000920E-02 0.  1.
    10030    2    1    2    0    0  0.00000000000E+00  0.00000000000E+00  0.80891792573E+03  0.12205607189E+04  0.91401327014E+03 0.  0.
        1    1    3    3  502    0 -0.37464164375E+03  0.18635226831E+03  0.15905459378E+03  0.44764036119E+03  0.50400001928E-02 0.  1.
       -1    1    3    3    0  502  0.37464164375E+03 -0.18635226831E+03  0.64986333195E+03  0.77292035772E+03  0.50400001928E-02 0. -1.
</event>
<event>
 5   0  0.1483326E-02  0.8982803E+03  0.7818609E-02  0.9427734E-01
        2   -1    0    0  501    0  0.00000000000E+00  0.00000000000E+00  0.92741922143E+03  0.92741922143E+03  0.25500000920E-02 0.  1.
       -2   -1    0    0    0  501  0.00000000000E+00  0.00000000000E+00 -0.21751422498E+03  0.21751422499E+03  0.25500000920E-02 0. -1.
    10030    2    1    2    0    0  0.00000000000E+00  0.00000000000E+00  0.70990499645E+03  0.11449334464E+04  0.89828029743E+03 0.  0.
        1    1    3    3  502    0 -0.59196661315E+02 -0.43144949289E+03  0.21489921372E+03  0.48562802813E+03  0.50400001928E-02 0.  1.
       -1    1    3    3    0  502  0.59196661315E+02  0.43144949289E+03  0.49500578273E+03  0.65930541829E+03  0.50400001928E-02 0. -1.
</event>
<event>
 5   0  0.1440615E-02  0.9064857E+03  0.7818609E-02  0.9417510E-01
        2   -1    0    0  501    0  0.00000000000E+00  0.00000000000E+00  0.67486334145E+03  0.67486334145E+03  0.25500000920E-02 0. -1.
       -2   -1    0    0    0  501  0.00000000000E+00  0.00000000000E+00 -0.30440101302E+03  0.30440101303E+03  0.25500000920E-02 0.  1.
    10030    2    1    2    0    0  0.00000000000E+00  0.00000000000E+00  0.37046232843E+03  0.97926435448E+03  0.90648570820E+03 0.  0.
        3    1    3    3  502    0 -0.18685239926E+03  0.34198257438E+03 -0.64787331780E+02  0.39504848924E+03  0.10100000352E+00 0.  1.
       -3    1    3    3    0  502  0.18685239926E+03 -0.34198257438E+03  0.43524966021E+03  0.58421586524E+03  0.10100000352E+00 0. -1.
</event>
<event>
 5   0  0.8612969E-03  0.9550470E+03  0.7818609E-02  0.9359271E-01
       -1   -1    0    0    0  501  0.00000000000E+00  0.00000000000E+00  0.70875158401E+03  0.70875158403E+03  0.50400001928E-02 0. -1.
        1   -1    0    0  501    0  0.00000000000E+00  0.00000000000E+00 -0.32173285326E+03  0.32173285330E+03  0.50400001928E-02 0.  1.
    10030    2    1    2    0    0  0.00000000000E+00  0.00000000000E+00  0.38701873075E+03  0.10304844373E+04  0.95504695048E+03 0.  0.
        4    1    3    3  502    0 -0.96605854216E+02  0.30483260790E+03  0.57616467440E+03  0.65895595819E+03  0.12699999809E+01 0. -1.
       -4    1    3    3    0  502  0.96605854216E+02 -0.30483260790E+03 -0.18914594365E+03  0.37152847913E+03  0.12699999809E+01 0.  1.
</event>
<event>
 5   0  0.1440615E-02  0.8961918E+03  0.7818609E-02  0.9430354E-01
        2   -1    0    0  501    0  0.00000000000E+00  0.00000000000E+00  0.75687258360E+03  0.75687258360E+03  0.25500000920E-02 0.  1.
       -2   -1    0    0    0  501  0.00000000000E+00  0.00000000000E+00 -0.26528896910E+03  0.26528896911E+03  0.25500000920E-02 0. -1.
    10030    2    1    2    0    0  0.00000000000E+00  0.00000000000E+00  0.49158361450E+03  0.10221615527E+04  0.89619182645E+03 0.  0.
        3    1    3    3  502    0 -0.30961190572E+03 -0.93257093176E+02  0.59961129371E+03  0.68124161010E+03  0.10100000352E+00 0.  1.
       -3    1    3    3    0  502  0.30961190572E+03  0.93257093176E+02 -0.10802767921E+03  0.34091994261E+03  0.10100000352E+00 0. -1.
</event>
<event>
 5   0  0.8885324E-03  0.9327386E+03  0.7818609E-02  0.9385557E-01
        1   -1    0    0  501    0  0.00000000000E+00  0.00000000000E+00  0.13902990052E+04  0.13902990052E+04  0.50400001928E-02 0. -1.
       -1   -1    0    0    0  501  0.00000000000E+00  0.00000000000E+00 -0.15644140168E+03  0.15644140176E+03  0.50400001928E-02 0.  1.
    10030    2    1    2    0    0  0.00000000000E+00  0.00000000000E+00  0.12338576035E+04  0.15467404070E+04  0.93273860262E+03 0.  0.
        2    1    3    3  502    0  0.20510371767E+03 -0.47760573803E+00 -0.77635699762E+02  0.21930587086E+03  0.25500000920E-02 0.  1.
       -2    1    3    3    0  502 -0.20510371767E+03  0.47760573803E+00  0.13114933033E+04  0.13274345361E+04  0.25500000920E-02 0. -1.
</event>
<event>
 5   0  0.1441195E-02  0.9645589E+03  0.7818609E-02  0.9348294E-01
       -2   -1    0    0    0  501  0.00000000000E+00  0.00000000000E+00  0.18493945672E+03  0.18493945674E+03  0.25500000920E-02 0. -1.
        2   -1    0    0  501    0  0.00000000000E+00  0.00000000000E+00 -0.12576735219E+04  0.12576735219E+04  0.25500000920E-02 0.  1.
    10030    2    1    2    0    0  0.00000000000E+00  0.00000000000E+00 -0.10727340651E+04  0.14426129786E+04  0.96455887924E+03 0.  0.
        5    1    3    3  502    0 -0.10060543087E+03 -0.24945551269E+03 -0.11350294286E+04  0.11664747744E+04  0.46999998093E+01 0.  1.
       -5    1    3    3    0  502  0.10060543087E+03  0.24945551269E+03  0.62295363434E+02  0.27613820423E+03  0.46999998093E+01 0. -1.
</event>
<event>
 5   0  0.1440615E-02  0.8576957E+03  0.7818609E-02  0.9480066E-01
       -2   -1    0    0    0  501  0.00000000000E+00  0.00000000000E+00  0.25183185213E+03  0.25183185214E+03  0.25500000920E-02 0. -1.
        2   -1    0    0  501    0  0.00000000000E+00  0.00000000000E+00 -0.73029078977E+03  0.73029078977E+03  0.25500000920E-02 0.  1.
    10030    2    1    2    0    0  0.00000000000E+00  0.00000000000E+00 -0.47845893764E+03  0.98212264191E+03  0.85769570871E+03 0.  0.
        3    1    3    3  502    0 -0.57630096094E+02  0.39161502462E+03 -0.50286073264E+02  0.39901410358E+03  0.10100000352E+00 0. -1.
       -3    1    3    3    0  502  0.57630096094E+02 -0.39161502462E+03 -0.42817286438E+03  0.58310853833E+03  0.10100000352E+00 0.  1.
</event>
<event>
 5   0  0.8885324E-03  0.7925111E+03  0.7818609E-02  0.9570921E-01
       -1   -1    0    0    0  501  0.00000000000E+00  0.00000000000E+00  0.43847813273E+03  0.43847813276E+03  0.50400001928E-02 0.  1.
        1   -1    0    0  501    0  0.00000000000E+00  0.00000000000E+00 -0.35809868690E+03  0.35809868693E+03  0.50400001928E-02 0. -1.
    10030    2    1    2    0    0  0.00000000000E+00  0.00000000000E+00  0.80379445834E+02  0.79657681969E+03  0.79251105630E+03 0.  0.
        2    1    3    3  502    0 -0.18621725424E+02 -0.18138828277E+03  0.39380414560E+03  0.43397025575E+03  0.25500000920E-02 0.  1.
       -2    1    3    3    0  502  0.18621725424E+02  0.18138828277E+03 -0.31342469976E+03  0.36260656394E+03  0.25500000920E-02 0. -1.
</event>
<event>
 5   0  0.8885324E-03  0.8945005E+03  0.7818609E-02  0.9432482E-01
       -1   -1    0    0    0  501  0.00000000000E+00  0.00000000000E+00  0.47223913707E+03  0.47223913709E+03  0.50400001928E-02 0.  1.
        1   -1    0    0  501    0  0.00000000000E+00  0.00000000000E+00 -0.42358362879E+03  0.42358362882E+03  0.50400001928E-02 0. -1.
    10030    2    1    2    0    0  0.00000000000E+00  0.00000000000E+00  0.48655508272E+02  0.89582276592E+03  0.89450045805E+03 0.  0.
        2    1    3    3  502    0  0.36280073758E+03 -0.25398052044E+03  0.86888389953E+02  0.45130928671E+03  0.25500000920E-02 0. -1.
       -2    1    3    3    0  502 -0.36280073758E+03  0.25398052044E+03 -0.38232881681E+02  0.44451347921E+03  0.25500000920E-02 0.  1.
</event>
<event>
 5   0  0.5770125E-03  0.9111382E+03  0.7818609E-02  0.9411764E-01
       -3   -1    0    0    0  501  0.00000000000E+00  0.00000000000E+00  0.46800957711E+03  0.46800958801E+03  0.10100000352E+00 0.  1.
        3   -1    0    0  501    0  0.00000000000E+00  0.00000000000E+00 -0.44345933259E+03  0.44345934410E+03  0.10100000352E+00 0. -1.
    10030    2    1    2    0    0  0.00000000000E+00  0.00000000000E+00  0.24550244517E+02  0.91146893211E+03  0.91113824401E+03 0.  0.
        3    1    3    3  502    0 -0.14590244558E+03  0.32491926145E+03 -0.27187579096E+03  0.44808091457E+03  0.10100000352E+00 0. -1.
       -3    1    3    3    0  502  0.14590244558E+03 -0.32491926145E+03  0.29642603548E+03  0.46338801754E+03  0.10100000352E+00 0.  1.
</event>
<event>
 5   0  0.8524692E-03  0.9002347E+03  0.7818609E-02  0.9425288E-01
       -1   -1    0    0    0  501  0.00000000000E+00  0.00000000000E+00  0.34990505749E+03  0.34990505752E+03  0.50400001928E-02 0. -1.
        1   -1    0    0  501    0  0.00000000000E+00  0.00000000000E+00 -0.57903035583E+03  0.57903035585E+03  0.50400001928E-02 0.  1.
    10030    2    1    2    0    0  0.00000000000E+00  0.00000000000E+00 -0.22912529834E+03  0.92893541337E+03  0.90023474710E+03 0.  0.
        5    1    3    3  502    0 -0.12183493334E+03 -0.31974878690E+03  0.18716432091E+03  0.39004565210E+03  0.46999998093E+01 0. -1.
       -5    1    3    3    0  502  0.12183493334E+03  0.31974878690E+03 -0.41628961925E+03  0.53888976127E+03  0.46999998093E+01 0.  1.
</event>
<event>
 5   0  0.1535906E-02  0.8920137E+03  0.7818609E-02  0.9435620E-01
        2   -1    0    0  501    0  0.00000000000E+00  0.00000000000E+00  0.97689664580E+03  0.97689664580E+03  0.25500000920E-02 0. -1.
       -2   -1    0    0    0  501  0.00000000000E+00  0.00000000000E+00 -0.20362656528E+03  0.20362656530E+03  0.25500000920E-02 0.  1.
    10030    2    1    2    0    0  0.00000000000E+00  0.00000000000E+00  0.77327008052E+03  0.11805232111E+04  0.89201369637E+03 0.  0.
        2    1    3    3  502    0 -0.21512167621E+03 -0.34093509014E+03  0.13411163231E+03  0.42485291713E+03  0.25500000920E-02 0.  1.
       -2    1    3    3    0  502  0.21512167621E+03  0.34093509014E+03  0.63915844820E+03  0.75567029397E+03  0.25500000920E-02 0. -1.
</event>
<event>
 5   0  0.1535906E-02  0.8977909E+03  0.7818609E-02  0.9428347E-01
       -2   -1    0    0    0  501  0.00000000000E+00  0.00000000000E+00  0.26193827418E+03  0.26193827420E+03  0.25500000920E-02 0. -1.
        2   -1    0    0  501    0  0.00000000000E+00  0.00000000000E+00 -0.76929234413E+03  0.76929234413E+03  0.25500000920E-02 0.  1.
    10030    2    1    2    0    0  0.00000000000E+00  0.00000000000E+00 -0.50735406994E+03  0.10312306183E+04  0.89779086423E+03 0.  0.
        2    1    3    3  502    0  0.28504367214E+03 -0.25552662520E+03 -0.52296518670E+03  0.64810210440E+03  0.25500000920E-02 0.  1.
       -2    1    3    3    0  502 -0.28504367214E+03  0.25552662520E+03  0.15611116758E+02  0.38312851393E+03  0.25500000920E-02 0. -1.
</event>
<event>
 5   0  0.8738044E-03  0.8975874E+03  0.7818609E-02  0.9428602E-01
        1   -1    0    0  501    0  0.00000000000E+00  0.00000000000E+00  0.60294611723E+03  0.60294611725E+03  0.50400001928E-02 0.  1.
       -1   -1    0    0    0  501  0.00000000000E+00  0.00000000000E+00 -0.33405272913E+03  0.33405272917E+03  0.50400001928E-02 0. -1.
    10030    2    1    2    0    0  0.00000000000E+00  0.00000000000E+00  0.26889338810E+03  0.93699884641E+03  0.89758742416E+03 0.  0.
        3    1    3    3  502    0 -0.19820731666E+03 -0.60333854347E+02 -0.28114083383E+03  0.34923701552E+03  0.10100000352E+00 0. -1.
       -3    1    3    3    0  502  0.19820731666E+03  0.60333854347E+02  0.55003422194E+03  0.58776183090E+03  0.10100000352E+00 0.  1.
</event>
<event>
 5   0  0.1454652E-02  0.9004931E+03  0.7818609E-02  0.9424965E-01
        2   -1    0    0  501    0  0.00000000000E+00  0.00000000000E+00  0.40753865905E+03  0.40753865906E+03  0.25500000920E-02 0.  1.
       -2   -1    0    0    0  501  0.00000000000E+00  0.00000000000E+00 -0.49742998644E+03  0.49742998644E+03  0.25500000920E-02 0. -1.
    10030    2    1    2    0    0  0.00000000000E+00  0.00000000000E+00 -0.89891327387E+02  0.90496864550E+03  0.90049308637E+03 0.  0.
        4    1    3    3  502    0  0.40229506588E+03 -0.17710349170E+03 -0.14296693760E+03  0.46222086165E+03  0.12699999809E+01 0. -1.
       -4    1    3    3    0  502 -0.40229506588E+03  0.17710349170E+03  0.53075610208E+02  0.44274778385E+03  0.12699999809E+01 0.  1.
</event>
<event>
 5   0  0.8291252E-03  0.8796345E+03  0.7818609E-02  0.9451404E-01
       -1   -1    0    0    0  501  0.00000000000E+00  0.00000000000E+00  0.30630250861E+03  0.30630250865E+03  0.50400001928E-02 0. -1.
        1   -1    0    0  501    0  0.00000000000E+00  0.00000000000E+00 -0.63152992333E+03  0.63152992335E+03  0.50400001928E-02 0.  1.
    10030    2    1    2    0    0  0.00000000000E+00  0.00000000000E+00 -0.32522741472E+03  0.93783243199E+03  0.87963446909E+03 0.  0.
        1    1    3    3  502    0  0.20189413356E+03 -0.30911275073E+03  0.92212874049E+02  0.38054585532E+03  0.50400001928E-02 0.  1.
       -1    1    3    3    0  502 -0.20189413356E+03  0.30911275073E+03 -0.41744028877E+03  0.55728657668E+03  0.50400001928E-02 0. -1.
</event>
<event>
 5   0  0.1535906E-02  0.8871579E+03  0.7818609E-02  0.9441779E-01
       -2   -1    0    0    0  501  0.00000000000E+00  0.00000000000E+00  0.39599589580E+03  0.39599589581E+03  0.25500000920E-02 0. -1.
        2   -1    0    0  501    0  0.00000000000E+00  0.00000000000E+00 -0.49687957792E+03  0.49687957792E+03  0.25500000920E-02 0.  1.
    10030    2    1    2    0    0  0.00000000000E+00  0.00000000000E+00 -0.10088368212E+03  0.89287547373E+03  0.88715787450E+03 0.  0.
        2    1    3    3  502    0  0.16621119545E+02 -0.28279923818E+03  0.29309451640E+03  0.40762245557E+03  0.25500000920E-02 0. -1.
       -2    1    3    3    0  502 -0.16621119545E+02  0.28279923818E+03 -0.39397819851E+03  0.48525301817E+03  0.25500000920E-02 0.  1.
</event>
<event>
 5   0  0.8738044E-03  0.8890890E+03  0.7818609E-02  0.9439324E-01
       -1   -1    0    0    0  501  0.00000000000E+00  0.00000000000E+00  0.22694129715E+03  0.22694129721E+03  0.50400001928E-02 0.  1.
        1   -1    0    0  501    0  0.00000000000E+00  0.00000000000E+00 -0.87079696150E+03  0.87079696151E+03  0.50400001928E-02 0. -1.
    10030    2    1    2    0    0  0.00000000000E+00  0.00000000000E+00 -0.64385566434E+03  0.10977382587E+04  0.88908895401E+03 0.  0.
        3    1    3    3  502    0  0.42233531094E+03 -0.12023992342E+03 -0.40742449239E+03  0.59901542655E+03  0.10100000352E+00 0.  1.
       -3    1    3    3    0  502 -0.42233531094E+03  0.12023992342E+03 -0.23643117196E+03  0.49872283217E+03  0.10100000352E+00 0. -1.
</event>
<event>
 5   0  0.5770125E-03  0.9285731E+03  0.7818609E-02  0.9390552E-01
        3   -1    0    0  501    0  0.00000000000E+00  0.00000000000E+00  0.40878338341E+03  0.40878339589E+03  0.10100000352E+00 0.  1.
       -3   -1    0    0    0  501  0.00000000000E+00  0.00000000000E+00 -0.52732568171E+03  0.52732569138E+03  0.10100000352E+00 0. -1.
    10030    2    1    2    0    0  0.00000000000E+00  0.00000000000E+00 -0.11854229830E+03  0.93610908727E+03  0.92857307024E+03 0.  0.
        5    1    3    3  502    0  0.40869264716E+03  0.36093026665E+02 -0.27830736353E+03  0.49579175569E+03  0.46999998093E+01 0. -1.
       -5    1    3    3    0  502 -0.40869264716E+03 -0.36093026665E+02  0.15976506523E+03  0.44031733158E+03  0.46999998093E+01 0.  1.
</event>
<event>
 5   0  0.1483326E-02  0.8875891E+03  0.7818609E-02  0.9441230E-01
        2   -1    0    0  501    0  0.00000000000E+00  0.00000000000E+00  0.14932936022E+04  0.14932936022E+04  0.25500000920E-02 0.  1.
       -2   -1    0    0    0  501  0.00000000000E+00  0.00000000000E+00 -0.13189208674E+03  0.13189208677E+03  0.25500000920E-02 0. -1.
    10030    2    1    2    0    0  0.00000000000E+00  0.00000000000E+00  0.13614015155E+04  0.16251856890E+04  0.88758911516E+03 0.  0.
        1    1    3    3  502    0 -0.10025239474E+03 -0.37308141246E+03  0.28074599857E+03  0.47755481226E+03  0.50400001928E-02 0. -1.
       -1    1    3    3    0  502  0.10025239474E+03  0.37308141246E+03  0.10806555169E+04  0.11476308767E+04  0.50400001928E-02 0.  1.
</event>
<event>
 5   0  0.1441195E-02  0.8961852E+03  0.7818609E-02  0.9430363E-01
       -2   -1    0    0    0  501  0.00000000000E+00  0.00000000000E+00  0.14568990425E+04  0.14568990425E+04  0.25500000920E-02 0. -1.
        2   -1    0    0  501    0  0.00000000000E+00  0.00000000000E+00 -0.13781803216E+03  0.13781803219E+03  0.25500000920E-02 0.  1.
    10030    2    1    2    0    0  0.00000000000E+00  0.00000000000E+00  0.13190810104E+04  0.15947170747E+04  0.89618515748E+03 0.  0.
        5    1    3    3  502    0  0.19787351808E+03  0.40140424525E+03  0.69875193292E+03  0.82979253493E+03  0.46999998093E+01 0.  1.
       -5    1    3    3    0  502 -0.19787351808E+03 -0.40140424525E+03  0.62032907744E+03  0.76492453979E+03  0.46999998093E+01 0. -1.
</event>
<event>
 5   0  0.8291252E-03  0.8937664E+03  0.7818609E-02  0.9433407E-01
        1   -1    0    0  501    0  0.00000000000E+00  0.00000000000E+00  0.29086903192E+03  0.29086903196E+03  0.50400001928E-02 0. -1.
       -1   -1    0    0    0  501  0.00000000000E+00  0.00000000000E+00 -0.68657914672E+03  0.68657914674E+03  0.50400001928E-02 0.  1.
    10030    2    1    2    0    0  0.00000000000E+00  0.00000000000E+00 -0.39571011481E+03  0.97744817870E+03  0.89376643878E+03 0.  0.
        1    1    3    3  502    0  0.22516622175E+03 -0.58768735942E+02 -0.61508678453E+03  0.65763617926E+03  0.50400001928E-02 0.  1.
       -1    1    3    3    0  502 -0.22516622175E+03  0.58768735942E+02  0.21937666973E+03  0.31981199944E+03  0.50400001928E-02 0. -1.
</event>
<event>
 5   0  0.8885324E-03  0.9055173E+03  0.7818609E-02  0.9418711E-01
        1   -1    0    0  501    0  0.00000000000E+00  0.00000000000E+00  0.39455733779E+03  0.39455733782E+03  0.50400001928E-02 0. -1.
       -1   -1    0    0    0  501  0.00000000000E+00  0.00000000000E+00 -0.51954528346E+03  0.51954528349E+03  0.50400001928E-02 0.  1.
    10030    2    1    2    0    0  0.00000000000E+00  0.00000000000E+00 -0.12498794567E+03  0.91410262131E+03  0.90551731940E+03 0.  0.
        2    1    3    3  502    0  0.30520319093E+03 -0.57757945630E+02  0.27003075069E+03  0.41158422511E+03  0.25500000920E-02 0. -1.
       -2    1    3    3    0  502 -0.30520319093E+03  0.57757945630E+02 -0.39501869636E+03  0.50251839620E+03  0.25500000920E-02 0.  1.
</event>
<event>
 5   0  0.8612969E-03  0.9090966E+03  0.7818609E-02  0.9414281E-01
        1   -1    0    0  501    0  0.00000000000E+00  0.00000000000E+00  0.44051569333E+03  0.44051569336E+03  0.50400001928E-02 0.  1.
       -1   -1    0    0    0  501  0.00000000000E+00  0.00000000000E+00 -0.46902792252E+03  0.46902792254E+03  0.50400001928E-02 0. -1.
    10030    2    1    2    0    0  0.00000000000E+00  0.00000000000E+00 -0.28512229190E+02  0.90954361590E+03  0.90909660763E+03 0.  0.
        4    1    3    3  502    0 -0.11910191158E+03 -0.23047773758E+03  0.35916633370E+03  0.44306582020E+03  0.12699999809E+01 0.  1.
       -4    1    3    3    0  502  0.11910191158E+03  0.23047773758E+03 -0.38767856289E+03  0.46647779571E+03  0.12699999809E+01 0. -1.
</event>
<event>
 5   0  0.1535906E-02  0.9103504E+03  0.7818609E-02  0.9412735E-01
       -2   -1    0    0    0  501  0.00000000000E+00  0.00000000000E+00  0.17160670425E+03  0.17160670427E+03  0.25500000920E-02 0. -1.
        2   -1    0    0  501    0  0.00000000000E+00  0.00000000000E+00 -0.12073214491E+04  0.12073214491E+04  0.25500000920E-02 0.  1.
    10030    2    1    2    0    0  0.00000000000E+00  0.00000000000E+00 -0.10357147449E+04  0.13789281534E+04  0.91035038280E+03 0.  0.
        2    1    3    3  502    0  0.39046849594E+03  0.20270408628E+03 -0.34101807209E+03  0.55663984623E+03  0.25500000920E-02 0. -1.
       -2    1    3    3    0  502 -0.39046849594E+03 -0.20270408628E+03 -0.69469667277E+03  0.82228830715E+03  0.25500000920E-02 0.  1.
</event>
<event>
 5   0  0.1535906E-02  0.8951901E+03  0.7818609E-02  0.9431614E-01
        2   -1    0    0  501    0  0.00000000000E+00  0.00000000000E+00  0.58219853146E+03  0.58219853147E+03  0.25500000920E-02 0. -1.
       -2   -1    0    0    0  501  0.00000000000E+00  0.00000000000E+00 -0.34411167119E+03  0.34411167120E+03  0.25500000920E-02 0.  1.
    10030    2    1    2    0    0  0.00000000000E+00  0.00000000000E+00  0.23808686027E+03  0.92631020267E+03  0.89519005721E+03 0.  0.
        2    1    3    3  502    0 -0.14545529167E+03  0.15109477559E+02 -0.31869437125E+03  0.35064460706E+03  0.25500000920E-02 0.  1.
       -2    1    3    3    0  502  0.14545529167E+03 -0.15109477559E+02  0.55678123152E+03  0.57566559561E+03  0.25500000920E-02 0. -1.
</event>
<event>
 5   0  0.1454652E-02  0.8912836E+03  0.7818609E-02  0.9436543E-01
       -2   -1    0    0    0  501  0.00000000000E+00  0.00000000000E+00  0.21696250939E+03  0.21696250941E+03  0.25500000920E-02 0.  1.
        2   -1    0    0  501    0  0.00000000000E+00  0.00000000000E+00 -0.91534981611E+03  0.91534981611E+03  0.25500000920E-02 0. -1.
    10030    2    1    2    0    0  0.00000000000E+00  0.00000000000E+00 -0.69838730672E+03  0.11323123255E+04  0.89128355328E+03 0.  0.
        4    1    3    3  502    0  0.17442680252E+02  0.27202771072E+03  0.98696311752E+02  0.28990670456E+03  0.12699999809E+01 0.  1.
       -4    1    3    3    0  502 -0.17442680252E+02 -0.27202771072E+03 -0.79708361847E+03  0.84240562096E+03  0.12699999809E+01 0. -1.
</event>
<event>
 5   0  0.1441195E-02  0.8874391E+03  0.7818609E-02  0.9441421E-01
       -2   -1    0    0    0  501  0.00000000000E+00  0.00000000000E+00  0.78577282709E+02  0.78577282750E+02  0.25500000920E-02 0.  1.
        2   -1    0    0  501    0  0.00000000000E+00  0.00000000000E+00 -0.25056483029E+04  0.25056483029E+04  0.25500000920E-02 0. -1.
    10030    2    1    2    0    0  0.00000000000E+00  0.00000000000E+00 -0.24270710202E+04  0.25842255856E+04  0.88743909113E+03 0.  0.
        5    1    3    3  502    0 -0.25929174449E+03 -0.34985792734E+03 -0.14611785297E+04  0.15246958922E+04  0.46999998093E+01 0. -1.
       -5    1    3    3    0  502  0.25929174449E+03  0.34985792734E+03 -0.96589249050E+03  0.10595296934E+04  0.46999998093E+01 0.  1.
</event>
<event>
 5   0  0.1535906E-02  0.9034432E+03  0.7818609E-02  0.9421287E-01
        2   -1    0    0  501    0  0.00000000000E+00  0.00000000000E+00  0.82121670877E+03  0.82121670877E+03  0.25500000920E-02 0.  1.
       -2   -1    0    0    0  501  0.00000000000E+00  0.00000000000E+00 -0.24847570363E+03  0.24847570364E+03  0.25500000920E-02 0. -1.
    10030    2    1    2    0    0  0.00000000000E+00  0.00000000000E+00  0.57274100514E+03  0.10696924124E+04  0.90344319036E+03 0.  0.
        2    1    3    3  502    0 -0.33412471389E+03 -0.30156259556E+03  0.33181388542E+03  0.55917776963E+03  0.25500000920E-02 0. -1.
       -2    1    3    3    0  502  0.33412471389E+03  0.30156259556E+03  0.24092711972E+03  0.51051464278E+03  0.25500000920E-02 0.  1.
</event>
<event>
 5   0  0.1483326E-02  0.8823773E+03  0.7818609E-02  0.9447883E-01
        2   -1    0    0  501    0  0.00000000000E+00  0.00000000000E+00  0.74608167554E+03  0.74608167554E+03  0.25500000920E-02 0. -1.
       -2   -1    0    0    0  501  0.00000000000E+00  0.00000000000E+00 -0.26089292429E+03  0.26089292430E+03  0.25500000920E-02 0.  1.
    10030    2    1    2    0    0  0.00000000000E+00  0.00000000000E+00  0.48518875125E+03  0.10069745998E+04  0.88237731180E+03 0.  0.
        1    1    3    3  502    0 -0.37080774934E+03  0.21929024381E+03  0.35122398652E+03  0.55582810898E+03  0.50400001928E-02 0.  1.
       -1    1    3    3    0  502  0.37080774934E+03 -0.21929024381E+03  0.13396476473E+03  0.45114649086E+03  0.50400001928E-02 0. -1.
</event>
<event>
 5   0  0.1454652E-02  0.8284483E+03  0.7818609E-02  0.9519728E-01
        2   -1    0    0  501    0  0.00000000000E+00  0.00000000000E+00  0.76874294769E+03  0.76874294770E+03  0.25500000920E-02 0.  1.
       -2   -1    0    0    0  501  0.00000000000E+00  0.00000000000E+00 -0.22319769750E+03  0.22319769751E+03  0.25500000920E-02 0. -1.
    10030    2    1    2    0    0  0.00000000000E+00  0.00000000000E+00  0.54554525019E+03  0.99194064521E+03  0.82844832284E+03 0.  0.
        4    1    3    3  502    0 -0.40541289062E+02 -0.34146987386E+03 -0.37466979111E+01  0.34389085698E+03  0.12699999809E+01 0. -1.
       -4    1    3    3    0  502  0.40541289062E+02  0.34146987386E+03  0.54929194810E+03  0.64804978823E+03  0.12699999809E+01 0.  1.
</event>
<event>
 5   0  0.1454652E-02  0.8964205E+03  0.7818609E-02  0.9430067E-01
       -2   -1    0    0    0  501  0.00000000000E+00  0.00000000000E+00  0.30242747397E+03  0.30242747398E+03  0.25500000920E-02 0. -1.
        2   -1    0    0  501    0  0.00000000000E+00  0.00000000000E+00 -0.66426647612E+03  0.66426647612E+03  0.25500000920E-02 0.  1.
    10030    2    1    2    0    0  0.00000000000E+00  0.00000000000E+00 -0.36183900215E+03  0.96669395010E+03  0.89642050940E+03 0.  0.
        4    1    3    3  502    0  0.29388856396E+03 -0.11121022072E+03  0.16374929538E+03  0.35433549901E+03  0.12699999809E+01 0. -1.
       -4    1    3    3    0  502 -0.29388856396E+03  0.11121022072E+03 -0.52558829753E+03  0.61235845109E+03  0.12699999809E+01 0.  1.
</event>
<event>
 5   0  0.1441195E-02  0.9312756E+03  0.7818609E-02  0.9387308E-01
       -2   -1    0    0    0  501  0.00000000000E+00  0.00000000000E+00  0.47488864153E+03  0.47488864154E+03  0.25500000920E-02 0.  1.
        2   -1    0    0  501    0  0.00000000000E+00  0.00000000000E+00 -0.45656716652E+03  0.45656716652E+03  0.25500000920E-02 0. -1.
    10030    2    1    2    0    0  0.00000000000E+00  0.00000000000E+00  0.18321475016E+02  0.93145580806E+03  0.93127560149E+03 0.  0.
        5    1    3    3  502    0  0.10773171182E+03 -0.37609564596E+03 -0.24336071939E+03  0.46076087766E+03  0.46999998093E+01 0. -1.
       -5    1    3    3    0  502 -0.10773171182E+03  0.37609564596E+03  0.26168219441E+03  0.47069493041E+03  0.46999998093E+01 0.  1.
</event>
<event>
 5   0  0.8885324E-03  0.8893950E+03  0.7818609E-02  0.9438936E-01
       -1   -1    0    0    0  501  0.00000000000E+00  0.00000000000E+00  0.39547250380E+03  0.39547250384E+03  0.50400001928E-02 0.  1.
        1   -1    0    0  501    0  0.00000000000E+00  0.00000000000E+00 -0.50004956016E+03  0.50004956018E+03  0.50400001928E-02 0. -1.
    10030    2    1    2    0    0  0.00000000000E+00  0.00000000000E+00 -0.10457705636E+03  0.89552206402E+03  0.88939496650E+03 0.  0.
        2    1    3    3  502    0 -0.34163161210E+03  0.62794960181E+02 -0.33187115542E+03  0.48041006361E+03  0.25500000920E-02 0. -1.
       -2    1    3    3    0  502  0.34163161210E+03 -0.62794960181E+02  0.22729409906E+03  0.41511200041E+03  0.25500000920E-02 0.  1.
</event>
<event>
 5   0  0.1441195E-02  0.9055647E+03  0.7818609E-02  0.9418652E-01
        2   -1    0    0  501    0  0.00000000000E+00  0.00000000000E+00  0.10747961819E+04  0.10747961819E+04  0.25500000920E-02 0.  1.
       -2   -1    0    0    0  501  0.00000000000E+00  0.00000000000E+00 -0.19074488085E+03  0.19074488086E+03  0.25500000920E-02 0. -1.
    10030    2    1    2    0    0  0.00000000000E+00  0.00000000000E+00  0.88405130110E+03  0.12655410628E+04  0.90556472916E+03 0.  0.
        5    1    3    3  502    0 -0.27854770431E+03  0.79528144771E+02  0.92830540388E+03  0.97246417017E+03  0.46999998093E+01 0.  1.
       -5    1    3    3    0  502  0.27854770431E+03 -0.79528144771E+02 -0.44254102788E+02  0.29307689264E+03  0.46999998093E+01 0. -1.
</event>
<event>
 5   0  0.1440615E-02  0.8972839E+03  0.7818609E-02  0.9428983E-01
        2   -1    0    0  501    0  0.00000000000E+00  0.00000000000E+00  0.11967355369E+04  0.11967355369E+04  0.25500000920E-02 0. -1.
       -2   -1    0    0    0  501  0.00000000000E+00  0.00000000000E+00 -0.16819052820E+03  0.16819052822E+03  0.25500000920E-02 0.  1.
    10030    2    1    2    0    0  0.00000000000E+00  0.00000000000E+00  0.10285450087E+04  0.13649260651E+04  0.89728386163E+03 0.  0.
        3    1    3    3  502    0 -0.81426379524E+02  0.33981630124E+03  0.94229944704E+03  0.10050042945E+04  0.10100000352E+00 0. -1.
       -3    1    3    3    0  502  0.81426379524E+02 -0.33981630124E+03  0.86245561666E+02  0.35992177063E+03  0.10100000352E+00 0.  1.
</event>
<event>
 5   0  0.5770125E-03  0.9215840E+03  0.7818609E-02  0.9398995E-01
       -4   -1    0    0    0  501  0.00000000000E+00  0.00000000000E+00  0.20304413771E+03  0.20304810947E+03  0.12699999809E+01 0.  1.
        4   -1    0    0  501    0  0.00000000000E+00  0.00000000000E+00 -0.10457150662E+04  0.10457158374E+04  0.12699999809E+01 0. -1.
    10030    2    1    2    0    0  0.00000000000E+00  0.00000000000E+00 -0.84267092853E+03  0.12487639469E+04  0.92158401750E+03 0.  0.
        2    1    3    3  502    0  0.11607884203E+03  0.32082860016E+03 -0.84100653044E+03  0.90757769502E+03  0.25500000920E-02 0. -1.
       -2    1    3    3    0  502 -0.11607884203E+03 -0.32082860016E+03 -0.16643980877E+01  0.34118625189E+03  0.25500000920E-02 0.  1.
</event>
<event>
 5   0  0.8291252E-03  0.9072659E+03  0.7818609E-02  0.9416544E-01
       -1   -1    0    0    0  501  0.00000000000E+00  0.00000000000E+00  0.53873447032E+03  0.53873447034E+03  0.50400001928E-02 0. -1.
        1   -1    0    0  501    0  0.00000000000E+00  0.00000000000E+00 -0.38197454044E+03  0.38197454047E+03  0.50400001928E-02 0.  1.
    10030    2    1    2    0    0  0.00000000000E+00  0.00000000000E+00  0.15675992988E+03  0.92070901081E+03  0.90726589651E+03 0.  0.
        1    1    3    3  502    0  0.30374843075E+03  0.12987656741E+02  0.42004505481E+03  0.51852640869E+03  0.50400001928E-02 0. -1.
       -1    1    3    3    0  502 -0.30374843075E+03 -0.12987656741E+02 -0.26328512493E+03  0.40218260212E+03  0.50400001928E-02 0.  1.
</event>
<event>
 5   0  0.8524692E-03  0.8768591E+03  0.7818609E-02  0.9454980E-01
       -1   -1    0    0    0  501  0.00000000000E+00  0.00000000000E+00  0.61681309082E+03  0.61681309084E+03  0.50400001928E-02 0. -1.
        1   -1    0    0  501    0  0.00000000000E+00  0.00000000000E+00 -0.31163490223E+03  0.31163490227E+03  0.50400001928E-02 0.  1.
    10030    2    1    2    0    0  0.00000000000E+00  0.00000000000E+00  0.30517818859E+03  0.92844799311E+03  0.87685913870E+03 0.  0.
        5    1    3    3  502    0 -0.32493702206E+03  0.27286346112E+03  0.35829642675E+02  0.42584550017E+03  0.46999998093E+01 0.  1.
       -5    1    3    3    0  502  0.32493702206E+03 -0.27286346112E+03  0.26934854591E+03  0.50260249294E+03  0.46999998093E+01 0. -1.
</event>
<event>
 5   0  0.8524692E-03  0.9001829E+03  0.7818609E-02  0.9425353E-01
       -1   -1    0    0    0  501  0.00000000000E+00  0.00000000000E+00  0.14213593017E+03  0.14213593026E+03  0.50400001928E-02 0.  1.
        1   -1    0    0  501    0  0.00000000000E+00  0.00000000000E+00 -0.14252716999E+04  0.14252716999E+04  0.50400001928E-02 0. -1.
    10030    2    1    2    0    0  0.00000000000E+00  0.00000000000E+00 -0.12831357697E+04  0.15674076301E+04  0.90018291227E+03 0.  0.
        5    1    3    3  502    0 -0.69095232292E+02 -0.44464794536E+03 -0.65657489907E+03  0.79598909197E+03  0.46999998093E+01 0.  1.
       -5    1    3    3    0  502  0.69095232292E+02  0.44464794536E+03 -0.62656087061E+03  0.77141853816E+03  0.46999998093E+01 0. -1.
</event>
<event>
 5   0  0.5770125E-03  0.9009834E+03  0.7818609E-02  0.9424353E-01
       -3   -1    0    0    0  501  0.00000000000E+00  0.00000000000E+00  0.63486266308E+03  0.63486267112E+03  0.10100000352E+00 0. -1.
        3   -1    0    0  501    0  0.00000000000E+00  0.00000000000E+00 -0.31966401518E+03  0.31966403114E+03  0.10100000352E+00 0.  1.
    10030    2    1    2    0    0  0.00000000000E+00  0.00000000000E+00  0.31519864790E+03  0.95452670225E+03  0.90098337259E+03 0.  0.
        1    1    3    3  502    0  0.36038832077E+03 -0.16238197649E+03  0.38653159335E+03  0.55286012763E+03  0.50400001928E-02 0.  1.
       -1    1    3    3    0  502 -0.36038832077E+03  0.16238197649E+03 -0.71332945457E+02  0.40166657462E+03  0.50400001928E-02 0. -1.
</event>
<event>
 5   0  0.1483326E-02  0.8987809E+03  0.7818609E-02  0.9427107E-01
       -2   -1    0    0    0  501  0.00000000000E+00  0.00000000000E+00  0.17281333724E+03  0.17281333726E+03  0.25500000920E-02 0.  1.
        2   -1    0    0  501    0  0.00000000000E+00  0.00000000000E+00 -0.11686121462E+04  0.11686121462E+04  0.25500000920E-02 0. -1.
    10030    2    1    2    0    0  0.00000000000E+00  0.00000000000E+00 -0.99579880893E+03  0.13414254834E+04  0.89878087414E+03 0.  0.
        1    1    3    3  502    0  0.73275862303E+02  0.22694258214E+03  0.70581291029E+02  0.24870465668E+03  0.50400001928E-02 0.  1.
       -1    1    3    3    0  502 -0.73275862303E+02 -0.22694258214E+03 -0.10663801000E+04  0.10927208267E+04  0.50400001928E-02 0. -1.
</event>
<event>
 5   0  0.1483326E-02  0.9009210E+03  0.7818609E-02  0.9424431E-01
       -2   -1    0    0    0  501  0.00000000000E+00  0.00000000000E+00  0.11072921571E+03  0.11072921574E+03  0.25500000920E-02 0.  1.
        2   -1    0    0  501    0  0.00000000000E+00  0.00000000000E+00 -0.18325303521E+04  0.18325303521E+04  0.25500000920E-02 0. -1.
    10030    2    1    2    0    0  0.00000000000E+00  0.00000000000E+00 -0.17218011364E+04  0.19432595678E+04  0.90092097030E+03 0.  0.
        1    1    3    3  502    0  0.88055678538E+02 -0.19519422949E+03 -0.60759976205E+01  0.21422303220E+03  0.50400001928E-02 0.  1.
       -1    1    3    3    0  502 -0.88055678538E+02  0.19519422949E+03 -0.17157251388E+04  0.17290365356E+04  0.50400001928E-02 0. -1.
</event>
<event>
 5   0  0.8612969E-03  0.8959239E+03  0.7818609E-02  0.9430691E-01
       -1   -1    0    0    0  501  0.00000000000E+00  0.00000000000E+00  0.34435287464E+03  0.34435287468E+03  0.50400001928E-02 0. -1.
        1   -1    0    0  501    0  0.00000000000E+00  0.00000000000E+00 -0.58274496861E+03  0.58274496863E+03  0.50400001928E-02 0.  1.
    10030    2    1    2    0    0  0.00000000000E+00  0.00000000000E+00 -0.23839209396E+03  0.92709784331E+03  0.89592389219E+03 0.  0.
        4    1    3    3  502    0  0.15066862042E+02  0.16177025491E+03 -0.55118022906E+03  0.57462847433E+03  0.12699999809E+01 0.  1.
       -4    1    3    3    0  502 -0.15066862042E+02 -0.16177025491E+03  0.31278813510E+03  0.35246936897E+03  0.12699999809E+01 0. -1.
</event>
<event>
 5   0  0.1535906E-02  0.8109565E+03  0.7818609E-02  0.9544292E-01
        2   -1    0    0  501    0  0.00000000000E+00  0.00000000000E+00  0.13116435893E+04  0.13116435893E+04  0.25500000920E-02 0.  1.
       -2   -1    0    0    0  501  0.00000000000E+00  0.00000000000E+00 -0.12534852819E+03  0.12534852822E+03  0.25500000920E-02 0. -1.
    10030    2    1    2    0    0  0.00000000000E+00  0.00000000000E+00  0.11862950612E+04  0.14369921176E+04  0.81095645618E+03 0.  0.
        2    1    3    3  502    0  0.23012750507E+03  0.28162726283E+03  0.27547486156E+03  0.45624443352E+03  0.25500000920E-02 0. -1.
       -2    1    3    3    0  502 -0.23012750507E+03 -0.28162726283E+03  0.91082019960E+03  0.98074768405E+03  0.25500000920E-02 0.  1.
</event>
<event>
 5   0  0.8524692E-03  0.8883084E+03  0.7818609E-02  0.9440316E-01
        1   -1    0    0  501    0  0.00000000000E+00  0.00000000000E+00  0.21912481371E+04  0.21912481371E+04  0.50400001928E-02 0.  1.
       -1   -1    0    0    0  501  0.00000000000E+00  0.00000000000E+00 -0.90027670594E+02  0.90027670735E+02  0.50400001928E-02 0. -1.
    10030    2    1    2    0    0  0.00000000000E+00  0.00000000000E+00  0.21012204665E+04  0.22812758078E+04  0.88830842761E+03 0.  0.
        5    1    3    3  502    0 -0.42636405087E+03  0.25340427177E+02  0.13632712838E+04  0.14286214069E+04  0.46999998093E+01 0. -1.
       -5    1    3    3    0  502  0.42636405087E+03 -0.25340427177E+02  0.73794918271E+03  0.85265440091E+03  0.46999998093E+01 0.  1.
</event>
<event>
 5   0  0.1441195E-02  0.9093496E+03  0.7818609E-02  0.9413969E-01
       -2   -1    0    0    0  501  0.00000000000E+00  0.00000000000E+00  0.11271332248E+03  0.11271332251E+03  0.25500000920E-02 0.  1.
        2   -1    0    0  501    0  0.00000000000E+00  0.00000000000E+00 -0.18341148755E+04  0.18341148755E+04  0.25500000920E-02 0. -1.
    10030    2    1    2    0    0  0.00000000000E+00  0.00000000000E+00 -0.17214015531E+04  0.19468281980E+04  0.90934961694E+03 0.  0.
        5    1    3    3  502    0 -0.39239215901E+03  0.22909329490E+03 -0.82673206340E+03  0.94337868265E+03  0.46999998093E+01 0.  1.
       -5    1    3    3    0  502  0.39239215901E+03 -0.22909329490E+03 -0.89466948965E+03  0.10034495154E+04  0.46999998093E+01 0. -1.
</event>
<event>
 5   0  0.1441195E-02  0.9039282E+03  0.7818609E-02  0.9420684E-01
        2   -1    0    0  501    0  0.00000000000E+00  0.00000000000E+00  0.11292115941E+04  0.11292115941E+04  0.25500000920E-02 0.  1.
       -2   -1    0    0    0  501  0.00000000000E+00  0.00000000000E+00 -0.18089749825E+03  0.18089749827E+03  0.25500000920E-02 0. -1.
    10030    2    1    2    0    0  0.00000000000E+00  0.00000000000E+00  0.94831409582E+03  0.13101090923E+04  0.90392821038E+03 0.  0.
        5    1    3    3  502    0 -0.40951188120E+03 -0.14593125656E+03  0.29515459433E+03  0.52548476385E+03  0.46999998093E+01 0. -1.
       -5    1    3    3    0  502  0.40951188120E+03  0.14593125656E+03  0.65315950149E+03  0.78462432850E+03  0.46999998093E+01 0.  1.
</event>
<event>
 5   0  0.8291252E-03  0.8753024E+03  0.7818609E-02  0.9456992E-01
       -1   -1    0    0    0  501  0.00000000000E+00  0.00000000000E+00  0.27285603478E+03  0.27285603482E+03  0.50400001928E-02 0.  1.
        1   -1    0    0  501    0  0.00000000000E+00  0.00000000000E+00 -0.70197664917E+03  0.70197664919E+03  0.50400001928E-02 0. -1.
    10030    2    1    2    0    0  0.00000000000E+00  0.00000000000E+00 -0.42912061440E+03  0.97483268401E+03  0.87530238211E+03 0.  0.
        1    1    3    3  502    0 -0.10271822721E+03 -0.13768161498E+03  0.23374247536E+03  0.29007379426E+03  0.50400001928E-02 0.  1.
       -1    1    3    3    0  502  0.10271822721E+03  0.13768161498E+03 -0.66286308976E+03  0.68475888975E+03  0.50400001928E-02 0. -1.
</event>
<event>
 5   0  0.8612969E-03  0.8241999E+03  0.7818609E-02  0.9525635E-01
       -1   -1    0    0    0  501  0.00000000000E+00  0.00000000000E+00  0.74143313823E+02  0.74143313994E+02  0.50400001928E-02 0.  1.
        1   -1    0    0  501    0  0.00000000000E+00  0.00000000000E+00 -0.22905150692E+04  0.22905150692E+04  0.50400001928E-02 0. -1.
    10030    2    1    2    0    0  0.00000000000E+00  0.00000000000E+00 -0.22163717554E+04  0.23646583832E+04  0.82419992187E+03 0.  0.
        4    1    3    3  502    0  0.22686499216E+02  0.36506004615E+03 -0.16528587728E+04  0.16928459027E+04  0.12699999809E+01 0. -1.
       -4    1    3    3    0  502 -0.22686499216E+02 -0.36506004615E+03 -0.56351298264E+03  0.67181248057E+03  0.12699999809E+01 0.  1.
</event>
<event>
 5   0  0.1440615E-02  0.9158264E+03  0.7818609E-02  0.9406011E-01
        2   -1    0    0  501    0  0.00000000000E+00  0.00000000000E+00  0.10716310501E+04  0.10716310501E+04  0.25500000920E-02 0.  1.
       -2   -1    0    0    0  501  0.00000000000E+00  0.00000000000E+00 -0.19566853468E+03  0.19566853469E+03  0.25500000920E-02 0. -1.
    10030    2    1    2    0    0  0.00000000000E+00  0.00000000000E+00  0.87596251538E+03  0.12672995847E+04  0.91582635317E+03 0.  0.
        3    1    3    3  502    0 -0.73522546582E+02  0.35281109655E+03  0.47071602319E+02  0.36345148321E+03  0.10100000352E+00 0. -1.
       -3    1    3    3    0  502  0.73522546582E+02 -0.35281109655E+03  0.82889091306E+03  0.90384810154E+03  0.10100000352E+00 0.  1.
</event>
<event>
 5   0  0.1483326E-02  0.8952296E+03  0.7818609E-02  0.9431564E-01
       -2   -1    0    0    0  501  0.00000000000E+00  0.00000000000E+00  0.18412355961E+03  0.18412355962E+03  0.25500000920E-02 0.  1.
        2   -1    0    0  501    0  0.00000000000E+00  0.00000000000E+00 -0.10881769640E+04  0.10881769640E+04  0.25500000920E-02 0. -1.
    10030    2    1    2    0    0  0.00000000000E+00  0.00000000000E+00 -0.90405340442E+03  0.12723005237E+04  0.89522961549E+03 0.  0.
        1    1    3    3  502    0  0.37294494776E+03  0.21143923882E+03 -0.63493980975E+03  0.76612208414E+03  0.50400001928E-02 0. -1.
       -1    1    3    3    0  502 -0.37294494776E+03 -0.21143923882E+03 -0.26911359467E+03  0.50617843952E+03  0.50400001928E-02 0.  1.
</event>
<event>
 5   0  0.1441195E-02  0.9315218E+03  0.7818609E-02  0.9387013E-01
       -2   -1    0    0    0  501  0.00000000000E+00  0.00000000000E+00  0.35944736154E+03  0.35944736155E+03  0.25500000920E-02 0. -1.
        2   -1    0    0  501    0  0.00000000000E+00  0.00000000000E+00 -0.60351876286E+03  0.60351876286E+03  0.25500000920E-02 0.  1.
    10030    2    1    2    0    0  0.00000000000E+00  0.00000000000E+00 -0.24407140131E+03  0.96296612441E+03  0.93152182359E+03 0.  0.
        5    1    3    3  502    0 -0.37213823815E+03  0.27929841429E+03 -0.14313709695E+03  0.48683137845E+03  0.46999998093E+01 0.  1.
       -5    1    3    3    0  502  0.37213823815E+03 -0.27929841429E+03 -0.10093430437E+03  0.47613474597E+03  0.46999998093E+01 0. -1.
</event>
<event>
 5   0  0.5770125E-03  0.9052187E+03  0.7818609E-02  0.9419081E-01
       -4   -1    0    0    0  501  0.00000000000E+00  0.00000000000E+00  0.67613702737E+03  0.67613822010E+03  0.12699999809E+01 0.  1.
        4   -1    0    0  501    0  0.00000000000E+00  0.00000000000E+00 -0.30297609623E+03  0.30297875798E+03  0.12699999809E+01 0. -1.
    10030    2    1    2    0    0  0.00000000000E+00  0.00000000000E+00  0.37316093113E+03  0.97911697808E+03  0.90521874497E+03 0.  0.
        2    1    3    3  502    0 -0.33376029214E+02 -0.13991717607E+03 -0.27759690587E+03  0.31265127161E+03  0.25500000920E-02 0. -1.
       -2    1    3    3    0  502  0.33376029214E+02  0.13991717607E+03  0.65075783700E+03  0.66646570647E+03  0.25500000920E-02 0.  1.
</event>
<event>
 5   0  0.1440615E-02  0.8926620E+03  0.7818609E-02  0.9434801E-01
        2   -1    0    0  501    0  0.00000000000E+00  0.00000000000E+00  0.51783004146E+03  0.51783004146E+03  0.25500000920E-02 0. -1.
       -2   -1    0    0    0  501  0.00000000000E+00  0.00000000000E+00 -0.38470415702E+03  0.38470415703E+03  0.25500000920E-02 0.  1.
    10030    2    1    2    0    0  0.00000000000E+00  0.00000000000E+00  0.13312588444E+03  0.90253419849E+03  0.89266201797E+03 0.  0.
        3    1    3    3  502    0  0.78258340776E+02  0.43831525649E+03  0.35126844691E+02  0.44663020206E+03  0.10100000352E+00 0. -1.
       -3    1    3    3    0  502 -0.78258340776E+02 -0.43831525649E+03  0.97999039746E+02  0.45590399643E+03  0.10100000352E+00 0.  1.
</event>
<event>
 5   0  0.1454652E-02  0.9347972E+03  0.7818609E-02  0.9383099E-01
       -2   -1    0    0    0  501  0.00000000000E+00  0.00000000000E+00  0.12061133922E+03  0.12061133925E+03  0.25500000920E-02 0. -1.
        2   -1    0    0  501    0  0.00000000000E+00  0.00000000000E+00 -0.18112845529E+04  0.18112845529E+04  0.25500000920E-02 0.  1.
    10030    2    1    2    0    0  0.00000000000E+00  0.00000000000E+00 -0.16906732137E+04  0.19318958921E+04  0.93479720938E+03 0.  0.
        4    1    3    3  502    0 -0.11788086251E+03 -0.30946387175E+03 -0.16366863375E+03  0.36939520874E+03  0.12699999809E+01 0. -1.
       -4    1    3    3    0  502  0.11788086251E+03  0.30946387175E+03 -0.15270045799E+04  0.15625006834E+04  0.12699999809E+01 0.  1.
</event>
<event>
 5   0  0.8524692E-03  0.8947315E+03  0.7818609E-02  0.9432191E-01
        1   -1    0    0  501    0  0.00000000000E+00  0.00000000000E+00  0.47345629805E+03  0.47345629808E+03  0.50400001928E-02 0. -1.
       -1   -1    0    0    0  501  0.00000000000E+00  0.00000000000E+00 -0.42271292643E+03  0.42271292646E+03  0.50400001928E-02 0.  1.
    10030    2    1    2    0    0  0.00000000000E+00  0.00000000000E+00  0.50743371623E+02  0.89616922454E+03  0.89473146209E+03 0.  0.
        5    1    3    3  502    0  0.34020706228E+03  0.12001983955E+03 -0.23956877582E+03  0.43308301220E+03  0.46999998093E+01 0.  1.
       -5    1    3    3    0  502 -0.34020706228E+03 -0.12001983955E+03  0.29031214744E+03  0.46308621234E+03  0.46999998093E+01 0. -1.
</event>
<event>
 5   0  0.1440615E-02  0.8881528E+03  0.7818609E-02  0.9440513E-01
        2   -1    0    0  501    0  0.00000000000E+00  0.00000000000E+00  0.12936486611E+04  0.12936486611E+04  0.25500000920E-02 0.  1.
       -2   -1    0    0    0  501  0.00000000000E+00  0.00000000000E+00 -0.15244002865E+03  0.15244002867E+03  0.25500000920E-02 0. -1.
    10030    2    1    2    0    0  0.00000000000E+00  0.00000000000E+00  0.11412086324E+04  0.14460886897E+04  0.88815277733E+03 0.  0.
        3    1    3    3  502    0 -0.26899778867E+02 -0.33939858534E+03  0.10348230793E+04  0.10893914877E+04  0.10100000352E+00 0.  1.
       -3    1    3    3    0  502  0.26899778867E+02  0.33939858534E+03  0.10638555314E+03  0.35669720205E+03  0.10100000352E+00 0. -1.
</event>
<event>
 5   0  0.1454652E-02  0.9014333E+03  0.7818609E-02  0.9423792E-01
       -2   -1    0    0    0  501  0.00000000000E+00  0.00000000000E+00  0.15243397917E+04  0.15243397917E+04  0.25500000920E-02 0.  1.
        2   -1    0    0  501    0  0.00000000000E+00  0.00000000000E+00 -0.13326784997E+03  0.13326785000E+03  0.25500000920E-02 0. -1.
    10030    2    1    2    0    0  0.00000000000E+00  0.00000000000E+00  0.13910719418E+04  0.16576076417E+04  0.90143327362E+03 0.  0.
        4    1    3    3  502    0  0.15788343444E+02  0.44171167738E+03  0.85778739278E+03  0.96496595890E+03  0.12699999809E+01 0.  1.
       -4    1    3    3    0  502 -0.15788343444E+02 -0.44171167738E+03  0.53328454898E+03  0.69264168283E+03  0.12699999809E+01 0. -1.
</event>
<event>
 5   0  0.1483326E-02  0.8516956E+03  0.7818609E-02  0.9488064E-01
       -2   -1    0    0    0  501  0.00000000000E+00  0.00000000000E+00  0.16376688565E+03  0.16376688567E+03  0.25500000920E-02 0. -1.
        2   -1    0    0  501    0  0.00000000000E+00  0.00000000000E+00 -0.11073443980E+04  0.11073443980E+04  0.25500000920E-02 0.  1.
    10030    2    1    2    0    0  0.00000000000E+00  0.00000000000E+00 -0.94357751230E+03  0.12711112836E+04  0.85169558744E+03 0.  0.
        1    1    3    3  502    0 -0.19927984747E+03  0.36515238994E+02  0.87233143770E+02  0.22057978530E+03  0.50400001928E-02 0. -1.
       -1    1    3    3    0  502  0.19927984747E+03 -0.36515238994E+02 -0.10308106561E+04  0.10505314983E+04  0.50400001928E-02 0.  1.
</event>
<event>
 5   0  0.8612969E-03  0.9003894E+03  0.7818609E-02  0.9425095E-01
       -1   -1    0    0    0  501  0.00000000000E+00  0.00000000000E+00  0.80470710380E+03  0.80470710381E+03  0.50400001928E-02 0.  1.
        1   -1    0    0  501    0  0.00000000000E+00  0.00000000000E+00 -0.25186216240E+03  0.25186216245E+03  0.50400001928E-02 0. -1.
    10030    2    1    2    0    0  0.00000000000E+00  0.00000000000E+00  0.55284494139E+03  0.10565692663E+04  0.90038940753E+03 0.  0.
        4    1    3    3  502    0 -0.20672714567E+02 -0.31737496523E+03  0.65031103240E+03  0.72392007946E+03  0.12699999809E+01 0.  1.
       -4    1    3    3    0  502  0.20672714567E+02  0.31737496523E+03 -0.97466091012E+02  0.33264918680E+03  0.12699999809E+01 0. -1.
</event>
<event>
 5   0  0.1440615E-02  0.9069459E+03  0.7818609E-02  0.9416940E-01
       -2   -1    0    0    0  501  0.00000000000E+00  0.00000000000E+00  0.45192575885E+03  0.45192575886E+03  0.25500000920E-02 0. -1.
        2   -1    0    0  501    0  0.00000000000E+00  0.00000000000E+00 -0.45502539054E+03  0.45502539055E+03  0.25500000920E-02 0.  1.
    10030    2    1    2    0    0  0.00000000000E+00  0.00000000000E+00 -0.30996316848E+01  0.90695114941E+03  0.90694585268E+03 0.  0.
        3    1    3    3  502    0  0.25608527916E+03 -0.31741641029E+03  0.19670581735E+03  0.45279800851E+03  0.10100000352E+00 0. -1.
       -3    1    3    3    0  502 -0.25608527916E+03  0.31741641029E+03 -0.19980544904E+03  0.45415314090E+03  0.10100000352E+00 0.  1.
</event>
<event>
 5   0  0.1441195E-02  0.9044358E+03  0.7818609E-02  0.9420053E-01
       -2   -1    0    0    0  501  0.00000000000E+00  0.00000000000E+00  0.41389741959E+03  0.41389741959E+03  0.25500000920E-02 0. -1.
        2   -1    0    0  501    0  0.00000000000E+00  0.00000000000E+00 -0.49408631262E+03  0.49408631263E+03  0.25500000920E-02 0.  1.
    10030    2    1    2    0    0  0.00000000000E+00  0.00000000000E+00 -0.80188893037E+02  0.90798373223E+03  0.90443584594E+03 0.  0.
        5    1    3    3  502    0 -0.24615759642E+03  0.34652408196E+02  0.33912348456E+03  0.42050110517E+03  0.46999998093E+01 0. -1.
       -5    1    3    3    0  502  0.24615759642E+03 -0.34652408196E+02 -0.41931237760E+03  0.48748262705E+03  0.46999998093E+01 0.  1.
</event>
<event>
 5   0  0.8738044E-03  0.9135728E+03  0.7818609E-02  0.9408772E-01
        1   -1    0    0  501    0  0.00000000000E+00  0.00000000000E+00  0.15747162524E+04  0.15747162524E+04  0.50400001928E-02 0.  1.
       -1   -1    0    0    0  501  0.00000000000E+00  0.00000000000E+00 -0.13250248367E+03  0.13250248376E+03  0.50400001928E-02 0. -1.
    10030    2    1    2    0    0  0.00000000000E+00  0.00000000000E+00  0.14422137687E+04  0.17072187361E+04  0.91357279863E+03 0.  0.
        3    1    3    3  502    0  0.30010913281E+03 -0.99271122567E+02  0.13373155564E+04  0.13741663491E+04  0.10100000352E+00 0.  1.
       -3    1    3    3    0  502 -0.30010913281E+03  0.99271122567E+02  0.10489821228E+03  0.33305238704E+03  0.10100000352E+00 0. -1.
</event>
<event>
 5   0  0.5770125E-03  0.8467981E+03  0.7818609E-02  0.9494645E-01
        3   -1    0    0  501    0  0.00000000000E+00  0.00000000000E+00  0.79671947694E+03  0.79671948334E+03  0.10100000352E+00 0. -1.
       -3   -1    0    0    0  501  0.00000000000E+00  0.00000000000E+00 -0.22500610737E+03  0.22500613004E+03  0.10100000352E+00 0.  1.
    10030    2    1    2    0    0  0.00000000000E+00  0.00000000000E+00  0.57171336957E+03  0.10217256134E+04  0.84679811767E+03 0.  0.
        4    1    3    3  502    0 -0.35776019534E+02  0.22760357522E+03 -0.14274396315E+03  0.27103646054E+03  0.12699999809E+01 0.  1.
       -4    1    3    3    0  502  0.35776019534E+02 -0.22760357522E+03  0.71445733272E+03  0.75068915284E+03  0.12699999809E+01 0. -1.
</event>
<event>
 5   0  0.8612969E-03  0.9045623E+03  0.7818609E-02  0.9419896E-01
        1   -1    0    0  501    0  0.00000000000E+00  0.00000000000E+00  0.12036250932E+04  0.12036250932E+04  0.50400001928E-02 0. -1.
       -1   -1    0    0    0  501  0.00000000000E+00  0.00000000000E+00 -0.16995178009E+03  0.16995178016E+03  0.50400001928E-02 0.  1.
    10030    2    1    2    0    0  0.00000000000E+00  0.00000000000E+00  0.10336733131E+04  0.13735768734E+04  0.90456227470E+03 0.  0.
        4    1    3    3  502    0 -0.26871280306E+03  0.13071863505E+03  0.13008202999E+01  0.29882643309E+03  0.12699999809E+01 0.  1.
       -4    1    3    3    0  502  0.26871280306E+03 -0.13071863505E+03  0.10323724928E+04  0.10747504403E+04  0.12699999809E+01 0. -1.
</event>
<event>
 5   0  0.1454652E-02  0.8971495E+03  0.7818609E-02  0.9429152E-01
        2   -1    0    0  501    0  0.00000000000E+00  0.00000000000E+00  0.12041220553E+04  0.12041220553E+04  0.25500000920E-02 0.  1.
       -2   -1    0    0    0  501  0.00000000000E+00  0.00000000000E+00 -0.16710872380E+03  0.16710872382E+03  0.25500000920E-02 0. -1.
    10030    2    1    2    0    0  0.00000000000E+00  0.00000000000E+00  0.10370133315E+04  0.13712307792E+04  0.89714948583E+03 0.  0.
        4    1    3    3  502    0  0.70883303572E+02 -0.18084227999E+03 -0.99496110933E+02  0.21824175116E+03  0.12699999809E+01 0. -1.
       -4    1    3    3    0  502 -0.70883303572E+02  0.18084227999E+03  0.11365094425E+04  0.11529890280E+04  0.12699999809E+01 0.  1.
</event>
<event>
 5   0  0.8738044E-03  0.8857465E+03  0.7818609E-02  0.9443576E-01
        1   -1    0    0  501    0  0.00000000000E+00  0.00000000000E+00  0.28544881370E+03  0.28544881374E+03  0.50400001928E-02 0. -1.
       -1   -1    0    0    0  501  0.00000000000E+00  0.00000000000E+00 -0.68711698628E+03  0.68711698630E+03  0.50400001928E-02 0.  1.
    10030    2    1    2    0    0  0.00000000000E+00  0.00000000000E+00 -0.40166817258E+03  0.97256580004E+03  0.88574652951E+03 0.  0.
        3    1    3    3  502    0 -0.23171970895E+03 -0.38049647547E+02  0.21146394955E+03  0.31600444831E+03  0.10100000352E+00 0. -1.
       -3    1    3    3    0  502  0.23171970895E+03  0.38049647547E+02 -0.61313212213E+03  0.65656135173E+03  0.10100000352E+00 0.  1.
</event>
<event>
 5   0  0.1441195E-02  0.8936028E+03  0.7818609E-02  0.9433614E-01
       -2   -1    0    0    0  501  0.00000000000E+00  0.00000000000E+00  0.37824420603E+03  0.37824420604E+03  0.25500000920E-02 0.  1.
        2   -1    0    0  501    0  0.00000000000E+00  0.00000000000E+00 -0.52778460832E+03  0.52778460833E+03  0.25500000920E-02 0. -1.
    10030    2    1    2    0    0  0.00000000000E+00  0.00000000000E+00 -0.14954040229E+03  0.90602881437E+03  0.89360275322E+03 0.  0.
        5    1    3    3  502    0  0.20269903381E+02  0.44336804017E+03 -0.12670050199E+03  0.46158552320E+03  0.46999998093E+01 0.  1.
       -5    1    3    3    0  502 -0.20269903381E+02 -0.44336804017E+03 -0.22839900298E+02  0.44444329117E+03  0.46999998093E+01 0. -1.
</event>
<event>
 5   0  0.1535906E-02  0.9194817E+03  0.7818609E-02  0.9401551E-01
       -2   -1    0    0    0  501  0.00000000000E+00  0.00000000000E+00  0.15169397771E+03  0.15169397773E+03  0.25500000920E-02 0. -1.
        2   -1    0    0  501    0  0.00000000000E+00  0.00000000000E+00 -0.13933425077E+04  0.13933425077E+04  0.25500000920E-02 0.  1.
    10030    2    1    2    0    0  0.00000000000E+00  0.00000000000E+00 -0.12416485300E+04  0.15450364855E+04  0.91948173952E+03 0.  0.
        2    1    3    3  502    0 -0.28050846725E+03 -0.77181224209E+02 -0.22663748041E+02  0.29181430234E+03  0.25500000920E-02 0. -1.
       -2    1    3    3    0  502  0.28050846725E+03  0.77181224209E+02 -0.12189847820E+04  0.12532221831E+04  0.25500000920E-02 0.  1.
</event>
<event>
 5   0  0.1441195E-02  0.8881451E+03  0.7818609E-02  0.9440523E-01
        2   -1    0    0  501    0  0.00000000000E+00  0.00000000000E+00  0.93404671790E+03  0.93404671790E+03  0.25500000920E-02 0. -1.
       -2   -1    0    0    0  501  0.00000000000E+00  0.00000000000E+00 -0.21112479613E+03  0.21112479615E+03  0.25500000920E-02 0.  1.
    10030    2    1    2    0    0  0.00000000000E+00  0.00000000000E+00  0.72292192177E+03  0.11451715140E+04  0.88814508478E+03 0.  0.
        5    1    3    3  502    0 -0.13680836533E+03 -0.19049885717E+03  0.84763709978E+03  0.87949820144E+03  0.46999998093E+01 0. -1.
       -5    1    3    3    0  502  0.13680836533E+03  0.19049885717E+03 -0.12471517802E+03  0.26567331261E+03  0.46999998093E+01 0.  1.
</event>
<event>
 5   0  0.8738044E-03  0.9212741E+03  0.7818609E-02  0.9399372E-01
        1   -1    0    0  501    0  0.00000000000E+00  0.00000000000E+00  0.44071176245E+03  0.44071176248E+03  0.50400001928E-02 0. -1.
       -1   -1    0    0    0  501  0.00000000000E+00  0.00000000000E+00 -0.48146316477E+03  0.48146316480E+03  0.50400001928E-02 0.  1.
    10030    2    1    2    0    0  0.00000000000E+00  0.00000000000E+00 -0.40751402317E+02  0.92217492728E+03  0.92127407416E+03 0.  0.
        3    1    3    3  502    0 -0.27799435278E+03 -0.34439777182E+03 -0.14815546890E+03  0.46673411979E+03  0.10100000352E+00 0.  1.
       -3    1    3    3    0  502  0.27799435278E+03  0.34439777182E+03  0.10740406658E+03  0.45544080749E+03  0.10100000352E+00 0. -1.
</event>
<event>
 5   0  0.8885324E-03  0.9015941E+03  0.7818609E-02  0.9423591E-01
        1   -1    0    0  501    0  0.00000000000E+00  0.00000000000E+00  0.44199586454E+03  0.44199586457E+03  0.50400001928E-02 0. -1.
       -1   -1    0    0    0  501  0.00000000000E+00  0.00000000000E+00 -0.45977345614E+03  0.45977345617E+03  0.50400001928E-02 0.  1.
    10030    2    1    2    0    0  0.00000000000E+00  0.00000000000E+00 -0.17777591595E+02  0.90176932074E+03  0.90159406889E+03 0.  0.
        2    1    3    3  502    0 -0.13655574739E+03  0.12886854232E+03  0.40102423974E+03  0.44280358424E+03  0.25500000920E-02 0. -1.
       -2    1    3    3    0  502  0.13655574739E+03 -0.12886854232E+03 -0.41880183134E+03  0.45896573650E+03  0.25500000920E-02 0.  1.
</event>
<event>
 5   0  0.1440615E-02  0.8967342E+03  0.7818609E-02  0.9429673E-01
        2   -1    0    0  501    0  0.00000000000E+00  0.00000000000E+00  0.21497546177E+04  0.21497546177E+04  0.25500000920E-02 0. -1.
       -2   -1    0    0    0  501  0.00000000000E+00  0.00000000000E+00 -0.93514426263E+02  0.93514426297E+02  0.25500000920E-02 0.  1.
    10030    2    1    2    0    0  0.00000000000E+00  0.00000000000E+00  0.20562401915E+04  0.22432690440E+04  0.89673422980E+03 0.  0.
        3    1    3    3  502    0  0.47964975124E+02 -0.39018293009E+03  0.15675015322E+04  0.16160459219E+04  0.10100000352E+00 0. -1.
       -3    1    3    3    0  502 -0.47964975124E+02  0.39018293009E+03  0.48873865924E+03  0.62722312219E+03  0.10100000352E+00 0.  1.
</event>
<event>
 5   0  0.8885324E-03  0.8957470E+03  0.7818609E-02  0.9430914E-01
        1   -1    0    0  501    0  0.00000000000E+00  0.00000000000E+00  0.29381334560E+03  0.29381334564E+03  0.50400001928E-02 0.  1.
       -1   -1    0    0    0  501  0.00000000000E+00  0.00000000000E+00 -0.68271459195E+03  0.68271459197E+03  0.50400001928E-02 0. -1.
    10030    2    1    2    0    0  0.00000000000E+00  0.00000000000E+00 -0.38890124635E+03  0.97652793761E+03  0.89574696958E+03 0.  0.
        2    1    3    3  502    0 -0.38751228308E+03  0.13213273738E+03  0.34883544526E+01  0.40943497463E+03  0.25500000920E-02 0. -1.
       -2    1    3    3    0  502  0.38751228308E+03 -0.13213273738E+03 -0.39238960081E+03  0.56709296298E+03  0.25500000920E-02 0.  1.
</event>
<event>
 5   0  0.1454652E-02  0.9074156E+03  0.7818609E-02  0.9416359E-01
        2   -1    0    0  501    0  0.00000000000E+00  0.00000000000E+00  0.14274013216E+04  0.14274013216E+04  0.25500000920E-02 0. -1.
       -2   -1    0    0    0  501  0.00000000000E+00  0.00000000000E+00 -0.14421367372E+03  0.14421367374E+03  0.25500000920E-02 0.  1.
    10030    2    1    2    0    0  0.00000000000E+00  0.00000000000E+00  0.12831876479E+04  0.15716149954E+04  0.90741564563E+03 0.  0.
        4    1    3    3  502    0  0.43385116782E+03 -0.12337254303E+03  0.72647007824E+03  0.85510701533E+03  0.12699999809E+01 0.  1.
       -4    1    3    3    0  502 -0.43385116782E+03  0.12337254303E+03  0.55671756968E+03  0.71650798005E+03  0.12699999809E+01 0. -1.
</event>
<event>
 5   0  0.8612969E-03  0.8907368E+03  0.7818609E-02  0.9437235E-01
       -1   -1    0    0    0  501  0.00000000000E+00  0.00000000000E+00  0.10190592304E+03  0.10190592316E+03  0.50400001928E-02 0. -1.
        1   -1    0    0  501    0  0.00000000000E+00  0.00000000000E+00 -0.19464327720E+04  0.19464327721E+04  0.50400001928E-02 0.  1.
    10030    2    1    2    0    0  0.00000000000E+00  0.00000000000E+00 -0.18445268490E+04  0.20483386952E+04  0.89073683745E+03 0.  0.
        4    1    3    3  502    0 -0.30205122245E+03 -0.11048582805E+03 -0.21381723306E+03  0.38621429445E+03  0.12699999809E+01 0. -1.
       -4    1    3    3    0  502  0.30205122245E+03  0.11048582805E+03 -0.16307096160E+04  0.16621244008E+04  0.12699999809E+01 0.  1.
</event>
<event>
 5   0  0.8291252E-03  0.8819912E+03  0.7818609E-02  0.9448378E-01
       -1   -1    0    0    0  501  0.00000000000E+00  0.00000000000E+00  0.57757507439E+03  0.57757507441E+03  0.50400001928E-02 0.  1.
        1   -1    0    0  501    0  0.00000000000E+00  0.00000000000E+00 -0.33671312012E+03  0.33671312015E+03  0.50400001928E-02 0. -1.
    10030    2    1    2    0    0  0.00000000000E+00  0.00000000000E+00  0.24086195427E+03  0.91428819457E+03  0.88199116872E+03 0.  0.
        1    1    3    3  502    0 -0.39203904432E+03  0.10810462379E+03  0.29725230583E+03  0.50372627021E+03  0.50400001928E-02 0. -1.
       -1    1    3    3    0  502  0.39203904432E+03 -0.10810462379E+03 -0.56390351557E+02  0.41056192435E+03  0.50400001928E-02 0.  1.
</event>
<event>
 5   0  0.8524692E-03  0.8976948E+03  0.7818609E-02  0.9428468E-01
       -1   -1    0    0    0  501  0.00000000000E+00  0.00000000000E+00  0.17481869860E+03  0.17481869867E+03  0.50400001928E-02 0.  1.
        1   -1    0    0  501    0  0.00000000000E+00  0.00000000000E+00 -0.11524168061E+04  0.11524168061E+04  0.50400001928E-02 0. -1.
    10030    2    1    2    0    0  0.00000000000E+00  0.00000000000E+00 -0.97759810749E+03  0.13272355048E+04  0.89769483978E+03 0.  0.
        5    1    3    3  502    0 -0.40561651931E+03  0.16749949194E+03 -0.34962365052E+03  0.56110571868E+03  0.46999998093E+01 0.  1.
       -5    1    3    3    0  502  0.40561651931E+03 -0.16749949194E+03 -0.62797445697E+03  0.76612978609E+03  0.46999998093E+01 0. -1.
</event>
<event>
 5   0  0.8738044E-03  0.8959794E+03  0.7818609E-02  0.9430621E-01
        1   -1    0    0  501    0  0.00000000000E+00  0.00000000000E+00  0.13740587178E+03  0.13740587187E+03  0.50400001928E-02 0.  1.
       -1   -1    0    0    0  501  0.00000000000E+00  0.00000000000E+00 -0.14605983426E+04  0.14605983426E+04  0.50400001928E-02 0. -1.
    10030    2    1    2    0    0  0.00000000000E+00  0.00000000000E+00 -0.13231924708E+04  0.15980042145E+04  0.89597943876E+03 0.  0.
        3    1    3    3  502    0 -0.18902548588E+03  0.35026127356E+02  0.60098784711E+02  0.20141831604E+03  0.10100000352E+00 0.  1.
       -3    1    3    3    0  502  0.18902548588E+03 -0.35026127356E+02 -0.13832912555E+04  0.13965858985E+04  0.10100000352E+00 0. -1.
</event>
<event>
 5   0  0.1535906E-02  0.8833146E+03  0.7818609E-02  0.9446683E-01
        2   -1    0    0  501    0  0.00000000000E+00  0.00000000000E+00  0.69025792069E+03  0.69025792069E+03  0.25500000920E-02 0. -1.
       -2   -1    0    0    0  501  0.00000000000E+00  0.00000000000E+00 -0.28259172456E+03  0.28259172457E+03  0.25500000920E-02 0.  1.
    10030    2    1    2    0    0  0.00000000000E+00  0.00000000000E+00  0.40766619613E+03  0.97284964527E+03  0.88331461260E+03 0.  0.
        2    1    3    3  502    0 -0.24216893106E+03 -0.35852106326E+03  0.10607805158E+03  0.44546121829E+03  0.25500000920E-02 0.  1.
       -2    1    3    3    0  502  0.24216893106E+03  0.35852106326E+03  0.30158814455E+03  0.52738842698E+03  0.25500000920E-02 0. -1.
</event>
<event>
 5   0  0.8612969E-03  0.9008184E+03  0.7818609E-02  0.9424559E-01
       -1   -1    0    0    0  501  0.00000000000E+00  0.00000000000E+00  0.24551154864E+03  0.24551154870E+03  0.50400001928E-02 0.  1.
        1   -1    0    0  501    0  0.00000000000E+00  0.00000000000E+00 -0.82630909342E+03  0.82630909344E+03  0.50400001928E-02 0. -1.
    10030    2    1    2    0    0  0.00000000000E+00  0.00000000000E+00 -0.58079754478E+03  0.10718206421E+04  0.90081835066E+03 0.  0.
        4    1    3    3  502    0 -0.20452554077E+03 -0.32753808501E+03 -0.56626211582E+03  0.68539498880E+03  0.12699999809E+01 0. -1.
       -4    1    3    3    0  502  0.20452554077E+03  0.32753808501E+03 -0.14535428964E+02  0.38642565334E+03  0.12699999809E+01 0.  1.
</event>
<event>
 5   0  0.1441195E-02  0.8657415E+03  0.7818609E-02  0.9469449E-01
       -2   -1    0    0    0  501  0.00000000000E+00  0.00000000000E+00  0.20661313704E+03  0.20661313706E+03  0.25500000920E-02 0.  1.
        2   -1    0    0  501    0  0.00000000000E+00  0.00000000000E+00 -0.90689828986E+03  0.90689828986E+03  0.25500000920E-02 0. -1.
    10030    2    1    2    0    0  0.00000000000E+00  0.00000000000E+00 -0.70028515281E+03  0.11135114269E+04  0.86574153339E+03 0.  0.
        5    1    3    3  502    0 -0.20554724280E+02 -0.16837148234E+03 -0.86233777590E+03  0.87887427001E+03  0.46999998093E+01 0. -1.
       -5    1    3    3    0  502  0.20554724280E+02  0.16837148234E+03  0.16205262308E+03  0.23463715691E+03  0.46999998093E+01 0.  1.
</event>
<event>
 5   0  0.5770125E-03  0.8958602E+03  0.7818609E-02  0.9430771E-01
        3   -1    0    0  501    0  0.00000000000E+00  0.00000000000E+00  0.90941430525E+03  0.90941431086E+03  0.10100000352E+00 0. -1.
       -3   -1    0    0    0  501  0.00000000000E+00  0.00000000000E+00 -0.22062698495E+03  0.22062700807E+03  0.10100000352E+00 0.  1.
    10030    2    1    2    0    0  0.00000000000E+00  0.00000000000E+00  0.68878732031E+03  0.11300413189E+04  0.89586015084E+03 0.  0.
        4    1    3    3  502    0  0.24300452221E+03 -0.11021480204E+03 -0.10943344964E+03  0.28840213800E+03  0.12699999809E+01 0.  1.
       -4    1    3    3    0  502 -0.24300452221E+03  0.11021480204E+03  0.79822076994E+03  0.84163918093E+03  0.12699999809E+01 0. -1.
</event>
<event>
 5   0  0.1454652E-02  0.9045790E+03  0.7818609E-02  0.9419875E-01
        2   -1    0    0  501    0  0.00000000000E+00  0.00000000000E+00  0.21425514881E+04  0.21425514881E+04  0.25500000920E-02 0.  1.
       -2   -1    0    0    0  501  0.00000000000E+00  0.00000000000E+00 -0.95477656847E+02  0.95477656881E+02  0.25500000920E-02 0. -1.
    10030    2    1    2    0    0  0.00000000000E+00  0.00000000000E+00  0.20470738312E+04  0.22380291450E+04  0.90457900881E+03 0.  0.
        4    1    3    3  502    0 -0.22084945697E+02  0.40628524215E+03  0.15121894934E+04  0.15659738566E+04  0.12699999809E+01 0.  1.
       -4    1    3    3    0  502  0.22084945697E+02 -0.40628524215E+03  0.53488433785E+03  0.67205528835E+03  0.12699999809E+01 0. -1.
</event>
<event>
 5   0  0.8291252E-03  0.9086118E+03  0.7818609E-02  0.9414880E-01
        1   -1    0    0  501    0  0.00000000000E+00  0.00000000000E+00  0.41404204123E+03  0.41404204126E+03  0.50400001928E-02 0. -1.
       -1   -1    0    0    0  501  0.00000000000E+00  0.00000000000E+00 -0.49848526173E+03  0.49848526176E+03  0.50400001928E-02 0.  1.
    10030    2    1    2    0    0  0.00000000000E+00  0.00000000000E+00 -0.84443220499E+02  0.91252730302E+03  0.90861181000E+03 0.  0.
        1    1    3    3  502    0 -0.15086739593E+03 -0.10932060094E+03  0.37390906712E+03  0.41775585626E+03  0.50400001928E-02 0. -1.
       -1    1    3    3    0  502  0.15086739593E+03  0.10932060094E+03 -0.45835228761E+03  0.49477144676E+03  0.50400001928E-02 0.  1.
</event>
<event>
 5   0  0.1441195E-02  0.8916455E+03  0.7818609E-02  0.9436086E-01
        2   -1    0    0  501    0  0.00000000000E+00  0.00000000000E+00  0.11231869295E+04  0.11231869296E+04  0.25500000920E-02 0. -1.
       -2   -1    0    0    0  501  0.00000000000E+00  0.00000000000E+00 -0.17695888323E+03  0.17695888325E+03  0.25500000920E-02 0.  1.
    10030    2    1    2    0    0  0.00000000000E+00  0.00000000000E+00  0.94622804632E+03  0.13001458128E+04  0.89164545583E+03 0.  0.
        5    1    3    3  502    0  0.13053549187E+03  0.31475195300E+03  0.53971050720E+02  0.34502647851E+03  0.46999998093E+01 0.  1.
       -5    1    3    3    0  502 -0.13053549187E+03 -0.31475195300E+03  0.89225699560E+03  0.95511933430E+03  0.46999998093E+01 0. -1.
</event>
<event>
 5   0  0.5770125E-03  0.8976406E+03  0.7818609E-02  0.9428536E-01
       -3   -1    0    0    0  501  0.00000000000E+00  0.00000000000E+00  0.11661112566E+04  0.11661112610E+04  0.10100000352E+00 0.  1.
        3   -1    0    0  501    0  0.00000000000E+00  0.00000000000E+00 -0.17274478686E+03  0.17274481638E+03  0.10100000352E+00 0. -1.
    10030    2    1    2    0    0  0.00000000000E+00  0.00000000000E+00  0.99336646974E+03  0.13388560774E+04  0.89764060329E+03 0.  0.
        4    1    3    3  502    0  0.33596219540E+02  0.21268219461E+03 -0.90675159803E+02  0.23363651123E+03  0.12699999809E+01 0. -1.
       -4    1    3    3    0  502 -0.33596219540E+02 -0.21268219461E+03  0.10840416295E+04  0.11052195661E+04  0.12699999809E+01 0.  1.
</event>
<event>
 5   0  0.1483326E-02  0.9206883E+03  0.7818609E-02  0.9400083E-01
       -2   -1    0    0    0  501  0.00000000000E+00  0.00000000000E+00  0.20639331845E+03  0.20639331847E+03  0.25500000920E-02 0.  1.
        2   -1    0    0  501    0  0.00000000000E+00  0.00000000000E+00 -0.10267615574E+04  0.10267615574E+04  0.25500000920E-02 0. -1.
    10030    2    1    2    0    0  0.00000000000E+00  0.00000000000E+00 -0.82036823895E+03  0.12331548759E+04  0.92068827537E+03 0.  0.
        1    1    3    3  502    0 -0.61069011318E+02  0.39105799161E+03 -0.72504171739E+03  0.82603950809E+03  0.50400001928E-02 0. -1.
       -1    1    3    3    0  502  0.61069011318E+02 -0.39105799161E+03 -0.95326521559E+02  0.40711536778E+03  0.50400001928E-02 0.  1.
</event>
<event>
 5   0  0.1440615E-02  0.9026721E+03  0.7818609E-02  0.9422247E-01
        2   -1    0    0  501    0  0.00000000000E+00  0.00000000000E+00  0.13653955747E+04  0.13653955747E+04  0.25500000920E-02 0. -1.
       -2   -1    0    0    0  501  0.00000000000E+00  0.00000000000E+00 -0.14919062228E+03  0.14919062230E+03  0.25500000920E-02 0.  1.
    10030    2    1    2    0    0  0.00000000000E+00  0.00000000000E+00  0.12162049524E+04  0.15145861970E+04  0.90267206773E+03 0.  0.
        3    1    3    3  502    0 -0.82556384776E+02 -0.32349275282E+03  0.98506256146E+02  0.34808994599E+03  0.10100000352E+00 0. -1.
       -3    1    3    3    0  502  0.82556384776E+02  0.32349275282E+03  0.11176986962E+04  0.11664962510E+04  0.10100000352E+00 0.  1.
</event>
<event>
 5   0  0.8291252E-03  0.9010492E+03  0.7818609E-02  0.9424271E-01
       -1   -1    0    0    0  501  0.00000000000E+00  0.00000000000E+00  0.36515933732E+03  0.36515933736E+03  0.50400001928E-02 0. -1.
        1   -1    0    0  501    0  0.00000000000E+00  0.00000000000E+00 -0.55584620888E+03  0.55584620891E+03  0.50400001928E-02 0.  1.
    10030    2    1    2    0    0  0.00000000000E+00  0.00000000000E+00 -0.19068687156E+03  0.92100554627E+03  0.90104924020E+03 0.  0.
        1    1    3    3  502    0 -0.25030747869E+03  0.17460851200E+03  0.24340331306E+03  0.39036795359E+03  0.50400001928E-02 0. -1.
       -1    1    3    3    0  502  0.25030747869E+03 -0.17460851200E+03 -0.43409018462E+03  0.53063759268E+03  0.50400001928E-02 0.  1.
</event>
<event>
 5   0  0.5770125E-03  0.9031243E+03  0.7818609E-02  0.9421684E-01
       -4   -1    0    0    0  501  0.00000000000E+00  0.00000000000E+00  0.12063319732E+04  0.12063326417E+04  0.12699999809E+01 0.  1.
        4   -1    0    0  501    0  0.00000000000E+00  0.00000000000E+00 -0.16902863482E+03  0.16903340584E+03  0.12699999809E+01 0. -1.
    10030    2    1    2    0    0  0.00000000000E+00  0.00000000000E+00  0.10373033383E+04  0.13753660475E+04  0.90312432639E+03 0.  0.
        3    1    3    3  502    0 -0.39467857430E+03  0.19915686935E+03  0.37846446905E+03  0.58195360653E+03  0.10100000352E+00 0.  1.
       -3    1    3    3    0  502  0.39467857430E+03 -0.19915686935E+03  0.65883886930E+03  0.79341244099E+03  0.10100000352E+00 0. -1.
</event>
<event>
 5   0  0.1483326E-02  0.8924270E+03  0.7818609E-02  0.9435098E-01
        2   -1    0    0  501    0  0.00000000000E+00  0.00000000000E+00  0.10588018403E+04  0.10588018403E+04  0.25500000920E-02 0.  1.
       -2   -1    0    0    0  501  0.00000000000E+00  0.00000000000E+00 -0.18804884774E+03  0.18804884776E+03  0.25500000920E-02 0. -1.
    10030    2    1    2    0    0  0.00000000000E+00  0.00000000000E+00  0.87075299258E+03  0.12468506881E+04  0.89242695179E+03 0.  0.
        1    1    3    3  502    0  0.40009569932E+03 -0.12370196591E+03  0.22016285994E+03  0.47312834401E+03  0.50400001928E-02 0.  1.
       -1    1    3    3    0  502 -0.40009569932E+03  0.12370196591E+03  0.65059013265E+03  0.77372234407E+03  0.50400001928E-02 0. -1.
</event>
<event>
 5   0  0.1440615E-02  0.8539421E+03  0.7818609E-02  0.9485061E-01
       -2   -1    0    0    0  501  0.00000000000E+00  0.00000000000E+00  0.15786494023E+03  0.15786494025E+03  0.25500000920E-02 0.  1.
        2   -1    0    0  501    0  0.00000000000E+00  0.00000000000E+00 -0.11548115765E+04  0.11548115765E+04  0.25500000920E-02 0. -1.
    10030    2    1    2    0    0  0.00000000000E+00  0.00000000000E+00 -0.99694663623E+03  0.13126765167E+04  0.85394206011E+03 0.  0.
        3    1    3    3  502    0  0.14919756983E+03 -0.39141860529E+03 -0.37137952805E+03  0.55981354349E+03  0.10100000352E+00 0.  1.
       -3    1    3    3    0  502 -0.14919756983E+03  0.39141860529E+03 -0.62556710818E+03  0.75286297322E+03  0.10100000352E+00 0. -1.
</event>
<event>
 5   0  0.8524692E-03  0.9075176E+03  0.7818609E-02  0.9416233E-01
       -1   -1    0    0    0  501  0.00000000000E+00  0.00000000000E+00  0.48580371078E+03  0.48580371081E+03  0.50400001928E-02 0. -1.
        1   -1    0    0  501    0  0.00000000000E+00  0.00000000000E+00 -0.42382767978E+03  0.42382767981E+03  0.50400001928E-02 0.  1.
    10030    2    1    2    0    0  0.00000000000E+00  0.00000000000E+00  0.61976031005E+02  0.90963139061E+03  0.90751762428E+03 0.  0.
        5    1    3    3  502    0 -0.26280341680E+03  0.10998070822E+03  0.38495865457E+03  0.47893282179E+03  0.46999998093E+01 0. -1.
       -5    1    3    3    0  502  0.26280341680E+03 -0.10998070822E+03 -0.32298262356E+03  0.43069856882E+03  0.46999998093E+01 0.  1.
</event>
<event>
 5   0  0.1440615E-02  0.8974022E+03  0.7818609E-02  0.9428835E-01
       -2   -1    0    0    0  501  0.00000000000E+00  0.00000000000E+00  0.62563738277E+03  0.62563738277E+03  0.25500000920E-02 0.  1.
        2   -1    0    0  501    0  0.00000000000E+00  0.00000000000E+00 -0.32180410566E+03  0.32180410567E+03  0.25500000920E-02 0. -1.
    10030    2    1    2    0    0  0.00000000000E+00  0.00000000000E+00  0.30383327711E+03  0.94744148844E+03  0.89740220288E+03 0.  0.
        3    1    3    3  502    0  0.98662942278E+02  0.12810114457E+03  0.59381045717E+03  0.61543086425E+03  0.10100000352E+00 0.  1.
       -3    1    3    3    0  502 -0.98662942278E+02 -0.12810114457E+03 -0.28997718006E+03  0.33201062419E+03  0.10100000352E+00 0. -1.
</event>
<event>
 5   0  0.8885324E-03  0.8781032E+03  0.7818609E-02  0.9453375E-01
       -1   -1    0    0    0  501  0.00000000000E+00  0.00000000000E+00  0.28559813925E+03  0.28559813930E+03  0.50400001928E-02 0.  1.
        1   -1    0    0  501    0  0.00000000000E+00  0.00000000000E+00 -0.67495650736E+03  0.67495650738E+03  0.50400001928E-02 0. -1.
    10030    2    1    2    0    0  0.00000000000E+00  0.00000000000E+00 -0.38935836811E+03  0.96055464668E+03  0.87810323450E+03 0.  0.
        2    1    3    3  502    0  0.14278570744E+03 -0.20602759681E+03 -0.58898502876E+03  0.64010818852E+03  0.25500000920E-02 0. -1.
       -2    1    3    3    0  502 -0.14278570744E+03  0.20602759681E+03  0.19962666065E+03  0.32044645816E+03  0.25500000920E-02 0.  1.
</event>
<event>
 5   0  0.8612969E-03  0.8734434E+03  0.7818609E-02  0.9459401E-01
        1   -1    0    0  501    0  0.00000000000E+00  0.00000000000E+00  0.10651070721E+04  0.10651070721E+04  0.50400001928E-02 0.  1.
       -1   -1    0    0    0  501  0.00000000000E+00  0.00000000000E+00 -0.17906729724E+03  0.17906729731E+03  0.50400001928E-02 0. -1.
    10030    2    1    2    0    0  0.00000000000E+00  0.00000000000E+00  0.88603977482E+03  0.12441743694E+04  0.87344340336E+03 0.  0.
        4    1    3    3  502    0 -0.14114543040E+03 -0.39976732580E+03  0.59233763468E+03  0.72842393815E+03  0.12699999809E+01 0.  1.
       -4    1    3    3    0  502  0.14114543040E+03  0.39976732580E+03  0.29370214014E+03  0.51575043124E+03  0.12699999809E+01 0. -1.
</event>
<event>
 5   0  0.1440615E-02  0.8811490E+03  0.7818609E-02  0.9449458E-01
       -2   -1    0    0    0  501  0.00000000000E+00  0.00000000000E+00  0.88425227041E+02  0.88425227078E+02  0.25500000920E-02 0. -1.
        2   -1    0    0  501    0  0.00000000000E+00  0.00000000000E+00 -0.21951417488E+04  0.21951417488E+04  0.25500000920E-02 0.  1.
    10030    2    1    2    0    0  0.00000000000E+00  0.00000000000E+00 -0.21067165218E+04  0.22835669759E+04  0.88114903977E+03 0.  0.
        3    1    3    3  502    0 -0.46515282358E+02 -0.43215101262E+03 -0.12400190026E+04  0.13139883204E+04  0.10100000352E+00 0. -1.
       -3    1    3    3    0  502  0.46515282358E+02  0.43215101262E+03 -0.86669751922E+03  0.96957865551E+03  0.10100000352E+00 0.  1.
</event>
<event>
 5   0  0.8738044E-03  0.9007485E+03  0.7818609E-02  0.9424646E-01
       -1   -1    0    0    0  501  0.00000000000E+00  0.00000000000E+00  0.39774475399E+03  0.39774475402E+03  0.50400001928E-02 0. -1.
        1   -1    0    0  501    0  0.00000000000E+00  0.00000000000E+00 -0.50996762309E+03  0.50996762312E+03  0.50400001928E-02 0.  1.
    10030    2    1    2    0    0  0.00000000000E+00  0.00000000000E+00 -0.11222286910E+03  0.90771237714E+03  0.90074845948E+03 0.  0.
        3    1    3    3  502    0  0.17941154936E+03  0.36018938800E+03  0.14771958783E+03  0.42865602306E+03  0.10100000352E+00 0. -1.
       -3    1    3    3    0  502 -0.17941154936E+03 -0.36018938800E+03 -0.25994245693E+03  0.47905635408E+03  0.10100000352E+00 0.  1.
</event>
<event>
 5   0  0.8291252E-03  0.9024008E+03  0.7818609E-02  0.9422585E-01
       -1   -1    0    0    0  501  0.00000000000E+00  0.00000000000E+00  0.67876077724E+03  0.67876077726E+03  0.50400001928E-02 0.  1.
        1   -1    0    0  501    0  0.00000000000E+00  0.00000000000E+00 -0.29993160505E+03  0.29993160509E+03  0.50400001928E-02 0. -1.
    10030    2    1    2    0    0  0.00000000000E+00  0.00000000000E+00  0.37882917219E+03  0.97869238235E+03  0.90240081868E+03 0.  0.
        1    1    3    3  502    0 -0.87759107497E+02  0.12422869510E+03  0.65011862261E+03  0.66767406204E+03  0.50400001928E-02 0.  1.
       -1    1    3    3    0  502  0.87759107497E+02 -0.12422869510E+03 -0.27128945041E+03  0.31101832031E+03  0.50400001928E-02 0. -1.
</event>
<event>
 5   0  0.8612969E-03  0.6532697E+03  0.7818609E-02  0.9800663E-01
        1   -1    0    0  501    0  0.00000000000E+00  0.00000000000E+00  0.28296595864E+03  0.28296595868E+03  0.50400001928E-02 0. -1.
       -1   -1    0    0    0  501  0.00000000000E+00  0.00000000000E+00 -0.37704295011E+03  0.37704295014E+03  0.50400001928E-02 0.  1.
    10030    2    1    2    0    0  0.00000000000E+00  0.00000000000E+00 -0.94076991467E+02  0.66000890882E+03  0.65326968352E+03 0.  0.
        4    1    3    3  502    0  0.54411892883E+02 -0.28693515629E+03 -0.19482212156E+03  0.35106938054E+03  0.12699999809E+01 0.  1.
       -4    1    3    3    0  502 -0.54411892883E+02  0.28693515629E+03  0.10074513009E+03  0.30893952829E+03  0.12699999809E+01 0. -1.
</event>
<event>
 5   0  0.1535906E-02  0.9024855E+03  0.7818609E-02  0.9422480E-01
       -2   -1    0    0    0  501  0.00000000000E+00  0.00000000000E+00  0.32350746930E+03  0.32350746931E+03  0.25500000920E-02 0. -1.
        2   -1    0    0  501    0  0.00000000000E+00  0.00000000000E+00 -0.62941362886E+03  0.62941362887E+03  0.25500000920E-02 0.  1.
    10030    2    1    2    0    0  0.00000000000E+00  0.00000000000E+00 -0.30590615956E+03  0.95292109818E+03  0.90248547961E+03 0.  0.
        2    1    3    3  502    0 -0.25156255611E+03  0.13459776250E+03 -0.52208991509E+03  0.59496063463E+03  0.25500000920E-02 0.  1.
       -2    1    3    3    0  502  0.25156255611E+03 -0.13459776250E+03  0.21618375553E+03  0.35796046356E+03  0.25500000920E-02 0. -1.
</event>
<event>
 5   0  0.1535906E-02  0.7845728E+03  0.7818609E-02  0.9582620E-01
        2   -1    0    0  501    0  0.00000000000E+00  0.00000000000E+00  0.64912242027E+03  0.64912242028E+03  0.25500000920E-02 0. -1.
       -2   -1    0    0    0  501  0.00000000000E+00  0.00000000000E+00 -0.23707178231E+03  0.23707178232E+03  0.25500000920E-02 0.  1.
    10030    2    1    2    0    0  0.00000000000E+00  0.00000000000E+00  0.41205063797E+03  0.88619420260E+03  0.78457277321E+03 0.  0.
        2    1    3    3  502    0  0.68242464217E+01  0.74115441225E+02 -0.22902340148E+03  0.24081400997E+03  0.25500000920E-02 0.  1.
       -2    1    3    3    0  502 -0.68242464217E+01 -0.74115441225E+02  0.64107403945E+03  0.64538019262E+03  0.25500000920E-02 0. -1.
</event>
<event>
 5   0  0.1535906E-02  0.9245460E+03  0.7818609E-02  0.9395407E-01
       -2   -1    0    0    0  501  0.00000000000E+00  0.00000000000E+00  0.58649475475E+03  0.58649475475E+03  0.25500000920E-02 0. -1.
        2   -1    0    0  501    0  0.00000000000E+00  0.00000000000E+00 -0.36436186740E+03  0.36436186741E+03  0.25500000920E-02 0.  1.
    10030    2    1    2    0    0  0.00000000000E+00  0.00000000000E+00  0.22213288735E+03  0.95085662216E+03  0.92454599468E+03 0.  0.
        2    1    3    3  502    0  0.34530620118E+03 -0.30570098369E+03  0.14370050095E+03  0.48305206549E+03  0.25500000920E-02 0. -1.
       -2    1    3    3    0  502 -0.34530620118E+03  0.30570098369E+03  0.78432386402E+02  0.46780455667E+03  0.25500000920E-02 0.  1.
</event>
<event>
 5   0  0.5770125E-03  0.9044398E+03  0.7818609E-02  0.9420048E-01
       -4   -1    0    0    0  501  0.00000000000E+00  0.00000000000E+00  0.21761755834E+03  0.21762126412E+03  0.12699999809E+01 0. -1.
        4   -1    0    0  501    0  0.00000000000E+00  0.00000000000E+00 -0.93972289152E+03  0.93972374970E+03  0.12699999809E+01 0.  1.
    10030    2    1    2    0    0  0.00000000000E+00  0.00000000000E+00 -0.72210533318E+03  0.11573450138E+04  0.90443980938E+03 0.  0.
        5    1    3    3  502    0 -0.63629268387E+02 -0.40881442134E+03 -0.12753282197E+03  0.43297185309E+03  0.46999998093E+01 0. -1.
       -5    1    3    3    0  502  0.63629268387E+02  0.40881442134E+03 -0.59457251122E+03  0.72437316073E+03  0.46999998093E+01 0.  1.
</event>
<event>
 5   0  0.8612969E-03  0.7861512E+03  0.7818609E-02  0.9580282E-01
       -1   -1    0    0    0  501  0.00000000000E+00  0.00000000000E+00  0.10270585411E+03  0.10270585423E+03  0.50400001928E-02 0. -1.
        1   -1    0    0  501    0  0.00000000000E+00  0.00000000000E+00 -0.15043780994E+04  0.15043780994E+04  0.50400001928E-02 0.  1.
    10030    2    1    2    0    0  0.00000000000E+00  0.00000000000E+00 -0.14016722453E+04  0.16070839536E+04  0.78615122644E+03 0.  0.
        4    1    3    3  502    0 -0.34807004996E+02  0.38727304489E+03 -0.58313875179E+03  0.70088826188E+03  0.12699999809E+01 0. -1.
       -4    1    3    3    0  502  0.34807004996E+02 -0.38727304489E+03 -0.81853349351E+03  0.90619569177E+03  0.12699999809E+01 0.  1.
</event>
<event>
 5   0  0.8738044E-03  0.8994802E+03  0.7818609E-02  0.9426231E-01
        1   -1    0    0  501    0  0.00000000000E+00  0.00000000000E+00  0.38403784286E+03  0.38403784289E+03  0.50400001928E-02 0.  1.
       -1   -1    0    0    0  501  0.00000000000E+00  0.00000000000E+00 -0.52668288204E+03  0.52668288206E+03  0.50400001928E-02 0. -1.
    10030    2    1    2    0    0  0.00000000000E+00  0.00000000000E+00 -0.14264503918E+03  0.91072072495E+03  0.89948020082E+03 0.  0.
        3    1    3    3  502    0 -0.63230374249E+02  0.25958878447E+03  0.29497428139E+03  0.39798775626E+03  0.10100000352E+00 0.  1.
       -3    1    3    3    0  502  0.63230374249E+02 -0.25958878447E+03 -0.43761932057E+03  0.51273296869E+03  0.10100000352E+00 0. -1.
</event>
<event>
 5   0  0.1441195E-02  0.8960715E+03  0.7818609E-02  0.9430506E-01
        2   -1    0    0  501    0  0.00000000000E+00  0.00000000000E+00  0.51042613028E+03  0.51042613029E+03  0.25500000920E-02 0.  1.
       -2   -1    0    0    0  501  0.00000000000E+00  0.00000000000E+00 -0.39327145727E+03  0.39327145728E+03  0.25500000920E-02 0. -1.
    10030    2    1    2    0    0  0.00000000000E+00  0.00000000000E+00  0.11715467301E+03  0.90369758757E+03  0.89607148843E+03 0.  0.
        5    1    3    3  502    0 -0.41692237583E+03  0.15496215685E+03  0.11266586257E+03  0.45886078947E+03  0.46999998093E+01 0.  1.
       -5    1    3    3    0  502  0.41692237583E+03 -0.15496215685E+03  0.44888104442E+01  0.44483679810E+03  0.46999998093E+01 0. -1.
</event>
<event>
 5   0  0.8612969E-03  0.8918128E+03  0.7818609E-02  0.9435874E-01
        1   -1    0    0  501    0  0.00000000000E+00  0.00000000000E+00  0.20192328476E+03  0.20192328482E+03  0.50400001928E-02 0. -1.
       -1   -1    0    0    0  501  0.00000000000E+00  0.00000000000E+00 -0.98469331662E+03  0.98469331664E+03  0.50400001928E-02 0.  1.
    10030    2    1    2    0    0  0.00000000000E+00  0.00000000000E+00 -0.78277003187E+03  0.11866166015E+04  0.89181278083E+03 0.  0.
        4    1    3    3  502    0 -0.21734931767E+03 -0.34162022523E+03 -0.14286520123E+03  0.42936835328E+03  0.12699999809E+01 0.  1.
       -4    1    3    3    0  502  0.21734931767E+03  0.34162022523E+03 -0.63990483064E+03  0.75724824817E+03  0.12699999809E+01 0. -1.
</event>
<event>
 5   0  0.1441195E-02  0.9076301E+03  0.7818609E-02  0.9416093E-01
        2   -1    0    0  501    0  0.00000000000E+00  0.00000000000E+00  0.75947638097E+03  0.75947638097E+03  0.25500000920E-02 0.  1.
       -2   -1    0    0    0  501  0.00000000000E+00  0.00000000000E+00 -0.27117117091E+03  0.27117117092E+03  0.25500000920E-02 0. -1.
    10030    2    1    2    0    0  0.00000000000E+00  0.00000000000E+00  0.48830521006E+03  0.10306475519E+04  0.90763009979E+03 0.  0.
        5    1    3    3  502    0  0.44534440830E+03 -0.29300406933E+02  0.33734867693E+03  0.55947866418E+03  0.46999998093E+01 0.  1.
       -5    1    3    3    0  502 -0.44534440830E+03  0.29300406933E+02  0.15095653314E+03  0.47116888771E+03  0.46999998093E+01 0. -1.
</event>
<event>
 5   0  0.8612969E-03  0.9259375E+03  0.7818609E-02  0.9393727E-01
        1   -1    0    0  501    0  0.00000000000E+00  0.00000000000E+00  0.10093395943E+04  0.10093395943E+04  0.50400001928E-02 0. -1.
       -1   -1    0    0    0  501  0.00000000000E+00  0.00000000000E+00 -0.21235673588E+03  0.21235673594E+03  0.50400001928E-02 0.  1.
    10030    2    1    2    0    0  0.00000000000E+00  0.00000000000E+00  0.79698285843E+03  0.12216963303E+04  0.92593749614E+03 0.  0.
        4    1    3    3  502    0  0.61053505711E+02  0.43326839657E+03  0.59810908099E+03  0.74107025287E+03  0.12699999809E+01 0. -1.
       -4    1    3    3    0  502 -0.61053505711E+02 -0.43326839657E+03  0.19887377745E+03  0.48062607740E+03  0.12699999809E+01 0.  1.
</event>
<event>
 5   0  0.8524692E-03  0.9044787E+03  0.7818609E-02  0.9420000E-01
        1   -1    0    0  501    0  0.00000000000E+00  0.00000000000E+00  0.32290357587E+03  0.32290357591E+03  0.50400001928E-02 0.  1.
       -1   -1    0    0    0  501  0.00000000000E+00  0.00000000000E+00 -0.63337919570E+03  0.63337919572E+03  0.50400001928E-02 0. -1.
    10030    2    1    2    0    0  0.00000000000E+00  0.00000000000E+00 -0.31047561984E+03  0.95628277163E+03  0.90447865028E+03 0.  0.
        5    1    3    3  502    0 -0.45442272746E+02  0.10611233527E+03 -0.61751434041E+03  0.62822836490E+03  0.46999998093E+01 0. -1.
       -5    1    3    3    0  502  0.45442272746E+02 -0.10611233527E+03  0.30703872057E+03  0.32805440673E+03  0.46999998093E+01 0.  1.
</event>
<event>
 5   0  0.8738044E-03  0.9021682E+03  0.7818609E-02  0.9422875E-01
       -1   -1    0    0    0  501  0.00000000000E+00  0.00000000000E+00  0.78254132969E+02  0.78254133131E+02  0.50400001928E-02 0. -1.
        1   -1    0    0  501    0  0.00000000000E+00  0.00000000000E+00 -0.26002061832E+04  0.26002061832E+04  0.50400001928E-02 0.  1.
    10030    2    1    2    0    0  0.00000000000E+00  0.00000000000E+00 -0.25219520502E+04  0.26784603163E+04  0.90216823405E+03 0.  0.
        3    1    3    3  502    0 -0.34388819387E+03 -0.11229752200E+03 -0.46098139405E+03  0.58598095463E+03  0.10100000352E+00 0. -1.
       -3    1    3    3    0  502  0.34388819387E+03  0.11229752200E+03 -0.20609706562E+04  0.20924793617E+04  0.10100000352E+00 0.  1.
</event>
<event>
 5   0  0.8291252E-03  0.8899547E+03  0.7818609E-02  0.9438226E-01
       -1   -1    0    0    0  501  0.00000000000E+00  0.00000000000E+00  0.17419523015E+03  0.17419523022E+03  0.50400001928E-02 0. -1.
        1   -1    0    0  501    0  0.00000000000E+00  0.00000000000E+00 -0.11366834047E+04  0.11366834047E+04  0.50400001928E-02 0.  1.
    10030    2    1    2    0    0  0.00000000000E+00  0.00000000000E+00 -0.96248817456E+03  0.13108786349E+04  0.88995466702E+03 0.  0.
        1    1    3    3  502    0 -0.44358002165E+03  0.23074492021E+02 -0.52046941403E+03  0.68423978163E+03  0.50400001928E-02 0.  1.
       -1    1    3    3    0  502  0.44358002165E+03 -0.23074492021E+02 -0.44201876053E+03  0.62663885331E+03  0.50400001928E-02 0. -1.
</event>
<event>
 5   0  0.1454652E-02  0.9016206E+03  0.7818609E-02  0.9423558E-01
        2   -1    0    0  501    0  0.00000000000E+00  0.00000000000E+00  0.36325937734E+03  0.36325937734E+03  0.25500000920E-02 0. -1.
       -2   -1    0    0    0  501  0.00000000000E+00  0.00000000000E+00 -0.55946229438E+03  0.55946229439E+03  0.25500000920E-02 0.  1.
    10030    2    1    2    0    0  0.00000000000E+00  0.00000000000E+00 -0.19620291705E+03  0.92272167173E+03  0.90162059583E+03 0.  0.
        4    1    3    3  502    0 -0.44247587534E+02  0.47257806146E+02 -0.55467840894E+03  0.55844507294E+03  0.12699999809E+01 0.  1.
       -4    1    3    3    0  502  0.44247587534E+02 -0.47257806146E+02  0.35847549189E+03  0.36427659880E+03  0.12699999809E+01 0. -1.
</event>
<event>
 5   0  0.1535906E-02  0.8985214E+03  0.7818609E-02  0.9427432E-01
        2   -1    0    0  501    0  0.00000000000E+00  0.00000000000E+00  0.48122553130E+03  0.48122553131E+03  0.25500000920E-02 0. -1.
       -2   -1    0    0    0  501  0.00000000000E+00  0.00000000000E+00 -0.41941912437E+03  0.41941912438E+03  0.25500000920E-02 0.  1.
    10030    2    1    2    0    0  0.00000000000E+00  0.00000000000E+00  0.61806406928E+02  0.90064465569E+03  0.89852143206E+03 0.  0.
        2    1    3    3  502    0  0.69643838048E+02  0.44306470550E+03  0.47918194230E+01  0.44853044376E+03  0.25500000920E-02 0.  1.
       -2    1    3    3    0  502 -0.69643838048E+02 -0.44306470550E+03  0.57014587505E+02  0.45211421193E+03  0.25500000920E-02 0. -1.
</event>
<event>
 5   0  0.8738044E-03  0.9177347E+03  0.7818609E-02  0.9403680E-01
        1   -1    0    0  501    0  0.00000000000E+00  0.00000000000E+00  0.21808241571E+03  0.21808241576E+03  0.50400001928E-02 0. -1.
       -1   -1    0    0    0  501  0.00000000000E+00  0.00000000000E+00 -0.96550317302E+03  0.96550317303E+03  0.50400001928E-02 0.  1.
    10030    2    1    2    0    0  0.00000000000E+00  0.00000000000E+00 -0.74742075732E+03  0.11835855888E+04  0.91773474247E+03 0.  0.
        3    1    3    3  502    0 -0.39924125377E+03 -0.18212134362E+02 -0.82933673820E+02  0.40817063222E+03  0.10100000352E+00 0. -1.
       -3    1    3    3    0  502  0.39924125377E+03  0.18212134362E+02 -0.66448708350E+03  0.77541495658E+03  0.10100000352E+00 0.  1.
</event>
<event>
 5   0  0.1440615E-02  0.1034698E+04  0.7818609E-02  0.9271287E-01
        2   -1    0    0  501    0  0.00000000000E+00  0.00000000000E+00  0.59421917826E+03  0.59421917826E+03  0.25500000920E-02 0.  1.
       -2   -1    0    0    0  501  0.00000000000E+00  0.00000000000E+00 -0.45042297172E+03  0.45042297172E+03  0.25500000920E-02 0. -1.
    10030    2    1    2    0    0  0.00000000000E+00  0.00000000000E+00  0.14379620654E+03  0.10446421500E+04  0.10346979620E+04 0.  0.
        3    1    3    3  502    0 -0.94609258653E+02  0.32781421847E+01  0.58540034601E+03  0.59300525575E+03  0.10100000352E+00 0.  1.
       -3    1    3    3    0  502  0.94609258653E+02 -0.32781421847E+01 -0.44160413947E+03  0.45163689424E+03  0.10100000352E+00 0. -1.
</event>
<event>
 5   0  0.8291252E-03  0.8935799E+03  0.7818609E-02  0.9433643E-01
        1   -1    0    0  501    0  0.00000000000E+00  0.00000000000E+00  0.95686665707E+03  0.95686665708E+03  0.50400001928E-02 0. -1.
       -1   -1    0    0    0  501  0.00000000000E+00  0.00000000000E+00 -0.20861972644E+03  0.20861972651E+03  0.50400001928E-02 0.  1.
    10030    2    1    2    0    0  0.00000000000E+00  0.00000000000E+00  0.74824693062E+03  0.11654863836E+04  0.89357990193E+03 0.  0.
        1    1    3    3  502    0 -0.14486013695E+02 -0.43911249159E+03  0.26822969769E+03  0.51475896846E+03  0.50400001928E-02 0.  1.
       -1    1    3    3    0  502  0.14486013695E+02  0.43911249159E+03  0.48001723294E+03  0.65072741513E+03  0.50400001928E-02 0. -1.
</event>
<event>
 5   0  0.8612969E-03  0.9086444E+03  0.7818609E-02  0.9414840E-01
        1   -1    0    0  501    0  0.00000000000E+00  0.00000000000E+00  0.37754346035E+03  0.37754346039E+03  0.50400001928E-02 0. -1.
       -1   -1    0    0    0  501  0.00000000000E+00  0.00000000000E+00 -0.54671495034E+03  0.54671495036E+03  0.50400001928E-02 0.  1.
    10030    2    1    2    0    0  0.00000000000E+00  0.00000000000E+00 -0.16917148998E+03  0.92425841075E+03  0.90864438413E+03 0.  0.
        4    1    3    3  502    0 -0.18746100799E+03  0.35599966998E+03  0.13006089254E+03  0.42284139250E+03  0.12699999809E+01 0. -1.
       -4    1    3    3    0  502  0.18746100799E+03 -0.35599966998E+03 -0.29923238253E+03  0.50141701825E+03  0.12699999809E+01 0.  1.
</event>
<event>
 5   0  0.8524692E-03  0.8987045E+03  0.7818609E-02  0.9427202E-01
        1   -1    0    0  501    0  0.00000000000E+00  0.00000000000E+00  0.69623674699E+03  0.69623674700E+03  0.50400001928E-02 0. -1.
       -1   -1    0    0    0  501  0.00000000000E+00  0.00000000000E+00 -0.29001262846E+03  0.29001262850E+03  0.50400001928E-02 0.  1.
    10030    2    1    2    0    0  0.00000000000E+00  0.00000000000E+00  0.40622411853E+03  0.98624937551E+03  0.89870450996E+03 0.  0.
        5    1    3    3  502    0 -0.20791673472E+03  0.60096967435E+02  0.63523944520E+03  0.67111270052E+03  0.46999998093E+01 0. -1.
       -5    1    3    3    0  502  0.20791673472E+03 -0.60096967435E+02 -0.22901532667E+03  0.31513667499E+03  0.46999998093E+01 0.  1.
</event>
<event>
 5   0  0.1440615E-02  0.8968409E+03  0.7818609E-02  0.9429539E-01
        2   -1    0    0  501    0  0.00000000000E+00  0.00000000000E+00  0.19893352826E+04  0.19893352826E+04  0.25500000920E-02 0.  1.
       -2   -1    0    0    0  501  0.00000000000E+00  0.00000000000E+00 -0.10107944768E+03  0.10107944771E+03  0.25500000920E-02 0. -1.
    10030    2    1    2    0    0  0.00000000000E+00  0.00000000000E+00  0.18882558349E+04  0.20904147303E+04  0.89684092603E+03 0.  0.
        3    1    3    3  502    0  0.25637881895E+03  0.14950570718E+03  0.17276550552E+04  0.17529615099E+04  0.10100000352E+00 0.  1.
       -3    1    3    3    0  502 -0.25637881895E+03 -0.14950570718E+03  0.16060077965E+03  0.33745322034E+03  0.10100000352E+00 0. -1.
</event>
<event>
 5   0  0.8291252E-03  0.9016567E+03  0.7818609E-02  0.9423513E-01
        1   -1    0    0  501    0  0.00000000000E+00  0.00000000000E+00  0.14712329012E+04  0.14712329013E+04  0.50400001928E-02 0. -1.
       -1   -1    0    0    0  501  0.00000000000E+00  0.00000000000E+00 -0.13814684849E+03  0.13814684858E+03  0.50400001928E-02 0.  1.
    10030    2    1    2    0    0  0.00000000000E+00  0.00000000000E+00  0.13330860527E+04  0.16093797498E+04  0.90165667254E+03 0.  0.
        1    1    3    3  502    0 -0.25713670038E+01 -0.30366561529E+03  0.12612885556E+04  0.12973311984E+04  0.50400001928E-02 0. -1.
       -1    1    3    3    0  502  0.25713670038E+01  0.30366561529E+03  0.71797497173E+02  0.31204855145E+03  0.50400001928E-02 0.  1.
</event>
<event>
 5   0  0.1483326E-02  0.9092944E+03  0.7818609E-02  0.9414037E-01
       -2   -1    0    0    0  501  0.00000000000E+00  0.00000000000E+00  0.51020131173E+03  0.51020131174E+03  0.25500000920E-02 0.  1.
        2   -1    0    0  501    0  0.00000000000E+00  0.00000000000E+00 -0.40514221404E+03  0.40514221405E+03  0.25500000920E-02 0. -1.
    10030    2    1    2    0    0  0.00000000000E+00  0.00000000000E+00  0.10505909769E+03  0.91534352579E+03  0.90929442767E+03 0.  0.
        1    1    3    3  502    0 -0.38534503179E+02 -0.20113767489E+03  0.46113973471E+03  0.50457024005E+03  0.50400001928E-02 0.  1.
       -1    1    3    3    0  502  0.38534503179E+02  0.20113767489E+03 -0.35608063701E+03  0.41077328574E+03  0.50400001928E-02 0. -1.
</event>
<event>
 5   0  0.8612969E-03  0.1016738E+04  0.7818609E-02  0.9290375E-01
        1   -1    0    0  501    0  0.00000000000E+00  0.00000000000E+00  0.66980211395E+03  0.66980211397E+03  0.50400001928E-02 0.  1.
       -1   -1    0    0    0  501  0.00000000000E+00  0.00000000000E+00 -0.38584378873E+03  0.38584378876E+03  0.50400001928E-02 0. -1.
    10030    2    1    2    0    0  0.00000000000E+00  0.00000000000E+00  0.28395832522E+03  0.10556459027E+04  0.10167378922E+04 0.  0.
        4    1    3    3  502    0 -0.14075398640E+03 -0.46067761995E+03 -0.26725146515E+02  0.48244315786E+03  0.12699999809E+01 0. -1.
       -4    1    3    3    0  502  0.14075398640E+03  0.46067761995E+03  0.31068347174E+03  0.57320274487E+03  0.12699999809E+01 0.  1.
</event>
<event>
 5   0  0.8524692E-03  0.8909015E+03  0.7818609E-02  0.9437027E-01
       -1   -1    0    0    0  501  0.00000000000E+00  0.00000000000E+00  0.18347034448E+03  0.18347034455E+03  0.50400001928E-02 0.  1.
        1   -1    0    0  501    0  0.00000000000E+00  0.00000000000E+00 -0.10815174347E+04  0.10815174347E+04  0.50400001928E-02 0. -1.
    10030    2    1    2    0    0  0.00000000000E+00  0.00000000000E+00 -0.89804709019E+03  0.12649877792E+04  0.89090151274E+03 0.  0.
        5    1    3    3  502    0 -0.35260076367E+03 -0.12292547399E+03 -0.10423039438E+03  0.38771643737E+03  0.46999998093E+01 0.  1.
       -5    1    3    3    0  502  0.35260076367E+03  0.12292547399E+03 -0.79381669581E+03  0.87727134185E+03  0.46999998093E+01 0. -1.
</event>
<event>
 5   0  0.5770125E-03  0.9083563E+03  0.7818609E-02  0.9415195E-01
        3   -1    0    0  501    0  0.00000000000E+00  0.00000000000E+00  0.52863090846E+03  0.52863091811E+03  0.10100000352E+00 0.  1.
       -3   -1    0    0    0  501  0.00000000000E+00  0.00000000000E+00 -0.39021138536E+03  0.39021139843E+03  0.10100000352E+00 0. -1.
    10030    2    1    2    0    0  0.00000000000E+00  0.00000000000E+00  0.13841952310E+03  0.91884231653E+03  0.90835633882E+03 0.  0.
        3    1    3    3  502    0 -0.37896558945E+03 -0.12313635230E+02  0.32211850774E+03  0.49752074011E+03  0.10100000352E+00 0.  1.
       -3    1    3    3    0  502  0.37896558945E+03  0.12313635230E+02 -0.18369898464E+03  0.42132157643E+03  0.10100000352E+00 0. -1.
</event>
<event>
 5   0  0.8885324E-03  0.9317747E+03  0.7818609E-02  0.9386711E-01
        1   -1    0    0  501    0  0.00000000000E+00  0.00000000000E+00  0.65728280055E+03  0.65728280057E+03  0.50400001928E-02 0.  1.
       -1   -1    0    0    0  501  0.00000000000E+00  0.00000000000E+00 -0.33022471434E+03  0.33022471438E+03  0.50400001928E-02 0. -1.
    10030    2    1    2    0    0  0.00000000000E+00  0.00000000000E+00  0.32705808622E+03  0.98750751495E+03  0.93177470470E+03 0.  0.
        2    1    3    3  502    0  0.22488734141E+03  0.16759358144E+03  0.55778697169E+03  0.62433022565E+03  0.25500000920E-02 0.  1.
       -2    1    3    3    0  502 -0.22488734141E+03 -0.16759358144E+03 -0.23072888547E+03  0.36317728930E+03  0.25500000920E-02 0. -1.
</event>
<event>
 5   0  0.8885324E-03  0.8953792E+03  0.7818609E-02  0.9431376E-01
       -1   -1    0    0    0  501  0.00000000000E+00  0.00000000000E+00  0.55177835503E+03  0.55177835505E+03  0.50400001928E-02 0.  1.
        1   -1    0    0  501    0  0.00000000000E+00  0.00000000000E+00 -0.36323642533E+03  0.36323642536E+03  0.50400001928E-02 0. -1.
    10030    2    1    2    0    0  0.00000000000E+00  0.00000000000E+00  0.18854192970E+03  0.91501478041E+03  0.89537924318E+03 0.  0.
        2    1    3    3  502    0 -0.12094565886E+03 -0.27883813478E+03 -0.24164320709E+03  0.38829112447E+03  0.25500000920E-02 0. -1.
       -2    1    3    3    0  502  0.12094565886E+03  0.27883813478E+03  0.43018513679E+03  0.52672365594E+03  0.25500000920E-02 0.  1.
</event>
<event>
 5   0  0.5770125E-03  0.9089658E+03  0.7818609E-02  0.9414443E-01
       -3   -1    0    0    0  501  0.00000000000E+00  0.00000000000E+00  0.11852782706E+04  0.11852782749E+04  0.10100000352E+00 0. -1.
        3   -1    0    0  501    0  0.00000000000E+00  0.00000000000E+00 -0.17426682470E+03  0.17426685397E+03  0.10100000352E+00 0.  1.
    10030    2    1    2    0    0  0.00000000000E+00  0.00000000000E+00  0.10110114459E+04  0.13595451288E+04  0.90896579346E+03 0.  0.
        5    1    3    3  502    0 -0.35485614585E+03 -0.23937938964E+03  0.73385071126E+03  0.84957891502E+03  0.46999998093E+01 0. -1.
       -5    1    3    3    0  502  0.35485614585E+03  0.23937938964E+03  0.27716073461E+03  0.50996621382E+03  0.46999998093E+01 0.  1.
</event>
<event>
 5   0  0.8524692E-03  0.9386444E+03  0.7818609E-02  0.9378523E-01
       -1   -1    0    0    0  501  0.00000000000E+00  0.00000000000E+00  0.11920670337E+04  0.11920670337E+04  0.50400001928E-02 0. -1.
        1   -1    0    0  501    0  0.00000000000E+00  0.00000000000E+00 -0.18477426403E+03  0.18477426409E+03  0.50400001928E-02 0.  1.
    10030    2    1    2    0    0  0.00000000000E+00  0.00000000000E+00  0.10072927697E+04  0.13768412978E+04  0.93864436051E+03 0.  0.
        5    1    3    3  502    0 -0.35868206163E+03  0.13405411389E+03  0.90163852726E+03  0.97959045046E+03  0.46999998093E+01 0. -1.
       -5    1    3    3    0  502  0.35868206163E+03 -0.13405411389E+03  0.10565424242E+03  0.39725084736E+03  0.46999998093E+01 0.  1.
</event>
<event>
 5   0  0.1535906E-02  0.8914738E+03  0.7818609E-02  0.9436303E-01
        2   -1    0    0  501    0  0.00000000000E+00  0.00000000000E+00  0.13981488946E+04  0.13981488946E+04  0.25500000920E-02 0. -1.
       -2   -1    0    0    0  501  0.00000000000E+00  0.00000000000E+00 -0.14210317592E+03  0.14210317594E+03  0.25500000920E-02 0.  1.
    10030    2    1    2    0    0  0.00000000000E+00  0.00000000000E+00  0.12560457186E+04  0.15402520705E+04  0.89147383212E+03 0.  0.
        2    1    3    3  502    0 -0.22136585501E+03 -0.37432539411E+03  0.79694660475E+03  0.90788007648E+03  0.25500000920E-02 0.  1.
       -2    1    3    3    0  502  0.22136585501E+03  0.37432539411E+03  0.45909911390E+03  0.63237199403E+03  0.25500000920E-02 0. -1.
</event>
<event>
 5   0  0.8612969E-03  0.8863821E+03  0.7818609E-02  0.9442766E-01
       -1   -1    0    0    0  501  0.00000000000E+00  0.00000000000E+00  0.29146066259E+03  0.29146066264E+03  0.50400001928E-02 0. -1.
        1   -1    0    0  501    0  0.00000000000E+00  0.00000000000E+00 -0.67391016593E+03  0.67391016595E+03  0.50400001928E-02 0.  1.
    10030    2    1    2    0    0  0.00000000000E+00  0.00000000000E+00 -0.38244950334E+03  0.96537082858E+03  0.88638209260E+03 0.  0.
        4    1    3    3  502    0 -0.16581672267E+02 -0.19162870904E+03 -0.62608012489E+03  0.65496141082E+03  0.12699999809E+01 0.  1.
       -4    1    3    3    0  502  0.16581672267E+02  0.19162870904E+03  0.24363062155E+03  0.31040941777E+03  0.12699999809E+01 0. -1.
</event>
<event>
 5   0  0.8291252E-03  0.8937421E+03  0.7818609E-02  0.9433438E-01
        1   -1    0    0  501    0  0.00000000000E+00  0.00000000000E+00  0.31763484714E+03  0.31763484718E+03  0.50400001928E-02 0.  1.
       -1   -1    0    0    0  501  0.00000000000E+00  0.00000000000E+00 -0.62868963623E+03  0.62868963625E+03  0.50400001928E-02 0. -1.
    10030    2    1    2    0    0  0.00000000000E+00  0.00000000000E+00 -0.31105478909E+03  0.94632448343E+03  0.89374210270E+03 0.  0.
        1    1    3    3  502    0  0.16513899520E+03  0.18907005928E+03 -0.54697439957E+03  0.60183001659E+03  0.50400001928E-02 0.  1.
       -1    1    3    3    0  502 -0.16513899520E+03 -0.18907005928E+03  0.23591961048E+03  0.34449446685E+03  0.50400001928E-02 0. -1.
</event>
<event>
 5   0  0.8291252E-03  0.8984593E+03  0.7818609E-02  0.9427509E-01
       -1   -1    0    0    0  501  0.00000000000E+00  0.00000000000E+00  0.15557068280E+03  0.15557068288E+03  0.50400001928E-02 0.  1.
        1   -1    0    0  501    0  0.00000000000E+00  0.00000000000E+00 -0.12972064267E+04  0.12972064267E+04  0.50400001928E-02 0. -1.
    10030    2    1    2    0    0  0.00000000000E+00  0.00000000000E+00 -0.11416357439E+04  0.14527771096E+04  0.89845932484E+03 0.  0.
        1    1    3    3  502    0  0.42611708958E+03  0.99441434529E+02 -0.40637233920E+03  0.59716233222E+03  0.50400001928E-02 0.  1.
       -1    1    3    3    0  502 -0.42611708958E+03 -0.99441434529E+02 -0.73526340467E+03  0.85561477734E+03  0.50400001928E-02 0. -1.
</event>
<event>
 5   0  0.5770125E-03  0.8999939E+03  0.7818609E-02  0.9425589E-01
       -3   -1    0    0    0  501  0.00000000000E+00  0.00000000000E+00  0.48233640276E+03  0.48233641333E+03  0.10100000352E+00 0.  1.
        3   -1    0    0  501    0  0.00000000000E+00  0.00000000000E+00 -0.41982577953E+03  0.41982579168E+03  0.10100000352E+00 0. -1.
    10030    2    1    2    0    0  0.00000000000E+00  0.00000000000E+00  0.62510623224E+02  0.90216220502E+03  0.89999392562E+03 0.  0.
        1    1    3    3  502    0  0.26225520201E+03  0.33246922436E+03  0.18388405715E+03  0.46165671513E+03  0.50400001928E-02 0.  1.
       -1    1    3    3    0  502 -0.26225520201E+03 -0.33246922436E+03 -0.12137343393E+03  0.44050548988E+03  0.50400001928E-02 0. -1.
</event>
<event>
 5   0  0.1454652E-02  0.8616894E+03  0.7818609E-02  0.9474781E-01
        2   -1    0    0  501    0  0.00000000000E+00  0.00000000000E+00  0.72750298600E+03  0.72750298600E+03  0.25500000920E-02 0.  1.
       -2   -1    0    0    0  501  0.00000000000E+00  0.00000000000E+00 -0.25515652910E+03  0.25515652911E+03  0.25500000920E-02 0. -1.
    10030    2    1    2    0    0  0.00000000000E+00  0.00000000000E+00  0.47234645690E+03  0.98265951512E+03  0.86168935661E+03 0.  0.
        4    1    3    3  502    0 -0.33706544230E+02  0.39860893641E+03  0.53710176167E+02  0.40362310542E+03  0.12699999809E+01 0. -1.
       -4    1    3    3    0  502  0.33706544230E+02 -0.39860893641E+03  0.41863628073E+03  0.57903640969E+03  0.12699999809E+01 0.  1.
</event>
<event>
 5   0  0.8291252E-03  0.8983643E+03  0.7818609E-02  0.9427628E-01
        1   -1    0    0  501    0  0.00000000000E+00  0.00000000000E+00  0.48702399658E+03  0.48702399661E+03  0.50400001928E-02 0. -1.
       -1   -1    0    0    0  501  0.00000000000E+00  0.00000000000E+00 -0.41428062715E+03  0.41428062718E+03  0.50400001928E-02 0.  1.
    10030    2    1    2    0    0  0.00000000000E+00  0.00000000000E+00  0.72743369428E+02  0.90130462379E+03  0.89836430643E+03 0.  0.
        1    1    3    3  502    0  0.20065516165E+03 -0.34730567446E+03  0.23922365752E+03  0.46702428604E+03  0.50400001928E-02 0.  1.
       -1    1    3    3    0  502 -0.20065516165E+03  0.34730567446E+03 -0.16648028809E+03  0.43428033775E+03  0.50400001928E-02 0. -1.
</event>
<event>
 5   0  0.1454652E-02  0.9007031E+03  0.7818609E-02  0.9424703E-01
        2   -1    0    0  501    0  0.00000000000E+00  0.00000000000E+00  0.98056149563E+03  0.98056149563E+03  0.25500000920E-02 0.  1.
       -2   -1    0    0    0  501  0.00000000000E+00  0.00000000000E+00 -0.20683713139E+03  0.20683713140E+03  0.25500000920E-02 0. -1.
    10030    2    1    2    0    0  0.00000000000E+00  0.00000000000E+00  0.77372436424E+03  0.11873986270E+04  0.90070311850E+03 0.  0.
        4    1    3    3  502    0  0.19187268689E+03  0.10981677698E+03  0.90410051581E+03  0.93073852830E+03  0.12699999809E+01 0.  1.
       -4    1    3    3    0  502 -0.19187268689E+03 -0.10981677698E+03 -0.13037615157E+03  0.25666009873E+03  0.12699999809E+01 0. -1.
</event>
<event>
 5   0  0.1440615E-02  0.8729840E+03  0.7818609E-02  0.9459997E-01
        2   -1    0    0  501    0  0.00000000000E+00  0.00000000000E+00  0.12416415525E+04  0.12416415525E+04  0.25500000920E-02 0.  1.
       -2   -1    0    0    0  501  0.00000000000E+00  0.00000000000E+00 -0.15344627208E+03  0.15344627210E+03  0.25500000920E-02 0. -1.
    10030    2    1    2    0    0  0.00000000000E+00  0.00000000000E+00  0.10881952804E+04  0.13950878246E+04  0.87298400328E+03 0.  0.
        3    1    3    3  502    0 -0.14163549654E+03 -0.17453279508E+03  0.11420462373E+04  0.11639552950E+04  0.10100000352E+00 0.  1.
       -3    1    3    3    0  502  0.14163549654E+03  0.17453279508E+03 -0.53850956943E+02  0.23113252953E+03  0.10100000352E+00 0. -1.
</event>
<event>
 5   0  0.1483326E-02  0.7008410E+03  0.7818609E-02  0.9715795E-01
       -2   -1    0    0    0  501  0.00000000000E+00  0.00000000000E+00  0.81070052397E+02  0.81070052437E+02  0.25500000920E-02 0. -1.
        2   -1    0    0  501    0  0.00000000000E+00  0.00000000000E+00 -0.15146717461E+04  0.15146717461E+04  0.25500000920E-02 0.  1.
    10030    2    1    2    0    0  0.00000000000E+00  0.00000000000E+00 -0.14336016937E+04  0.15957417985E+04  0.70084097441E+03 0.  0.
        1    1    3    3  502    0  0.89009477910E+02 -0.15115500013E+03 -0.14075075673E+04  0.14183963033E+04  0.50400001928E-02 0.  1.
       -1    1    3    3    0  502 -0.89009477910E+02  0.15115500013E+03 -0.26094126417E+02  0.17734549524E+03  0.50400001928E-02 0. -1.
</event>
<event>
 5   0  0.1454652E-02  0.9112512E+03  0.7818609E-02  0.9411625E-01
       -2   -1    0    0    0  501  0.00000000000E+00  0.00000000000E+00  0.17156486113E+03  0.17156486114E+03  0.25500000920E-02 0.  1.
        2   -1    0    0  501    0  0.00000000000E+00  0.00000000000E+00 -0.12100071026E+04  0.12100071026E+04  0.25500000920E-02 0. -1.
    10030    2    1    2    0    0  0.00000000000E+00  0.00000000000E+00 -0.10384422414E+04  0.13815719637E+04  0.91125122886E+03 0.  0.
        4    1    3    3  502    0 -0.38053537977E+02 -0.18099503608E+02 -0.12070437397E+04  0.12077797259E+04  0.12699999809E+01 0. -1.
       -4    1    3    3    0  502  0.38053537977E+02  0.18099503608E+02  0.16860149831E+03  0.17379223779E+03  0.12699999809E+01 0.  1.
</event>
<event>
 5   0  0.8291252E-03  0.8915281E+03  0.7818609E-02  0.9436234E-01
        1   -1    0    0  501    0  0.00000000000E+00  0.00000000000E+00  0.45995896469E+03  0.45995896472E+03  0.50400001928E-02 0. -1.
       -1   -1    0    0    0  501  0.00000000000E+00  0.00000000000E+00 -0.43200719716E+03  0.43200719719E+03  0.50400001928E-02 0.  1.
    10030    2    1    2    0    0  0.00000000000E+00  0.00000000000E+00  0.27951767536E+02  0.89196616191E+03  0.89152808855E+03 0.  0.
        1    1    3    3  502    0  0.44889380516E+02 -0.18235506259E+03 -0.39049638311E+03  0.43330803199E+03  0.50400001928E-02 0.  1.
       -1    1    3    3    0  502 -0.44889380516E+02  0.18235506259E+03  0.41844815065E+03  0.45865812992E+03  0.50400001928E-02 0. -1.
</event>
<event>
 5   0  0.1440615E-02  0.8921345E+03  0.7818609E-02  0.9435467E-01
       -2   -1    0    0    0  501  0.00000000000E+00  0.00000000000E+00  0.20595319955E+03  0.20595319956E+03  0.25500000920E-02 0. -1.
        2   -1    0    0  501    0  0.00000000000E+00  0.00000000000E+00 -0.96612235140E+03  0.96612235141E+03  0.25500000920E-02 0.  1.
    10030    2    1    2    0    0  0.00000000000E+00  0.00000000000E+00 -0.76016915186E+03  0.11720755510E+04  0.89213449532E+03 0.  0.
        3    1    3    3  502    0  0.44338959254E+02 -0.28654685320E+03 -0.82541981257E+03  0.87486737256E+03  0.10100000352E+00 0.  1.
       -3    1    3    3    0  502 -0.44338959254E+02  0.28654685320E+03  0.65250660716E+02  0.29720817841E+03  0.10100000352E+00 0. -1.
</event>
<event>
 5   0  0.8291252E-03  0.8904606E+03  0.7818609E-02  0.9437585E-01
        1   -1    0    0  501    0  0.00000000000E+00  0.00000000000E+00  0.97717517451E+03  0.97717517452E+03  0.50400001928E-02 0. -1.
       -1   -1    0    0    0  501  0.00000000000E+00  0.00000000000E+00 -0.20286025690E+03  0.20286025697E+03  0.50400001928E-02 0.  1.
    10030    2    1    2    0    0  0.00000000000E+00  0.00000000000E+00  0.77431491760E+03  0.11800354315E+04  0.89046057069E+03 0.  0.
        1    1    3    3  502    0 -0.36011816265E+03  0.62486395869E+02  0.50233218433E+02  0.36893497665E+03  0.50400001928E-02 0.  1.
       -1    1    3    3    0  502  0.36011816265E+03 -0.62486395869E+02  0.72408169917E+03  0.81110045484E+03  0.50400001928E-02 0. -1.
</event>
<event>
 5   0  0.1454652E-02  0.8958474E+03  0.7818609E-02  0.9430787E-01
        2   -1    0    0  501    0  0.00000000000E+00  0.00000000000E+00  0.17886055738E+04  0.17886055738E+04  0.25500000920E-02 0. -1.
       -2   -1    0    0    0  501  0.00000000000E+00  0.00000000000E+00 -0.11217432597E+03  0.11217432600E+03  0.25500000920E-02 0.  1.
    10030    2    1    2    0    0  0.00000000000E+00  0.00000000000E+00  0.16764312478E+04  0.19007798998E+04  0.89584736357E+03 0.  0.
        4    1    3    3  502    0 -0.12993138731E+03 -0.68777077043E+02 -0.59524176400E+02  0.15861018949E+03  0.12699999809E+01 0.  1.
       -4    1    3    3    0  502  0.12993138731E+03  0.68777077043E+02  0.17359554242E+04  0.17421697103E+04  0.12699999809E+01 0. -1.
</event>
<event>
 5   0  0.1535906E-02  0.8424643E+03  0.7818609E-02  0.9500507E-01
        2   -1    0    0  501    0  0.00000000000E+00  0.00000000000E+00  0.88448952014E+03  0.88448952015E+03  0.25500000920E-02 0. -1.
       -2   -1    0    0    0  501  0.00000000000E+00  0.00000000000E+00 -0.20060895148E+03  0.20060895149E+03  0.25500000920E-02 0.  1.
    10030    2    1    2    0    0  0.00000000000E+00  0.00000000000E+00  0.68388056867E+03  0.10850984716E+04  0.84246427875E+03 0.  0.
        2    1    3    3  502    0  0.61584423876E+02 -0.21343187898E+03  0.80291432344E+03  0.83307695865E+03  0.25500000920E-02 0. -1.
       -2    1    3    3    0  502 -0.61584423876E+02  0.21343187898E+03 -0.11903375478E+03  0.25202151300E+03  0.25500000920E-02 0.  1.
</event>
<event>
 5   0  0.1483326E-02  0.8743789E+03  0.7818609E-02  0.9458188E-01
       -2   -1    0    0    0  501  0.00000000000E+00  0.00000000000E+00  0.25605749041E+03  0.25605749042E+03  0.25500000920E-02 0. -1.
        2   -1    0    0  501    0  0.00000000000E+00  0.00000000000E+00 -0.74645203482E+03  0.74645203482E+03  0.25500000920E-02 0.  1.
    10030    2    1    2    0    0  0.00000000000E+00  0.00000000000E+00 -0.49039454441E+03  0.10025095252E+04  0.87437894475E+03 0.  0.
        1    1    3    3  502    0  0.42695367933E+03  0.94012350965E+02 -0.24219248673E+03  0.49978492082E+03  0.50400001928E-02 0.  1.
       -1    1    3    3    0  502 -0.42695367933E+03 -0.94012350965E+02 -0.24820205768E+03  0.50272460442E+03  0.50400001928E-02 0. -1.
</event>
<event>
 5   0  0.1440615E-02  0.8988994E+03  0.7818609E-02  0.9426958E-01
       -2   -1    0    0    0  501  0.00000000000E+00  0.00000000000E+00  0.24176419301E+03  0.24176419303E+03  0.25500000920E-02 0. -1.
        2   -1    0    0  501    0  0.00000000000E+00  0.00000000000E+00 -0.83554564001E+03  0.83554564002E+03  0.25500000920E-02 0.  1.
    10030    2    1    2    0    0  0.00000000000E+00  0.00000000000E+00 -0.59378144700E+03  0.10773098330E+04  0.89889936565E+03 0.  0.
        3    1    3    3  502    0  0.37677096241E+03 -0.17289534803E+03 -0.50501144392E+03  0.65336492727E+03  0.10100000352E+00 0.  1.
       -3    1    3    3    0  502 -0.37677096241E+03  0.17289534803E+03 -0.88770003077E+02  0.42394490578E+03  0.10100000352E+00 0. -1.
</event>
<event>
 5   0  0.5770125E-03  0.8870814E+03  0.7818609E-02  0.9441876E-01
        3   -1    0    0  501    0  0.00000000000E+00  0.00000000000E+00  0.10791806897E+03  0.10791811623E+03  0.10100000352E+00 0.  1.
       -3   -1    0    0    0  501  0.00000000000E+00  0.00000000000E+00 -0.18229413646E+04  0.18229413674E+04  0.10100000352E+00 0. -1.
    10030    2    1    2    0    0  0.00000000000E+00  0.00000000000E+00 -0.17150232957E+04  0.19308594837E+04  0.88708141733E+03 0.  0.
        1    1    3    3  502    0  0.91380337517E+02  0.36163632405E+03 -0.13798930840E+04  0.14294181055E+04  0.50400001928E-02 0. -1.
       -1    1    3    3    0  502 -0.91380337517E+02 -0.36163632405E+03 -0.33513021165E+03  0.50144137818E+03  0.50400001928E-02 0.  1.
</event>
<event>
 5   0  0.1535906E-02  0.9015770E+03  0.7818609E-02  0.9423612E-01
        2   -1    0    0  501    0  0.00000000000E+00  0.00000000000E+00  0.58678143941E+03  0.58678143942E+03  0.25500000920E-02 0. -1.
       -2   -1    0    0    0  501  0.00000000000E+00  0.00000000000E+00 -0.34631339421E+03  0.34631339422E+03  0.25500000920E-02 0.  1.
    10030    2    1    2    0    0  0.00000000000E+00  0.00000000000E+00  0.24046804520E+03  0.93309483364E+03  0.90157700048E+03 0.  0.
        2    1    3    3  502    0  0.12030422857E+02 -0.33717645076E+03  0.42964609955E+03  0.54628606141E+03  0.25500000920E-02 0. -1.
       -2    1    3    3    0  502 -0.12030422857E+02  0.33717645076E+03 -0.18917805436E+03  0.38680877223E+03  0.25500000920E-02 0.  1.
</event>
<event>
 5   0  0.8885324E-03  0.9062055E+03  0.7818609E-02  0.9417857E-01
       -1   -1    0    0    0  501  0.00000000000E+00  0.00000000000E+00  0.80326234068E+03  0.80326234069E+03  0.50400001928E-02 0.  1.
        1   -1    0    0  501    0  0.00000000000E+00  0.00000000000E+00 -0.25558537480E+03  0.25558537485E+03  0.50400001928E-02 0. -1.
    10030    2    1    2    0    0  0.00000000000E+00  0.00000000000E+00  0.54767696588E+03  0.10588477155E+04  0.90620550967E+03 0.  0.
        2    1    3    3  502    0  0.13091221335E+03 -0.55133319233E+02  0.77657294442E+03  0.78945755333E+03  0.25500000920E-02 0.  1.
       -2    1    3    3    0  502 -0.13091221335E+03  0.55133319233E+02 -0.22889597854E+03  0.26939016221E+03  0.25500000920E-02 0. -1.
</event>
<event>
 5   0  0.8885324E-03  0.9017352E+03  0.7818609E-02  0.9423415E-01
       -1   -1    0    0    0  501  0.00000000000E+00  0.00000000000E+00  0.91961043025E+03  0.91961043026E+03  0.50400001928E-02 0.  1.
        1   -1    0    0  501    0  0.00000000000E+00  0.00000000000E+00 -0.22105186898E+03  0.22105186904E+03  0.50400001928E-02 0. -1.
    10030    2    1    2    0    0  0.00000000000E+00  0.00000000000E+00  0.69855856126E+03  0.11406622993E+04  0.90173522585E+03 0.  0.
        2    1    3    3  502    0 -0.30898113854E+03 -0.14526205444E+03  0.72177015738E+03  0.79845010397E+03  0.25500000920E-02 0.  1.
       -2    1    3    3    0  502  0.30898113854E+03  0.14526205444E+03 -0.23211596116E+02  0.34221219534E+03  0.25500000920E-02 0. -1.
</event>
<event>
 5   0  0.8612969E-03  0.9086174E+03  0.7818609E-02  0.9414873E-01
        1   -1    0    0  501    0  0.00000000000E+00  0.00000000000E+00  0.29047874695E+04  0.29047874695E+04  0.50400001928E-02 0. -1.
       -1   -1    0    0    0  501  0.00000000000E+00  0.00000000000E+00 -0.71053871474E+02  0.71053871653E+02  0.50400001928E-02 0.  1.
    10030    2    1    2    0    0  0.00000000000E+00  0.00000000000E+00  0.28337335980E+04  0.29758413412E+04  0.90861740197E+03 0.  0.
        4    1    3    3  502    0 -0.32138302635E+03  0.28913647072E+03  0.18743058685E+04  0.19235152845E+04  0.12699999809E+01 0. -1.
       -4    1    3    3    0  502  0.32138302635E+03 -0.28913647072E+03  0.95942772955E+03  0.10523260566E+04  0.12699999809E+01 0.  1.
</event>
<event>
 5   0  0.8524692E-03  0.8886443E+03  0.7818609E-02  0.9439889E-01
        1   -1    0    0  501    0  0.00000000000E+00  0.00000000000E+00  0.32823914093E+03  0.32823914097E+03  0.50400001928E-02 0.  1.
       -1   -1    0    0    0  501  0.00000000000E+00  0.00000000000E+00 -0.60145833896E+03  0.60145833898E+03  0.50400001928E-02 0. -1.
    10030    2    1    2    0    0  0.00000000000E+00  0.00000000000E+00 -0.27321919804E+03  0.92969747995E+03  0.88864428994E+03 0.  0.
        5    1    3    3  502    0 -0.28878953390E+03 -0.34781116403E+02  0.21474920567E+03  0.36159152684E+03  0.46999998093E+01 0.  1.
       -5    1    3    3    0  502  0.28878953390E+03  0.34781116403E+02 -0.48796840370E+03  0.56810595311E+03  0.46999998093E+01 0. -1.
</event>
<event>
 5   0  0.8524692E-03  0.8646754E+03  0.7818609E-02  0.9470849E-01
        1   -1    0    0  501    0  0.00000000000E+00  0.00000000000E+00  0.18568578548E+03  0.18568578555E+03  0.50400001928E-02 0.  1.
       -1   -1    0    0    0  501  0.00000000000E+00  0.00000000000E+00 -0.10066247008E+04  0.10066247008E+04  0.50400001928E-02 0. -1.
    10030    2    1    2    0    0  0.00000000000E+00  0.00000000000E+00 -0.82093891534E+03  0.11923104864E+04  0.86467542651E+03 0.  0.
        5    1    3    3  502    0  0.36486101620E+02 -0.33878431521E+03 -0.43596810735E+02  0.34355322695E+03  0.46999998093E+01 0.  1.
       -5    1    3    3    0  502 -0.36486101620E+02  0.33878431521E+03 -0.77734210461E+03  0.84875725943E+03  0.46999998093E+01 0. -1.
</event>
<event>
 5   0  0.1440615E-02  0.8719130E+03  0.7818609E-02  0.9461389E-01
       -2   -1    0    0    0  501  0.00000000000E+00  0.00000000000E+00  0.17563878598E+03  0.17563878600E+03  0.25500000920E-02 0.  1.
        2   -1    0    0  501    0  0.00000000000E+00  0.00000000000E+00 -0.10820962642E+04  0.10820962642E+04  0.25500000920E-02 0. -1.
    10030    2    1    2    0    0  0.00000000000E+00  0.00000000000E+00 -0.90645747818E+03  0.12577350502E+04  0.87191300980E+03 0.  0.
        3    1    3    3  502    0  0.30833119125E+02  0.36433157570E+03 -0.79571218386E+03  0.87569747518E+03  0.10100000352E+00 0. -1.
       -3    1    3    3    0  502 -0.30833119125E+02 -0.36433157570E+03 -0.11074529432E+03  0.38203757499E+03  0.10100000352E+00 0.  1.
</event>
<event>
 5   0  0.1440615E-02  0.8997506E+03  0.7818609E-02  0.9425893E-01
        2   -1    0    0  501    0  0.00000000000E+00  0.00000000000E+00  0.77096539914E+03  0.77096539914E+03  0.25500000920E-02 0. -1.
       -2   -1    0    0    0  501  0.00000000000E+00  0.00000000000E+00 -0.26251215270E+03  0.26251215271E+03  0.25500000920E-02 0.  1.
    10030    2    1    2    0    0  0.00000000000E+00  0.00000000000E+00  0.50845324644E+03  0.10334775519E+04  0.89975060232E+03 0.  0.
        3    1    3    3  502    0  0.23172504269E+02  0.25570009657E+03 -0.17009459379E+03  0.30798000808E+03  0.10100000352E+00 0.  1.
       -3    1    3    3    0  502 -0.23172504269E+02 -0.25570009657E+03  0.67854784023E+03  0.72549754377E+03  0.10100000352E+00 0. -1.
</event>
<event>
 5   0  0.8524692E-03  0.9089752E+03  0.7818609E-02  0.9414431E-01
       -1   -1    0    0    0  501  0.00000000000E+00  0.00000000000E+00  0.17394752910E+03  0.17394752918E+03  0.50400001928E-02 0.  1.
        1   -1    0    0  501    0  0.00000000000E+00  0.00000000000E+00 -0.11874787103E+04  0.11874787103E+04  0.50400001928E-02 0. -1.
    10030    2    1    2    0    0  0.00000000000E+00  0.00000000000E+00 -0.10135311812E+04  0.13614262395E+04  0.90897521986E+03 0.  0.
        5    1    3    3  502    0 -0.18445149999E+03 -0.29146045957E+03 -0.94997420980E+03  0.10106654464E+04  0.46999998093E+01 0. -1.
       -5    1    3    3    0  502  0.18445149999E+03  0.29146045957E+03 -0.63556971421E+02  0.35076079307E+03  0.46999998093E+01 0.  1.
</event>
<event>
 5   0  0.1483326E-02  0.1098218E+04  0.7818609E-02  0.9206930E-01
        2   -1    0    0  501    0  0.00000000000E+00  0.00000000000E+00  0.30668399971E+03  0.30668399972E+03  0.25500000920E-02 0.  1.
       -2   -1    0    0    0  501  0.00000000000E+00  0.00000000000E+00 -0.98316479323E+03  0.98316479323E+03  0.25500000920E-02 0. -1.
    10030    2    1    2    0    0  0.00000000000E+00  0.00000000000E+00 -0.67648079352E+03  0.12898487930E+04  0.10982183957E+04 0.  0.
        1    1    3    3  502    0  0.25715359980E+03 -0.37968875978E+03 -0.69298635513E+03  0.83097630328E+03  0.50400001928E-02 0. -1.
       -1    1    3    3    0  502 -0.25715359980E+03  0.37968875978E+03  0.16505561609E+02  0.45887248967E+03  0.50400001928E-02 0.  1.
</event>
<event>
 5   0  0.8885324E-03  0.8979157E+03  0.7818609E-02  0.9428191E-01
       -1   -1    0    0    0  501  0.00000000000E+00  0.00000000000E+00  0.21349000828E+03  0.21349000834E+03  0.50400001928E-02 0. -1.
        1   -1    0    0  501    0  0.00000000000E+00  0.00000000000E+00 -0.94413380129E+03  0.94413380131E+03  0.50400001928E-02 0.  1.
    10030    2    1    2    0    0  0.00000000000E+00  0.00000000000E+00 -0.73064379301E+03  0.11576238097E+04  0.89791565996E+03 0.  0.
        2    1    3    3  502    0  0.13287233623E+01  0.42295875822E+03 -0.17121928270E+03  0.45630244294E+03  0.25500000920E-02 0. -1.
       -2    1    3    3    0  502 -0.13287233623E+01 -0.42295875822E+03 -0.55942451031E+03  0.70132136671E+03  0.25500000920E-02 0.  1.
</event>
<event>
 5   0  0.1440615E-02  0.9056669E+03  0.7818609E-02  0.9418525E-01
        2   -1    0    0  501    0  0.00000000000E+00  0.00000000000E+00  0.45217301509E+03  0.45217301509E+03  0.25500000920E-02 0.  1.
       -2   -1    0    0    0  501  0.00000000000E+00  0.00000000000E+00 -0.45349485655E+03  0.45349485656E+03  0.25500000920E-02 0. -1.
    10030    2    1    2    0    0  0.00000000000E+00  0.00000000000E+00 -0.13218414618E+01  0.90566787165E+03  0.90566690702E+03 0.  0.
        3    1    3    3  502    0  0.22551015098E+03 -0.23365821082E+03 -0.31626724342E+03  0.45329456995E+03  0.10100000352E+00 0. -1.
       -3    1    3    3    0  502 -0.22551015098E+03  0.23365821082E+03  0.31494540196E+03  0.45237330171E+03  0.10100000352E+00 0.  1.
</event>
<event>
 5   0  0.1454652E-02  0.8838493E+03  0.7818609E-02  0.9445999E-01
        2   -1    0    0  501    0  0.00000000000E+00  0.00000000000E+00  0.26079157536E+03  0.26079157537E+03  0.25500000920E-02 0. -1.
       -2   -1    0    0    0  501  0.00000000000E+00  0.00000000000E+00 -0.74886389919E+03  0.74886389920E+03  0.25500000920E-02 0.  1.
    10030    2    1    2    0    0  0.00000000000E+00  0.00000000000E+00 -0.48807232383E+03  0.10096554746E+04  0.88384929940E+03 0.  0.
        4    1    3    3  502    0  0.28893150221E+01  0.77640736018E+02 -0.74099870425E+03  0.74506182605E+03  0.12699999809E+01 0.  1.
       -4    1    3    3    0  502 -0.28893150221E+01 -0.77640736018E+02  0.25292638042E+03  0.26459364853E+03  0.12699999809E+01 0. -1.
</event>
<event>
 5   0  0.1441195E-02  0.9870877E+03  0.7818609E-02  0.9322821E-01
        2   -1    0    0  501    0  0.00000000000E+00  0.00000000000E+00  0.10646582381E+04  0.10646582381E+04  0.25500000920E-02 0.  1.
       -2   -1    0    0    0  501  0.00000000000E+00  0.00000000000E+00 -0.22879222249E+03  0.22879222251E+03  0.25500000920E-02 0. -1.
    10030    2    1    2    0    0  0.00000000000E+00  0.00000000000E+00  0.83586601559E+03  0.12934504606E+04  0.98708768506E+03 0.  0.
        5    1    3    3  502    0 -0.17115837363E+03 -0.61864401992E+02 -0.18318437562E+03  0.25826536463E+03  0.46999998093E+01 0. -1.
       -5    1    3    3    0  502  0.17115837363E+03  0.61864401992E+02  0.10190503912E+04  0.10351850960E+04  0.46999998093E+01 0.  1.
</event>
<event>
 5   0  0.8291252E-03  0.9030546E+03  0.7818609E-02  0.9421771E-01
       -1   -1    0    0    0  501  0.00000000000E+00  0.00000000000E+00  0.12580051824E+03  0.12580051834E+03  0.50400001928E-02 0.  1.
        1   -1    0    0  501    0  0.00000000000E+00  0.00000000000E+00 -0.16206364896E+04  0.16206364896E+04  0.50400001928E-02 0. -1.
    10030    2    1    2    0    0  0.00000000000E+00  0.00000000000E+00 -0.14948359713E+04  0.17464370079E+04  0.90305461710E+03 0.  0.
        1    1    3    3  502    0 -0.11890120254E+03 -0.17496211191E+02 -0.15891368631E+04  0.15936748674E+04  0.50400001928E-02 0. -1.
       -1    1    3    3    0  502  0.11890120254E+03  0.17496211191E+02  0.94300891735E+02  0.15276214053E+03  0.50400001928E-02 0.  1.
</event>
<event>
 5   0  0.8291252E-03  0.8991191E+03  0.7818609E-02  0.9426683E-01
        1   -1    0    0  501    0  0.00000000000E+00  0.00000000000E+00  0.28981513995E+03  0.28981514000E+03  0.50400001928E-02 0.  1.
       -1   -1    0    0    0  501  0.00000000000E+00  0.00000000000E+00 -0.69735409326E+03  0.69735409328E+03  0.50400001928E-02 0. -1.
    10030    2    1    2    0    0  0.00000000000E+00  0.00000000000E+00 -0.40753895331E+03  0.98716923327E+03  0.89911906701E+03 0.  0.
        1    1    3    3  502    0  0.17677626111E+03 -0.16217926840E+03 -0.62120189576E+03  0.66591572809E+03  0.50400001928E-02 0. -1.
       -1    1    3    3    0  502 -0.17677626111E+03  0.16217926840E+03  0.21366294245E+03  0.32125350519E+03  0.50400001928E-02 0.  1.
</event>
<event>
 5   0  0.8612969E-03  0.9053542E+03  0.7818609E-02  0.9418913E-01
       -1   -1    0    0    0  501  0.00000000000E+00  0.00000000000E+00  0.24650429149E+03  0.24650429154E+03  0.50400001928E-02 0.  1.
        1   -1    0    0  501    0  0.00000000000E+00  0.00000000000E+00 -0.83129010598E+03  0.83129010599E+03  0.50400001928E-02 0. -1.
    10030    2    1    2    0    0  0.00000000000E+00  0.00000000000E+00 -0.58478581449E+03  0.10777943975E+04  0.90535424808E+03 0.  0.
        4    1    3    3  502    0  0.42422257889E+03  0.10332943088E+03 -0.43461858872E+03  0.61606549837E+03  0.12699999809E+01 0. -1.
       -4    1    3    3    0  502 -0.42422257889E+03 -0.10332943088E+03 -0.15016722577E+03  0.46172889916E+03  0.12699999809E+01 0.  1.
</event>
<event>
 5   0  0.8524692E-03  0.8978023E+03  0.7818609E-02  0.9428333E-01
        1   -1    0    0  501    0  0.00000000000E+00  0.00000000000E+00  0.50038143162E+03  0.50038143165E+03  0.50400001928E-02 0.  1.
       -1   -1    0    0    0  501  0.00000000000E+00  0.00000000000E+00 -0.40271727733E+03  0.40271727736E+03  0.50400001928E-02 0. -1.
    10030    2    1    2    0    0  0.00000000000E+00  0.00000000000E+00  0.97664154292E+02  0.90309870901E+03  0.89780231186E+03 0.  0.
        5    1    3    3  502    0 -0.14479891099E+02  0.15387649965E+01  0.50011904131E+03  0.50035305587E+03  0.46999998093E+01 0.  1.
       -5    1    3    3    0  502  0.14479891099E+02 -0.15387649965E+01 -0.40245488701E+03  0.40274565314E+03  0.46999998093E+01 0. -1.
</event>
<event>
 5   0  0.1440615E-02  0.8958529E+03  0.7818609E-02  0.9430780E-01
       -2   -1    0    0    0  501  0.00000000000E+00  0.00000000000E+00  0.88664441393E+02  0.88664441430E+02  0.25500000920E-02 0.  1.
        2   -1    0    0  501    0  0.00000000000E+00  0.00000000000E+00 -0.22628924154E+04  0.22628924154E+04  0.25500000920E-02 0. -1.
    10030    2    1    2    0    0  0.00000000000E+00  0.00000000000E+00 -0.21742279740E+04  0.23515568569E+04  0.89585287183E+03 0.  0.
        3    1    3    3  502    0 -0.11657593194E+03 -0.10770350695E+02 -0.22220222938E+04  0.22251042746E+04  0.10100000352E+00 0. -1.
       -3    1    3    3    0  502  0.11657593194E+03  0.10770350695E+02  0.47794319771E+02  0.12645258228E+03  0.10100000352E+00 0.  1.
</event>
<event>
 5   0  0.8885324E-03  0.9097045E+03  0.7818609E-02  0.9413531E-01
       -1   -1    0    0    0  501  0.00000000000E+00  0.00000000000E+00  0.18090389268E+03  0.18090389275E+03  0.50400001928E-02 0. -1.
        1   -1    0    0  501    0  0.00000000000E+00  0.00000000000E+00 -0.11436489806E+04  0.11436489806E+04  0.50400001928E-02 0.  1.
    10030    2    1    2    0    0  0.00000000000E+00  0.00000000000E+00 -0.96274508793E+03  0.13245528734E+04  0.90970446300E+03 0.  0.
        2    1    3    3  502    0  0.28604259832E+03  0.21544672636E+02  0.32598285556E+02  0.28869913267E+03  0.25500000920E-02 0. -1.
       -2    1    3    3    0  502 -0.28604259832E+03 -0.21544672636E+02 -0.99534337348E+03  0.10358537407E+04  0.25500000920E-02 0.  1.
</event>
<event>
 5   0  0.8612969E-03  0.9050854E+03  0.7818609E-02  0.9419247E-01
        1   -1    0    0  501    0  0.00000000000E+00  0.00000000000E+00  0.10496643806E+04  0.10496643806E+04  0.50400001928E-02 0.  1.
       -1   -1    0    0    0  501  0.00000000000E+00  0.00000000000E+00 -0.19510512641E+03  0.19510512648E+03  0.50400001928E-02 0. -1.
    10030    2    1    2    0    0  0.00000000000E+00  0.00000000000E+00  0.85455925417E+03  0.12447695071E+04  0.90508541411E+03 0.  0.
        4    1    3    3  502    0 -0.25309629943E+03 -0.32951322079E+03  0.67390307472E+03  0.79169670107E+03  0.12699999809E+01 0.  1.
       -4    1    3    3    0  502  0.25309629943E+03  0.32951322079E+03  0.18065617945E+03  0.45307280600E+03  0.12699999809E+01 0. -1.
</event>
<event>
 5   0  0.8738044E-03  0.8873734E+03  0.7818609E-02  0.9441504E-01
       -1   -1    0    0    0  501  0.00000000000E+00  0.00000000000E+00  0.57282076669E+03  0.57282076671E+03  0.50400001928E-02 0. -1.
        1   -1    0    0  501    0  0.00000000000E+00  0.00000000000E+00 -0.34366404262E+03  0.34366404266E+03  0.50400001928E-02 0.  1.
    10030    2    1    2    0    0  0.00000000000E+00  0.00000000000E+00  0.22915672407E+03  0.91648480936E+03  0.88737342850E+03 0.  0.
        3    1    3    3  502    0  0.26178867326E+03 -0.35179745069E+03  0.44811292250E+02  0.44079793316E+03  0.10100000352E+00 0.  1.
       -3    1    3    3    0  502 -0.26178867326E+03  0.35179745069E+03  0.18434543182E+03  0.47568687621E+03  0.10100000352E+00 0. -1.
</event>
<event>
 5   0  0.8612969E-03  0.8983364E+03  0.7818609E-02  0.9427663E-01
       -1   -1    0    0    0  501  0.00000000000E+00  0.00000000000E+00  0.40915110073E+03  0.40915110076E+03  0.50400001928E-02 0.  1.
        1   -1    0    0  501    0  0.00000000000E+00  0.00000000000E+00 -0.49309916707E+03  0.49309916709E+03  0.50400001928E-02 0. -1.
    10030    2    1    2    0    0  0.00000000000E+00  0.00000000000E+00 -0.83948066339E+02  0.90225026785E+03  0.89833638911E+03 0.  0.
        4    1    3    3  502    0  0.38377154171E+03 -0.18101453166E+03  0.10598922568E+03  0.43735818931E+03  0.12699999809E+01 0. -1.
       -4    1    3    3    0  502 -0.38377154171E+03  0.18101453166E+03 -0.18993729201E+03  0.46489207854E+03  0.12699999809E+01 0.  1.
</event>
<event>
 5   0  0.1535906E-02  0.7930861E+03  0.7818609E-02  0.9570079E-01
        2   -1    0    0  501    0  0.00000000000E+00  0.00000000000E+00  0.10330655223E+04  0.10330655223E+04  0.25500000920E-02 0. -1.
       -2   -1    0    0    0  501  0.00000000000E+00  0.00000000000E+00 -0.15221335891E+03  0.15221335893E+03  0.25500000920E-02 0.  1.
    10030    2    1    2    0    0  0.00000000000E+00  0.00000000000E+00  0.88085216343E+03  0.11852788813E+04  0.79308605622E+03 0.  0.
        2    1    3    3  502    0  0.84077593114E+02  0.26663900057E+03  0.20148485867E+02  0.28030583258E+03  0.25500000920E-02 0.  1.
       -2    1    3    3    0  502 -0.84077593114E+02 -0.26663900057E+03  0.86070367756E+03  0.90497304869E+03  0.25500000920E-02 0. -1.
</event>
<event>
 5   0  0.1441195E-02  0.9169035E+03  0.7818609E-02  0.9404694E-01
        2   -1    0    0  501    0  0.00000000000E+00  0.00000000000E+00  0.78507490303E+03  0.78507490303E+03  0.25500000920E-02 0.  1.
       -2   -1    0    0    0  501  0.00000000000E+00  0.00000000000E+00 -0.26771714051E+03  0.26771714053E+03  0.25500000920E-02 0. -1.
    10030    2    1    2    0    0  0.00000000000E+00  0.00000000000E+00  0.51735776251E+03  0.10527920436E+04  0.91690350231E+03 0.  0.
        5    1    3    3  502    0 -0.42123695473E+03  0.18086432481E+03  0.25654862589E+03  0.52534918242E+03  0.46999998093E+01 0.  1.
       -5    1    3    3    0  502  0.42123695473E+03 -0.18086432481E+03  0.26080913663E+03  0.52744286114E+03  0.46999998093E+01 0. -1.
</event>
<event>
 5   0  0.1440615E-02  0.9050416E+03  0.7818609E-02  0.9419301E-01
       -2   -1    0    0    0  501  0.00000000000E+00  0.00000000000E+00  0.28440959916E+03  0.28440959917E+03  0.25500000920E-02 0. -1.
        2   -1    0    0  501    0  0.00000000000E+00  0.00000000000E+00 -0.72000060712E+03  0.72000060712E+03  0.25500000920E-02 0.  1.
    10030    2    1    2    0    0  0.00000000000E+00  0.00000000000E+00 -0.43559100795E+03  0.10044102063E+04  0.90504162131E+03 0.  0.
        3    1    3    3  502    0 -0.36285115891E+02  0.84246068171E+02  0.27398380643E+03  0.28893104025E+03  0.10100000352E+00 0. -1.
       -3    1    3    3    0  502  0.36285115891E+02 -0.84246068171E+02 -0.70957481438E+03  0.71547916604E+03  0.10100000352E+00 0.  1.
</event>
<event>
 5   0  0.1441195E-02  0.8939857E+03  0.7818609E-02  0.9433131E-01
        2   -1    0    0  501    0  0.00000000000E+00  0.00000000000E+00  0.12758815064E+04  0.12758815064E+04  0.25500000920E-02 0. -1.
       -2   -1    0    0    0  501  0.00000000000E+00  0.00000000000E+00 -0.15659965306E+03  0.15659965308E+03  0.25500000920E-02 0.  1.
    10030    2    1    2    0    0  0.00000000000E+00  0.00000000000E+00  0.11192818533E+04  0.14324811595E+04  0.89398568505E+03 0.  0.
        5    1    3    3  502    0 -0.59145383479E+02 -0.33516605562E+03  0.95383898645E+02  0.35348923512E+03  0.46999998093E+01 0.  1.
       -5    1    3    3    0  502  0.59145383479E+02  0.33516605562E+03  0.10238979547E+04  0.10789919244E+04  0.46999998093E+01 0. -1.
</event>
<event>
 5   0  0.8612969E-03  0.8959528E+03  0.7818609E-02  0.9430655E-01
       -1   -1    0    0    0  501  0.00000000000E+00  0.00000000000E+00  0.13564791908E+03  0.13564791917E+03  0.50400001928E-02 0.  1.
        1   -1    0    0  501    0  0.00000000000E+00  0.00000000000E+00 -0.14794391654E+04  0.14794391654E+04  0.50400001928E-02 0. -1.
    10030    2    1    2    0    0  0.00000000000E+00  0.00000000000E+00 -0.13437912463E+04  0.16150870846E+04  0.89595277616E+03 0.  0.
        4    1    3    3  502    0 -0.23816100649E+03  0.11444510869E+03 -0.13240029314E+04  0.13501124854E+04  0.12699999809E+01 0. -1.
       -4    1    3    3    0  502  0.23816100649E+03 -0.11444510869E+03 -0.19788314914E+02  0.26497459920E+03  0.12699999809E+01 0.  1.
</event>
<event>
 5   0  0.8738044E-03  0.9031995E+03  0.7818609E-02  0.9421591E-01
       -1   -1    0    0    0  501  0.00000000000E+00  0.00000000000E+00  0.13174673571E+03  0.13174673581E+03  0.50400001928E-02 0. -1.
        1   -1    0    0  501    0  0.00000000000E+00  0.00000000000E+00 -0.15479876655E+04  0.15479876655E+04  0.50400001928E-02 0.  1.
    10030    2    1    2    0    0  0.00000000000E+00  0.00000000000E+00 -0.14162409298E+04  0.16797344013E+04  0.90319947285E+03 0.  0.
        3    1    3    3  502    0  0.14281435621E+03  0.30109530371E+03 -0.14131148418E+03  0.36197136353E+03  0.10100000352E+00 0. -1.
       -3    1    3    3    0  502 -0.14281435621E+03 -0.30109530371E+03 -0.12749294456E+04  0.13177630378E+04  0.10100000352E+00 0.  1.
</event>
<event>
 5   0  0.8738044E-03  0.8952664E+03  0.7818609E-02  0.9431518E-01
        1   -1    0    0  501    0  0.00000000000E+00  0.00000000000E+00  0.57069314788E+03  0.57069314791E+03  0.50400001928E-02 0. -1.
       -1   -1    0    0    0  501  0.00000000000E+00  0.00000000000E+00 -0.35110898622E+03  0.35110898626E+03  0.50400001928E-02 0.  1.
    10030    2    1    2    0    0  0.00000000000E+00  0.00000000000E+00  0.21958416166E+03  0.92180213416E+03  0.89526642431E+03 0.  0.
        3    1    3    3  502    0  0.43657757679E+03 -0.30309044398E+02  0.12891720364E+02  0.43781825611E+03  0.10100000352E+00 0.  1.
       -3    1    3    3    0  502 -0.43657757679E+03  0.30309044398E+02  0.20669244130E+03  0.48398387805E+03  0.10100000352E+00 0. -1.
</event>
<event>
 5   0  0.8524692E-03  0.8931261E+03  0.7818609E-02  0.9434215E-01
        1   -1    0    0  501    0  0.00000000000E+00  0.00000000000E+00  0.18986345400E+03  0.18986345406E+03  0.50400001928E-02 0.  1.
       -1   -1    0    0    0  501  0.00000000000E+00  0.00000000000E+00 -0.10503262813E+04  0.10503262813E+04  0.50400001928E-02 0. -1.
    10030    2    1    2    0    0  0.00000000000E+00  0.00000000000E+00 -0.86046282726E+03  0.12401897353E+04  0.89312614032E+03 0.  0.
        5    1    3    3  502    0 -0.16224940212E+03  0.34115563830E+03 -0.76083479504E+03  0.84947260896E+03  0.46999998093E+01 0. -1.
       -5    1    3    3    0  502  0.16224940212E+03 -0.34115563830E+03 -0.99628032216E+02  0.39071712637E+03  0.46999998093E+01 0.  1.
</event>
<event>
 5   0  0.1535906E-02  0.9016724E+03  0.7818609E-02  0.9423493E-01
       -2   -1    0    0    0  501  0.00000000000E+00  0.00000000000E+00  0.13901165080E+03  0.13901165082E+03  0.25500000920E-02 0. -1.
        2   -1    0    0  501    0  0.00000000000E+00  0.00000000000E+00 -0.14621314052E+04  0.14621314052E+04  0.25500000920E-02 0.  1.
    10030    2    1    2    0    0  0.00000000000E+00  0.00000000000E+00 -0.13231197544E+04  0.16011430560E+04  0.90167244681E+03 0.  0.
        2    1    3    3  502    0 -0.74379632659E+02  0.29718777101E+03 -0.12489015165E+04  0.12859268638E+04  0.25500000920E-02 0.  1.
       -2    1    3    3    0  502  0.74379632659E+02 -0.29718777101E+03 -0.74218237835E+02  0.31521619220E+03  0.25500000920E-02 0. -1.
</event>
<event>
 5   0  0.1440615E-02  0.8847233E+03  0.7818609E-02  0.9444882E-01
       -2   -1    0    0    0  501  0.00000000000E+00  0.00000000000E+00  0.98016629826E+02  0.98016629859E+02  0.25500000920E-02 0.  1.
        2   -1    0    0  501    0  0.00000000000E+00  0.00000000000E+00 -0.19964350818E+04  0.19964350818E+04  0.25500000920E-02 0. -1.
    10030    2    1    2    0    0  0.00000000000E+00  0.00000000000E+00 -0.18984184520E+04  0.20944517117E+04  0.88472332041E+03 0.  0.
        3    1    3    3  502    0  0.33775307400E+03  0.28557208213E+03 -0.93160861380E+03  0.10312725986E+04  0.10100000352E+00 0. -1.
       -3    1    3    3    0  502 -0.33775307400E+03 -0.28557208213E+03 -0.96680983817E+03  0.10631791131E+04  0.10100000352E+00 0.  1.
</event>
<event>
 5   0  0.1440615E-02  0.9167641E+03  0.7818609E-02  0.9404865E-01
       -2   -1    0    0    0  501  0.00000000000E+00  0.00000000000E+00  0.25150321109E+03  0.25150321111E+03  0.25500000920E-02 0.  1.
        2   -1    0    0  501    0  0.00000000000E+00  0.00000000000E+00 -0.83543311172E+03  0.83543311173E+03  0.25500000920E-02 0. -1.
    10030    2    1    2    0    0  0.00000000000E+00  0.00000000000E+00 -0.58392990063E+03  0.10869363228E+04  0.91676411418E+03 0.  0.
        3    1    3    3  502    0  0.30966871731E+03  0.33787216498E+03 -0.30128440538E+03  0.54847481025E+03  0.10100000352E+00 0.  1.
       -3    1    3    3    0  502 -0.30966871731E+03 -0.33787216498E+03 -0.28264549525E+03  0.53846151258E+03  0.10100000352E+00 0. -1.
</event>
<event>
 5   0  0.8885324E-03  0.8942634E+03  0.7818609E-02  0.9432781E-01
        1   -1    0    0  501    0  0.00000000000E+00  0.00000000000E+00  0.65733407978E+03  0.65733407980E+03  0.50400001928E-02 0.  1.
       -1   -1    0    0    0  501  0.00000000000E+00  0.00000000000E+00 -0.30414784232E+03  0.30414784236E+03  0.50400001928E-02 0. -1.
    10030    2    1    2    0    0  0.00000000000E+00  0.00000000000E+00  0.35318623746E+03  0.96148192216E+03  0.89426336630E+03 0.  0.
        2    1    3    3  502    0 -0.25567436229E+03 -0.36647966649E+03  0.15959268141E+03  0.47449610057E+03  0.25500000920E-02 0. -1.
       -2    1    3    3    0  502  0.25567436229E+03  0.36647966649E+03  0.19359355605E+03  0.48698582160E+03  0.25500000920E-02 0.  1.
</event>
<event>
 5   0  0.1454652E-02  0.8897999E+03  0.7818609E-02  0.9438423E-01
        2   -1    0    0  501    0  0.00000000000E+00  0.00000000000E+00  0.46364160465E+03  0.46364160466E+03  0.25500000920E-02 0.  1.
       -2   -1    0    0    0  501  0.00000000000E+00  0.00000000000E+00 -0.42691584076E+03  0.42691584076E+03  0.25500000920E-02 0. -1.
    10030    2    1    2    0    0  0.00000000000E+00  0.00000000000E+00  0.36725763894E+02  0.89055744542E+03  0.88979985494E+03 0.  0.
        4    1    3    3  502    0 -0.77276210658E+02  0.43736937729E+03  0.44283728662E+02  0.44634767441E+03  0.12699999809E+01 0. -1.
       -4    1    3    3    0  502  0.77276210658E+02 -0.43736937729E+03 -0.75579647681E+01  0.44420977101E+03  0.12699999809E+01 0.  1.
</event>
<event>
 5   0  0.1440615E-02  0.8686664E+03  0.7818609E-02  0.9465620E-01
        2   -1    0    0  501    0  0.00000000000E+00  0.00000000000E+00  0.70743442394E+03  0.70743442394E+03  0.25500000920E-02 0. -1.
       -2   -1    0    0    0  501  0.00000000000E+00  0.00000000000E+00 -0.26666124885E+03  0.26666124886E+03  0.25500000920E-02 0.  1.
    10030    2    1    2    0    0  0.00000000000E+00  0.00000000000E+00  0.44077317509E+03  0.97409567280E+03  0.86866644225E+03 0.  0.
        3    1    3    3  502    0 -0.32328030108E+03 -0.22376376075E+03  0.13418907814E+02  0.39339604851E+03  0.10100000352E+00 0.  1.
       -3    1    3    3    0  502  0.32328030108E+03  0.22376376075E+03  0.42735426727E+03  0.58069962429E+03  0.10100000352E+00 0. -1.
</event>
<event>
 5   0  0.1440615E-02  0.8998750E+03  0.7818609E-02  0.9425738E-01
       -2   -1    0    0    0  501  0.00000000000E+00  0.00000000000E+00  0.16307151568E+03  0.16307151570E+03  0.25500000920E-02 0.  1.
        2   -1    0    0  501    0  0.00000000000E+00  0.00000000000E+00 -0.12414415745E+04  0.12414415745E+04  0.25500000920E-02 0. -1.
    10030    2    1    2    0    0  0.00000000000E+00  0.00000000000E+00 -0.10783700588E+04  0.14045130902E+04  0.89987501174E+03 0.  0.
        3    1    3    3  502    0  0.29996603512E+03 -0.32729415820E+03 -0.65326841443E+03  0.78984854226E+03  0.10100000352E+00 0. -1.
       -3    1    3    3    0  502 -0.29996603512E+03  0.32729415820E+03 -0.42510164437E+03  0.61466454792E+03  0.10100000352E+00 0.  1.
</event>
<event>
 5   0  0.5770125E-03  0.8421625E+03  0.7818609E-02  0.9500917E-01
        3   -1    0    0  501    0  0.00000000000E+00  0.00000000000E+00  0.10111941912E+04  0.10111941962E+04  0.10100000352E+00 0.  1.
       -3   -1    0    0    0  501  0.00000000000E+00  0.00000000000E+00 -0.17534654943E+03  0.17534657852E+03  0.10100000352E+00 0. -1.
    10030    2    1    2    0    0  0.00000000000E+00  0.00000000000E+00  0.83584764173E+03  0.11865407747E+04  0.84216253177E+03 0.  0.
        1    1    3    3  502    0 -0.17308272014E+03 -0.10627987001E+03 -0.10176841575E+03  0.22717801224E+03  0.50400001928E-02 0. -1.
       -1    1    3    3    0  502  0.17308272014E+03  0.10627987001E+03  0.93761605748E+03  0.95936276249E+03  0.50400001928E-02 0.  1.
</event>
<event>
 5   0  0.1440615E-02  0.8614031E+03  0.7818609E-02  0.9475159E-01
       -2   -1    0    0    0  501  0.00000000000E+00  0.00000000000E+00  0.18370682752E+03  0.18370682754E+03  0.25500000920E-02 0.  1.
        2   -1    0    0  501    0  0.00000000000E+00  0.00000000000E+00 -0.10097819775E+04  0.10097819775E+04  0.25500000920E-02 0. -1.
    10030    2    1    2    0    0  0.00000000000E+00  0.00000000000E+00 -0.82607514997E+03  0.11934888050E+04  0.86140314275E+03 0.  0.
        3    1    3    3  502    0 -0.60617191063E+02  0.30593447635E+03 -0.14818796661E+01  0.31188548193E+03  0.10100000352E+00 0.  1.
       -3    1    3    3    0  502  0.60617191063E+02 -0.30593447635E+03 -0.82459327031E+03  0.88160332310E+03  0.10100000352E+00 0. -1.
</event>
<event>
 5   0  0.1441195E-02  0.9055656E+03  0.7818609E-02  0.9418651E-01
        2   -1    0    0  501    0  0.00000000000E+00  0.00000000000E+00  0.61383491354E+03  0.61383491355E+03  0.25500000920E-02 0. -1.
       -2   -1    0    0    0  501  0.00000000000E+00  0.00000000000E+00 -0.33398596750E+03  0.33398596751E+03  0.25500000920E-02 0.  1.
    10030    2    1    2    0    0  0.00000000000E+00  0.00000000000E+00  0.27984894604E+03  0.94782088106E+03  0.90556556359E+03 0.  0.
        5    1    3    3  502    0 -0.22185798219E+03 -0.35591451463E+03  0.31845335076E+03  0.52662200162E+03  0.46999998093E+01 0. -1.
       -5    1    3    3    0  502  0.22185798219E+03  0.35591451463E+03 -0.38604404712E+02  0.42119887944E+03  0.46999998093E+01 0.  1.
</event>
<event>
 5   0  0.8738044E-03  0.8685326E+03  0.7818609E-02  0.9465795E-01
       -1   -1    0    0    0  501  0.00000000000E+00  0.00000000000E+00  0.30865520777E+03  0.30865520781E+03  0.50400001928E-02 0.  1.
        1   -1    0    0  501    0  0.00000000000E+00  0.00000000000E+00 -0.61099633581E+03  0.61099633583E+03  0.50400001928E-02 0. -1.
    10030    2    1    2    0    0  0.00000000000E+00  0.00000000000E+00 -0.30234112804E+03  0.91965154365E+03  0.86853255784E+03 0.  0.
        3    1    3    3  502    0  0.21719496683E+03 -0.35533690931E+03 -0.20844190795E+02  0.41698017126E+03  0.10100000352E+00 0.  1.
       -3    1    3    3    0  502 -0.21719496683E+03  0.35533690931E+03 -0.28149693725E+03  0.50267137238E+03  0.10100000352E+00 0. -1.
</event>
<event>
 5   0  0.5770125E-03  0.8926149E+03  0.7818609E-02  0.9434860E-01
        3   -1    0    0  501    0  0.00000000000E+00  0.00000000000E+00  0.32326754552E+03  0.32326756130E+03  0.10100000352E+00 0. -1.
       -3   -1    0    0    0  501  0.00000000000E+00  0.00000000000E+00 -0.61617800116E+03  0.61617800944E+03  0.10100000352E+00 0.  1.
    10030    2    1    2    0    0  0.00000000000E+00  0.00000000000E+00 -0.29291045564E+03  0.93944557073E+03  0.89261494797E+03 0.  0.
        4    1    3    3  502    0 -0.20604861889E+03 -0.46317423422E+02 -0.56025908087E+03  0.59874300636E+03  0.12699999809E+01 0.  1.
       -4    1    3    3    0  502  0.20604861889E+03  0.46317423422E+02  0.26734862523E+03  0.34070256438E+03  0.12699999809E+01 0. -1.
</event>
<event>
 5   0  0.8885324E-03  0.8950029E+03  0.7818609E-02  0.9431850E-01
       -1   -1    0    0    0  501  0.00000000000E+00  0.00000000000E+00  0.29095336462E+03  0.29095336467E+03  0.50400001928E-02 0.  1.
        1   -1    0    0  501    0  0.00000000000E+00  0.00000000000E+00 -0.68828050087E+03  0.68828050088E+03  0.50400001928E-02 0. -1.
    10030    2    1    2    0    0  0.00000000000E+00  0.00000000000E+00 -0.39732713624E+03  0.97923386555E+03  0.89500285488E+03 0.  0.
        2    1    3    3  502    0  0.13547230525E+03 -0.21944779018E+03 -0.59879692571E+03  0.65197226655E+03  0.25500000920E-02 0. -1.
       -2    1    3    3    0  502 -0.13547230525E+03  0.21944779018E+03  0.20146978947E+03  0.32726159900E+03  0.25500000920E-02 0.  1.
</event>
<event>
 5   0  0.8612969E-03  0.9018036E+03  0.7818609E-02  0.9423330E-01
        1   -1    0    0  501    0  0.00000000000E+00  0.00000000000E+00  0.11161851703E+04  0.11161851703E+04  0.50400001928E-02 0.  1.
       -1   -1    0    0    0  501  0.00000000000E+00  0.00000000000E+00 -0.18214939318E+03  0.18214939325E+03  0.50400001928E-02 0. -1.
    10030    2    1    2    0    0  0.00000000000E+00  0.00000000000E+00  0.93403577709E+03  0.12983345635E+04  0.90180364049E+03 0.  0.
        4    1    3    3  502    0 -0.16204065097E+03 -0.21521951591E+03  0.98757607971E+03  0.10236624144E+04  0.12699999809E+01 0.  1.
       -4    1    3    3    0  502  0.16204065097E+03  0.21521951591E+03 -0.53540302615E+02  0.27467214912E+03  0.12699999809E+01 0. -1.
</event>
<event>
 5   0  0.1440615E-02  0.9103585E+03  0.7818609E-02  0.9412725E-01
        2   -1    0    0  501    0  0.00000000000E+00  0.00000000000E+00  0.56196853986E+03  0.56196853987E+03  0.25500000920E-02 0. -1.
       -2   -1    0    0    0  501  0.00000000000E+00  0.00000000000E+00 -0.36868285394E+03  0.36868285395E+03  0.25500000920E-02 0.  1.
    10030    2    1    2    0    0  0.00000000000E+00  0.00000000000E+00  0.19328568592E+03  0.93065139382E+03  0.91035853401E+03 0.  0.
        3    1    3    3  502    0 -0.14412322738E+03  0.31132373164E+03 -0.20918144374E+03  0.40180947868E+03  0.10100000352E+00 0.  1.
       -3    1    3    3    0  502  0.14412322738E+03 -0.31132373164E+03  0.40246712966E+03  0.52884191514E+03  0.10100000352E+00 0. -1.
</event>
<event>
 5   0  0.1440615E-02  0.9016720E+03  0.7818609E-02  0.9423494E-01
        2   -1    0    0  501    0  0.00000000000E+00  0.00000000000E+00  0.45381570062E+03  0.45381570063E+03  0.25500000920E-02 0. -1.
       -2   -1    0    0    0  501  0.00000000000E+00  0.00000000000E+00 -0.44787591207E+03  0.44787591208E+03  0.25500000920E-02 0.  1.
    10030    2    1    2    0    0  0.00000000000E+00  0.00000000000E+00  0.59397885480E+01  0.90169161271E+03  0.90167204866E+03 0.  0.
        3    1    3    3  502    0  0.16680491459E+02  0.37265281564E+03  0.25616454804E+03  0.45251369667E+03  0.10100000352E+00 0. -1.
       -3    1    3    3    0  502 -0.16680491459E+02 -0.37265281564E+03 -0.25022475949E+03  0.44917791604E+03  0.10100000352E+00 0.  1.
</event>
<event>
 5   0  0.1483326E-02  0.8981443E+03  0.7818609E-02  0.9427904E-01
        2   -1    0    0  501    0  0.00000000000E+00  0.00000000000E+00  0.63080109437E+03  0.63080109437E+03  0.25500000920E-02 0.  1.
       -2   -1    0    0    0  501  0.00000000000E+00  0.00000000000E+00 -0.31969791152E+03  0.31969791153E+03  0.25500000920E-02 0. -1.
    10030    2    1    2    0    0  0.00000000000E+00  0.00000000000E+00  0.31110318285E+03  0.95049900590E+03  0.89814429233E+03 0.  0.
        1    1    3    3  502    0  0.19813045292E+03  0.16638442413E+03  0.54399862363E+03  0.60239020204E+03  0.50400001928E-02 0.  1.
       -1    1    3    3    0  502 -0.19813045292E+03 -0.16638442413E+03 -0.23289544078E+03  0.34810880387E+03  0.50400001928E-02 0. -1.
</event>
<event>
 5   0  0.8291252E-03  0.8987788E+03  0.7818609E-02  0.9427109E-01
        1   -1    0    0  501    0  0.00000000000E+00  0.00000000000E+00  0.17761458862E+04  0.17761458862E+04  0.50400001928E-02 0. -1.
       -1   -1    0    0    0  501  0.00000000000E+00  0.00000000000E+00 -0.11370172375E+03  0.11370172386E+03  0.50400001928E-02 0.  1.
    10030    2    1    2    0    0  0.00000000000E+00  0.00000000000E+00  0.16624441624E+04  0.18898476100E+04  0.89877883598E+03 0.  0.
        1    1    3    3  502    0 -0.37682510736E+03 -0.22099849392E+03  0.60955739750E+03  0.74993180805E+03  0.50400001928E-02 0.  1.
       -1    1    3    3    0  502  0.37682510736E+03  0.22099849392E+03  0.10528867649E+04  0.11399158020E+04  0.50400001928E-02 0. -1.
</event>
<event>
 5   0  0.1535906E-02  0.8984580E+03  0.7818609E-02  0.9427511E-01
        2   -1    0    0  501    0  0.00000000000E+00  0.00000000000E+00  0.74882531803E+03  0.74882531803E+03  0.25500000920E-02 0.  1.
       -2   -1    0    0    0  501  0.00000000000E+00  0.00000000000E+00 -0.26949769730E+03  0.26949769731E+03  0.25500000920E-02 0. -1.
    10030    2    1    2    0    0  0.00000000000E+00  0.00000000000E+00  0.47932762073E+03  0.10183230153E+04  0.89845800992E+03 0.  0.
        2    1    3    3  502    0  0.38593834159E+03  0.13272528376E+03  0.26889171439E+02  0.40900786302E+03  0.25500000920E-02 0. -1.
       -2    1    3    3    0  502 -0.38593834159E+03 -0.13272528376E+03  0.45243844929E+03  0.60931515233E+03  0.25500000920E-02 0.  1.
</event>
<event>
 5   0  0.1440615E-02  0.8951206E+03  0.7818609E-02  0.9431702E-01
       -2   -1    0    0    0  501  0.00000000000E+00  0.00000000000E+00  0.24132131410E+03  0.24132131411E+03  0.25500000920E-02 0. -1.
        2   -1    0    0  501    0  0.00000000000E+00  0.00000000000E+00 -0.83005612096E+03  0.83005612096E+03  0.25500000920E-02 0.  1.
    10030    2    1    2    0    0  0.00000000000E+00  0.00000000000E+00 -0.58873480686E+03  0.10713774351E+04  0.89512062627E+03 0.  0.
        3    1    3    3  502    0 -0.15274904812E+03  0.38952883775E+03 -0.10419361736E+03  0.43118593117E+03  0.10100000352E+00 0.  1.
       -3    1    3    3    0  502  0.15274904812E+03 -0.38952883775E+03 -0.48454118950E+03  0.64019150390E+03  0.10100000352E+00 0. -1.
</event>
<event>
 5   0  0.8291252E-03  0.9071023E+03  0.7818609E-02  0.9416747E-01
       -1   -1    0    0    0  501  0.00000000000E+00  0.00000000000E+00  0.63725217676E+03  0.63725217678E+03  0.50400001928E-02 0. -1.
        1   -1    0    0  501    0  0.00000000000E+00  0.00000000000E+00 -0.32280571582E+03  0.32280571586E+03  0.50400001928E-02 0.  1.
    10030    2    1    2    0    0  0.00000000000E+00  0.00000000000E+00  0.31444646094E+03  0.96005789263E+03  0.90710229876E+03 0.  0.
        1    1    3    3  502    0  0.24548186442E+02  0.44294171210E+03  0.57327340033E+02  0.44731018066E+03  0.50400001928E-02 0. -1.
       -1    1    3    3    0  502 -0.24548186442E+02 -0.44294171210E+03  0.25711912090E+03  0.51274771198E+03  0.50400001928E-02 0.  1.
</event>
<event>
 5   0  0.1454652E-02  0.8431153E+03  0.7818609E-02  0.9499624E-01
        2   -1    0    0  501    0  0.00000000000E+00  0.00000000000E+00  0.50901096392E+03  0.50901096393E+03  0.25500000920E-02 0.  1.
       -2   -1    0    0    0  501  0.00000000000E+00  0.00000000000E+00 -0.34912971882E+03  0.34912971883E+03  0.25500000920E-02 0. -1.
    10030    2    1    2    0    0  0.00000000000E+00  0.00000000000E+00  0.15988124511E+03  0.85814068275E+03  0.84311530579E+03 0.  0.
        4    1    3    3  502    0 -0.14953051960E+03 -0.16210253176E+03 -0.28572876606E+03  0.36094202824E+03  0.12699999809E+01 0. -1.
       -4    1    3    3    0  502  0.14953051960E+03  0.16210253176E+03  0.44561001117E+03  0.49719865451E+03  0.12699999809E+01 0.  1.
</event>
<event>
 5   0  0.8524692E-03  0.8996939E+03  0.7818609E-02  0.9425964E-01
        1   -1    0    0  501    0  0.00000000000E+00  0.00000000000E+00  0.10673352929E+04  0.10673352929E+04  0.50400001928E-02 0.  1.
       -1   -1    0    0    0  501  0.00000000000E+00  0.00000000000E+00 -0.18959580022E+03  0.18959580029E+03  0.50400001928E-02 0. -1.
    10030    2    1    2    0    0  0.00000000000E+00  0.00000000000E+00  0.87773949266E+03  0.12569310932E+04  0.89969392353E+03 0.  0.
        5    1    3    3  502    0 -0.33794395508E+03  0.29594374503E+03  0.40606452461E+03  0.60555702056E+03  0.46999998093E+01 0.  1.
       -5    1    3    3    0  502  0.33794395508E+03 -0.29594374503E+03  0.47167496805E+03  0.65137407262E+03  0.46999998093E+01 0. -1.
</event>
<event>
 5   0  0.1441195E-02  0.8978872E+03  0.7818609E-02  0.9428226E-01
       -2   -1    0    0    0  501  0.00000000000E+00  0.00000000000E+00  0.25914163058E+03  0.25914163059E+03  0.25500000920E-02 0. -1.
        2   -1    0    0  501    0  0.00000000000E+00  0.00000000000E+00 -0.77776147529E+03  0.77776147529E+03  0.25500000920E-02 0.  1.
    10030    2    1    2    0    0  0.00000000000E+00  0.00000000000E+00 -0.51861984471E+03  0.10369031059E+04  0.89788724664E+03 0.  0.
        5    1    3    3  502    0  0.68187023751E+02 -0.31630860570E+03  0.10003883010E+03  0.33871885359E+03  0.46999998093E+01 0. -1.
       -5    1    3    3    0  502 -0.68187023751E+02  0.31630860570E+03 -0.61865867481E+03  0.69818425230E+03  0.46999998093E+01 0.  1.
</event>
<event>
 5   0  0.1454652E-02  0.8958214E+03  0.7818609E-02  0.9430820E-01
       -2   -1    0    0    0  501  0.00000000000E+00  0.00000000000E+00  0.32652179227E+03  0.32652179228E+03  0.25500000920E-02 0.  1.
        2   -1    0    0  501    0  0.00000000000E+00  0.00000000000E+00 -0.61442758309E+03  0.61442758309E+03  0.25500000920E-02 0. -1.
    10030    2    1    2    0    0  0.00000000000E+00  0.00000000000E+00 -0.28790579082E+03  0.94094937538E+03  0.89582140108E+03 0.  0.
        4    1    3    3  502    0  0.44767478864E+02 -0.43552165440E+03 -0.24326285269E+03  0.50086092582E+03  0.12699999809E+01 0. -1.
       -4    1    3    3    0  502 -0.44767478864E+02  0.43552165440E+03 -0.44642938127E+02  0.44008844956E+03  0.12699999809E+01 0.  1.
</event>
<event>
 5   0  0.1440615E-02  0.9190500E+03  0.7818609E-02  0.9402076E-01
       -2   -1    0    0    0  501  0.00000000000E+00  0.00000000000E+00  0.32414984125E+03  0.32414984126E+03  0.25500000920E-02 0.  1.
        2   -1    0    0  501    0  0.00000000000E+00  0.00000000000E+00 -0.65143707697E+03  0.65143707698E+03  0.25500000920E-02 0. -1.
    10030    2    1    2    0    0  0.00000000000E+00  0.00000000000E+00 -0.32728723572E+03  0.97558691824E+03  0.91904999884E+03 0.  0.
        3    1    3    3  502    0  0.48132903683E+02 -0.22905220896E+03 -0.58342149794E+03  0.62861939622E+03  0.10100000352E+00 0. -1.
       -3    1    3    3    0  502 -0.48132903683E+02  0.22905220896E+03  0.25613426222E+03  0.34696752201E+03  0.10100000352E+00 0.  1.
</event>
<event>
 5   0  0.1440615E-02  0.9001228E+03  0.7818609E-02  0.9425428E-01
        2   -1    0    0  501    0  0.00000000000E+00  0.00000000000E+00  0.24705802409E+04  0.24705802409E+04  0.25500000920E-02 0. -1.
       -2   -1    0    0    0  501  0.00000000000E+00  0.00000000000E+00 -0.81986927784E+02  0.81986927824E+02  0.25500000920E-02 0.  1.
    10030    2    1    2    0    0  0.00000000000E+00  0.00000000000E+00  0.23885933132E+04  0.25525671688E+04  0.90012284462E+03 0.  0.
        3    1    3    3  502    0  0.41751234710E+03 -0.14075890977E+03  0.14545983070E+04  0.15198637687E+04  0.10100000352E+00 0. -1.
       -3    1    3    3    0  502 -0.41751234710E+03  0.14075890977E+03  0.93399500620E+03  0.10327034000E+04  0.10100000352E+00 0.  1.
</event>
<event>
 5   0  0.1454652E-02  0.8267649E+03  0.7818609E-02  0.9522064E-01
        2   -1    0    0  501    0  0.00000000000E+00  0.00000000000E+00  0.14198832366E+04  0.14198832366E+04  0.25500000920E-02 0. -1.
       -2   -1    0    0    0  501  0.00000000000E+00  0.00000000000E+00 -0.12035147436E+03  0.12035147439E+03  0.25500000920E-02 0.  1.
    10030    2    1    2    0    0  0.00000000000E+00  0.00000000000E+00  0.12995317623E+04  0.15402347110E+04  0.82676487824E+03 0.  0.
        4    1    3    3  502    0 -0.63770356311E+02  0.55385167469E+00  0.14106602003E+04  0.14121015469E+04  0.12699999809E+01 0. -1.
       -4    1    3    3    0  502  0.63770356311E+02 -0.55385167469E+00 -0.11112843807E+03  0.12813316410E+03  0.12699999809E+01 0.  1.
</event>
<event>
 5   0  0.1440615E-02  0.9013085E+03  0.7818609E-02  0.9423947E-01
        2   -1    0    0  501    0  0.00000000000E+00  0.00000000000E+00  0.35093599450E+03  0.35093599451E+03  0.25500000920E-02 0. -1.
       -2   -1    0    0    0  501  0.00000000000E+00  0.00000000000E+00 -0.57870742252E+03  0.57870742253E+03  0.25500000920E-02 0.  1.
    10030    2    1    2    0    0  0.00000000000E+00  0.00000000000E+00 -0.22777142803E+03  0.92964341704E+03  0.90130852621E+03 0.  0.
        3    1    3    3  502    0 -0.16486153696E+03 -0.68546095102E+02  0.31289934669E+03  0.36025533290E+03  0.10100000352E+00 0. -1.
       -3    1    3    3    0  502  0.16486153696E+03  0.68546095102E+02 -0.54067077472E+03  0.56938808414E+03  0.10100000352E+00 0.  1.
</event>
<event>
 5   0  0.5770125E-03  0.8895092E+03  0.7818609E-02  0.9438791E-01
       -3   -1    0    0    0  501  0.00000000000E+00  0.00000000000E+00  0.34761212172E+03  0.34761213639E+03  0.10100000352E+00 0. -1.
        3   -1    0    0  501    0  0.00000000000E+00  0.00000000000E+00 -0.56904413558E+03  0.56904414455E+03  0.10100000352E+00 0.  1.
    10030    2    1    2    0    0  0.00000000000E+00  0.00000000000E+00 -0.22143201386E+03  0.91665628094E+03  0.88950919086E+03 0.  0.
        1    1    3    3  502    0 -0.34398330379E+03  0.27507030528E+03 -0.47036391985E+02  0.44294537850E+03  0.50400001928E-02 0.  1.
       -1    1    3    3    0  502  0.34398330379E+03 -0.27507030528E+03 -0.17439562188E+03  0.47371090244E+03  0.50400001928E-02 0. -1.
</event>
<event>
 5   0  0.8524692E-03  0.8990608E+03  0.7818609E-02  0.9426756E-01
        1   -1    0    0  501    0  0.00000000000E+00  0.00000000000E+00  0.67984566505E+03  0.67984566507E+03  0.50400001928E-02 0. -1.
       -1   -1    0    0    0  501  0.00000000000E+00  0.00000000000E+00 -0.29724038815E+03  0.29724038819E+03  0.50400001928E-02 0.  1.
    10030    2    1    2    0    0  0.00000000000E+00  0.00000000000E+00  0.38260527690E+03  0.97708605326E+03  0.89906081972E+03 0.  0.
        5    1    3    3  502    0 -0.99846705918E+02 -0.80979881484E+02 -0.27680845618E+03  0.30524108062E+03  0.46999998093E+01 0.  1.
       -5    1    3    3    0  502  0.99846705918E+02  0.80979881484E+02  0.65941373308E+03  0.67184497264E+03  0.46999998093E+01 0. -1.
</event>
<event>
 5   0  0.1483326E-02  0.9346150E+03  0.7818609E-02  0.9383316E-01
       -2   -1    0    0    0  501  0.00000000000E+00  0.00000000000E+00  0.23151995978E+03  0.23151995979E+03  0.25500000920E-02 0. -1.
        2   -1    0    0  501    0  0.00000000000E+00  0.00000000000E+00 -0.94322874854E+03  0.94322874855E+03  0.25500000920E-02 0.  1.
    10030    2    1    2    0    0  0.00000000000E+00  0.00000000000E+00 -0.71170878877E+03  0.11747487083E+04  0.93461496229E+03 0.  0.
        1    1    3    3  502    0  0.51675790321E+02  0.24890988479E+03 -0.84870974470E+03  0.88596543320E+03  0.50400001928E-02 0.  1.
       -1    1    3    3    0  502 -0.51675790321E+02 -0.24890988479E+03  0.13700095593E+03  0.28878327514E+03  0.50400001928E-02 0. -1.
</event>
<event>
 5   0  0.8291252E-03  0.8965037E+03  0.7818609E-02  0.9429963E-01
        1   -1    0    0  501    0  0.00000000000E+00  0.00000000000E+00  0.71322036936E+03  0.71322036938E+03  0.50400001928E-02 0. -1.
       -1   -1    0    0    0  501  0.00000000000E+00  0.00000000000E+00 -0.28172181660E+03  0.28172181665E+03  0.50400001928E-02 0.  1.
    10030    2    1    2    0    0  0.00000000000E+00  0.00000000000E+00  0.43149855276E+03  0.99494218602E+03  0.89650373814E+03 0.  0.
        1    1    3    3  502    0  0.97198530674E+02 -0.11576178288E+03  0.68408254908E+03  0.70058352730E+03  0.50400001928E-02 0. -1.
       -1    1    3    3    0  502 -0.97198530674E+02  0.11576178288E+03 -0.25258399633E+03  0.29435865872E+03  0.50400001928E-02 0.  1.
</event>
<event>
 5   0  0.1454652E-02  0.9381321E+03  0.7818609E-02  0.9379131E-01
       -2   -1    0    0    0  501  0.00000000000E+00  0.00000000000E+00  0.25336723131E+03  0.25336723132E+03  0.25500000920E-02 0. -1.
        2   -1    0    0  501    0  0.00000000000E+00  0.00000000000E+00 -0.86839541556E+03  0.86839541556E+03  0.25500000920E-02 0.  1.
    10030    2    1    2    0    0  0.00000000000E+00  0.00000000000E+00 -0.61502818425E+03  0.11217626469E+04  0.93813206348E+03 0.  0.
        4    1    3    3  502    0  0.21712603196E+03  0.10577848726E+03 -0.78832753057E+03  0.82449664067E+03  0.12699999809E+01 0.  1.
       -4    1    3    3    0  502 -0.21712603196E+03 -0.10577848726E+03  0.17329934632E+03  0.29726600622E+03  0.12699999809E+01 0. -1.
</event>
<event>
 5   0  0.1454652E-02  0.8992655E+03  0.7818609E-02  0.9426500E-01
       -2   -1    0    0    0  501  0.00000000000E+00  0.00000000000E+00  0.25202135217E+03  0.25202135219E+03  0.25500000920E-02 0. -1.
        2   -1    0    0  501    0  0.00000000000E+00  0.00000000000E+00 -0.80219236108E+03  0.80219236108E+03  0.25500000920E-02 0.  1.
    10030    2    1    2    0    0  0.00000000000E+00  0.00000000000E+00 -0.55017100890E+03  0.10542137133E+04  0.89926548594E+03 0.  0.
        4    1    3    3  502    0 -0.29507786691E+03 -0.12583578857E+03 -0.64443126291E+03  0.71986030501E+03  0.12699999809E+01 0.  1.
       -4    1    3    3    0  502  0.29507786691E+03  0.12583578857E+03  0.94260254005E+02  0.33435340825E+03  0.12699999809E+01 0. -1.
</event>
<event>
 5   0  0.8524692E-03  0.9010849E+03  0.7818609E-02  0.9424226E-01
        1   -1    0    0  501    0  0.00000000000E+00  0.00000000000E+00  0.26184603946E+03  0.26184603950E+03  0.50400001928E-02 0.  1.
       -1   -1    0    0    0  501  0.00000000000E+00  0.00000000000E+00 -0.77522087900E+03  0.77522087902E+03  0.50400001928E-02 0. -1.
    10030    2    1    2    0    0  0.00000000000E+00  0.00000000000E+00 -0.51337483955E+03  0.10370669185E+04  0.90108493918E+03 0.  0.
        5    1    3    3  502    0  0.17021399349E+03  0.35699650127E+03 -0.83812766958E+01  0.39561552206E+03  0.46999998093E+01 0.  1.
       -5    1    3    3    0  502 -0.17021399349E+03 -0.35699650127E+03 -0.50499356285E+03  0.64145139646E+03  0.46999998093E+01 0. -1.
</event>
<event>
 5   0  0.1454652E-02  0.9001276E+03  0.7818609E-02  0.9425422E-01
       -2   -1    0    0    0  501  0.00000000000E+00  0.00000000000E+00  0.22209434777E+03  0.22209434779E+03  0.25500000920E-02 0. -1.
        2   -1    0    0  501    0  0.00000000000E+00  0.00000000000E+00 -0.91203314716E+03  0.91203314716E+03  0.25500000920E-02 0.  1.
    10030    2    1    2    0    0  0.00000000000E+00  0.00000000000E+00 -0.68993879938E+03  0.11341274949E+04  0.90012756202E+03 0.  0.
        4    1    3    3  502    0 -0.13572388924E+03 -0.39205382231E+03 -0.56475485572E+03  0.70076874478E+03  0.12699999809E+01 0.  1.
       -4    1    3    3    0  502  0.13572388924E+03  0.39205382231E+03 -0.12518394366E+03  0.43335875017E+03  0.12699999809E+01 0. -1.
</event>
<event>
 5   0  0.1483326E-02  0.8974576E+03  0.7818609E-02  0.9428765E-01
       -2   -1    0    0    0  501  0.00000000000E+00  0.00000000000E+00  0.63270595390E+03  0.63270595391E+03  0.25500000920E-02 0. -1.
        2   -1    0    0  501    0  0.00000000000E+00  0.00000000000E+00 -0.31824822219E+03  0.31824822220E+03  0.25500000920E-02 0.  1.
    10030    2    1    2    0    0  0.00000000000E+00  0.00000000000E+00  0.31445773171E+03  0.95095417611E+03  0.89745762018E+03 0.  0.
        1    1    3    3  502    0  0.18416361808E+03 -0.24854354888E+03  0.50167092275E+03  0.58937581276E+03  0.50400001928E-02 0. -1.
       -1    1    3    3    0  502 -0.18416361808E+03  0.24854354888E+03 -0.18721319104E+03  0.36157836334E+03  0.50400001928E-02 0.  1.
</event>
<event>
 5   0  0.8612969E-03  0.9442933E+03  0.7818609E-02  0.9371846E-01
       -1   -1    0    0    0  501  0.00000000000E+00  0.00000000000E+00  0.13197369414E+04  0.13197369414E+04  0.50400001928E-02 0. -1.
        1   -1    0    0  501    0  0.00000000000E+00  0.00000000000E+00 -0.16891431163E+03  0.16891431171E+03  0.50400001928E-02 0.  1.
    10030    2    1    2    0    0  0.00000000000E+00  0.00000000000E+00  0.11508226298E+04  0.14886512531E+04  0.94429329565E+03 0.  0.
        4    1    3    3  502    0 -0.16173717371E+03  0.24389404709E+03 -0.86869806227E+01  0.29278028639E+03  0.12699999809E+01 0.  1.
       -4    1    3    3    0  502  0.16173717371E+03 -0.24389404709E+03  0.11595096104E+04  0.11958709667E+04  0.12699999809E+01 0. -1.
</event>
<event>
 5   0  0.5770125E-03  0.9002289E+03  0.7818609E-02  0.9425295E-01
        3   -1    0    0  501    0  0.00000000000E+00  0.00000000000E+00  0.22404919610E+03  0.22404921887E+03  0.10100000352E+00 0.  1.
       -3   -1    0    0    0  501  0.00000000000E+00  0.00000000000E+00 -0.90427915837E+03  0.90427916401E+03  0.10100000352E+00 0. -1.
    10030    2    1    2    0    0  0.00000000000E+00  0.00000000000E+00 -0.68022996227E+03  0.11283283829E+04  0.90022893646E+03 0.  0.
        2    1    3    3  502    0 -0.40782335258E+03  0.17090880214E+02 -0.10233253022E+03  0.42081341690E+03  0.25500000920E-02 0.  1.
       -2    1    3    3    0  502  0.40782335258E+03 -0.17090880214E+02 -0.57789743205E+03  0.70751496597E+03  0.25500000920E-02 0. -1.
</event>
<event>
 5   0  0.8738044E-03  0.8927691E+03  0.7818609E-02  0.9434666E-01
       -1   -1    0    0    0  501  0.00000000000E+00  0.00000000000E+00  0.46760123361E+03  0.46760123364E+03  0.50400001928E-02 0.  1.
        1   -1    0    0  501    0  0.00000000000E+00  0.00000000000E+00 -0.42613053517E+03  0.42613053520E+03  0.50400001928E-02 0. -1.
    10030    2    1    2    0    0  0.00000000000E+00  0.00000000000E+00  0.41470698447E+02  0.89373176884E+03  0.89276909433E+03 0.  0.
        3    1    3    3  502    0 -0.63991854069E+02  0.29309336200E+03  0.35163750408E+03  0.46222031620E+03  0.10100000352E+00 0.  1.
       -3    1    3    3    0  502  0.63991854069E+02 -0.29309336200E+03 -0.31016680564E+03  0.43151145263E+03  0.10100000352E+00 0. -1.
</event>
<event>
 5   0  0.1454652E-02  0.8389051E+03  0.7818609E-02  0.9505350E-01
        2   -1    0    0  501    0  0.00000000000E+00  0.00000000000E+00  0.33085297601E+03  0.33085297602E+03  0.25500000920E-02 0. -1.
       -2   -1    0    0    0  501  0.00000000000E+00  0.00000000000E+00 -0.53177837772E+03  0.53177837772E+03  0.25500000920E-02 0.  1.
    10030    2    1    2    0    0  0.00000000000E+00  0.00000000000E+00 -0.20092540171E+03  0.86263135374E+03  0.83890514089E+03 0.  0.
        4    1    3    3  502    0  0.23453350009E+03 -0.19308282020E+03  0.19694369815E+03  0.36204332788E+03  0.12699999809E+01 0. -1.
       -4    1    3    3    0  502 -0.23453350009E+03  0.19308282020E+03 -0.39786909986E+03  0.50058802587E+03  0.12699999809E+01 0.  1.
</event>
<event>
 5   0  0.1483326E-02  0.9032506E+03  0.7818609E-02  0.9421527E-01
       -2   -1    0    0    0  501  0.00000000000E+00  0.00000000000E+00  0.44371346473E+03  0.44371346473E+03  0.25500000920E-02 0.  1.
        2   -1    0    0  501    0  0.00000000000E+00  0.00000000000E+00 -0.45967825580E+03  0.45967825580E+03  0.25500000920E-02 0. -1.
    10030    2    1    2    0    0  0.00000000000E+00  0.00000000000E+00 -0.15964791069E+02  0.90339172054E+03  0.90325064416E+03 0.  0.
        1    1    3    3  502    0  0.14782899554E+03  0.28676806020E+02  0.41786534150E+03  0.44417025427E+03  0.50400001928E-02 0.  1.
       -1    1    3    3    0  502 -0.14782899554E+03 -0.28676806020E+02 -0.43383013257E+03  0.45922146626E+03  0.50400001928E-02 0. -1.
</event>
<event>
 5   0  0.1454652E-02  0.8532742E+03  0.7818609E-02  0.9485953E-01
       -2   -1    0    0    0  501  0.00000000000E+00  0.00000000000E+00  0.49045916960E+03  0.49045916961E+03  0.25500000920E-02 0. -1.
        2   -1    0    0  501    0  0.00000000000E+00  0.00000000000E+00 -0.37111999495E+03  0.37111999496E+03  0.25500000920E-02 0.  1.
    10030    2    1    2    0    0  0.00000000000E+00  0.00000000000E+00  0.11933917465E+03  0.86157916457E+03  0.85327417529E+03 0.  0.
        4    1    3    3  502    0  0.34100418639E+03  0.85344498883E+02  0.30378715886E+03  0.46460282975E+03  0.12699999809E+01 0. -1.
       -4    1    3    3    0  502 -0.34100418639E+03 -0.85344498883E+02 -0.18444798421E+03  0.39697633482E+03  0.12699999809E+01 0.  1.
</event>
<event>
 5   0  0.1441195E-02  0.9054482E+03  0.7818609E-02  0.9418796E-01
        2   -1    0    0  501    0  0.00000000000E+00  0.00000000000E+00  0.82157504415E+03  0.82157504415E+03  0.25500000920E-02 0. -1.
       -2   -1    0    0    0  501  0.00000000000E+00  0.00000000000E+00 -0.24947095141E+03  0.24947095143E+03  0.25500000920E-02 0.  1.
    10030    2    1    2    0    0  0.00000000000E+00  0.00000000000E+00  0.57210409273E+03  0.10710459956E+04  0.90544819384E+03 0.  0.
        5    1    3    3  502    0 -0.10797310120E+03 -0.42298757392E+03  0.42780328783E+03  0.61124006851E+03  0.46999998093E+01 0.  1.
       -5    1    3    3    0  502  0.10797310120E+03  0.42298757392E+03  0.14430080490E+03  0.45980592707E+03  0.46999998093E+01 0. -1.
</event>
<event>
 5   0  0.1535906E-02  0.9214292E+03  0.7818609E-02  0.9399183E-01
       -2   -1    0    0    0  501  0.00000000000E+00  0.00000000000E+00  0.25894935679E+03  0.25894935681E+03  0.25500000920E-02 0. -1.
        2   -1    0    0  501    0  0.00000000000E+00  0.00000000000E+00 -0.81968902891E+03  0.81968902892E+03  0.25500000920E-02 0.  1.
    10030    2    1    2    0    0  0.00000000000E+00  0.00000000000E+00 -0.56073967212E+03  0.10786383857E+04  0.92142920904E+03 0.  0.
        2    1    3    3  502    0 -0.96460647606E+02  0.21337221271E+03  0.18409363132E+03  0.29786376549E+03  0.25500000920E-02 0. -1.
       -2    1    3    3    0  502  0.96460647606E+02 -0.21337221271E+03 -0.74483330343E+03  0.78077462024E+03  0.25500000920E-02 0.  1.
</event>
<event>
 5   0  0.8738044E-03  0.8984674E+03  0.7818609E-02  0.9427499E-01
        1   -1    0    0  501    0  0.00000000000E+00  0.00000000000E+00  0.11998395424E+04  0.11998395424E+04  0.50400001928E-02 0.  1.
       -1   -1    0    0    0  501  0.00000000000E+00  0.00000000000E+00 -0.16819827229E+03  0.16819827236E+03  0.50400001928E-02 0. -1.
    10030    2    1    2    0    0  0.00000000000E+00  0.00000000000E+00  0.10316412701E+04  0.13680378148E+04  0.89846744652E+03 0.  0.
        3    1    3    3  502    0  0.25362702964E+03  0.35849488098E+03  0.37164650954E+03  0.57529678263E+03  0.10100000352E+00 0. -1.
       -3    1    3    3    0  502 -0.25362702964E+03 -0.35849488098E+03  0.65999476059E+03  0.79274103215E+03  0.10100000352E+00 0.  1.
</event>
<event>
 5   0  0.1483326E-02  0.8972061E+03  0.7818609E-02  0.9429081E-01
        2   -1    0    0  501    0  0.00000000000E+00  0.00000000000E+00  0.39118095896E+03  0.39118095897E+03  0.25500000920E-02 0.  1.
       -2   -1    0    0    0  501  0.00000000000E+00  0.00000000000E+00 -0.51445419664E+03  0.51445419664E+03  0.25500000920E-02 0. -1.
    10030    2    1    2    0    0  0.00000000000E+00  0.00000000000E+00 -0.12327323767E+03  0.90563515561E+03  0.89720607664E+03 0.  0.
        1    1    3    3  502    0 -0.78659401956E+02  0.18677172462E+03  0.34234041907E+03  0.39782903513E+03  0.50400001928E-02 0.  1.
       -1    1    3    3    0  502  0.78659401956E+02 -0.18677172462E+03 -0.46561365674E+03  0.50780612049E+03  0.50400001928E-02 0. -1.
</event>
<event>
 5   0  0.8885324E-03  0.9094468E+03  0.7818609E-02  0.9413849E-01
       -1   -1    0    0    0  501  0.00000000000E+00  0.00000000000E+00  0.44708961491E+03  0.44708961494E+03  0.50400001928E-02 0.  1.
        1   -1    0    0  501    0  0.00000000000E+00  0.00000000000E+00 -0.46248752877E+03  0.46248752879E+03  0.50400001928E-02 0. -1.
    10030    2    1    2    0    0  0.00000000000E+00  0.00000000000E+00 -0.15397913852E+02  0.90957714374E+03  0.90944680145E+03 0.  0.
        2    1    3    3  502    0 -0.19345547949E+03 -0.10393436996E+03  0.39053645632E+03  0.44804698362E+03  0.25500000920E-02 0.  1.
       -2    1    3    3    0  502  0.19345547949E+03  0.10393436996E+03 -0.40593437017E+03  0.46153016012E+03  0.25500000920E-02 0. -1.
</event>
<event>
 5   0  0.8612969E-03  0.9011407E+03  0.7818609E-02  0.9424157E-01
        1   -1    0    0  501    0  0.00000000000E+00  0.00000000000E+00  0.79066735804E+03  0.79066735806E+03  0.50400001928E-02 0. -1.
       -1   -1    0    0    0  501  0.00000000000E+00  0.00000000000E+00 -0.25676238638E+03  0.25676238643E+03  0.50400001928E-02 0.  1.
    10030    2    1    2    0    0  0.00000000000E+00  0.00000000000E+00  0.53390497167E+03  0.10474297445E+04  0.90114069427E+03 0.  0.
        4    1    3    3  502    0 -0.67322602361E+02 -0.41061591557E+03  0.46785292794E+03  0.62611958761E+03  0.12699999809E+01 0.  1.
       -4    1    3    3    0  502  0.67322602361E+02  0.41061591557E+03  0.66052043729E+02  0.42131015688E+03  0.12699999809E+01 0. -1.
</event>
<event>
 5   0  0.1440615E-02  0.9055313E+03  0.7818609E-02  0.9418693E-01
        2   -1    0    0  501    0  0.00000000000E+00  0.00000000000E+00  0.11896559467E+04  0.11896559467E+04  0.25500000920E-02 0. -1.
       -2   -1    0    0    0  501  0.00000000000E+00  0.00000000000E+00 -0.17231596434E+03  0.17231596436E+03  0.25500000920E-02 0.  1.
    10030    2    1    2    0    0  0.00000000000E+00  0.00000000000E+00  0.10173399824E+04  0.13619719111E+04  0.90553125115E+03 0.  0.
        3    1    3    3  502    0  0.37552192007E+03  0.19749796052E+03  0.27097857561E+03  0.50343972380E+03  0.10100000352E+00 0.  1.
       -3    1    3    3    0  502 -0.37552192007E+03 -0.19749796052E+03  0.74636140676E+03  0.85853218727E+03  0.10100000352E+00 0. -1.
</event>
<event>
 5   0  0.1441195E-02  0.8902585E+03  0.7818609E-02  0.9437841E-01
       -2   -1    0    0    0  501  0.00000000000E+00  0.00000000000E+00  0.23861171236E+03  0.23861171237E+03  0.25500000920E-02 0.  1.
        2   -1    0    0  501    0  0.00000000000E+00  0.00000000000E+00 -0.83038698817E+03  0.83038698818E+03  0.25500000920E-02 0. -1.
    10030    2    1    2    0    0  0.00000000000E+00  0.00000000000E+00 -0.59177527581E+03  0.10689987005E+04  0.89025852690E+03 0.  0.
        5    1    3    3  502    0 -0.40304690172E+03  0.40461621029E+02 -0.74365220573E+02  0.41186918286E+03  0.46999998093E+01 0.  1.
       -5    1    3    3    0  502  0.40304690172E+03 -0.40461621029E+02 -0.51741005524E+03  0.65712951769E+03  0.46999998093E+01 0. -1.
</event>
<event>
 5   0  0.5770125E-03  0.8400066E+03  0.7818609E-02  0.9503849E-01
        3   -1    0    0  501    0  0.00000000000E+00  0.00000000000E+00  0.18093022634E+03  0.18093025453E+03  0.10100000352E+00 0.  1.
       -3   -1    0    0    0  501  0.00000000000E+00  0.00000000000E+00 -0.97497669670E+03  0.97497670193E+03  0.10100000352E+00 0. -1.
    10030    2    1    2    0    0  0.00000000000E+00  0.00000000000E+00 -0.79404647036E+03  0.11559069565E+04  0.84000660409E+03 0.  0.
        1    1    3    3  502    0  0.11313929223E+03  0.29523540806E+03 -0.16574831167E+02  0.31660570221E+03  0.50400001928E-02 0.  1.
       -1    1    3    3    0  502 -0.11313929223E+03 -0.29523540806E+03 -0.77747163919E+03  0.83930125425E+03  0.50400001928E-02 0. -1.
</event>
<event>
 5   0  0.5770125E-03  0.8912113E+03  0.7818609E-02  0.9436635E-01
        3   -1    0    0  501    0  0.00000000000E+00  0.00000000000E+00  0.11163846230E+04  0.11163846275E+04  0.10100000352E+00 0. -1.
       -3   -1    0    0    0  501  0.00000000000E+00  0.00000000000E+00 -0.17786376261E+03  0.17786379129E+03  0.10100000352E+00 0.  1.
    10030    2    1    2    0    0  0.00000000000E+00  0.00000000000E+00  0.93852086037E+03  0.12942484188E+04  0.89121129050E+03 0.  0.
        2    1    3    3  502    0  0.15976426697E+03 -0.16989663288E+03 -0.82158662136E+02  0.24726409492E+03  0.25500000920E-02 0.  1.
       -2    1    3    3    0  502 -0.15976426697E+03  0.16989663288E+03  0.10206795225E+04  0.10469843239E+04  0.25500000920E-02 0. -1.
</event>
<event>
 5   0  0.1441195E-02  0.9101863E+03  0.7818609E-02  0.9412937E-01
        2   -1    0    0  501    0  0.00000000000E+00  0.00000000000E+00  0.68714241255E+03  0.68714241255E+03  0.25500000920E-02 0.  1.
       -2   -1    0    0    0  501  0.00000000000E+00  0.00000000000E+00 -0.30140737064E+03  0.30140737065E+03  0.25500000920E-02 0. -1.
    10030    2    1    2    0    0  0.00000000000E+00  0.00000000000E+00  0.38573504191E+03  0.98854978320E+03  0.91018632780E+03 0.  0.
        5    1    3    3  502    0 -0.15072992538E+03  0.58701668639E+02 -0.26910302777E+03  0.31401262054E+03  0.46999998093E+01 0. -1.
       -5    1    3    3    0  502  0.15072992538E+03 -0.58701668639E+02  0.65483806968E+03  0.67453716266E+03  0.46999998093E+01 0.  1.
</event>
<event>
 5   0  0.1483326E-02  0.8952645E+03  0.7818609E-02  0.9431520E-01
       -2   -1    0    0    0  501  0.00000000000E+00  0.00000000000E+00  0.13744126299E+03  0.13744126301E+03  0.25500000920E-02 0. -1.
        2   -1    0    0  501    0  0.00000000000E+00  0.00000000000E+00 -0.14578927329E+04  0.14578927329E+04  0.25500000920E-02 0.  1.
    10030    2    1    2    0    0  0.00000000000E+00  0.00000000000E+00 -0.13204514699E+04  0.15953339960E+04  0.89526447163E+03 0.  0.
        1    1    3    3  502    0  0.31715941324E+02  0.21230439995E+03 -0.13601917968E+04  0.13770260649E+04  0.50400001928E-02 0.  1.
       -1    1    3    3    0  502 -0.31715941324E+02 -0.21230439995E+03  0.39740326865E+02  0.21830793109E+03  0.50400001928E-02 0. -1.
</event>
<event>
 5   0  0.8612969E-03  0.9252686E+03  0.7818609E-02  0.9394534E-01
        1   -1    0    0  501    0  0.00000000000E+00  0.00000000000E+00  0.14367859798E+04  0.14367859798E+04  0.50400001928E-02 0.  1.
       -1   -1    0    0    0  501  0.00000000000E+00  0.00000000000E+00 -0.14896476888E+03  0.14896476897E+03  0.50400001928E-02 0. -1.
    10030    2    1    2    0    0  0.00000000000E+00  0.00000000000E+00  0.12878212109E+04  0.15857507488E+04  0.92526859124E+03 0.  0.
        4    1    3    3  502    0  0.30203790913E+02 -0.25249353025E+03 -0.18442428997E+02  0.25496467969E+03  0.12699999809E+01 0. -1.
       -4    1    3    3    0  502 -0.30203790913E+02  0.25249353025E+03  0.13062636399E+04  0.13307860691E+04  0.12699999809E+01 0.  1.
</event>
<event>
 5   0  0.8524692E-03  0.8602415E+03  0.7818609E-02  0.9476693E-01
        1   -1    0    0  501    0  0.00000000000E+00  0.00000000000E+00  0.28201274539E+03  0.28201274544E+03  0.50400001928E-02 0. -1.
       -1   -1    0    0    0  501  0.00000000000E+00  0.00000000000E+00 -0.65601238202E+03  0.65601238204E+03  0.50400001928E-02 0.  1.
    10030    2    1    2    0    0  0.00000000000E+00  0.00000000000E+00 -0.37399963662E+03  0.93802512747E+03  0.86024148445E+03 0.  0.
        5    1    3    3  502    0  0.64140045165E+02 -0.28495990362E+03  0.15724458412E+03  0.33175901087E+03  0.46999998093E+01 0. -1.
       -5    1    3    3    0  502 -0.64140045165E+02  0.28495990362E+03 -0.53124422075E+03  0.60626611660E+03  0.46999998093E+01 0.  1.
</event>
<event>
 5   0  0.1441195E-02  0.9005653E+03  0.7818609E-02  0.9424875E-01
       -2   -1    0    0    0  501  0.00000000000E+00  0.00000000000E+00  0.78879796499E+02  0.78879796540E+02  0.25500000920E-02 0. -1.
        2   -1    0    0  501    0  0.00000000000E+00  0.00000000000E+00 -0.25704231093E+04  0.25704231093E+04  0.25500000920E-02 0.  1.
    10030    2    1    2    0    0  0.00000000000E+00  0.00000000000E+00 -0.24915433128E+04  0.26493029058E+04  0.90056527100E+03 0.  0.
        5    1    3    3  502    0  0.11737654935E+03 -0.35189699513E+03 -0.19965049249E+04  0.20306803674E+04  0.46999998093E+01 0.  1.
       -5    1    3    3    0  502 -0.11737654935E+03  0.35189699513E+03 -0.49503838785E+03  0.61862253836E+03  0.46999998093E+01 0. -1.
</event>
<event>
 5   0  0.1535906E-02  0.9076351E+03  0.7818609E-02  0.9416087E-01
        2   -1    0    0  501    0  0.00000000000E+00  0.00000000000E+00  0.74277446606E+03  0.74277446607E+03  0.25500000920E-02 0.  1.
       -2   -1    0    0    0  501  0.00000000000E+00  0.00000000000E+00 -0.27727173806E+03  0.27727173807E+03  0.25500000920E-02 0. -1.
    10030    2    1    2    0    0  0.00000000000E+00  0.00000000000E+00  0.46550272800E+03  0.10200462041E+04  0.90763509673E+03 0.  0.
        2    1    3    3  502    0 -0.12539726192E+03  0.28783358447E+02  0.72184902224E+03  0.73322504454E+03  0.25500000920E-02 0.  1.
       -2    1    3    3    0  502  0.12539726192E+03 -0.28783358447E+02 -0.25634629424E+03  0.28682115960E+03  0.25500000920E-02 0. -1.
</event>
<event>
 5   0  0.1440615E-02  0.9338096E+03  0.7818609E-02  0.9384277E-01
       -2   -1    0    0    0  501  0.00000000000E+00  0.00000000000E+00  0.27418214134E+03  0.27418214135E+03  0.25500000920E-02 0. -1.
        2   -1    0    0  501    0  0.00000000000E+00  0.00000000000E+00 -0.79509224210E+03  0.79509224210E+03  0.25500000920E-02 0.  1.
    10030    2    1    2    0    0  0.00000000000E+00  0.00000000000E+00 -0.52091010076E+03  0.10692743835E+04  0.93380960267E+03 0.  0.
        3    1    3    3  502    0  0.25832358002E+02 -0.32847724887E+01 -0.79426007378E+03  0.79468684113E+03  0.10100000352E+00 0.  1.
       -3    1    3    3    0  502 -0.25832358002E+02  0.32847724887E+01  0.27334997302E+03  0.27458754233E+03  0.10100000352E+00 0. -1.
</event>
<event>
 5   0  0.8291252E-03  0.8904729E+03  0.7818609E-02  0.9437570E-01
       -1   -1    0    0    0  501  0.00000000000E+00  0.00000000000E+00  0.47054390957E+03  0.47054390959E+03  0.50400001928E-02 0.  1.
        1   -1    0    0  501    0  0.00000000000E+00  0.00000000000E+00 -0.42129007547E+03  0.42129007550E+03  0.50400001928E-02 0. -1.
    10030    2    1    2    0    0  0.00000000000E+00  0.00000000000E+00  0.49253834094E+02  0.89183398510E+03  0.89047286135E+03 0.  0.
        1    1    3    3  502    0 -0.15199926322E+03 -0.18614783184E+03  0.40000735992E+03  0.46664834655E+03  0.50400001928E-02 0.  1.
       -1    1    3    3    0  502  0.15199926322E+03  0.18614783184E+03 -0.35075352583E+03  0.42518563855E+03  0.50400001928E-02 0. -1.
</event>
<event>
 5   0  0.1440615E-02  0.9112214E+03  0.7818609E-02  0.9411662E-01
        2   -1    0    0  501    0  0.00000000000E+00  0.00000000000E+00  0.12081847678E+04  0.12081847678E+04  0.25500000920E-02 0. -1.
       -2   -1    0    0    0  501  0.00000000000E+00  0.00000000000E+00 -0.17181239925E+03  0.17181239927E+03  0.25500000920E-02 0.  1.
    10030    2    1    2    0    0  0.00000000000E+00  0.00000000000E+00  0.10363723685E+04  0.13799971670E+04  0.91122143017E+03 0.  0.
        3    1    3    3  502    0  0.17352812810E+03  0.75201723698E+02 -0.10955886354E+03  0.21856455630E+03  0.10100000352E+00 0. -1.
       -3    1    3    3    0  502 -0.17352812810E+03 -0.75201723698E+02  0.11459312321E+04  0.11614326108E+04  0.10100000352E+00 0.  1.
</event>
<event>
 5   0  0.1441195E-02  0.9360646E+03  0.7818609E-02  0.9381589E-01
        2   -1    0    0  501    0  0.00000000000E+00  0.00000000000E+00  0.83994211850E+03  0.83994211850E+03  0.25500000920E-02 0. -1.
       -2   -1    0    0    0  501  0.00000000000E+00  0.00000000000E+00 -0.26079680404E+03  0.26079680405E+03  0.25500000920E-02 0.  1.
    10030    2    1    2    0    0  0.00000000000E+00  0.00000000000E+00  0.57914531446E+03  0.11007389226E+04  0.93606457061E+03 0.  0.
        5    1    3    3  502    0  0.15338498717E+03  0.20847422156E+03  0.74809731408E+03  0.79161868135E+03  0.46999998093E+01 0. -1.
       -5    1    3    3    0  502 -0.15338498717E+03 -0.20847422156E+03 -0.16895199962E+03  0.30912024120E+03  0.46999998093E+01 0.  1.
</event>
<event>
 5   0  0.8291252E-03  0.8984614E+03  0.7818609E-02  0.9427507E-01
       -1   -1    0    0    0  501  0.00000000000E+00  0.00000000000E+00  0.91588638061E+03  0.91588638062E+03  0.50400001928E-02 0. -1.
        1   -1    0    0  501    0  0.00000000000E+00  0.00000000000E+00 -0.22034196346E+03  0.22034196351E+03  0.50400001928E-02 0.  1.
    10030    2    1    2    0    0  0.00000000000E+00  0.00000000000E+00  0.69554441715E+03  0.11362283441E+04  0.89846135909E+03 0.  0.
        1    1    3    3  502    0  0.12765667193E+03  0.29318296735E+03 -0.51252083021E+02  0.32385066662E+03  0.50400001928E-02 0.  1.
       -1    1    3    3    0  502 -0.12765667193E+03 -0.29318296735E+03  0.74679650018E+03  0.81237767752E+03  0.50400001928E-02 0. -1.
</event>
<event>
 5   0  0.8885324E-03  0.8905968E+03  0.7818609E-02  0.9437413E-01
        1   -1    0    0  501    0  0.00000000000E+00  0.00000000000E+00  0.36057722560E+03  0.36057722564E+03  0.50400001928E-02 0.  1.
       -1   -1    0    0    0  501  0.00000000000E+00  0.00000000000E+00 -0.54992560058E+03  0.54992560060E+03  0.50400001928E-02 0. -1.
    10030    2    1    2    0    0  0.00000000000E+00  0.00000000000E+00 -0.18934837498E+03  0.91050282624E+03  0.89059676031E+03 0.  0.
        2    1    3    3  502    0 -0.10338725375E+03 -0.43268026931E+03 -0.74497113094E+02  0.45105538414E+03  0.25500000920E-02 0.  1.
       -2    1    3    3    0  502  0.10338725375E+03  0.43268026931E+03 -0.11485126189E+03  0.45944744210E+03  0.25500000920E-02 0. -1.
</event>
<event>
 5   0  0.1454652E-02  0.8784402E+03  0.7818609E-02  0.9452941E-01
       -2   -1    0    0    0  501  0.00000000000E+00  0.00000000000E+00  0.10960061781E+03  0.10960061784E+03  0.25500000920E-02 0. -1.
        2   -1    0    0  501    0  0.00000000000E+00  0.00000000000E+00 -0.17601570863E+04  0.17601570863E+04  0.25500000920E-02 0.  1.
    10030    2    1    2    0    0  0.00000000000E+00  0.00000000000E+00 -0.16505564685E+04  0.18697577041E+04  0.87844021797E+03 0.  0.
        4    1    3    3  502    0 -0.24002222644E+03 -0.16566842672E+03 -0.12624912042E+03  0.31780048789E+03  0.12699999809E+01 0.  1.
       -4    1    3    3    0  502  0.24002222644E+03  0.16566842672E+03 -0.15243073480E+04  0.15519572162E+04  0.12699999809E+01 0. -1.
</event>
<event>
 5   0  0.1454652E-02  0.8986771E+03  0.7818609E-02  0.9427237E-01
       -2   -1    0    0    0  501  0.00000000000E+00  0.00000000000E+00  0.18459350313E+03  0.18459350315E+03  0.25500000920E-02 0. -1.
        2   -1    0    0  501    0  0.00000000000E+00  0.00000000000E+00 -0.10937823608E+04  0.10937823608E+04  0.25500000920E-02 0.  1.
    10030    2    1    2    0    0  0.00000000000E+00  0.00000000000E+00 -0.90918885772E+03  0.12783758640E+04  0.89867706694E+03 0.  0.
        4    1    3    3  502    0 -0.82189679857E+02 -0.36292669363E+03 -0.96323905061E+02  0.38438370934E+03  0.12699999809E+01 0.  1.
       -4    1    3    3    0  502  0.82189679857E+02  0.36292669363E+03 -0.81286495265E+03  0.89399215465E+03  0.12699999809E+01 0. -1.
</event>
<event>
 5   0  0.1535906E-02  0.8916782E+03  0.7818609E-02  0.9436044E-01
       -2   -1    0    0    0  501  0.00000000000E+00  0.00000000000E+00  0.11565720576E+04  0.11565720576E+04  0.25500000920E-02 0.  1.
        2   -1    0    0  501    0  0.00000000000E+00  0.00000000000E+00 -0.17186348309E+03  0.17186348311E+03  0.25500000920E-02 0. -1.
    10030    2    1    2    0    0  0.00000000000E+00  0.00000000000E+00  0.98470857452E+03  0.13284355407E+04  0.89167819818E+03 0.  0.
        2    1    3    3  502    0 -0.36537304174E+01  0.35634012962E+03  0.89150478979E+03  0.96008980202E+03  0.25500000920E-02 0.  1.
       -2    1    3    3    0  502  0.36537304174E+01 -0.35634012962E+03  0.93203784726E+02  0.36834573869E+03  0.25500000920E-02 0. -1.
</event>
<event>
 5   0  0.1483326E-02  0.8857926E+03  0.7818609E-02  0.9443518E-01
        2   -1    0    0  501    0  0.00000000000E+00  0.00000000000E+00  0.68436681778E+03  0.68436681779E+03  0.25500000920E-02 0.  1.
       -2   -1    0    0    0  501  0.00000000000E+00  0.00000000000E+00 -0.28662572878E+03  0.28662572879E+03  0.25500000920E-02 0. -1.
    10030    2    1    2    0    0  0.00000000000E+00  0.00000000000E+00  0.39774108900E+03  0.97099254658E+03  0.88579261209E+03 0.  0.
        1    1    3    3  502    0  0.98158448768E+02  0.28785587378E+03 -0.15406195352E+03  0.34092692866E+03  0.50400001928E-02 0. -1.
       -1    1    3    3    0  502 -0.98158448768E+02 -0.28785587378E+03  0.55180304252E+03  0.63006561793E+03  0.50400001928E-02 0.  1.
</event>
<event>
 5   0  0.1454652E-02  0.6686977E+03  0.7818609E-02  0.9772313E-01
       -2   -1    0    0    0  501  0.00000000000E+00  0.00000000000E+00  0.72648002377E+02  0.72648002422E+02  0.25500000920E-02 0. -1.
        2   -1    0    0  501    0  0.00000000000E+00  0.00000000000E+00 -0.15387782075E+04  0.15387782076E+04  0.25500000920E-02 0.  1.
    10030    2    1    2    0    0  0.00000000000E+00  0.00000000000E+00 -0.14661302052E+04  0.16114262100E+04  0.66869772818E+03 0.  0.
        4    1    3    3  502    0 -0.21268062017E+03  0.34180697090E+02 -0.11686243963E+03  0.24507102837E+03  0.12699999809E+01 0. -1.
       -4    1    3    3    0  502  0.21268062017E+03 -0.34180697090E+02 -0.13492677655E+04  0.13663551816E+04  0.12699999809E+01 0.  1.
</event>
<event>
 5   0  0.1440615E-02  0.8493196E+03  0.7818609E-02  0.9491251E-01
        2   -1    0    0  501    0  0.00000000000E+00  0.00000000000E+00  0.13872613121E+03  0.13872613123E+03  0.25500000920E-02 0.  1.
       -2   -1    0    0    0  501  0.00000000000E+00  0.00000000000E+00 -0.12999422944E+04  0.12999422944E+04  0.25500000920E-02 0. -1.
    10030    2    1    2    0    0  0.00000000000E+00  0.00000000000E+00 -0.11612161632E+04  0.14386684257E+04  0.84931964612E+03 0.  0.
        3    1    3    3  502    0 -0.18857311890E+03  0.31027446836E+03 -0.95367502854E+03  0.10204538878E+04  0.10100000352E+00 0. -1.
       -3    1    3    3    0  502  0.18857311890E+03 -0.31027446836E+03 -0.20754113470E+03  0.41821453786E+03  0.10100000352E+00 0.  1.
</event>
<event>
 5   0  0.8291252E-03  0.8922872E+03  0.7818609E-02  0.9435275E-01
       -1   -1    0    0    0  501  0.00000000000E+00  0.00000000000E+00  0.41363971313E+03  0.41363971316E+03  0.50400001928E-02 0.  1.
        1   -1    0    0  501    0  0.00000000000E+00  0.00000000000E+00 -0.48120160458E+03  0.48120160461E+03  0.50400001928E-02 0. -1.
    10030    2    1    2    0    0  0.00000000000E+00  0.00000000000E+00 -0.67561891455E+02  0.89484131776E+03  0.89228715938E+03 0.  0.
        1    1    3    3  502    0  0.69516112901E+02  0.30335010130E+03  0.28680631783E+03  0.42321582896E+03  0.50400001928E-02 0.  1.
       -1    1    3    3    0  502 -0.69516112901E+02 -0.30335010130E+03 -0.35436820928E+03  0.47162548880E+03  0.50400001928E-02 0. -1.
</event>
<event>
 5   0  0.8291252E-03  0.8881831E+03  0.7818609E-02  0.9440475E-01
       -1   -1    0    0    0  501  0.00000000000E+00  0.00000000000E+00  0.24567462977E+03  0.24567462982E+03  0.50400001928E-02 0.  1.
        1   -1    0    0  501    0  0.00000000000E+00  0.00000000000E+00 -0.80275805602E+03  0.80275805603E+03  0.50400001928E-02 0. -1.
    10030    2    1    2    0    0  0.00000000000E+00  0.00000000000E+00 -0.55708342625E+03  0.10484326859E+04  0.88818306275E+03 0.  0.
        1    1    3    3  502    0  0.38593912200E+03  0.16151913868E+03 -0.10274232107E+03  0.43080555082E+03  0.50400001928E-02 0. -1.
       -1    1    3    3    0  502 -0.38593912200E+03 -0.16151913868E+03 -0.45434110518E+03  0.61762713504E+03  0.50400001928E-02 0.  1.
</event>
<event>
 5   0  0.8612969E-03  0.8452331E+03  0.7818609E-02  0.9496757E-01
        1   -1    0    0  501    0  0.00000000000E+00  0.00000000000E+00  0.33333996818E+03  0.33333996822E+03  0.50400001928E-02 0.  1.
       -1   -1    0    0    0  501  0.00000000000E+00  0.00000000000E+00 -0.53580356170E+03  0.53580356173E+03  0.50400001928E-02 0. -1.
    10030    2    1    2    0    0  0.00000000000E+00  0.00000000000E+00 -0.20246359352E+03  0.86914352995E+03  0.84523308557E+03 0.  0.
        4    1    3    3  502    0  0.16724239625E+03  0.16166576505E+03  0.26159133115E+03  0.35005353322E+03  0.12699999809E+01 0.  1.
       -4    1    3    3    0  502 -0.16724239625E+03 -0.16166576505E+03 -0.46405492467E+03  0.51908999672E+03  0.12699999809E+01 0. -1.
</event>
<event>
 5   0  0.8291252E-03  0.8841441E+03  0.7818609E-02  0.9445622E-01
        1   -1    0    0  501    0  0.00000000000E+00  0.00000000000E+00  0.50071287805E+03  0.50071287807E+03  0.50400001928E-02 0. -1.
       -1   -1    0    0    0  501  0.00000000000E+00  0.00000000000E+00 -0.39029895556E+03  0.39029895559E+03  0.50400001928E-02 0.  1.
    10030    2    1    2    0    0  0.00000000000E+00  0.00000000000E+00  0.11041392248E+03  0.89101183367E+03  0.88414413613E+03 0.  0.
        1    1    3    3  502    0  0.51855120956E+02  0.23803050963E+02  0.49698655684E+03  0.50025111345E+03  0.50400001928E-02 0. -1.
       -1    1    3    3    0  502 -0.51855120956E+02 -0.23803050963E+02 -0.38657263436E+03  0.39076072021E+03  0.50400001928E-02 0.  1.
</event>
<event>
 5   0  0.1483326E-02  0.8934955E+03  0.7818609E-02  0.9433749E-01
        2   -1    0    0  501    0  0.00000000000E+00  0.00000000000E+00  0.12652818949E+04  0.12652818949E+04  0.25500000920E-02 0. -1.
       -2   -1    0    0    0  501  0.00000000000E+00  0.00000000000E+00 -0.15773840046E+03  0.15773840048E+03  0.25500000920E-02 0.  1.
    10030    2    1    2    0    0  0.00000000000E+00  0.00000000000E+00  0.11075434945E+04  0.14230202954E+04  0.89349547790E+03 0.  0.
        1    1    3    3  502    0  0.18725295749E+03  0.14384203302E+03 -0.50235961815E+02  0.24140806208E+03  0.50400001928E-02 0.  1.
       -1    1    3    3    0  502 -0.18725295749E+03 -0.14384203302E+03  0.11577794563E+04  0.11816122333E+04  0.50400001928E-02 0. -1.
</event>
<event>
 5   0  0.1454652E-02  0.8601119E+03  0.7818609E-02  0.9476865E-01
       -2   -1    0    0    0  501  0.00000000000E+00  0.00000000000E+00  0.10561827631E+03  0.10561827634E+03  0.25500000920E-02 0.  1.
        2   -1    0    0  501    0  0.00000000000E+00  0.00000000000E+00 -0.17510994648E+04  0.17510994648E+04  0.25500000920E-02 0. -1.
    10030    2    1    2    0    0  0.00000000000E+00  0.00000000000E+00 -0.16454811885E+04  0.18567177412E+04  0.86011186984E+03 0.  0.
        4    1    3    3  502    0 -0.24863663266E+03 -0.34222583243E+03 -0.65542029408E+03  0.78007440047E+03  0.12699999809E+01 0.  1.
       -4    1    3    3    0  502  0.24863663266E+03  0.34222583243E+03 -0.99006089444E+03  0.10766433407E+04  0.12699999809E+01 0. -1.
</event>
<event>
 5   0  0.1535906E-02  0.9067592E+03  0.7818609E-02  0.9417171E-01
        2   -1    0    0  501    0  0.00000000000E+00  0.00000000000E+00  0.29046399334E+03  0.29046399335E+03  0.25500000920E-02 0. -1.
       -2   -1    0    0    0  501  0.00000000000E+00  0.00000000000E+00 -0.70767140418E+03  0.70767140419E+03  0.25500000920E-02 0.  1.
    10030    2    1    2    0    0  0.00000000000E+00  0.00000000000E+00 -0.41720741084E+03  0.99813539753E+03  0.90675920075E+03 0.  0.
        2    1    3    3  502    0 -0.14303469165E+03  0.31105051836E+02  0.26373743174E+03  0.30163534304E+03  0.25500000920E-02 0. -1.
       -2    1    3    3    0  502  0.14303469165E+03 -0.31105051836E+02 -0.68094484258E+03  0.69650005449E+03  0.25500000920E-02 0.  1.
</event>
<event>
 5   0  0.8524692E-03  0.9200768E+03  0.7818609E-02  0.9400827E-01
       -1   -1    0    0    0  501  0.00000000000E+00  0.00000000000E+00  0.42221100501E+03  0.42221100504E+03  0.50400001928E-02 0.  1.
        1   -1    0    0  501    0  0.00000000000E+00  0.00000000000E+00 -0.50125488468E+03  0.50125488470E+03  0.50400001928E-02 0. -1.
    10030    2    1    2    0    0  0.00000000000E+00  0.00000000000E+00 -0.79043879670E+02  0.92346588974E+03  0.92007679821E+03 0.  0.
        5    1    3    3  502    0 -0.25028902046E+03  0.34948097795E+03  0.12488524797E+03  0.44766054424E+03  0.46999998093E+01 0.  1.
       -5    1    3    3    0  502  0.25028902046E+03 -0.34948097795E+03 -0.20392912764E+03  0.47580534550E+03  0.46999998093E+01 0. -1.
</event>
<event>
 5   0  0.8738044E-03  0.9101631E+03  0.7818609E-02  0.9412966E-01
       -1   -1    0    0    0  501  0.00000000000E+00  0.00000000000E+00  0.42879048893E+03  0.42879048896E+03  0.50400001928E-02 0.  1.
        1   -1    0    0  501    0  0.00000000000E+00  0.00000000000E+00 -0.48298458290E+03  0.48298458293E+03  0.50400001928E-02 0. -1.
    10030    2    1    2    0    0  0.00000000000E+00  0.00000000000E+00 -0.54194093966E+02  0.91177507189E+03  0.91016305237E+03 0.  0.
        3    1    3    3  502    0 -0.13208955752E+03 -0.10207318381E+03 -0.45120558365E+03  0.48109570252E+03  0.10100000352E+00 0. -1.
       -3    1    3    3    0  502  0.13208955752E+03  0.10207318381E+03  0.39701148969E+03  0.43067936937E+03  0.10100000352E+00 0.  1.
</event>
<event>
 5   0  0.1483326E-02  0.8895172E+03  0.7818609E-02  0.9438781E-01
        2   -1    0    0  501    0  0.00000000000E+00  0.00000000000E+00  0.83749725623E+03  0.83749725623E+03  0.25500000920E-02 0.  1.
       -2   -1    0    0    0  501  0.00000000000E+00  0.00000000000E+00 -0.23619208326E+03  0.23619208328E+03  0.25500000920E-02 0. -1.
    10030    2    1    2    0    0  0.00000000000E+00  0.00000000000E+00  0.60130517296E+03  0.10736893395E+04  0.88951722116E+03 0.  0.
        1    1    3    3  502    0  0.31831778954E+03  0.59004656136E+02 -0.67452223087E+02  0.33069255662E+03  0.50400001928E-02 0. -1.
       -1    1    3    3    0  502 -0.31831778954E+03 -0.59004656136E+02  0.66875739605E+03  0.74299678288E+03  0.50400001928E-02 0.  1.
</event>
<event>
 5   0  0.8612969E-03  0.8884506E+03  0.7818609E-02  0.9440135E-01
        1   -1    0    0  501    0  0.00000000000E+00  0.00000000000E+00  0.89263773582E+03  0.89263773583E+03  0.50400001928E-02 0. -1.
       -1   -1    0    0    0  501  0.00000000000E+00  0.00000000000E+00 -0.22107077621E+03  0.22107077627E+03  0.50400001928E-02 0.  1.
    10030    2    1    2    0    0  0.00000000000E+00  0.00000000000E+00  0.67156695961E+03  0.11137085121E+04  0.88845060003E+03 0.  0.
        4    1    3    3  502    0 -0.70624834250E+02 -0.33548815555E+03 -0.18315179655E+02  0.34333253331E+03  0.12699999809E+01 0.  1.
       -4    1    3    3    0  502  0.70624834250E+02  0.33548815555E+03  0.68988213926E+03  0.77037597879E+03  0.12699999809E+01 0. -1.
</event>
<event>
 5   0  0.8738044E-03  0.9050047E+03  0.7818609E-02  0.9419347E-01
       -1   -1    0    0    0  501  0.00000000000E+00  0.00000000000E+00  0.52652707812E+03  0.52652707815E+03  0.50400001928E-02 0.  1.
        1   -1    0    0  501    0  0.00000000000E+00  0.00000000000E+00 -0.38888478832E+03  0.38888478836E+03  0.50400001928E-02 0. -1.
    10030    2    1    2    0    0  0.00000000000E+00  0.00000000000E+00  0.13764228980E+03  0.91541186650E+03  0.90500468805E+03 0.  0.
        3    1    3    3  502    0 -0.27990209729E+03 -0.82700550151E+02 -0.28094978968E+03  0.40511400813E+03  0.10100000352E+00 0. -1.
       -3    1    3    3    0  502  0.27990209729E+03  0.82700550151E+02  0.41859207948E+03  0.51029785837E+03  0.10100000352E+00 0.  1.
</event>
<event>
 5   0  0.8291252E-03  0.8795820E+03  0.7818609E-02  0.9451471E-01
       -1   -1    0    0    0  501  0.00000000000E+00  0.00000000000E+00  0.27726343926E+03  0.27726343931E+03  0.50400001928E-02 0.  1.
        1   -1    0    0  501    0  0.00000000000E+00  0.00000000000E+00 -0.69758977819E+03  0.69758977821E+03  0.50400001928E-02 0. -1.
    10030    2    1    2    0    0  0.00000000000E+00  0.00000000000E+00 -0.42032633894E+03  0.97485321752E+03  0.87958203967E+03 0.  0.
        1    1    3    3  502    0 -0.18412000860E+02  0.40152479961E+03 -0.40797465674E+03  0.57271675988E+03  0.50400001928E-02 0. -1.
       -1    1    3    3    0  502  0.18412000860E+02 -0.40152479961E+03 -0.12351682193E+02  0.40213645764E+03  0.50400001928E-02 0.  1.
</event>
<event>
 5   0  0.5770125E-03  0.9509875E+03  0.7818609E-02  0.9363997E-01
       -3   -1    0    0    0  501  0.00000000000E+00  0.00000000000E+00  0.68086679011E+03  0.68086679760E+03  0.10100000352E+00 0. -1.
        3   -1    0    0  501    0  0.00000000000E+00  0.00000000000E+00 -0.33206835189E+03  0.33206836725E+03  0.10100000352E+00 0.  1.
    10030    2    1    2    0    0  0.00000000000E+00  0.00000000000E+00  0.34879843821E+03  0.10129351649E+04  0.95098753814E+03 0.  0.
        1    1    3    3  502    0  0.19519626312E+02  0.85216042315E+02 -0.32343457299E+03  0.33504135970E+03  0.50400001928E-02 0.  1.
       -1    1    3    3    0  502 -0.19519626312E+02 -0.85216042315E+02  0.67223301121E+03  0.67789380515E+03  0.50400001928E-02 0. -1.
</event>
<event>
 5   0  0.8524692E-03  0.8864264E+03  0.7818609E-02  0.9442710E-01
        1   -1    0    0  501    0  0.00000000000E+00  0.00000000000E+00  0.88701665470E+03  0.88701665472E+03  0.50400001928E-02 0. -1.
       -1   -1    0    0    0  501  0.00000000000E+00  0.00000000000E+00 -0.22145912430E+03  0.22145912436E+03  0.50400001928E-02 0.  1.
    10030    2    1    2    0    0  0.00000000000E+00  0.00000000000E+00  0.66555753040E+03  0.11084757791E+04  0.88642637964E+03 0.  0.
        5    1    3    3  502    0 -0.24211692343E+03  0.26359545417E+03  0.65961799416E+03  0.75048061687E+03  0.46999998093E+01 0. -1.
       -5    1    3    3    0  502  0.24211692343E+03 -0.26359545417E+03  0.59395362386E+01  0.35799516221E+03  0.46999998093E+01 0.  1.
</event>
<event>
 5   0  0.8738044E-03  0.9043085E+03  0.7818609E-02  0.9420212E-01
       -1   -1    0    0    0  501  0.00000000000E+00  0.00000000000E+00  0.50264219401E+03  0.50264219404E+03  0.50400001928E-02 0.  1.
        1   -1    0    0  501    0  0.00000000000E+00  0.00000000000E+00 -0.40673761537E+03  0.40673761540E+03  0.50400001928E-02 0. -1.
    10030    2    1    2    0    0  0.00000000000E+00  0.00000000000E+00  0.95904578640E+02  0.90937980944E+03  0.90430854780E+03 0.  0.
        3    1    3    3  502    0 -0.38968332421E+03 -0.22708478118E+03  0.80114236079E+02  0.45808175257E+03  0.10100000352E+00 0. -1.
       -3    1    3    3    0  502  0.38968332421E+03  0.22708478118E+03  0.15790342561E+02  0.45129805687E+03  0.10100000352E+00 0.  1.
</event>
<event>
 5   0  0.1454652E-02  0.8827298E+03  0.7818609E-02  0.9447431E-01
       -2   -1    0    0    0  501  0.00000000000E+00  0.00000000000E+00  0.19623477839E+03  0.19623477841E+03  0.25500000920E-02 0. -1.
        2   -1    0    0  501    0  0.00000000000E+00  0.00000000000E+00 -0.99270361166E+03  0.99270361166E+03  0.25500000920E-02 0.  1.
    10030    2    1    2    0    0  0.00000000000E+00  0.00000000000E+00 -0.79646883327E+03  0.11889383901E+04  0.88272979615E+03 0.  0.
        4    1    3    3  502    0  0.14280868811E+03  0.27259849089E+03  0.27895784956E+02  0.30900492934E+03  0.12699999809E+01 0. -1.
       -4    1    3    3    0  502 -0.14280868811E+03 -0.27259849089E+03 -0.82436461822E+03  0.87993346073E+03  0.12699999809E+01 0.  1.
</event>
<event>
 5   0  0.1483326E-02  0.9010238E+03  0.7818609E-02  0.9424302E-01
        2   -1    0    0  501    0  0.00000000000E+00  0.00000000000E+00  0.15404686172E+03  0.15404686174E+03  0.25500000920E-02 0. -1.
       -2   -1    0    0    0  501  0.00000000000E+00  0.00000000000E+00 -0.13175275694E+04  0.13175275694E+04  0.25500000920E-02 0.  1.
    10030    2    1    2    0    0  0.00000000000E+00  0.00000000000E+00 -0.11634807076E+04  0.14715744311E+04  0.90102383389E+03 0.  0.
        1    1    3    3  502    0 -0.17949999317E+03  0.63376072588E+02 -0.12486166677E+04  0.12630440836E+04  0.50400001928E-02 0.  1.
       -1    1    3    3    0  502  0.17949999317E+03 -0.63376072588E+02  0.85135960063E+02  0.20853034755E+03  0.50400001928E-02 0. -1.
</event>
<event>
 5   0  0.8612969E-03  0.8868601E+03  0.7818609E-02  0.9442158E-01
        1   -1    0    0  501    0  0.00000000000E+00  0.00000000000E+00  0.18283310816E+03  0.18283310823E+03  0.50400001928E-02 0. -1.
       -1   -1    0    0    0  501  0.00000000000E+00  0.00000000000E+00 -0.10754629218E+04  0.10754629219E+04  0.50400001928E-02 0.  1.
    10030    2    1    2    0    0  0.00000000000E+00  0.00000000000E+00 -0.89262981369E+03  0.12582960301E+04  0.88686014402E+03 0.  0.
        4    1    3    3  502    0  0.29200496941E+03 -0.32481508505E+03 -0.33773220658E+03  0.55211991260E+03  0.12699999809E+01 0. -1.
       -4    1    3    3    0  502 -0.29200496941E+03  0.32481508505E+03 -0.55489760710E+03  0.70617611748E+03  0.12699999809E+01 0.  1.
</event>
<event>
 5   0  0.1441195E-02  0.9058501E+03  0.7818609E-02  0.9418298E-01
       -2   -1    0    0    0  501  0.00000000000E+00  0.00000000000E+00  0.24341177682E+03  0.24341177683E+03  0.25500000920E-02 0. -1.
        2   -1    0    0  501    0  0.00000000000E+00  0.00000000000E+00 -0.84277386974E+03  0.84277386974E+03  0.25500000920E-02 0.  1.
    10030    2    1    2    0    0  0.00000000000E+00  0.00000000000E+00 -0.59936209292E+03  0.10861856466E+04  0.90585006507E+03 0.  0.
        5    1    3    3  502    0  0.16238986242E+02 -0.39937557699E+03 -0.55504385080E+03  0.68400315970E+03  0.46999998093E+01 0. -1.
       -5    1    3    3    0  502 -0.16238986242E+02  0.39937557699E+03 -0.44318242121E+02  0.40218248688E+03  0.46999998093E+01 0.  1.
</event>
<event>
 5   0  0.8612969E-03  0.8849117E+03  0.7818609E-02  0.9444642E-01
        1   -1    0    0  501    0  0.00000000000E+00  0.00000000000E+00  0.52086300584E+03  0.52086300587E+03  0.50400001928E-02 0. -1.
       -1   -1    0    0    0  501  0.00000000000E+00  0.00000000000E+00 -0.37585157668E+03  0.37585157672E+03  0.50400001928E-02 0.  1.
    10030    2    1    2    0    0  0.00000000000E+00  0.00000000000E+00  0.14501142916E+03  0.89671458258E+03  0.88491170635E+03 0.  0.
        4    1    3    3  502    0 -0.22964950474E+03  0.34341116261E+03  0.23303407281E+03  0.47431699698E+03  0.12699999809E+01 0. -1.
       -4    1    3    3    0  502  0.22964950474E+03 -0.34341116261E+03 -0.88022643646E+02  0.42239758561E+03  0.12699999809E+01 0.  1.
</event>
<event>
 5   0  0.8291252E-03  0.8985559E+03  0.7818609E-02  0.9427388E-01
       -1   -1    0    0    0  501  0.00000000000E+00  0.00000000000E+00  0.13825840705E+03  0.13825840715E+03  0.50400001928E-02 0. -1.
        1   -1    0    0  501    0  0.00000000000E+00  0.00000000000E+00 -0.14599523221E+04  0.14599523221E+04  0.50400001928E-02 0.  1.
    10030    2    1    2    0    0  0.00000000000E+00  0.00000000000E+00 -0.13216939150E+04  0.15982107292E+04  0.89855591369E+03 0.  0.
        1    1    3    3  502    0  0.35849759281E+03  0.10350739840E+03 -0.11059216522E+04  0.11671747969E+04  0.50400001928E-02 0.  1.
       -1    1    3    3    0  502 -0.35849759281E+03 -0.10350739840E+03 -0.21577226283E+03  0.43103593238E+03  0.50400001928E-02 0. -1.
</event>
<event>
 5   0  0.8291252E-03  0.9053829E+03  0.7818609E-02  0.9418877E-01
        1   -1    0    0  501    0  0.00000000000E+00  0.00000000000E+00  0.45722802368E+03  0.45722802371E+03  0.50400001928E-02 0. -1.
       -1   -1    0    0    0  501  0.00000000000E+00  0.00000000000E+00 -0.44819989046E+03  0.44819989049E+03  0.50400001928E-02 0.  1.
    10030    2    1    2    0    0  0.00000000000E+00  0.00000000000E+00  0.90281332200E+01  0.90542791419E+03  0.90538290276E+03 0.  0.
        1    1    3    3  502    0 -0.20911067584E+03  0.36367131128E+03 -0.16562802363E+03  0.45101744936E+03  0.50400001928E-02 0.  1.
       -1    1    3    3    0  502  0.20911067584E+03 -0.36367131128E+03  0.17465615685E+03  0.45441046483E+03  0.50400001928E-02 0. -1.
</event>
<event>
 5   0  0.8738044E-03  0.8880086E+03  0.7818609E-02  0.9440697E-01
        1   -1    0    0  501    0  0.00000000000E+00  0.00000000000E+00  0.16688766808E+04  0.16688766809E+04  0.50400001928E-02 0.  1.
       -1   -1    0    0    0  501  0.00000000000E+00  0.00000000000E+00 -0.11812724668E+03  0.11812724679E+03  0.50400001928E-02 0. -1.
    10030    2    1    2    0    0  0.00000000000E+00  0.00000000000E+00  0.15507494342E+04  0.17870039276E+04  0.88800857531E+03 0.  0.
        3    1    3    3  502    0  0.21662288404E+03  0.36830267799E+03  0.10182594828E+04  0.11042756545E+04  0.10100000352E+00 0.  1.
       -3    1    3    3    0  502 -0.21662288404E+03 -0.36830267799E+03  0.53248995136E+03  0.68272827318E+03  0.10100000352E+00 0. -1.
</event>
<event>
 5   0  0.1441195E-02  0.8912107E+03  0.7818609E-02  0.9436636E-01
       -2   -1    0    0    0  501  0.00000000000E+00  0.00000000000E+00  0.17560607809E+03  0.17560607811E+03  0.25500000920E-02 0. -1.
        2   -1    0    0  501    0  0.00000000000E+00  0.00000000000E+00 -0.11307360026E+04  0.11307360026E+04  0.25500000920E-02 0.  1.
    10030    2    1    2    0    0  0.00000000000E+00  0.00000000000E+00 -0.95512992450E+03  0.13063420807E+04  0.89121067046E+03 0.  0.
        5    1    3    3  502    0 -0.39823751804E+03  0.65174839081E+01 -0.77038308941E+03  0.86726454604E+03  0.46999998093E+01 0.  1.
       -5    1    3    3    0  502  0.39823751804E+03 -0.65174839081E+01 -0.18474683509E+03  0.43907753467E+03  0.46999998093E+01 0. -1.
</event>
<event>
 5   0  0.1483326E-02  0.9057751E+03  0.7818609E-02  0.9418391E-01
        2   -1    0    0  501    0  0.00000000000E+00  0.00000000000E+00  0.19148916826E+04  0.19148916826E+04  0.25500000920E-02 0. -1.
       -2   -1    0    0    0  501  0.00000000000E+00  0.00000000000E+00 -0.10711160532E+03  0.10711160536E+03  0.25500000920E-02 0.  1.
    10030    2    1    2    0    0  0.00000000000E+00  0.00000000000E+00  0.18077800772E+04  0.20220032879E+04  0.90577507622E+03 0.  0.
        1    1    3    3  502    0  0.16774432542E+03  0.40428199521E+03  0.64427452631E+03  0.77889136319E+03  0.50400001928E-02 0. -1.
       -1    1    3    3    0  502 -0.16774432542E+03 -0.40428199521E+03  0.11635055509E+04  0.12431119247E+04  0.50400001928E-02 0.  1.
</event>
<event>
 5   0  0.8612969E-03  0.8936341E+03  0.7818609E-02  0.9433574E-01
       -1   -1    0    0    0  501  0.00000000000E+00  0.00000000000E+00  0.17686927817E+03  0.17686927824E+03  0.50400001928E-02 0.  1.
        1   -1    0    0  501    0  0.00000000000E+00  0.00000000000E+00 -0.11287742732E+04  0.11287742732E+04  0.50400001928E-02 0. -1.
    10030    2    1    2    0    0  0.00000000000E+00  0.00000000000E+00 -0.95190499503E+03  0.13056435515E+04  0.89363413313E+03 0.  0.
        4    1    3    3  502    0 -0.11992636426E+03 -0.15079912727E+03  0.11305367694E+03  0.22339529180E+03  0.12699999809E+01 0.  1.
       -4    1    3    3    0  502  0.11992636426E+03  0.15079912727E+03 -0.10649586720E+04  0.10822482597E+04  0.12699999809E+01 0. -1.
</event>
<event>
 5   0  0.8738044E-03  0.8931742E+03  0.7818609E-02  0.9434154E-01
       -1   -1    0    0    0  501  0.00000000000E+00  0.00000000000E+00  0.34403409851E+03  0.34403409855E+03  0.50400001928E-02 0. -1.
        1   -1    0    0  501    0  0.00000000000E+00  0.00000000000E+00 -0.57971012052E+03  0.57971012054E+03  0.50400001928E-02 0.  1.
    10030    2    1    2    0    0  0.00000000000E+00  0.00000000000E+00 -0.23567602201E+03  0.92374421908E+03  0.89317422429E+03 0.  0.
        3    1    3    3  502    0  0.13488106443E+03 -0.42762087037E+02 -0.55591376016E+03  0.57363892525E+03  0.10100000352E+00 0.  1.
       -3    1    3    3    0  502 -0.13488106443E+03  0.42762087037E+02  0.32023773815E+03  0.35010529383E+03  0.10100000352E+00 0. -1.
</event>
<event>
 5   0  0.1441195E-02  0.8550322E+03  0.7818609E-02  0.9483608E-01
        2   -1    0    0  501    0  0.00000000000E+00  0.00000000000E+00  0.34501271966E+03  0.34501271967E+03  0.25500000920E-02 0. -1.
       -2   -1    0    0    0  501  0.00000000000E+00  0.00000000000E+00 -0.52974862435E+03  0.52974862436E+03  0.25500000920E-02 0.  1.
    10030    2    1    2    0    0  0.00000000000E+00  0.00000000000E+00 -0.18473590469E+03  0.87476134403E+03  0.85503219502E+03 0.  0.
        5    1    3    3  502    0 -0.12943380467E+03  0.72096866119E+02  0.31787949883E+03  0.35074283124E+03  0.46999998093E+01 0. -1.
       -5    1    3    3    0  502  0.12943380467E+03 -0.72096866119E+02 -0.50261540352E+03  0.52401851279E+03  0.46999998093E+01 0.  1.
</event>
<event>
 5   0  0.8738044E-03  0.9008031E+03  0.7818609E-02  0.9424578E-01
       -1   -1    0    0    0  501  0.00000000000E+00  0.00000000000E+00  0.20235042606E+03  0.20235042612E+03  0.50400001928E-02 0.  1.
        1   -1    0    0  501    0  0.00000000000E+00  0.00000000000E+00 -0.10025260337E+04  0.10025260338E+04  0.50400001928E-02 0. -1.
    10030    2    1    2    0    0  0.00000000000E+00  0.00000000000E+00 -0.80017560768E+03  0.12048764599E+04  0.90080313078E+03 0.  0.
        3    1    3    3  502    0 -0.18517994361E+03 -0.25456276718E+03  0.30779782751E+02  0.31629293254E+03  0.10100000352E+00 0.  1.
       -3    1    3    3    0  502  0.18517994361E+03  0.25456276718E+03 -0.83095539043E+03  0.88858352733E+03  0.10100000352E+00 0. -1.
</event>
<event>
 5   0  0.8291252E-03  0.8680532E+03  0.7818609E-02  0.9466422E-01
       -1   -1    0    0    0  501  0.00000000000E+00  0.00000000000E+00  0.34817062482E+03  0.34817062485E+03  0.50400001928E-02 0.  1.
        1   -1    0    0  501    0  0.00000000000E+00  0.00000000000E+00 -0.54105394648E+03  0.54105394650E+03  0.50400001928E-02 0. -1.
    10030    2    1    2    0    0  0.00000000000E+00  0.00000000000E+00 -0.19288332166E+03  0.88922457135E+03  0.86805320259E+03 0.  0.
        1    1    3    3  502    0 -0.12376250134E+03 -0.35657963053E+03 -0.31594062651E+03  0.49222420618E+03  0.50400001928E-02 0. -1.
       -1    1    3    3    0  502  0.12376250134E+03  0.35657963053E+03  0.12305730485E+03  0.39700036517E+03  0.50400001928E-02 0.  1.
</event>
<event>
 5   0  0.1454652E-02  0.9017403E+03  0.7818609E-02  0.9423409E-01
       -2   -1    0    0    0  501  0.00000000000E+00  0.00000000000E+00  0.10849875753E+03  0.10849875756E+03  0.25500000920E-02 0. -1.
        2   -1    0    0  501    0  0.00000000000E+00  0.00000000000E+00 -0.18736058015E+04  0.18736058015E+04  0.25500000920E-02 0.  1.
    10030    2    1    2    0    0  0.00000000000E+00  0.00000000000E+00 -0.17651070439E+04  0.19821045590E+04  0.90174032093E+03 0.  0.
        4    1    3    3  502    0  0.43404837626E+03 -0.11388453406E+03 -0.97873359035E+03  0.10767027138E+04  0.12699999809E+01 0. -1.
       -4    1    3    3    0  502 -0.43404837626E+03  0.11388453406E+03 -0.78637345358E+03  0.90540184528E+03  0.12699999809E+01 0.  1.
</event>
<event>
 5   0  0.1535906E-02  0.8994685E+03  0.7818609E-02  0.9426246E-01
       -2   -1    0    0    0  501  0.00000000000E+00  0.00000000000E+00  0.12038132820E+03  0.12038132823E+03  0.25500000920E-02 0. -1.
        2   -1    0    0  501    0  0.00000000000E+00  0.00000000000E+00 -0.16801685123E+04  0.16801685123E+04  0.25500000920E-02 0.  1.
    10030    2    1    2    0    0  0.00000000000E+00  0.00000000000E+00 -0.15597871841E+04  0.18005498405E+04  0.89946854783E+03 0.  0.
        2    1    3    3  502    0 -0.17213119815E+03  0.10557633860E+03  0.24531860545E+02  0.20341417069E+03  0.25500000920E-02 0. -1.
       -2    1    3    3    0  502  0.17213119815E+03 -0.10557633860E+03 -0.15843190446E+04  0.15971356698E+04  0.25500000920E-02 0.  1.
</event>
<event>
 5   0  0.8885324E-03  0.8931704E+03  0.7818609E-02  0.9434159E-01
        1   -1    0    0  501    0  0.00000000000E+00  0.00000000000E+00  0.97721503016E+03  0.97721503017E+03  0.50400001928E-02 0.  1.
       -1   -1    0    0    0  501  0.00000000000E+00  0.00000000000E+00 -0.20408848412E+03  0.20408848418E+03  0.50400001928E-02 0. -1.
    10030    2    1    2    0    0  0.00000000000E+00  0.00000000000E+00  0.77312654604E+03  0.11813035143E+04  0.89317038510E+03 0.  0.
        2    1    3    3  502    0  0.21260404983E+03  0.43015009051E+02  0.90286305375E+03  0.92855396549E+03  0.25500000920E-02 0.  1.
       -2    1    3    3    0  502 -0.21260404983E+03 -0.43015009051E+02 -0.12973650771E+03  0.25274954885E+03  0.25500000920E-02 0. -1.
</event>
<event>
 5   0  0.1535906E-02  0.9095520E+03  0.7818609E-02  0.9413719E-01
        2   -1    0    0  501    0  0.00000000000E+00  0.00000000000E+00  0.12544168125E+04  0.12544168125E+04  0.25500000920E-02 0. -1.
       -2   -1    0    0    0  501  0.00000000000E+00  0.00000000000E+00 -0.16487440724E+03  0.16487440726E+03  0.25500000920E-02 0.  1.
    10030    2    1    2    0    0  0.00000000000E+00  0.00000000000E+00  0.10895424053E+04  0.14192912198E+04  0.90955204008E+03 0.  0.
        2    1    3    3  502    0 -0.18844453967E+03 -0.16209516407E+03 -0.49494184743E+02  0.25344794550E+03  0.25500000920E-02 0.  1.
       -2    1    3    3    0  502  0.18844453967E+03  0.16209516407E+03  0.11390365900E+04  0.11658432743E+04  0.25500000920E-02 0. -1.
</event>
<event>
 5   0  0.8885324E-03  0.9038814E+03  0.7818609E-02  0.9420742E-01
        1   -1    0    0  501    0  0.00000000000E+00  0.00000000000E+00  0.38402194443E+03  0.38402194446E+03  0.50400001928E-02 0. -1.
       -1   -1    0    0    0  501  0.00000000000E+00  0.00000000000E+00 -0.53187169477E+03  0.53187169479E+03  0.50400001928E-02 0.  1.
    10030    2    1    2    0    0  0.00000000000E+00  0.00000000000E+00 -0.14784975034E+03  0.91589363926E+03  0.90388141355E+03 0.  0.
        2    1    3    3  502    0 -0.39062731890E+02  0.25856086863E+03  0.29958030142E+03  0.39765308601E+03  0.25500000920E-02 0. -1.
       -2    1    3    3    0  502  0.39062731890E+02 -0.25856086863E+03 -0.44743005176E+03  0.51824055325E+03  0.25500000920E-02 0.  1.
</event>
<event>
 5   0  0.8524692E-03  0.8941419E+03  0.7818609E-02  0.9432934E-01
        1   -1    0    0  501    0  0.00000000000E+00  0.00000000000E+00  0.21597571554E+03  0.21597571560E+03  0.50400001928E-02 0.  1.
       -1   -1    0    0    0  501  0.00000000000E+00  0.00000000000E+00 -0.92543943763E+03  0.92543943765E+03  0.50400001928E-02 0. -1.
    10030    2    1    2    0    0  0.00000000000E+00  0.00000000000E+00 -0.70946372209E+03  0.11414151532E+04  0.89414192335E+03 0.  0.
        5    1    3    3  502    0  0.18519693629E+03  0.40683727943E+03 -0.34708560162E+03  0.56595492930E+03  0.46999998093E+01 0.  1.
       -5    1    3    3    0  502 -0.18519693629E+03 -0.40683727943E+03 -0.36237812047E+03  0.57546022394E+03  0.46999998093E+01 0. -1.
</event>
<event>
 5   0  0.8291252E-03  0.8868095E+03  0.7818609E-02  0.9442222E-01
        1   -1    0    0  501    0  0.00000000000E+00  0.00000000000E+00  0.71503211879E+03  0.71503211881E+03  0.50400001928E-02 0.  1.
       -1   -1    0    0    0  501  0.00000000000E+00  0.00000000000E+00 -0.27496356952E+03  0.27496356957E+03  0.50400001928E-02 0. -1.
    10030    2    1    2    0    0  0.00000000000E+00  0.00000000000E+00  0.44006854927E+03  0.98999568838E+03  0.88680952574E+03 0.  0.
        1    1    3    3  502    0  0.35380409339E+03 -0.22131688022E+03  0.38729894446E+03  0.56934960294E+03  0.50400001928E-02 0.  1.
       -1    1    3    3    0  502 -0.35380409339E+03  0.22131688022E+03  0.52769604817E+02  0.42064608543E+03  0.50400001928E-02 0. -1.
</event>
<event>
 5   0  0.1535906E-02  0.9242298E+03  0.7818609E-02  0.9395790E-01
        2   -1    0    0  501    0  0.00000000000E+00  0.00000000000E+00  0.31961379818E+03  0.31961379819E+03  0.25500000920E-02 0.  1.
       -2   -1    0    0    0  501  0.00000000000E+00  0.00000000000E+00 -0.66815068556E+03  0.66815068556E+03  0.25500000920E-02 0. -1.
    10030    2    1    2    0    0  0.00000000000E+00  0.00000000000E+00 -0.34853688738E+03  0.98776448375E+03  0.92422979475E+03 0.  0.
        2    1    3    3  502    0  0.38390517069E+03 -0.17420210706E+03  0.28005534635E+02  0.42250901075E+03  0.25500000920E-02 0.  1.
       -2    1    3    3    0  502 -0.38390517069E+03  0.17420210706E+03 -0.37654242201E+03  0.56525547301E+03  0.25500000920E-02 0. -1.
</event>
<event>
 5   0  0.1454652E-02  0.8830838E+03  0.7818609E-02  0.9446978E-01
       -2   -1    0    0    0  501  0.00000000000E+00  0.00000000000E+00  0.87287697997E+03  0.87287697997E+03  0.25500000920E-02 0.  1.
        2   -1    0    0  501    0  0.00000000000E+00  0.00000000000E+00 -0.22335248124E+03  0.22335248125E+03  0.25500000920E-02 0. -1.
    10030    2    1    2    0    0  0.00000000000E+00  0.00000000000E+00  0.64952449873E+03  0.10962294612E+04  0.88308377700E+03 0.  0.
        4    1    3    3  502    0 -0.43364372447E+02  0.13502692128E+03 -0.19430787447E+03  0.24056163711E+03  0.12699999809E+01 0. -1.
       -4    1    3    3    0  502  0.43364372447E+02 -0.13502692128E+03  0.84383237320E+03  0.85566782411E+03  0.12699999809E+01 0.  1.
</event>
<event>
 5   0  0.1483326E-02  0.9069570E+03  0.7818609E-02  0.9416926E-01
        2   -1    0    0  501    0  0.00000000000E+00  0.00000000000E+00  0.46006665204E+03  0.46006665205E+03  0.25500000920E-02 0.  1.
       -2   -1    0    0    0  501  0.00000000000E+00  0.00000000000E+00 -0.44698473067E+03  0.44698473067E+03  0.25500000920E-02 0. -1.
    10030    2    1    2    0    0  0.00000000000E+00  0.00000000000E+00  0.13081921377E+02  0.90705138272E+03  0.90695704101E+03 0.  0.
        1    1    3    3  502    0 -0.29780191911E+03  0.20669762650E+03  0.27902641154E+03  0.45745560461E+03  0.50400001928E-02 0.  1.
       -1    1    3    3    0  502  0.29780191911E+03 -0.20669762650E+03 -0.26594449016E+03  0.44959577811E+03  0.50400001928E-02 0. -1.
</event>
<event>
 5   0  0.1483326E-02  0.8790482E+03  0.7818609E-02  0.9452158E-01
        2   -1    0    0  501    0  0.00000000000E+00  0.00000000000E+00  0.45722401238E+03  0.45722401239E+03  0.25500000920E-02 0. -1.
       -2   -1    0    0    0  501  0.00000000000E+00  0.00000000000E+00 -0.42250941523E+03  0.42250941524E+03  0.25500000920E-02 0.  1.
    10030    2    1    2    0    0  0.00000000000E+00  0.00000000000E+00  0.34714597157E+02  0.87973342763E+03  0.87904823555E+03 0.  0.
        1    1    3    3  502    0 -0.27464671338E+03 -0.25296726276E+03  0.24939616470E+03  0.44902305085E+03  0.50400001928E-02 0. -1.
       -1    1    3    3    0  502  0.27464671338E+03  0.25296726276E+03 -0.21468156754E+03  0.43071037678E+03  0.50400001928E-02 0.  1.
</event>
<event>
 5   0  0.8885324E-03  0.9188382E+03  0.7818609E-02  0.9402334E-01
       -1   -1    0    0    0  501  0.00000000000E+00  0.00000000000E+00  0.74884881474E+03  0.74884881475E+03  0.50400001928E-02 0. -1.
        1   -1    0    0  501    0  0.00000000000E+00  0.00000000000E+00 -0.28185380828E+03  0.28185380832E+03  0.50400001928E-02 0.  1.
    10030    2    1    2    0    0  0.00000000000E+00  0.00000000000E+00  0.46699500646E+03  0.10307026231E+04  0.91883815830E+03 0.  0.
        2    1    3    3  502    0  0.78249499390E+02  0.27497651918E+03  0.63690630931E+03  0.69812944151E+03  0.25500000920E-02 0. -1.
       -2    1    3    3    0  502 -0.78249499390E+02 -0.27497651918E+03 -0.16991130285E+03  0.33257318157E+03  0.25500000920E-02 0.  1.
</event>
<event>
 5   0  0.5770125E-03  0.9039112E+03  0.7818609E-02  0.9420705E-01
       -4   -1    0    0    0  501  0.00000000000E+00  0.00000000000E+00  0.33586652544E+03  0.33586892653E+03  0.12699999809E+01 0.  1.
        4   -1    0    0  501    0  0.00000000000E+00  0.00000000000E+00 -0.60816449639E+03  0.60816582243E+03  0.12699999809E+01 0. -1.
    10030    2    1    2    0    0  0.00000000000E+00  0.00000000000E+00 -0.27229797096E+03  0.94403474896E+03  0.90391118052E+03 0.  0.
        2    1    3    3  502    0  0.19943912810E+03 -0.40533782705E+03 -0.12178585908E+03  0.46787446536E+03  0.25500000920E-02 0.  1.
       -2    1    3    3    0  502 -0.19943912810E+03  0.40533782705E+03 -0.15051211188E+03  0.47616028361E+03  0.25500000920E-02 0. -1.
</event>
<event>
 5   0  0.1483326E-02  0.8970503E+03  0.7818609E-02  0.9429276E-01
        2   -1    0    0  501    0  0.00000000000E+00  0.00000000000E+00  0.11712506631E+04  0.11712506631E+04  0.25500000920E-02 0. -1.
       -2   -1    0    0    0  501  0.00000000000E+00  0.00000000000E+00 -0.17176069066E+03  0.17176069068E+03  0.25500000920E-02 0.  1.
    10030    2    1    2    0    0  0.00000000000E+00  0.00000000000E+00  0.99948997247E+03  0.13430113538E+04  0.89705032823E+03 0.  0.
        1    1    3    3  502    0  0.39280423045E+03  0.73175022743E+02  0.80482804337E+03  0.89855324095E+03  0.50400001928E-02 0. -1.
       -1    1    3    3    0  502 -0.39280423045E+03 -0.73175022743E+02  0.19466192910E+03  0.44445811285E+03  0.50400001928E-02 0.  1.
</event>
<event>
 5   0  0.1441195E-02  0.8806476E+03  0.7818609E-02  0.9450101E-01
       -2   -1    0    0    0  501  0.00000000000E+00  0.00000000000E+00  0.39030048238E+03  0.39030048239E+03  0.25500000920E-02 0. -1.
        2   -1    0    0  501    0  0.00000000000E+00  0.00000000000E+00 -0.49675842669E+03  0.49675842670E+03  0.25500000920E-02 0.  1.
    10030    2    1    2    0    0  0.00000000000E+00  0.00000000000E+00 -0.10645794431E+03  0.88705890909E+03  0.88064761073E+03 0.  0.
        5    1    3    3  502    0 -0.28312362667E+03 -0.31316763819E+03 -0.17915916634E+03  0.45864262173E+03  0.46999998093E+01 0. -1.
       -5    1    3    3    0  502  0.28312362667E+03  0.31316763819E+03  0.72701222035E+02  0.42841628736E+03  0.46999998093E+01 0.  1.
</event>
<event>
 5   0  0.1454652E-02  0.9011667E+03  0.7818609E-02  0.9424124E-01
       -2   -1    0    0    0  501  0.00000000000E+00  0.00000000000E+00  0.81270047777E+02  0.81270047817E+02  0.25500000920E-02 0.  1.
        2   -1    0    0  501    0  0.00000000000E+00  0.00000000000E+00 -0.24981571533E+04  0.24981571533E+04  0.25500000920E-02 0. -1.
    10030    2    1    2    0    0  0.00000000000E+00  0.00000000000E+00 -0.24168871055E+04  0.25794272011E+04  0.90116669102E+03 0.  0.
        4    1    3    3  502    0  0.24929945149E+03 -0.13454295427E+03 -0.22113658949E+04  0.22294377670E+04  0.12699999809E+01 0. -1.
       -4    1    3    3    0  502 -0.24929945149E+03  0.13454295427E+03 -0.20552121062E+03  0.34998943408E+03  0.12699999809E+01 0.  1.
</event>
<event>
 5   0  0.8291252E-03  0.9033366E+03  0.7818609E-02  0.9421420E-01
        1   -1    0    0  501    0  0.00000000000E+00  0.00000000000E+00  0.41688551419E+03  0.41688551422E+03  0.50400001928E-02 0. -1.
       -1   -1    0    0    0  501  0.00000000000E+00  0.00000000000E+00 -0.48935322549E+03  0.48935322551E+03  0.50400001928E-02 0.  1.
    10030    2    1    2    0    0  0.00000000000E+00  0.00000000000E+00 -0.72467711300E+02  0.90623873973E+03  0.90333663947E+03 0.  0.
        1    1    3    3  502    0  0.18422982439E+03  0.35246853036E+03 -0.25100005249E+03  0.47029322711E+03  0.50400001928E-02 0.  1.
       -1    1    3    3    0  502 -0.18422982439E+03 -0.35246853036E+03  0.17853234119E+03  0.43594551261E+03  0.50400001928E-02 0. -1.
</event>
<event>
 5   0  0.1440615E-02  0.8914306E+03  0.7818609E-02  0.9436357E-01
        2   -1    0    0  501    0  0.00000000000E+00  0.00000000000E+00  0.25625427852E+04  0.25625427852E+04  0.25500000920E-02 0. -1.
       -2   -1    0    0    0  501  0.00000000000E+00  0.00000000000E+00 -0.77525390283E+02  0.77525390325E+02  0.25500000920E-02 0.  1.
    10030    2    1    2    0    0  0.00000000000E+00  0.00000000000E+00  0.24850173949E+04  0.26400681756E+04  0.89143060212E+03 0.  0.
        3    1    3    3  502    0  0.34916247776E+03 -0.98864035209E+02  0.47606654869E+03  0.59860496349E+03  0.10100000352E+00 0.  1.
       -3    1    3    3    0  502 -0.34916247776E+03  0.98864035209E+02  0.20089508463E+04  0.20414632121E+04  0.10100000352E+00 0. -1.
</event>
<event>
 5   0  0.1483326E-02  0.9025965E+03  0.7818609E-02  0.9422342E-01
        2   -1    0    0  501    0  0.00000000000E+00  0.00000000000E+00  0.58692524175E+03  0.58692524176E+03  0.25500000920E-02 0.  1.
       -2   -1    0    0    0  501  0.00000000000E+00  0.00000000000E+00 -0.34701198194E+03  0.34701198195E+03  0.25500000920E-02 0. -1.
    10030    2    1    2    0    0  0.00000000000E+00  0.00000000000E+00  0.23991325981E+03  0.93393722371E+03  0.90259645778E+03 0.  0.
        1    1    3    3  502    0  0.35011940938E+03  0.15971697147E+03 -0.12397691708E+03  0.40430605708E+03  0.50400001928E-02 0. -1.
       -1    1    3    3    0  502 -0.35011940938E+03 -0.15971697147E+03  0.36389017688E+03  0.52963116662E+03  0.50400001928E-02 0.  1.
</event>
<event>
 5   0  0.8612969E-03  0.9031067E+03  0.7818609E-02  0.9421706E-01
        1   -1    0    0  501    0  0.00000000000E+00  0.00000000000E+00  0.10608296548E+04  0.10608296548E+04  0.50400001928E-02 0. -1.
       -1   -1    0    0    0  501  0.00000000000E+00  0.00000000000E+00 -0.19220845034E+03  0.19220845041E+03  0.50400001928E-02 0.  1.
    10030    2    1    2    0    0  0.00000000000E+00  0.00000000000E+00  0.86862120441E+03  0.12530381052E+04  0.90310669152E+03 0.  0.
        4    1    3    3  502    0  0.37834850187E+03 -0.24301352920E+03  0.49144437874E+03  0.66612487908E+03  0.12699999809E+01 0. -1.
       -4    1    3    3    0  502 -0.37834850187E+03  0.24301352920E+03  0.37717682567E+03  0.58691322609E+03  0.12699999809E+01 0.  1.
</event>
<event>
 5   0  0.1440615E-02  0.8954172E+03  0.7818609E-02  0.9431328E-01
        2   -1    0    0  501    0  0.00000000000E+00  0.00000000000E+00  0.42830080143E+03  0.42830080143E+03  0.25500000920E-02 0. -1.
       -2   -1    0    0    0  501  0.00000000000E+00  0.00000000000E+00 -0.46799583926E+03  0.46799583926E+03  0.25500000920E-02 0.  1.
    10030    2    1    2    0    0  0.00000000000E+00  0.00000000000E+00 -0.39695037830E+02  0.89629664070E+03  0.89541720561E+03 0.  0.
        3    1    3    3  502    0 -0.38074570711E+02 -0.23479637214E+03 -0.39951408927E+03  0.46496293081E+03  0.10100000352E+00 0.  1.
       -3    1    3    3    0  502  0.38074570711E+02  0.23479637214E+03  0.35981905144E+03  0.43133370988E+03  0.10100000352E+00 0. -1.
</event>
<event>
 5   0  0.1483326E-02  0.9765024E+03  0.7818609E-02  0.9334699E-01
       -2   -1    0    0    0  501  0.00000000000E+00  0.00000000000E+00  0.20487710894E+03  0.20487710896E+03  0.25500000920E-02 0. -1.
        2   -1    0    0  501    0  0.00000000000E+00  0.00000000000E+00 -0.11635719571E+04  0.11635719571E+04  0.25500000920E-02 0.  1.
    10030    2    1    2    0    0  0.00000000000E+00  0.00000000000E+00 -0.95869484813E+03  0.13684490660E+04  0.97650244981E+03 0.  0.
        1    1    3    3  502    0 -0.41278222165E+03  0.23532251348E+03 -0.63679778372E+03  0.79452958739E+03  0.50400001928E-02 0.  1.
       -1    1    3    3    0  502  0.41278222165E+03 -0.23532251348E+03 -0.32189706441E+03  0.57391947864E+03  0.50400001928E-02 0. -1.
</event>
<event>
 5   0  0.8885324E-03  0.9256104E+03  0.7818609E-02  0.9394121E-01
       -1   -1    0    0    0  501  0.00000000000E+00  0.00000000000E+00  0.72067345694E+03  0.72067345696E+03  0.50400001928E-02 0. -1.
        1   -1    0    0  501    0  0.00000000000E+00  0.00000000000E+00 -0.29720627575E+03  0.29720627579E+03  0.50400001928E-02 0.  1.
    10030    2    1    2    0    0  0.00000000000E+00  0.00000000000E+00  0.42346718119E+03  0.10178797328E+04  0.92561044549E+03 0.  0.
        2    1    3    3  502    0 -0.33566598777E+03 -0.21726770202E+03 -0.44546681518E+02  0.40231991813E+03  0.25500000920E-02 0.  1.
       -2    1    3    3    0  502  0.33566598777E+03  0.21726770202E+03  0.46801386271E+03  0.61555981462E+03  0.25500000920E-02 0. -1.
</event>
<event>
 5   0  0.1441195E-02  0.9018158E+03  0.7818609E-02  0.9423314E-01
       -2   -1    0    0    0  501  0.00000000000E+00  0.00000000000E+00  0.49836118197E+03  0.49836118198E+03  0.25500000920E-02 0.  1.
        2   -1    0    0  501    0  0.00000000000E+00  0.00000000000E+00 -0.40797302702E+03  0.40797302703E+03  0.25500000920E-02 0. -1.
    10030    2    1    2    0    0  0.00000000000E+00  0.00000000000E+00  0.90388154950E+02  0.90633420901E+03  0.90181576825E+03 0.  0.
        5    1    3    3  502    0 -0.36719305581E+03  0.53409237470E+02  0.30262693847E+03  0.47884072589E+03  0.46999998093E+01 0.  1.
       -5    1    3    3    0  502  0.36719305581E+03 -0.53409237470E+02 -0.21223878352E+03  0.42749348312E+03  0.46999998093E+01 0. -1.
</event>
<event>
 5   0  0.8291252E-03  0.8613841E+03  0.7818609E-02  0.9475184E-01
       -1   -1    0    0    0  501  0.00000000000E+00  0.00000000000E+00  0.45126497147E+03  0.45126497150E+03  0.50400001928E-02 0. -1.
        1   -1    0    0  501    0  0.00000000000E+00  0.00000000000E+00 -0.41105708308E+03  0.41105708311E+03  0.50400001928E-02 0.  1.
    10030    2    1    2    0    0  0.00000000000E+00  0.00000000000E+00  0.40207888395E+02  0.86232205461E+03  0.86138414866E+03 0.  0.
        1    1    3    3  502    0 -0.14771463603E+03 -0.40181441213E+03  0.67285159836E+02  0.43336096762E+03  0.50400001928E-02 0. -1.
       -1    1    3    3    0  502  0.14771463603E+03  0.40181441213E+03 -0.27077271440E+02  0.42896108699E+03  0.50400001928E-02 0.  1.
</event>
<event>
 5   0  0.1483326E-02  0.9020287E+03  0.7818609E-02  0.9423049E-01
        2   -1    0    0  501    0  0.00000000000E+00  0.00000000000E+00  0.71199332122E+03  0.71199332122E+03  0.25500000920E-02 0. -1.
       -2   -1    0    0    0  501  0.00000000000E+00  0.00000000000E+00 -0.28569643728E+03  0.28569643729E+03  0.25500000920E-02 0.  1.
    10030    2    1    2    0    0  0.00000000000E+00  0.00000000000E+00  0.42629688394E+03  0.99768975851E+03  0.90202872514E+03 0.  0.
        1    1    3    3  502    0  0.49334789794E+02 -0.32628526932E+03  0.55319024366E+03  0.64413930494E+03  0.50400001928E-02 0. -1.
       -1    1    3    3    0  502 -0.49334789794E+02  0.32628526932E+03 -0.12689335972E+03  0.35355045358E+03  0.50400001928E-02 0.  1.
</event>
<event>
 5   0  0.1535906E-02  0.8956771E+03  0.7818609E-02  0.9431001E-01
        2   -1    0    0  501    0  0.00000000000E+00  0.00000000000E+00  0.81060898803E+03  0.81060898803E+03  0.25500000920E-02 0.  1.
       -2   -1    0    0    0  501  0.00000000000E+00  0.00000000000E+00 -0.24741814696E+03  0.24741814697E+03  0.25500000920E-02 0. -1.
    10030    2    1    2    0    0  0.00000000000E+00  0.00000000000E+00  0.56319084107E+03  0.10580271350E+04  0.89567711534E+03 0.  0.
        2    1    3    3  502    0  0.13197229560E+03 -0.37854553859E+02 -0.22194507995E+03  0.26097753270E+03  0.25500000920E-02 0. -1.
       -2    1    3    3    0  502 -0.13197229560E+03  0.37854553859E+02  0.78513592102E+03  0.79704960231E+03  0.25500000920E-02 0.  1.
</event>
<event>
 5   0  0.8524692E-03  0.9015533E+03  0.7818609E-02  0.9423642E-01
        1   -1    0    0  501    0  0.00000000000E+00  0.00000000000E+00  0.68510935242E+03  0.68510935244E+03  0.50400001928E-02 0.  1.
       -1   -1    0    0    0  501  0.00000000000E+00  0.00000000000E+00 -0.29659441650E+03  0.29659441654E+03  0.50400001928E-02 0. -1.
    10030    2    1    2    0    0  0.00000000000E+00  0.00000000000E+00  0.38851493592E+03  0.98170376898E+03  0.90155334540E+03 0.  0.
        5    1    3    3  502    0 -0.75661324121E+02  0.39080697539E+02 -0.28772872948E+03  0.30010306338E+03  0.46999998093E+01 0. -1.
       -5    1    3    3    0  502  0.75661324121E+02 -0.39080697539E+02  0.67624366540E+03  0.68160070560E+03  0.46999998093E+01 0.  1.
</event>
<event>
 5   0  0.8738044E-03  0.8895749E+03  0.7818609E-02  0.9438708E-01
       -1   -1    0    0    0  501  0.00000000000E+00  0.00000000000E+00  0.32414737973E+03  0.32414737977E+03  0.50400001928E-02 0. -1.
        1   -1    0    0  501    0  0.00000000000E+00  0.00000000000E+00 -0.61032693843E+03  0.61032693845E+03  0.50400001928E-02 0.  1.
    10030    2    1    2    0    0  0.00000000000E+00  0.00000000000E+00 -0.28617955870E+03  0.93447431822E+03  0.88957490499E+03 0.  0.
        3    1    3    3  502    0 -0.13903787438E+03  0.96043580140E+02 -0.57529263440E+03  0.59959780286E+03  0.10100000352E+00 0.  1.
       -3    1    3    3    0  502  0.13903787438E+03 -0.96043580140E+02  0.28911307570E+03  0.33487651536E+03  0.10100000352E+00 0. -1.
</event>
<event>
 5   0  0.1440615E-02  0.8963052E+03  0.7818609E-02  0.9430212E-01
       -2   -1    0    0    0  501  0.00000000000E+00  0.00000000000E+00  0.44447384419E+03  0.44447384419E+03  0.25500000920E-02 0. -1.
        2   -1    0    0  501    0  0.00000000000E+00  0.00000000000E+00 -0.45186182257E+03  0.45186182258E+03  0.25500000920E-02 0.  1.
    10030    2    1    2    0    0  0.00000000000E+00  0.00000000000E+00 -0.73879783831E+01  0.89633566677E+03  0.89630521883E+03 0.  0.
        3    1    3    3  502    0  0.19864929398E+03 -0.10251587231E+03  0.38473870184E+03  0.44496620655E+03  0.10100000352E+00 0. -1.
       -3    1    3    3    0  502 -0.19864929398E+03  0.10251587231E+03 -0.39212668023E+03  0.45136946022E+03  0.10100000352E+00 0.  1.
</event>
<event>
 5   0  0.1441195E-02  0.9024424E+03  0.7818609E-02  0.9422534E-01
        2   -1    0    0  501    0  0.00000000000E+00  0.00000000000E+00  0.81342373315E+03  0.81342373316E+03  0.25500000920E-02 0. -1.
       -2   -1    0    0    0  501  0.00000000000E+00  0.00000000000E+00 -0.25030072433E+03  0.25030072434E+03  0.25500000920E-02 0.  1.
    10030    2    1    2    0    0  0.00000000000E+00  0.00000000000E+00  0.56312300882E+03  0.10637244575E+04  0.90244235185E+03 0.  0.
        5    1    3    3  502    0 -0.43688646228E+03  0.15784640221E+02  0.14999043691E+03  0.46221007881E+03  0.46999998093E+01 0.  1.
       -5    1    3    3    0  502  0.43688646228E+03 -0.15784640221E+02  0.41313257191E+03  0.60151437869E+03  0.46999998093E+01 0. -1.
</event>
<event>
 5   0  0.8524692E-03  0.8955489E+03  0.7818609E-02  0.9431163E-01
       -1   -1    0    0    0  501  0.00000000000E+00  0.00000000000E+00  0.13461192050E+03  0.13461192059E+03  0.50400001928E-02 0.  1.
        1   -1    0    0  501    0  0.00000000000E+00  0.00000000000E+00 -0.14894815166E+04  0.14894815166E+04  0.50400001928E-02 0. -1.
    10030    2    1    2    0    0  0.00000000000E+00  0.00000000000E+00 -0.13548695961E+04  0.16240934372E+04  0.89554892125E+03 0.  0.
        5    1    3    3  502    0 -0.41070571290E+03 -0.14973906755E+03 -0.85306443459E+03  0.95856246041E+03  0.46999998093E+01 0. -1.
       -5    1    3    3    0  502  0.41070571290E+03  0.14973906755E+03 -0.50180516155E+03  0.66553097683E+03  0.46999998093E+01 0.  1.
</event>
<event>
 5   0  0.1483326E-02  0.9179886E+03  0.7818609E-02  0.9403370E-01
       -2   -1    0    0    0  501  0.00000000000E+00  0.00000000000E+00  0.40510237868E+03  0.40510237869E+03  0.25500000920E-02 0. -1.
        2   -1    0    0  501    0  0.00000000000E+00  0.00000000000E+00 -0.52005564681E+03  0.52005564682E+03  0.25500000920E-02 0.  1.
    10030    2    1    2    0    0  0.00000000000E+00  0.00000000000E+00 -0.11495326813E+03  0.92515802551E+03  0.91798862646E+03 0.  0.
        1    1    3    3  502    0  0.12502779728E+03  0.23013314932E+03  0.32240562456E+03  0.41537766344E+03  0.50400001928E-02 0. -1.
       -1    1    3    3    0  502 -0.12502779728E+03 -0.23013314932E+03 -0.43735889269E+03  0.50978036207E+03  0.50400001928E-02 0.  1.
</event>
<event>
 5   0  0.8612969E-03  0.8969549E+03  0.7818609E-02  0.9429396E-01
        1   -1    0    0  501    0  0.00000000000E+00  0.00000000000E+00  0.15385711351E+04  0.15385711351E+04  0.50400001928E-02 0.  1.
       -1   -1    0    0    0  501  0.00000000000E+00  0.00000000000E+00 -0.13072649503E+03  0.13072649513E+03  0.50400001928E-02 0. -1.
    10030    2    1    2    0    0  0.00000000000E+00  0.00000000000E+00  0.14078446401E+04  0.16692976302E+04  0.89695487496E+03 0.  0.
        4    1    3    3  502    0 -0.31864553931E+03 -0.56409357433E+01  0.12911594076E+04  0.13299101581E+04  0.12699999809E+01 0.  1.
       -4    1    3    3    0  502  0.31864553931E+03  0.56409357433E+01  0.11668523250E+03  0.33938747216E+03  0.12699999809E+01 0. -1.
</event>
<event>
 5   0  0.1440615E-02  0.9300488E+03  0.7818609E-02  0.9388779E-01
       -2   -1    0    0    0  501  0.00000000000E+00  0.00000000000E+00  0.30884725403E+03  0.30884725404E+03  0.25500000920E-02 0. -1.
        2   -1    0    0  501    0  0.00000000000E+00  0.00000000000E+00 -0.70017683692E+03  0.70017683693E+03  0.25500000920E-02 0.  1.
    10030    2    1    2    0    0  0.00000000000E+00  0.00000000000E+00 -0.39132958289E+03  0.10090240910E+04  0.93004880179E+03 0.  0.
        3    1    3    3  502    0  0.21161291593E+03 -0.24269029796E+03 -0.55966811501E+03  0.64568337138E+03  0.10100000352E+00 0.  1.
       -3    1    3    3    0  502 -0.21161291593E+03  0.24269029796E+03  0.16833853212E+03  0.36334071959E+03  0.10100000352E+00 0. -1.
</event>
<event>
 5   0  0.1454652E-02  0.8860346E+03  0.7818609E-02  0.9443209E-01
       -2   -1    0    0    0  501  0.00000000000E+00  0.00000000000E+00  0.63601343880E+02  0.63601343931E+02  0.25500000920E-02 0.  1.
        2   -1    0    0  501    0  0.00000000000E+00  0.00000000000E+00 -0.30858517822E+04  0.30858517822E+04  0.25500000920E-02 0. -1.
    10030    2    1    2    0    0  0.00000000000E+00  0.00000000000E+00 -0.30222504383E+04  0.31494531261E+04  0.88603458272E+03 0.  0.
        4    1    3    3  502    0 -0.58673092016E+02 -0.36722076551E+03 -0.23669457471E+04  0.23959815118E+04  0.12699999809E+01 0. -1.
       -4    1    3    3    0  502  0.58673092016E+02  0.36722076551E+03 -0.65530469122E+03  0.75347161431E+03  0.12699999809E+01 0.  1.
</event>
<event>
 5   0  0.1535906E-02  0.8845755E+03  0.7818609E-02  0.9445071E-01
       -2   -1    0    0    0  501  0.00000000000E+00  0.00000000000E+00  0.21223972374E+03  0.21223972375E+03  0.25500000920E-02 0.  1.
        2   -1    0    0  501    0  0.00000000000E+00  0.00000000000E+00 -0.92168640625E+03  0.92168640625E+03  0.25500000920E-02 0. -1.
    10030    2    1    2    0    0  0.00000000000E+00  0.00000000000E+00 -0.70944668251E+03  0.11339261300E+04  0.88457553266E+03 0.  0.
        2    1    3    3  502    0 -0.30294611529E+03  0.31042687727E+03 -0.46556970966E+03  0.63631466230E+03  0.25500000920E-02 0. -1.
       -2    1    3    3    0  502  0.30294611529E+03 -0.31042687727E+03 -0.24387697285E+03  0.49761146771E+03  0.25500000920E-02 0.  1.
</event>
<event>
 5   0  0.1454652E-02  0.9109270E+03  0.7818609E-02  0.9412024E-01
       -2   -1    0    0    0  501  0.00000000000E+00  0.00000000000E+00  0.11614836848E+04  0.11614836848E+04  0.25500000920E-02 0. -1.
        2   -1    0    0  501    0  0.00000000000E+00  0.00000000000E+00 -0.17860519074E+03  0.17860519076E+03  0.25500000920E-02 0.  1.
    10030    2    1    2    0    0  0.00000000000E+00  0.00000000000E+00  0.98287849411E+03  0.13400888756E+04  0.91092703349E+03 0.  0.
        4    1    3    3  502    0 -0.25891794964E+01 -0.28209659937E+03 -0.34599473475E+02  0.28422514261E+03  0.12699999809E+01 0.  1.
       -4    1    3    3    0  502  0.25891794964E+01  0.28209659937E+03  0.10174779676E+04  0.10558637330E+04  0.12699999809E+01 0. -1.
</event>
<event>
 5   0  0.1483326E-02  0.9347900E+03  0.7818609E-02  0.9383108E-01
        2   -1    0    0  501    0  0.00000000000E+00  0.00000000000E+00  0.41771160127E+03  0.41771160128E+03  0.25500000920E-02 0. -1.
       -2   -1    0    0    0  501  0.00000000000E+00  0.00000000000E+00 -0.52298781780E+03  0.52298781780E+03  0.25500000920E-02 0.  1.
    10030    2    1    2    0    0  0.00000000000E+00  0.00000000000E+00 -0.10527621653E+03  0.94069941908E+03  0.93478998459E+03 0.  0.
        1    1    3    3  502    0  0.27675251684E+03 -0.33251795897E+03  0.12539248287E+03  0.45042582452E+03  0.50400001928E-02 0. -1.
       -1    1    3    3    0  502 -0.27675251684E+03  0.33251795897E+03 -0.23066869940E+03  0.49027359456E+03  0.50400001928E-02 0.  1.
</event>
<event>
 5   0  0.8524692E-03  0.9018832E+03  0.7818609E-02  0.9423230E-01
       -1   -1    0    0    0  501  0.00000000000E+00  0.00000000000E+00  0.37146987539E+03  0.37146987543E+03  0.50400001928E-02 0. -1.
        1   -1    0    0  501    0  0.00000000000E+00  0.00000000000E+00 -0.54741540768E+03  0.54741540771E+03  0.50400001928E-02 0.  1.
    10030    2    1    2    0    0  0.00000000000E+00  0.00000000000E+00 -0.17594553229E+03  0.91888528313E+03  0.90188321485E+03 0.  0.
        5    1    3    3  502    0  0.12047402071E+03 -0.23988881875E+03  0.28116329125E+03  0.38876152250E+03  0.46999998093E+01 0. -1.
       -5    1    3    3    0  502 -0.12047402071E+03  0.23988881875E+03 -0.45710882354E+03  0.53012376063E+03  0.46999998093E+01 0.  1.
</event>
<event>
 5   0  0.8291252E-03  0.8973511E+03  0.7818609E-02  0.9428899E-01
        1   -1    0    0  501    0  0.00000000000E+00  0.00000000000E+00  0.84780421519E+03  0.84780421520E+03  0.50400001928E-02 0.  1.
       -1   -1    0    0    0  501  0.00000000000E+00  0.00000000000E+00 -0.23744838701E+03  0.23744838706E+03  0.50400001928E-02 0. -1.
    10030    2    1    2    0    0  0.00000000000E+00  0.00000000000E+00  0.61035582818E+03  0.10852526023E+04  0.89735108721E+03 0.  0.
        1    1    3    3  502    0 -0.19846545937E+03 -0.92081989392E+02 -0.16856281755E+03  0.27619025113E+03  0.50400001928E-02 0. -1.
       -1    1    3    3    0  502  0.19846545937E+03  0.92081989392E+02  0.77891864572E+03  0.80906235113E+03  0.50400001928E-02 0.  1.
</event>
<event>
 5   0  0.1483326E-02  0.9067384E+03  0.7818609E-02  0.9417197E-01
       -2   -1    0    0    0  501  0.00000000000E+00  0.00000000000E+00  0.31673845498E+03  0.31673845499E+03  0.25500000920E-02 0. -1.
        2   -1    0    0  501    0  0.00000000000E+00  0.00000000000E+00 -0.64893805453E+03  0.64893805453E+03  0.25500000920E-02 0.  1.
    10030    2    1    2    0    0  0.00000000000E+00  0.00000000000E+00 -0.33219959955E+03  0.96567650952E+03  0.90673841161E+03 0.  0.
        1    1    3    3  502    0 -0.35429141857E+03 -0.20176776924E+03 -0.37725737692E+03  0.55547796576E+03  0.50400001928E-02 0.  1.
       -1    1    3    3    0  502  0.35429141857E+03  0.20176776924E+03  0.45057777370E+02  0.41019854376E+03  0.50400001928E-02 0. -1.
</event>
<event>
 5   0  0.8885324E-03  0.8851131E+03  0.7818609E-02  0.9444385E-01
        1   -1    0    0  501    0  0.00000000000E+00  0.00000000000E+00  0.53642892615E+03  0.53642892617E+03  0.50400001928E-02 0.  1.
       -1   -1    0    0    0  501  0.00000000000E+00  0.00000000000E+00 -0.36511134940E+03  0.36511134943E+03  0.50400001928E-02 0. -1.
    10030    2    1    2    0    0  0.00000000000E+00  0.00000000000E+00  0.17131757675E+03  0.90154027560E+03  0.88511307550E+03 0.  0.
        2    1    3    3  502    0 -0.32478708902E+03  0.29884288048E+03  0.52456739534E+02  0.44446083060E+03  0.25500000920E-02 0. -1.
       -2    1    3    3    0  502  0.32478708902E+03 -0.29884288048E+03  0.11886083722E+03  0.45707944500E+03  0.25500000920E-02 0.  1.
</event>
<event>
 5   0  0.8738044E-03  0.8889011E+03  0.7818609E-02  0.9439563E-01
        1   -1    0    0  501    0  0.00000000000E+00  0.00000000000E+00  0.99090333888E+03  0.99090333889E+03  0.50400001928E-02 0. -1.
       -1   -1    0    0    0  501  0.00000000000E+00  0.00000000000E+00 -0.19934970538E+03  0.19934970544E+03  0.50400001928E-02 0.  1.
    10030    2    1    2    0    0  0.00000000000E+00  0.00000000000E+00  0.79155363350E+03  0.11902530443E+04  0.88890109396E+03 0.  0.
        3    1    3    3  502    0 -0.15024131127E+03  0.31480413130E+02 -0.16272752034E+03  0.22370454644E+03  0.10100000352E+00 0.  1.
       -3    1    3    3    0  502  0.15024131127E+03 -0.31480413130E+02  0.95428115383E+03  0.96654849790E+03  0.10100000352E+00 0. -1.
</event>
<event>
 5   0  0.8612969E-03  0.8703887E+03  0.7818609E-02  0.9463373E-01
        1   -1    0    0  501    0  0.00000000000E+00  0.00000000000E+00  0.14902748896E+04  0.14902748896E+04  0.50400001928E-02 0.  1.
       -1   -1    0    0    0  501  0.00000000000E+00  0.00000000000E+00 -0.12708670943E+03  0.12708670953E+03  0.50400001928E-02 0. -1.
    10030    2    1    2    0    0  0.00000000000E+00  0.00000000000E+00  0.13631881802E+04  0.16173615991E+04  0.87038872224E+03 0.  0.
        4    1    3    3  502    0  0.32846104271E+03 -0.18055274438E+03  0.10925331947E+04  0.11550395424E+04  0.12699999809E+01 0.  1.
       -4    1    3    3    0  502 -0.32846104271E+03  0.18055274438E+03  0.27065498545E+03  0.46232205672E+03  0.12699999809E+01 0. -1.
</event>
<event>
 5   0  0.1483326E-02  0.9031372E+03  0.7818609E-02  0.9421668E-01
        2   -1    0    0  501    0  0.00000000000E+00  0.00000000000E+00  0.51192112395E+03  0.51192112396E+03  0.25500000920E-02 0. -1.
       -2   -1    0    0    0  501  0.00000000000E+00  0.00000000000E+00 -0.39833127257E+03  0.39833127258E+03  0.25500000920E-02 0.  1.
    10030    2    1    2    0    0  0.00000000000E+00  0.00000000000E+00  0.11358985138E+03  0.91025239653E+03  0.90313718286E+03 0.  0.
        1    1    3    3  502    0 -0.11110388012E+03 -0.41058485130E+03  0.20961467644E+03  0.47419648343E+03  0.50400001928E-02 0. -1.
       -1    1    3    3    0  502  0.11110388012E+03  0.41058485130E+03 -0.96024825062E+02  0.43605591310E+03  0.50400001928E-02 0.  1.
</event>
<event>
 5   0  0.8885324E-03  0.8746737E+03  0.7818609E-02  0.9457806E-01
       -1   -1    0    0    0  501  0.00000000000E+00  0.00000000000E+00  0.96791917045E+03  0.96791917046E+03  0.50400001928E-02 0.  1.
        1   -1    0    0  501    0  0.00000000000E+00  0.00000000000E+00 -0.19760279764E+03  0.19760279771E+03  0.50400001928E-02 0. -1.
    10030    2    1    2    0    0  0.00000000000E+00  0.00000000000E+00  0.77031637281E+03  0.11655219682E+04  0.87467373579E+03 0.  0.
        2    1    3    3  502    0  0.23218485988E+03 -0.19978575359E+03 -0.30792296257E+02  0.30785113612E+03  0.25500000920E-02 0. -1.
       -2    1    3    3    0  502 -0.23218485988E+03  0.19978575359E+03  0.80110866906E+03  0.85767083205E+03  0.25500000920E-02 0.  1.
</event>
<event>
 5   0  0.8738044E-03  0.9460992E+03  0.7818609E-02  0.9369722E-01
        1   -1    0    0  501    0  0.00000000000E+00  0.00000000000E+00  0.51603572503E+03  0.51603572505E+03  0.50400001928E-02 0. -1.
       -1   -1    0    0    0  501  0.00000000000E+00  0.00000000000E+00 -0.43364422058E+03  0.43364422061E+03  0.50400001928E-02 0.  1.
    10030    2    1    2    0    0  0.00000000000E+00  0.00000000000E+00  0.82391504451E+02  0.94967994566E+03  0.94609916984E+03 0.  0.
        3    1    3    3  502    0  0.11896806136E+03 -0.98061059810E+02  0.49010927881E+03  0.51378642104E+03  0.10100000352E+00 0. -1.
       -3    1    3    3    0  502 -0.11896806136E+03  0.98061059810E+02 -0.40771777436E+03  0.43589352461E+03  0.10100000352E+00 0.  1.
</event>
<event>
 5   0  0.8524692E-03  0.9196950E+03  0.7818609E-02  0.9401291E-01
        1   -1    0    0  501    0  0.00000000000E+00  0.00000000000E+00  0.42133496979E+03  0.42133496982E+03  0.50400001928E-02 0.  1.
       -1   -1    0    0    0  501  0.00000000000E+00  0.00000000000E+00 -0.50188026292E+03  0.50188026294E+03  0.50400001928E-02 0. -1.
    10030    2    1    2    0    0  0.00000000000E+00  0.00000000000E+00 -0.80545293126E+02  0.92321523277E+03  0.91969496126E+03 0.  0.
        5    1    3    3  502    0  0.23842526253E+03 -0.18018281187E+03  0.31052908980E+03  0.43100215443E+03  0.46999998093E+01 0.  1.
       -5    1    3    3    0  502 -0.23842526253E+03  0.18018281187E+03 -0.39107438293E+03  0.49221307834E+03  0.46999998093E+01 0. -1.
</event>
<event>
 5   0  0.1483326E-02  0.8997039E+03  0.7818609E-02  0.9425952E-01
       -2   -1    0    0    0  501  0.00000000000E+00  0.00000000000E+00  0.33830081093E+03  0.33830081094E+03  0.25500000920E-02 0.  1.
        2   -1    0    0  501    0  0.00000000000E+00  0.00000000000E+00 -0.59818585553E+03  0.59818585553E+03  0.25500000920E-02 0. -1.
    10030    2    1    2    0    0  0.00000000000E+00  0.00000000000E+00 -0.25988504460E+03  0.93648666647E+03  0.89970386243E+03 0.  0.
        1    1    3    3  502    0  0.17536456899E+03 -0.11636825984E+03 -0.54378028167E+03  0.58308772814E+03  0.50400001928E-02 0. -1.
       -1    1    3    3    0  502 -0.17536456899E+03  0.11636825984E+03  0.28389523707E+03  0.35339893833E+03  0.50400001928E-02 0.  1.
</event>
<event>
 5   0  0.5770125E-03  0.9075331E+03  0.7818609E-02  0.9416213E-01
       -3   -1    0    0    0  501  0.00000000000E+00  0.00000000000E+00  0.44472590744E+03  0.44472591891E+03  0.10100000352E+00 0. -1.
        3   -1    0    0  501    0  0.00000000000E+00  0.00000000000E+00 -0.46299094200E+03  0.46299095302E+03  0.10100000352E+00 0.  1.
    10030    2    1    2    0    0  0.00000000000E+00  0.00000000000E+00 -0.18265034561E+02  0.90771687193E+03  0.90753308926E+03 0.  0.
        4    1    3    3  502    0 -0.32013540365E+03  0.12708445600E+03  0.28633436059E+03  0.44791306588E+03  0.12699999809E+01 0. -1.
       -4    1    3    3    0  502  0.32013540365E+03 -0.12708445600E+03 -0.30459939515E+03  0.45980380605E+03  0.12699999809E+01 0.  1.
</event>
<event>
 5   0  0.8524692E-03  0.9112606E+03  0.7818609E-02  0.9411614E-01
       -1   -1    0    0    0  501  0.00000000000E+00  0.00000000000E+00  0.48787201092E+03  0.48787201094E+03  0.50400001928E-02 0.  1.
        1   -1    0    0  501    0  0.00000000000E+00  0.00000000000E+00 -0.42551930074E+03  0.42551930077E+03  0.50400001928E-02 0. -1.
    10030    2    1    2    0    0  0.00000000000E+00  0.00000000000E+00  0.62352710179E+02  0.91339131171E+03  0.91126057077E+03 0.  0.
        5    1    3    3  502    0  0.14417177284E+03 -0.20018534777E+03  0.41510878924E+03  0.48290482545E+03  0.46999998093E+01 0.  1.
       -5    1    3    3    0  502 -0.14417177284E+03  0.20018534777E+03 -0.35275607906E+03  0.43048648626E+03  0.46999998093E+01 0. -1.
</event>
<event>
 5   0  0.5770125E-03  0.8976639E+03  0.7818609E-02  0.9428506E-01
        3   -1    0    0  501    0  0.00000000000E+00  0.00000000000E+00  0.91062514192E+02  0.91062570203E+02  0.10100000352E+00 0.  1.
       -3   -1    0    0    0  501  0.00000000000E+00  0.00000000000E+00 -0.22122171811E+04  0.22122171834E+04  0.10100000352E+00 0. -1.
    10030    2    1    2    0    0  0.00000000000E+00  0.00000000000E+00 -0.21211546669E+04  0.23032797536E+04  0.89766391397E+03 0.  0.
        5    1    3    3  502    0  0.72015491926E+02 -0.89254376038E+02  0.52767717259E+02  0.12632931846E+03  0.46999998093E+01 0.  1.
       -5    1    3    3    0  502 -0.72015491926E+02  0.89254376038E+02 -0.21739223842E+04  0.21769504352E+04  0.46999998093E+01 0. -1.
</event>
<event>
 5   0  0.1535906E-02  0.8492674E+03  0.7818609E-02  0.9491321E-01
        2   -1    0    0  501    0  0.00000000000E+00  0.00000000000E+00  0.80740006223E+03  0.80740006224E+03  0.25500000920E-02 0. -1.
       -2   -1    0    0    0  501  0.00000000000E+00  0.00000000000E+00 -0.22332643000E+03  0.22332643001E+03  0.25500000920E-02 0.  1.
    10030    2    1    2    0    0  0.00000000000E+00  0.00000000000E+00  0.58407363224E+03  0.10307264923E+04  0.84926738661E+03 0.  0.
        2    1    3    3  502    0 -0.33152094523E+03  0.78518105743E+02  0.59965383232E+03  0.68967814862E+03  0.25500000920E-02 0. -1.
       -2    1    3    3    0  502  0.33152094523E+03 -0.78518105743E+02 -0.15580200084E+02  0.34104834364E+03  0.25500000920E-02 0.  1.
</event>
<event>
 5   0  0.8885324E-03  0.9306792E+03  0.7818609E-02  0.9388023E-01
       -1   -1    0    0    0  501  0.00000000000E+00  0.00000000000E+00  0.18053709189E+03  0.18053709196E+03  0.50400001928E-02 0. -1.
        1   -1    0    0  501    0  0.00000000000E+00  0.00000000000E+00 -0.11994264323E+04  0.11994264323E+04  0.50400001928E-02 0.  1.
    10030    2    1    2    0    0  0.00000000000E+00  0.00000000000E+00 -0.10188893404E+04  0.13799635243E+04  0.93067923602E+03 0.  0.
        2    1    3    3  502    0 -0.14472464155E+03 -0.20003179472E+03  0.75410966805E+02  0.25815645390E+03  0.25500000920E-02 0. -1.
       -2    1    3    3    0  502  0.14472464155E+03  0.20003179472E+03 -0.10943003072E+04  0.11218070704E+04  0.25500000920E-02 0.  1.
</event>
<event>
 5   0  0.1441195E-02  0.9023947E+03  0.7818609E-02  0.9422593E-01
        2   -1    0    0  501    0  0.00000000000E+00  0.00000000000E+00  0.14920098940E+04  0.14920098940E+04  0.25500000920E-02 0. -1.
       -2   -1    0    0    0  501  0.00000000000E+00  0.00000000000E+00 -0.13644616591E+03  0.13644616593E+03  0.25500000920E-02 0.  1.
    10030    2    1    2    0    0  0.00000000000E+00  0.00000000000E+00  0.13555637281E+04  0.16284560599E+04  0.90239465769E+03 0.  0.
        5    1    3    3  502    0 -0.14986375352E+03  0.16706569181E+03 -0.28519868164E+02  0.22628646198E+03  0.46999998093E+01 0.  1.
       -5    1    3    3    0  502  0.14986375352E+03 -0.16706569181E+03  0.13840835963E+04  0.14021695980E+04  0.46999998093E+01 0. -1.
</event>
<event>
 5   0  0.1454652E-02  0.8650317E+03  0.7818609E-02  0.9470381E-01
        2   -1    0    0  501    0  0.00000000000E+00  0.00000000000E+00  0.13951147822E+04  0.13951147822E+04  0.25500000920E-02 0. -1.
       -2   -1    0    0    0  501  0.00000000000E+00  0.00000000000E+00 -0.13408930907E+03  0.13408930909E+03  0.25500000920E-02 0.  1.
    10030    2    1    2    0    0  0.00000000000E+00  0.00000000000E+00  0.12610254732E+04  0.15292040913E+04  0.86503173869E+03 0.  0.
        4    1    3    3  502    0 -0.61760638906E+02  0.26810281223E+03  0.40546695832E+02  0.27809915837E+03  0.12699999809E+01 0.  1.
       -4    1    3    3    0  502  0.61760638906E+02 -0.26810281223E+03  0.12204787773E+04  0.12511049330E+04  0.12699999809E+01 0. -1.
</event>
<event>
 5   0  0.1454652E-02  0.8969820E+03  0.7818609E-02  0.9429362E-01
       -2   -1    0    0    0  501  0.00000000000E+00  0.00000000000E+00  0.18335800740E+03  0.18335800741E+03  0.25500000920E-02 0.  1.
        2   -1    0    0  501    0  0.00000000000E+00  0.00000000000E+00 -0.10970024389E+04  0.10970024389E+04  0.25500000920E-02 0. -1.
    10030    2    1    2    0    0  0.00000000000E+00  0.00000000000E+00 -0.91364443153E+03  0.12803604463E+04  0.89698200946E+03 0.  0.
        4    1    3    3  502    0  0.43891284563E+03 -0.55693417746E+02 -0.56167925458E+03  0.71500450402E+03  0.12699999809E+01 0. -1.
       -4    1    3    3    0  502 -0.43891284563E+03  0.55693417746E+02 -0.35196517695E+03  0.56535594233E+03  0.12699999809E+01 0.  1.
</event>
<event>
 5   0  0.8524692E-03  0.8775481E+03  0.7818609E-02  0.9454091E-01
       -1   -1    0    0    0  501  0.00000000000E+00  0.00000000000E+00  0.27258528619E+03  0.27258528623E+03  0.50400001928E-02 0. -1.
        1   -1    0    0  501    0  0.00000000000E+00  0.00000000000E+00 -0.70628407583E+03  0.70628407585E+03  0.50400001928E-02 0.  1.
    10030    2    1    2    0    0  0.00000000000E+00  0.00000000000E+00 -0.43369878965E+03  0.97886936208E+03  0.87754805446E+03 0.  0.
        5    1    3    3  502    0 -0.21652998614E+03  0.32898712140E+03 -0.11794047016E+01  0.39387973030E+03  0.46999998093E+01 0. -1.
       -5    1    3    3    0  502  0.21652998614E+03 -0.32898712140E+03 -0.43251938495E+03  0.58498963179E+03  0.46999998093E+01 0.  1.
</event>
<event>
 5   0  0.8524692E-03  0.9043357E+03  0.7818609E-02  0.9420178E-01
       -1   -1    0    0    0  501  0.00000000000E+00  0.00000000000E+00  0.95851529303E+03  0.95851529304E+03  0.50400001928E-02 0.  1.
        1   -1    0    0  501    0  0.00000000000E+00  0.00000000000E+00 -0.21330463107E+03  0.21330463113E+03  0.50400001928E-02 0. -1.
    10030    2    1    2    0    0  0.00000000000E+00  0.00000000000E+00  0.74521066196E+03  0.11718199242E+04  0.90433566998E+03 0.  0.
        5    1    3    3  502    0 -0.27641407942E+03  0.20898183943E+03  0.74895188220E+03  0.82524491175E+03  0.46999998093E+01 0.  1.
       -5    1    3    3    0  502  0.27641407942E+03 -0.20898183943E+03 -0.37412202451E+01  0.34657501243E+03  0.46999998093E+01 0. -1.
</event>
<event>
 5   0  0.8524692E-03  0.9270604E+03  0.7818609E-02  0.9392373E-01
        1   -1    0    0  501    0  0.00000000000E+00  0.00000000000E+00  0.38489018188E+03  0.38489018192E+03  0.50400001928E-02 0.  1.
       -1   -1    0    0    0  501  0.00000000000E+00  0.00000000000E+00 -0.55823774012E+03  0.55823774014E+03  0.50400001928E-02 0. -1.
    10030    2    1    2    0    0  0.00000000000E+00  0.00000000000E+00 -0.17334755823E+03  0.94312792205E+03  0.92706035479E+03 0.  0.
        5    1    3    3  502    0 -0.24332578332E+03  0.18069238790E+03 -0.44343819605E+03  0.53713750529E+03  0.46999998093E+01 0. -1.
       -5    1    3    3    0  502  0.24332578332E+03 -0.18069238790E+03  0.27009063782E+03  0.40599041677E+03  0.46999998093E+01 0.  1.
</event>
<event>
 5   0  0.1483326E-02  0.9811402E+03  0.7818609E-02  0.9329475E-01
       -2   -1    0    0    0  501  0.00000000000E+00  0.00000000000E+00  0.27107836908E+03  0.27107836909E+03  0.25500000920E-02 0.  1.
        2   -1    0    0  501    0  0.00000000000E+00  0.00000000000E+00 -0.88778389124E+03  0.88778389124E+03  0.25500000920E-02 0. -1.
    10030    2    1    2    0    0  0.00000000000E+00  0.00000000000E+00 -0.61670552216E+03  0.11588622603E+04  0.98114017213E+03 0.  0.
        1    1    3    3  502    0 -0.17563327994E+03  0.10032804956E+02 -0.84924615993E+03  0.86727547318E+03  0.50400001928E-02 0. -1.
       -1    1    3    3    0  502  0.17563327994E+03 -0.10032804956E+02  0.23254063778E+03  0.29158678715E+03  0.50400001928E-02 0.  1.
</event>
<event>
 5   0  0.1441195E-02  0.9039546E+03  0.7818609E-02  0.9420651E-01
        2   -1    0    0  501    0  0.00000000000E+00  0.00000000000E+00  0.32490344236E+03  0.32490344237E+03  0.25500000920E-02 0.  1.
       -2   -1    0    0    0  501  0.00000000000E+00  0.00000000000E+00 -0.62875136914E+03  0.62875136914E+03  0.25500000920E-02 0. -1.
    10030    2    1    2    0    0  0.00000000000E+00  0.00000000000E+00 -0.30384792678E+03  0.95365481151E+03  0.90395460998E+03 0.  0.
        5    1    3    3  502    0 -0.40459814664E+03  0.19670298619E+03 -0.19754098918E+03  0.49136163611E+03  0.46999998093E+01 0. -1.
       -5    1    3    3    0  502  0.40459814664E+03 -0.19670298619E+03 -0.10630693760E+03  0.46229317540E+03  0.46999998093E+01 0.  1.
</event>
<event>
 5   0  0.8738044E-03  0.1089276E+04  0.7818609E-02  0.9215707E-01
       -1   -1    0    0    0  501  0.00000000000E+00  0.00000000000E+00  0.36970228235E+03  0.36970228239E+03  0.50400001928E-02 0.  1.
        1   -1    0    0  501    0  0.00000000000E+00  0.00000000000E+00 -0.80235037853E+03  0.80235037855E+03  0.50400001928E-02 0. -1.
    10030    2    1    2    0    0  0.00000000000E+00  0.00000000000E+00 -0.43264809618E+03  0.11720526609E+04  0.10892763951E+04 0.  0.
        3    1    3    3  502    0 -0.20585672900E+03 -0.22181847293E+03  0.27091183744E+03  0.40616949870E+03  0.10100000352E+00 0.  1.
       -3    1    3    3    0  502  0.20585672900E+03  0.22181847293E+03 -0.70355993361E+03  0.76588316224E+03  0.10100000352E+00 0. -1.
</event>
<event>
 5   0  0.1454652E-02  0.9102380E+03  0.7818609E-02  0.9412873E-01
        2   -1    0    0  501    0  0.00000000000E+00  0.00000000000E+00  0.17250907558E+04  0.17250907558E+04  0.25500000920E-02 0.  1.
       -2   -1    0    0    0  501  0.00000000000E+00  0.00000000000E+00 -0.12007094856E+03  0.12007094858E+03  0.25500000920E-02 0. -1.
    10030    2    1    2    0    0  0.00000000000E+00  0.00000000000E+00  0.16050198072E+04  0.18451617043E+04  0.91023795442E+03 0.  0.
        4    1    3    3  502    0 -0.41559357037E+03  0.13251274482E+03  0.53934295929E+03  0.69366424436E+03  0.12699999809E+01 0. -1.
       -4    1    3    3    0  502  0.41559357037E+03 -0.13251274482E+03  0.10656768479E+04  0.11514974600E+04  0.12699999809E+01 0.  1.
</event>
<event>
 5   0  0.1483326E-02  0.9118877E+03  0.7818609E-02  0.9410842E-01
        2   -1    0    0  501    0  0.00000000000E+00  0.00000000000E+00  0.55315158064E+03  0.55315158065E+03  0.25500000920E-02 0. -1.
       -2   -1    0    0    0  501  0.00000000000E+00  0.00000000000E+00 -0.37581885573E+03  0.37581885574E+03  0.25500000920E-02 0.  1.
    10030    2    1    2    0    0  0.00000000000E+00  0.00000000000E+00  0.17733272491E+03  0.92897043638E+03  0.91188769942E+03 0.  0.
        1    1    3    3  502    0  0.68775149097E+01  0.34299846341E+03 -0.21727531303E+03  0.40608349855E+03  0.50400001928E-02 0.  1.
       -1    1    3    3    0  502 -0.68775149097E+01 -0.34299846341E+03  0.39460803795E+03  0.52288693783E+03  0.50400001928E-02 0. -1.
</event>
<event>
 5   0  0.5770125E-03  0.9087920E+03  0.7818609E-02  0.9414657E-01
       -3   -1    0    0    0  501  0.00000000000E+00  0.00000000000E+00  0.28271046292E+03  0.28271048096E+03  0.10100000352E+00 0.  1.
        3   -1    0    0  501    0  0.00000000000E+00  0.00000000000E+00 -0.73034331325E+03  0.73034332023E+03  0.10100000352E+00 0. -1.
    10030    2    1    2    0    0  0.00000000000E+00  0.00000000000E+00 -0.44763285033E+03  0.10130538012E+04  0.90879196488E+03 0.  0.
        5    1    3    3  502    0  0.33199863570E+03 -0.25490972111E+02  0.12081368196E+03  0.35424697531E+03  0.46999998093E+01 0.  1.
       -5    1    3    3    0  502 -0.33199863570E+03  0.25490972111E+02 -0.56844653229E+03  0.65880682589E+03  0.46999998093E+01 0. -1.
</event>
<event>
 5   0  0.8291252E-03  0.8490401E+03  0.7818609E-02  0.9491626E-01
        1   -1    0    0  501    0  0.00000000000E+00  0.00000000000E+00  0.21906707127E+03  0.21906707133E+03  0.50400001928E-02 0.  1.
       -1   -1    0    0    0  501  0.00000000000E+00  0.00000000000E+00 -0.82265806803E+03  0.82265806804E+03  0.50400001928E-02 0. -1.
    10030    2    1    2    0    0  0.00000000000E+00  0.00000000000E+00 -0.60359099676E+03  0.10417251394E+04  0.84904014901E+03 0.  0.
        1    1    3    3  502    0  0.27465177593E+03  0.27794982811E+03 -0.98227736168E+02  0.40291238892E+03  0.50400001928E-02 0.  1.
       -1    1    3    3    0  502 -0.27465177593E+03 -0.27794982811E+03 -0.50536326059E+03  0.63881275046E+03  0.50400001928E-02 0. -1.
</event>
<event>
 5   0  0.1440615E-02  0.9030122E+03  0.7818609E-02  0.9421824E-01
       -2   -1    0    0    0  501  0.00000000000E+00  0.00000000000E+00  0.25086621314E+03  0.25086621315E+03  0.25500000920E-02 0. -1.
        2   -1    0    0  501    0  0.00000000000E+00  0.00000000000E+00 -0.81261545944E+03  0.81261545944E+03  0.25500000920E-02 0.  1.
    10030    2    1    2    0    0  0.00000000000E+00  0.00000000000E+00 -0.56174924630E+03  0.10634816726E+04  0.90301221045E+03 0.  0.
        3    1    3    3  502    0 -0.14839373605E+02  0.45126092678E+03 -0.28212199405E+03  0.53239971899E+03  0.10100000352E+00 0.  1.
       -3    1    3    3    0  502  0.14839373605E+02 -0.45126092678E+03 -0.27962725225E+03  0.53108195361E+03  0.10100000352E+00 0. -1.
</event>
<event>
 5   0  0.8738044E-03  0.9074489E+03  0.7818609E-02  0.9416317E-01
        1   -1    0    0  501    0  0.00000000000E+00  0.00000000000E+00  0.10360010869E+04  0.10360010869E+04  0.50400001928E-02 0. -1.
       -1   -1    0    0    0  501  0.00000000000E+00  0.00000000000E+00 -0.19871204574E+03  0.19871204580E+03  0.50400001928E-02 0.  1.
    10030    2    1    2    0    0  0.00000000000E+00  0.00000000000E+00  0.83728904113E+03  0.12347131327E+04  0.90744894160E+03 0.  0.
        3    1    3    3  502    0 -0.21048224496E+03 -0.91167134262E+02 -0.11401104291E+03  0.25614985832E+03  0.10100000352E+00 0.  1.
       -3    1    3    3    0  502  0.21048224496E+03  0.91167134262E+02  0.95130008404E+03  0.97856327435E+03  0.10100000352E+00 0. -1.
</event>
<event>
 5   0  0.8524692E-03  0.8938269E+03  0.7818609E-02  0.9433331E-01
        1   -1    0    0  501    0  0.00000000000E+00  0.00000000000E+00  0.72889982223E+03  0.72889982224E+03  0.50400001928E-02 0. -1.
       -1   -1    0    0    0  501  0.00000000000E+00  0.00000000000E+00 -0.27401791800E+03  0.27401791805E+03  0.50400001928E-02 0.  1.
    10030    2    1    2    0    0  0.00000000000E+00  0.00000000000E+00  0.45488190422E+03  0.10029177403E+04  0.89382685516E+03 0.  0.
        5    1    3    3  502    0  0.48763783860E+02  0.40034058932E+03  0.11438378953E+02  0.40348905882E+03  0.46999998093E+01 0.  1.
       -5    1    3    3    0  502 -0.48763783860E+02 -0.40034058932E+03  0.44344352527E+03  0.59942868148E+03  0.46999998093E+01 0. -1.
</event>
<event>
 5   0  0.5770125E-03  0.8953453E+03  0.7818609E-02  0.9431419E-01
       -3   -1    0    0    0  501  0.00000000000E+00  0.00000000000E+00  0.52674652352E+03  0.52674653320E+03  0.10100000352E+00 0.  1.
        3   -1    0    0  501    0  0.00000000000E+00  0.00000000000E+00 -0.38046908790E+03  0.38046910130E+03  0.10100000352E+00 0. -1.
    10030    2    1    2    0    0  0.00000000000E+00  0.00000000000E+00  0.14627743562E+03  0.90721563451E+03  0.89534525147E+03 0.  0.
        3    1    3    3  502    0 -0.23299677343E+03 -0.83560758184E+02 -0.30482259880E+03  0.39266617333E+03  0.10100000352E+00 0. -1.
       -3    1    3    3    0  502  0.23299677343E+03  0.83560758184E+02  0.45110003442E+03  0.51454946118E+03  0.10100000352E+00 0.  1.
</event>
<event>
 5   0  0.8291252E-03  0.8950081E+03  0.7818609E-02  0.9431843E-01
       -1   -1    0    0    0  501  0.00000000000E+00  0.00000000000E+00  0.19090514831E+03  0.19090514838E+03  0.50400001928E-02 0.  1.
        1   -1    0    0  501    0  0.00000000000E+00  0.00000000000E+00 -0.10490018849E+04  0.10490018849E+04  0.50400001928E-02 0. -1.
    10030    2    1    2    0    0  0.00000000000E+00  0.00000000000E+00 -0.85809673657E+03  0.12399070333E+04  0.89500806803E+03 0.  0.
        1    1    3    3  502    0  0.30158285300E+03  0.21144277041E+03 -0.76939404589E+02  0.37627109162E+03  0.50400001928E-02 0.  1.
       -1    1    3    3    0  502 -0.30158285300E+03 -0.21144277041E+03 -0.78115733199E+03  0.86363594166E+03  0.50400001928E-02 0. -1.
</event>
<event>
 5   0  0.8291252E-03  0.8987549E+03  0.7818609E-02  0.9427139E-01
        1   -1    0    0  501    0  0.00000000000E+00  0.00000000000E+00  0.29854196685E+03  0.29854196689E+03  0.50400001928E-02 0.  1.
       -1   -1    0    0    0  501  0.00000000000E+00  0.00000000000E+00 -0.67642114686E+03  0.67642114688E+03  0.50400001928E-02 0. -1.
    10030    2    1    2    0    0  0.00000000000E+00  0.00000000000E+00 -0.37787918001E+03  0.97496311377E+03  0.89875491572E+03 0.  0.
        1    1    3    3  502    0  0.21701749452E+03  0.38729211250E+03 -0.26447364945E+03  0.51675727824E+03  0.50400001928E-02 0. -1.
       -1    1    3    3    0  502 -0.21701749452E+03 -0.38729211250E+03 -0.11340553056E+03  0.45820583554E+03  0.50400001928E-02 0.  1.
</event>
<event>
 5   0  0.5770125E-03  0.8909487E+03  0.7818609E-02  0.9436967E-01
        3   -1    0    0  501    0  0.00000000000E+00  0.00000000000E+00  0.33300258798E+03  0.33300260330E+03  0.10100000352E+00 0.  1.
       -3   -1    0    0    0  501  0.00000000000E+00  0.00000000000E+00 -0.59593342400E+03  0.59593343256E+03  0.10100000352E+00 0. -1.
    10030    2    1    2    0    0  0.00000000000E+00  0.00000000000E+00 -0.26293083602E+03  0.92893603586E+03  0.89094867091E+03 0.  0.
        3    1    3    3  502    0 -0.43720687583E+03  0.72718194677E+02 -0.84725672611E+02  0.45123855986E+03  0.10100000352E+00 0.  1.
       -3    1    3    3    0  502  0.43720687583E+03 -0.72718194677E+02 -0.17820516340E+03  0.47769747600E+03  0.10100000352E+00 0. -1.
</event>
<event>
 5   0  0.1440615E-02  0.8867204E+03  0.7818609E-02  0.9442335E-01
        2   -1    0    0  501    0  0.00000000000E+00  0.00000000000E+00  0.54213236994E+03  0.54213236995E+03  0.25500000920E-02 0.  1.
       -2   -1    0    0    0  501  0.00000000000E+00  0.00000000000E+00 -0.36258354815E+03  0.36258354815E+03  0.25500000920E-02 0. -1.
    10030    2    1    2    0    0  0.00000000000E+00  0.00000000000E+00  0.17954882180E+03  0.90471591810E+03  0.88672042554E+03 0.  0.
        3    1    3    3  502    0  0.10929390043E+03 -0.16249450398E+03  0.49561394715E+03  0.53290038029E+03  0.10100000352E+00 0.  1.
       -3    1    3    3    0  502 -0.10929390043E+03  0.16249450398E+03 -0.31606512536E+03  0.37181553782E+03  0.10100000352E+00 0. -1.
</event>
<event>
 5   0  0.8291252E-03  0.9043045E+03  0.7818609E-02  0.9420216E-01
       -1   -1    0    0    0  501  0.00000000000E+00  0.00000000000E+00  0.18125340481E+03  0.18125340488E+03  0.50400001928E-02 0. -1.
        1   -1    0    0  501    0  0.00000000000E+00  0.00000000000E+00 -0.11279328772E+04  0.11279328772E+04  0.50400001928E-02 0.  1.
    10030    2    1    2    0    0  0.00000000000E+00  0.00000000000E+00 -0.94667947242E+03  0.13091862821E+04  0.90430453818E+03 0.  0.
        1    1    3    3  502    0  0.20748045371E+03  0.26435400894E+03 -0.91128737072E+03  0.97127537432E+03  0.50400001928E-02 0.  1.
       -1    1    3    3    0  502 -0.20748045371E+03 -0.26435400894E+03 -0.35392101705E+02  0.33791090779E+03  0.50400001928E-02 0. -1.
</event>
<event>
 5   0  0.8885324E-03  0.9107577E+03  0.7818609E-02  0.9412233E-01
       -1   -1    0    0    0  501  0.00000000000E+00  0.00000000000E+00  0.18354364552E+04  0.18354364552E+04  0.50400001928E-02 0.  1.
        1   -1    0    0  501    0  0.00000000000E+00  0.00000000000E+00 -0.11298123678E+03  0.11298123689E+03  0.50400001928E-02 0. -1.
    10030    2    1    2    0    0  0.00000000000E+00  0.00000000000E+00  0.17224552184E+04  0.19484176921E+04  0.91075766447E+03 0.  0.
        2    1    3    3  502    0 -0.90310193235E+02 -0.35839849479E+03  0.29212987689E+03  0.47111068449E+03  0.25500000920E-02 0. -1.
       -2    1    3    3    0  502  0.90310193235E+02  0.35839849479E+03  0.14303253415E+04  0.14773070076E+04  0.25500000920E-02 0.  1.
</event>
<event>
 5   0  0.8738044E-03  0.8946781E+03  0.7818609E-02  0.9432259E-01
        1   -1    0    0  501    0  0.00000000000E+00  0.00000000000E+00  0.53828198887E+03  0.53828198890E+03  0.50400001928E-02 0. -1.
       -1   -1    0    0    0  501  0.00000000000E+00  0.00000000000E+00 -0.37176097342E+03  0.37176097345E+03  0.50400001928E-02 0.  1.
    10030    2    1    2    0    0  0.00000000000E+00  0.00000000000E+00  0.16652101545E+03  0.91004296235E+03  0.89467812353E+03 0.  0.
        3    1    3    3  502    0  0.27475899278E+02  0.16149704759E+03  0.50667360713E+03  0.53249824017E+03  0.10100000352E+00 0. -1.
       -3    1    3    3    0  502 -0.27475899278E+02 -0.16149704759E+03 -0.34015259167E+03  0.37754472218E+03  0.10100000352E+00 0.  1.
</event>
<event>
 5   0  0.1483326E-02  0.8661745E+03  0.7818609E-02  0.9468882E-01
        2   -1    0    0  501    0  0.00000000000E+00  0.00000000000E+00  0.17103813917E+04  0.17103813917E+04  0.25500000920E-02 0.  1.
       -2   -1    0    0    0  501  0.00000000000E+00  0.00000000000E+00 -0.10966241786E+03  0.10966241789E+03  0.25500000920E-02 0. -1.
    10030    2    1    2    0    0  0.00000000000E+00  0.00000000000E+00  0.16007189739E+04  0.18200438096E+04  0.86617448339E+03 0.  0.
        1    1    3    3  502    0  0.29428247922E+03  0.62705852048E+02  0.14582840969E+03  0.33436525920E+03  0.50400001928E-02 0. -1.
       -1    1    3    3    0  502 -0.29428247922E+03 -0.62705852048E+02  0.14548905642E+04  0.14856785504E+04  0.50400001928E-02 0.  1.
</event>
<event>
 5   0  0.1440615E-02  0.8982595E+03  0.7818609E-02  0.9427760E-01
        2   -1    0    0  501    0  0.00000000000E+00  0.00000000000E+00  0.19480903056E+04  0.19480903056E+04  0.25500000920E-02 0. -1.
       -2   -1    0    0    0  501  0.00000000000E+00  0.00000000000E+00 -0.10354629572E+03  0.10354629575E+03  0.25500000920E-02 0.  1.
    10030    2    1    2    0    0  0.00000000000E+00  0.00000000000E+00  0.18445440099E+04  0.20516366014E+04  0.89825950574E+03 0.  0.
        3    1    3    3  502    0 -0.32017733350E+02  0.21051746229E+03  0.18254679577E+04  0.18378454810E+04  0.10100000352E+00 0. -1.
       -3    1    3    3    0  502  0.32017733350E+02 -0.21051746229E+03  0.19076052165E+02  0.21379112036E+03  0.10100000352E+00 0.  1.
</event>
<event>
 5   0  0.8612969E-03  0.8936448E+03  0.7818609E-02  0.9433561E-01
        1   -1    0    0  501    0  0.00000000000E+00  0.00000000000E+00  0.15160598499E+04  0.15160598499E+04  0.50400001928E-02 0.  1.
       -1   -1    0    0    0  501  0.00000000000E+00  0.00000000000E+00 -0.13169021893E+03  0.13169021903E+03  0.50400001928E-02 0. -1.
    10030    2    1    2    0    0  0.00000000000E+00  0.00000000000E+00  0.13843696310E+04  0.16477500689E+04  0.89364479216E+03 0.  0.
        4    1    3    3  502    0 -0.35470953988E+03  0.15190251686E+03  0.11075858494E+04  0.11728773418E+04  0.12699999809E+01 0.  1.
       -4    1    3    3    0  502  0.35470953988E+03 -0.15190251686E+03  0.27678378158E+03  0.47487272711E+03  0.12699999809E+01 0. -1.
</event>
<event>
 5   0  0.8885324E-03  0.8594890E+03  0.7818609E-02  0.9477689E-01
        1   -1    0    0  501    0  0.00000000000E+00  0.00000000000E+00  0.19894618336E+04  0.19894618336E+04  0.50400001928E-02 0. -1.
       -1   -1    0    0    0  501  0.00000000000E+00  0.00000000000E+00 -0.92829296872E+02  0.92829297009E+02  0.50400001928E-02 0.  1.
    10030    2    1    2    0    0  0.00000000000E+00  0.00000000000E+00  0.18966325367E+04  0.20822911306E+04  0.85948901870E+03 0.  0.
        2    1    3    3  502    0  0.34488389143E+02 -0.12857498415E+03  0.19382508886E+04  0.19428168937E+04  0.25500000920E-02 0. -1.
       -2    1    3    3    0  502 -0.34488389143E+02  0.12857498415E+03 -0.41618351847E+02  0.13947423688E+03  0.25500000920E-02 0.  1.
</event>
<event>
 5   0  0.8612969E-03  0.8801231E+03  0.7818609E-02  0.9450775E-01
        1   -1    0    0  501    0  0.00000000000E+00  0.00000000000E+00  0.48578865922E+03  0.48578865924E+03  0.50400001928E-02 0. -1.
       -1   -1    0    0    0  501  0.00000000000E+00  0.00000000000E+00 -0.39863867519E+03  0.39863867522E+03  0.50400001928E-02 0.  1.
    10030    2    1    2    0    0  0.00000000000E+00  0.00000000000E+00  0.87149984023E+02  0.88442733447E+03  0.88012305403E+03 0.  0.
        4    1    3    3  502    0  0.35460731475E+03 -0.25584853817E+03  0.93291310616E+02  0.44711262976E+03  0.12699999809E+01 0.  1.
       -4    1    3    3    0  502 -0.35460731475E+03  0.25584853817E+03 -0.61413265929E+01  0.43731470470E+03  0.12699999809E+01 0. -1.
</event>
<event>
 5   0  0.8291252E-03  0.9008693E+03  0.7818609E-02  0.9424495E-01
       -1   -1    0    0    0  501  0.00000000000E+00  0.00000000000E+00  0.46841530286E+03  0.46841530289E+03  0.50400001928E-02 0.  1.
        1   -1    0    0  501    0  0.00000000000E+00  0.00000000000E+00 -0.43314421238E+03  0.43314421241E+03  0.50400001928E-02 0. -1.
    10030    2    1    2    0    0  0.00000000000E+00  0.00000000000E+00  0.35271090485E+02  0.90155951530E+03  0.90086930784E+03 0.  0.
        1    1    3    3  502    0 -0.10309185740E+03 -0.36633276214E+03  0.25878437843E+03  0.46021405696E+03  0.50400001928E-02 0.  1.
       -1    1    3    3    0  502  0.10309185740E+03  0.36633276214E+03 -0.22351328795E+03  0.44134545834E+03  0.50400001928E-02 0. -1.
</event>
<event>
 5   0  0.8524692E-03  0.9259561E+03  0.7818609E-02  0.9393704E-01
        1   -1    0    0  501    0  0.00000000000E+00  0.00000000000E+00  0.99239199727E+03  0.99239199728E+03  0.50400001928E-02 0.  1.
       -1   -1    0    0    0  501  0.00000000000E+00  0.00000000000E+00 -0.21599196395E+03  0.21599196401E+03  0.50400001928E-02 0. -1.
    10030    2    1    2    0    0  0.00000000000E+00  0.00000000000E+00  0.77640003333E+03  0.12083839613E+04  0.92595614699E+03 0.  0.
        5    1    3    3  502    0  0.15118323928E+03 -0.10949642582E+03  0.94107061163E+03  0.95941744052E+03  0.46999998093E+01 0.  1.
       -5    1    3    3    0  502 -0.15118323928E+03  0.10949642582E+03 -0.16467057831E+03  0.24896652077E+03  0.46999998093E+01 0. -1.
</event>
<event>
 5   0  0.8612969E-03  0.9070216E+03  0.7818609E-02  0.9416846E-01
        1   -1    0    0  501    0  0.00000000000E+00  0.00000000000E+00  0.19345852439E+03  0.19345852446E+03  0.50400001928E-02 0. -1.
       -1   -1    0    0    0  501  0.00000000000E+00  0.00000000000E+00 -0.10631324182E+04  0.10631324183E+04  0.50400001928E-02 0.  1.
    10030    2    1    2    0    0  0.00000000000E+00  0.00000000000E+00 -0.86967389385E+03  0.12565909427E+04  0.90702156296E+03 0.  0.
        4    1    3    3  502    0  0.78506359390E+02  0.12379116800E+03  0.15973030276E+03  0.21680148584E+03  0.12699999809E+01 0. -1.
       -4    1    3    3    0  502 -0.78506359390E+02 -0.12379116800E+03 -0.10294041966E+04  0.10397894569E+04  0.12699999809E+01 0.  1.
</event>
<event>
 5   0  0.1454652E-02  0.9108233E+03  0.7818609E-02  0.9412152E-01
        2   -1    0    0  501    0  0.00000000000E+00  0.00000000000E+00  0.25946221769E+03  0.25946221770E+03  0.25500000920E-02 0.  1.
       -2   -1    0    0    0  501  0.00000000000E+00  0.00000000000E+00 -0.79934476560E+03  0.79934476560E+03  0.25500000920E-02 0. -1.
    10030    2    1    2    0    0  0.00000000000E+00  0.00000000000E+00 -0.53988254792E+03  0.10588069833E+04  0.91082328821E+03 0.  0.
        4    1    3    3  502    0 -0.36099091661E+02 -0.26981804539E+03 -0.69435235827E+03  0.74580944777E+03  0.12699999809E+01 0. -1.
       -4    1    3    3    0  502  0.36099091661E+02  0.26981804539E+03  0.15446981036E+03  0.31299753554E+03  0.12699999809E+01 0.  1.
</event>
<event>
 5   0  0.5770125E-03  0.8975011E+03  0.7818609E-02  0.9428711E-01
        3   -1    0    0  501    0  0.00000000000E+00  0.00000000000E+00  0.37249306334E+03  0.37249307703E+03  0.10100000352E+00 0.  1.
       -3   -1    0    0    0  501  0.00000000000E+00  0.00000000000E+00 -0.54061961370E+03  0.54061962314E+03  0.10100000352E+00 0. -1.
    10030    2    1    2    0    0  0.00000000000E+00  0.00000000000E+00 -0.16812655037E+03  0.91311270016E+03  0.89750112327E+03 0.  0.
        1    1    3    3  502    0  0.17325758753E+03  0.20383452164E+03  0.28249587429E+03  0.38906377738E+03  0.50400001928E-02 0.  1.
       -1    1    3    3    0  502 -0.17325758753E+03 -0.20383452164E+03 -0.45062242465E+03  0.52404892279E+03  0.50400001928E-02 0. -1.
</event>
<event>
 5   0  0.1454652E-02  0.9213604E+03  0.7818609E-02  0.9399267E-01
       -2   -1    0    0    0  501  0.00000000000E+00  0.00000000000E+00  0.14490111310E+03  0.14490111312E+03  0.25500000920E-02 0.  1.
        2   -1    0    0  501    0  0.00000000000E+00  0.00000000000E+00 -0.14646280293E+04  0.14646280293E+04  0.25500000920E-02 0. -1.
    10030    2    1    2    0    0  0.00000000000E+00  0.00000000000E+00 -0.13197269162E+04  0.16095291424E+04  0.92136036757E+03 0.  0.
        4    1    3    3  502    0 -0.28889200411E+03 -0.29131543118E+03 -0.29384056710E+03  0.50464558083E+03  0.12699999809E+01 0. -1.
       -4    1    3    3    0  502  0.28889200411E+03  0.29131543118E+03 -0.10258863491E+04  0.11048835616E+04  0.12699999809E+01 0.  1.
</event>
<event>
 5   0  0.8291252E-03  0.7821696E+03  0.7818609E-02  0.9586191E-01
       -1   -1    0    0    0  501  0.00000000000E+00  0.00000000000E+00  0.38885289328E+03  0.38885289332E+03  0.50400001928E-02 0.  1.
        1   -1    0    0  501    0  0.00000000000E+00  0.00000000000E+00 -0.39332947438E+03  0.39332947441E+03  0.50400001928E-02 0. -1.
    10030    2    1    2    0    0  0.00000000000E+00  0.00000000000E+00 -0.44765810920E+01  0.78218236772E+03  0.78216955745E+03 0.  0.
        1    1    3    3  502    0 -0.15281679348E+03  0.12281096206E+03  0.33616317267E+03  0.38915444679E+03  0.50400001928E-02 0.  1.
       -1    1    3    3    0  502  0.15281679348E+03 -0.12281096206E+03 -0.34063975376E+03  0.39302792094E+03  0.50400001928E-02 0. -1.
</event>
<event>
 5   0  0.8612969E-03  0.8902585E+03  0.7818609E-02  0.9437841E-01
       -1   -1    0    0    0  501  0.00000000000E+00  0.00000000000E+00  0.24569272709E+03  0.24569272715E+03  0.50400001928E-02 0.  1.
        1   -1    0    0  501    0  0.00000000000E+00  0.00000000000E+00 -0.80645473545E+03  0.80645473547E+03  0.50400001928E-02 0. -1.
    10030    2    1    2    0    0  0.00000000000E+00  0.00000000000E+00 -0.56076200836E+03  0.10521474626E+04  0.89025853159E+03 0.  0.
        4    1    3    3  502    0 -0.42600820250E+03  0.78055132126E+02 -0.15891599398E+03  0.46133664313E+03  0.12699999809E+01 0.  1.
       -4    1    3    3    0  502  0.42600820250E+03 -0.78055132126E+02 -0.40184601438E+03  0.59081081949E+03  0.12699999809E+01 0. -1.
</event>
<event>
 5   0  0.1454652E-02  0.9076168E+03  0.7818609E-02  0.9416110E-01
        2   -1    0    0  501    0  0.00000000000E+00  0.00000000000E+00  0.36981554441E+03  0.36981554441E+03  0.25500000920E-02 0.  1.
       -2   -1    0    0    0  501  0.00000000000E+00  0.00000000000E+00 -0.55687779937E+03  0.55687779938E+03  0.25500000920E-02 0. -1.
    10030    2    1    2    0    0  0.00000000000E+00  0.00000000000E+00 -0.18706225497E+03  0.92669334379E+03  0.90761680581E+03 0.  0.
        4    1    3    3  502    0  0.27421882353E+03  0.17692031219E+03 -0.41550611730E+03  0.52834052131E+03  0.12699999809E+01 0. -1.
       -4    1    3    3    0  502 -0.27421882353E+03 -0.17692031219E+03  0.22844386233E+03  0.39835282248E+03  0.12699999809E+01 0.  1.
</event>
<event>
 5   0  0.1454652E-02  0.8985469E+03  0.7818609E-02  0.9427400E-01
       -2   -1    0    0    0  501  0.00000000000E+00  0.00000000000E+00  0.38848268293E+03  0.38848268294E+03  0.25500000920E-02 0. -1.
        2   -1    0    0  501    0  0.00000000000E+00  0.00000000000E+00 -0.51957685686E+03  0.51957685687E+03  0.25500000920E-02 0.  1.
    10030    2    1    2    0    0  0.00000000000E+00  0.00000000000E+00 -0.13109417393E+03  0.90805953981E+03  0.89854685209E+03 0.  0.
        4    1    3    3  502    0 -0.29359045574E+02  0.35124789592E+03 -0.34707841799E+03  0.49467370971E+03  0.12699999809E+01 0.  1.
       -4    1    3    3    0  502  0.29359045574E+02 -0.35124789592E+03  0.21598424405E+03  0.41338583010E+03  0.12699999809E+01 0. -1.
</event>
<event>
 5   0  0.1441195E-02  0.9007400E+03  0.7818609E-02  0.9424657E-01
       -2   -1    0    0    0  501  0.00000000000E+00  0.00000000000E+00  0.13724512971E+03  0.13724512973E+03  0.25500000920E-02 0. -1.
        2   -1    0    0  501    0  0.00000000000E+00  0.00000000000E+00 -0.14778896448E+04  0.14778896448E+04  0.25500000920E-02 0.  1.
    10030    2    1    2    0    0  0.00000000000E+00  0.00000000000E+00 -0.13406445151E+04  0.16151347745E+04  0.90074004243E+03 0.  0.
        5    1    3    3  502    0 -0.25531213021E+03  0.14368537980E+03 -0.12836145520E+04  0.13166313761E+04  0.46999998093E+01 0.  1.
       -5    1    3    3    0  502  0.25531213021E+03 -0.14368537980E+03 -0.57029963013E+02  0.29850339844E+03  0.46999998093E+01 0. -1.
</event>
<event>
 5   0  0.1483326E-02  0.8908093E+03  0.7818609E-02  0.9437144E-01
       -2   -1    0    0    0  501  0.00000000000E+00  0.00000000000E+00  0.80028398439E+03  0.80028398439E+03  0.25500000920E-02 0.  1.
        2   -1    0    0  501    0  0.00000000000E+00  0.00000000000E+00 -0.24789362659E+03  0.24789362660E+03  0.25500000920E-02 0. -1.
    10030    2    1    2    0    0  0.00000000000E+00  0.00000000000E+00  0.55239035780E+03  0.10481776110E+04  0.89080929316E+03 0.  0.
        1    1    3    3  502    0 -0.15654855749E+03  0.13753802011E+02 -0.21418837731E+03  0.26565631730E+03  0.50400001928E-02 0. -1.
       -1    1    3    3    0  502  0.15654855749E+03 -0.13753802011E+02  0.76657873511E+03  0.78252129369E+03  0.50400001928E-02 0.  1.
</event>
<event>
 5   0  0.8524692E-03  0.8752281E+03  0.7818609E-02  0.9457088E-01
        1   -1    0    0  501    0  0.00000000000E+00  0.00000000000E+00  0.12147375719E+04  0.12147375720E+04  0.50400001928E-02 0.  1.
       -1   -1    0    0    0  501  0.00000000000E+00  0.00000000000E+00 -0.15765220774E+03  0.15765220782E+03  0.50400001928E-02 0. -1.
    10030    2    1    2    0    0  0.00000000000E+00  0.00000000000E+00  0.10570853642E+04  0.13723897798E+04  0.87522810764E+03 0.  0.
        5    1    3    3  502    0  0.54080804031E+02  0.38955399957E+03  0.22771281871E+03  0.45448021932E+03  0.46999998093E+01 0. -1.
       -5    1    3    3    0  502 -0.54080804031E+02 -0.38955399957E+03  0.82937254550E+03  0.91790956046E+03  0.46999998093E+01 0.  1.
</event>
<event>
 5   0  0.1441195E-02  0.8700898E+03  0.7818609E-02  0.9463763E-01
        2   -1    0    0  501    0  0.00000000000E+00  0.00000000000E+00  0.96877847142E+03  0.96877847143E+03  0.25500000920E-02 0. -1.
       -2   -1    0    0    0  501  0.00000000000E+00  0.00000000000E+00 -0.19536360687E+03  0.19536360689E+03  0.25500000920E-02 0.  1.
    10030    2    1    2    0    0  0.00000000000E+00  0.00000000000E+00  0.77341486455E+03  0.11641420783E+04  0.87008978030E+03 0.  0.
        5    1    3    3  502    0  0.13453636268E+03 -0.32789191880E+03  0.49211249618E+02  0.35785050005E+03  0.46999998093E+01 0.  1.
       -5    1    3    3    0  502 -0.13453636268E+03  0.32789191880E+03  0.72420361493E+03  0.80629157826E+03  0.46999998093E+01 0. -1.
</event>
<event>
 5   0  0.5770125E-03  0.9011628E+03  0.7818609E-02  0.9424129E-01
        4   -1    0    0  501    0  0.00000000000E+00  0.00000000000E+00  0.14072378631E+04  0.14072384362E+04  0.12699999809E+01 0. -1.
       -4   -1    0    0    0  501  0.00000000000E+00  0.00000000000E+00 -0.14426758240E+03  0.14427317225E+03  0.12699999809E+01 0.  1.
    10030    2    1    2    0    0  0.00000000000E+00  0.00000000000E+00  0.12629702807E+04  0.15515116084E+04  0.90116277172E+03 0.  0.
        3    1    3    3  502    0  0.99286860459E+01  0.57687712814E+02 -0.13769653084E+03  0.14962217691E+03  0.10100000352E+00 0.  1.
       -3    1    3    3    0  502 -0.99286860459E+01 -0.57687712814E+02  0.14006668116E+04  0.14018894315E+04  0.10100000352E+00 0. -1.
</event>
<event>
 5   0  0.1441195E-02  0.9209841E+03  0.7818609E-02  0.9399724E-01
        2   -1    0    0  501    0  0.00000000000E+00  0.00000000000E+00  0.35659634442E+03  0.35659634442E+03  0.25500000920E-02 0.  1.
       -2   -1    0    0    0  501  0.00000000000E+00  0.00000000000E+00 -0.59465815999E+03  0.59465815999E+03  0.25500000920E-02 0. -1.
    10030    2    1    2    0    0  0.00000000000E+00  0.00000000000E+00 -0.23806181557E+03  0.95125450442E+03  0.92098409549E+03 0.  0.
        5    1    3    3  502    0 -0.19965708551E+03 -0.37822491665E+03  0.57204845091E+02  0.43152233275E+03  0.46999998093E+01 0. -1.
       -5    1    3    3    0  502  0.19965708551E+03  0.37822491665E+03 -0.29526666066E+03  0.51973217166E+03  0.46999998093E+01 0.  1.
</event>
<event>
 5   0  0.8738044E-03  0.9121167E+03  0.7818609E-02  0.9410560E-01
        1   -1    0    0  501    0  0.00000000000E+00  0.00000000000E+00  0.16175957731E+04  0.16175957731E+04  0.50400001928E-02 0. -1.
       -1   -1    0    0    0  501  0.00000000000E+00  0.00000000000E+00 -0.12857924181E+03  0.12857924191E+03  0.50400001928E-02 0.  1.
    10030    2    1    2    0    0  0.00000000000E+00  0.00000000000E+00  0.14890165313E+04  0.17461750150E+04  0.91211674286E+03 0.  0.
        3    1    3    3  502    0 -0.12034364554E+03 -0.34255822759E+03  0.21618197459E+03  0.42256761429E+03  0.10100000352E+00 0.  1.
       -3    1    3    3    0  502  0.12034364554E+03  0.34255822759E+03  0.12728345567E+04  0.13236074007E+04  0.10100000352E+00 0. -1.
</event>
<event>
 5   0  0.8612969E-03  0.8931070E+03  0.7818609E-02  0.9434239E-01
       -1   -1    0    0    0  501  0.00000000000E+00  0.00000000000E+00  0.18498502057E+03  0.18498502064E+03  0.50400001928E-02 0.  1.
        1   -1    0    0  501    0  0.00000000000E+00  0.00000000000E+00 -0.10779793583E+04  0.10779793583E+04  0.50400001928E-02 0. -1.
    10030    2    1    2    0    0  0.00000000000E+00  0.00000000000E+00 -0.89299433773E+03  0.12629643790E+04  0.89310701223E+03 0.  0.
        4    1    3    3  502    0  0.14962725886E+03 -0.21016558474E+03 -0.96192664403E+03  0.99592287402E+03  0.12699999809E+01 0. -1.
       -4    1    3    3    0  502 -0.14962725886E+03  0.21016558474E+03  0.68932306301E+02  0.26704150493E+03  0.12699999809E+01 0.  1.
</event>
<event>
 5   0  0.8738044E-03  0.8862820E+03  0.7818609E-02  0.9442894E-01
       -1   -1    0    0    0  501  0.00000000000E+00  0.00000000000E+00  0.44848782129E+03  0.44848782132E+03  0.50400001928E-02 0. -1.
        1   -1    0    0  501    0  0.00000000000E+00  0.00000000000E+00 -0.43785795053E+03  0.43785795056E+03  0.50400001928E-02 0.  1.
    10030    2    1    2    0    0  0.00000000000E+00  0.00000000000E+00  0.10629870761E+02  0.88634577187E+03  0.88628202800E+03 0.  0.
        3    1    3    3  502    0  0.33869208189E+03  0.27810823222E+03  0.71026836848E+02  0.44396096328E+03  0.10100000352E+00 0. -1.
       -3    1    3    3    0  502 -0.33869208189E+03 -0.27810823222E+03 -0.60396966087E+02  0.44238480859E+03  0.10100000352E+00 0.  1.
</event>
<event>
 5   0  0.8738044E-03  0.9183122E+03  0.7818609E-02  0.9402975E-01
       -1   -1    0    0    0  501  0.00000000000E+00  0.00000000000E+00  0.26596530815E+03  0.26596530820E+03  0.50400001928E-02 0.  1.
        1   -1    0    0  501    0  0.00000000000E+00  0.00000000000E+00 -0.79267610532E+03  0.79267610533E+03  0.50400001928E-02 0. -1.
    10030    2    1    2    0    0  0.00000000000E+00  0.00000000000E+00 -0.52671079717E+03  0.10586414135E+04  0.91831224460E+03 0.  0.
        3    1    3    3  502    0  0.10494676699E+03 -0.22016375000E+03 -0.71182511469E+03  0.75244993509E+03  0.10100000352E+00 0. -1.
       -3    1    3    3    0  502 -0.10494676699E+03  0.22016375000E+03  0.18511431752E+03  0.30619147844E+03  0.10100000352E+00 0.  1.
</event>
<event>
 5   0  0.1535906E-02  0.9041108E+03  0.7818609E-02  0.9420457E-01
       -2   -1    0    0    0  501  0.00000000000E+00  0.00000000000E+00  0.95091826161E+03  0.95091826162E+03  0.25500000920E-02 0. -1.
        2   -1    0    0  501    0  0.00000000000E+00  0.00000000000E+00 -0.21490184152E+03  0.21490184154E+03  0.25500000920E-02 0.  1.
    10030    2    1    2    0    0  0.00000000000E+00  0.00000000000E+00  0.73601642009E+03  0.11658201032E+04  0.90411080199E+03 0.  0.
        2    1    3    3  502    0 -0.54675736904E+02 -0.18870570280E+03 -0.15697201900E+03  0.25147463735E+03  0.25500000920E-02 0.  1.
       -2    1    3    3    0  502  0.54675736904E+02  0.18870570280E+03  0.89298843909E+03  0.91434546580E+03  0.25500000920E-02 0. -1.
</event>
<event>
 5   0  0.8524692E-03  0.8973314E+03  0.7818609E-02  0.9428923E-01
        1   -1    0    0  501    0  0.00000000000E+00  0.00000000000E+00  0.11247116469E+04  0.11247116469E+04  0.50400001928E-02 0.  1.
       -1   -1    0    0    0  501  0.00000000000E+00  0.00000000000E+00 -0.17898001763E+03  0.17898001770E+03  0.50400001928E-02 0. -1.
    10030    2    1    2    0    0  0.00000000000E+00  0.00000000000E+00  0.94573162924E+03  0.13036916646E+04  0.89733140019E+03 0.  0.
        5    1    3    3  502    0  0.41862133038E+03  0.14480102911E+03  0.57629091161E+03  0.72687307082E+03  0.46999998093E+01 0. -1.
       -5    1    3    3    0  502 -0.41862133038E+03 -0.14480102911E+03  0.36944071763E+03  0.57681859377E+03  0.46999998093E+01 0.  1.
</event>
<event>
 5   0  0.8885324E-03  0.8933997E+03  0.7818609E-02  0.9433870E-01
        1   -1    0    0  501    0  0.00000000000E+00  0.00000000000E+00  0.12887719672E+04  0.12887719672E+04  0.50400001928E-02 0.  1.
       -1   -1    0    0    0  501  0.00000000000E+00  0.00000000000E+00 -0.15483013670E+03  0.15483013678E+03  0.50400001928E-02 0. -1.
    10030    2    1    2    0    0  0.00000000000E+00  0.00000000000E+00  0.11339418305E+04  0.14436021040E+04  0.89339966404E+03 0.  0.
        2    1    3    3  502    0 -0.36769427622E+03  0.24684543418E+03  0.47262683945E+03  0.64769427859E+03  0.25500000920E-02 0. -1.
       -2    1    3    3    0  502  0.36769427622E+03 -0.24684543418E+03  0.66131499108E+03  0.79590782543E+03  0.25500000920E-02 0.  1.
</event>
<event>
 5   0  0.8291252E-03  0.8910114E+03  0.7818609E-02  0.9436888E-01
        1   -1    0    0  501    0  0.00000000000E+00  0.00000000000E+00  0.93105558045E+03  0.93105558047E+03  0.50400001928E-02 0.  1.
       -1   -1    0    0    0  501  0.00000000000E+00  0.00000000000E+00 -0.21317235576E+03  0.21317235582E+03  0.50400001928E-02 0. -1.
    10030    2    1    2    0    0  0.00000000000E+00  0.00000000000E+00  0.71788322469E+03  0.11442279363E+04  0.89101136126E+03 0.  0.
        1    1    3    3  502    0  0.72638532850E+02  0.27949957408E+03  0.79458109877E+03  0.84543213264E+03  0.50400001928E-02 0.  1.
       -1    1    3    3    0  502 -0.72638532850E+02 -0.27949957408E+03 -0.76697874073E+02  0.29879580365E+03  0.50400001928E-02 0. -1.
</event>
<event>
 5   0  0.1483326E-02  0.9027585E+03  0.7818609E-02  0.9422140E-01
       -2   -1    0    0    0  501  0.00000000000E+00  0.00000000000E+00  0.14446033933E+03  0.14446033935E+03  0.25500000920E-02 0. -1.
        2   -1    0    0  501    0  0.00000000000E+00  0.00000000000E+00 -0.14103748019E+04  0.14103748019E+04  0.25500000920E-02 0.  1.
    10030    2    1    2    0    0  0.00000000000E+00  0.00000000000E+00 -0.12659144626E+04  0.15548351413E+04  0.90275848926E+03 0.  0.
        1    1    3    3  502    0  0.56149479582E+01 -0.44381142010E+03 -0.49152670648E+03  0.66226777625E+03  0.50400001928E-02 0.  1.
       -1    1    3    3    0  502 -0.56149479582E+01  0.44381142010E+03 -0.77438775609E+03  0.89256736500E+03  0.50400001928E-02 0. -1.
</event>
<event>
 5   0  0.1535906E-02  0.8889864E+03  0.7818609E-02  0.9439455E-01
       -2   -1    0    0    0  501  0.00000000000E+00  0.00000000000E+00  0.18832553316E+03  0.18832553318E+03  0.25500000920E-02 0. -1.
        2   -1    0    0  501    0  0.00000000000E+00  0.00000000000E+00 -0.10491100523E+04  0.10491100523E+04  0.25500000920E-02 0.  1.
    10030    2    1    2    0    0  0.00000000000E+00  0.00000000000E+00 -0.86078451909E+03  0.12374355854E+04  0.88898641149E+03 0.  0.
        2    1    3    3  502    0  0.25477053399E+02  0.30894710206E+03  0.13023269168E+02  0.31026923416E+03  0.25500000920E-02 0. -1.
       -2    1    3    3    0  502 -0.25477053399E+02 -0.30894710206E+03 -0.87380778826E+03  0.92716635128E+03  0.25500000920E-02 0.  1.
</event>
<event>
 5   0  0.8738044E-03  0.8981823E+03  0.7818609E-02  0.9427856E-01
        1   -1    0    0  501    0  0.00000000000E+00  0.00000000000E+00  0.61963614431E+03  0.61963614433E+03  0.50400001928E-02 0.  1.
       -1   -1    0    0    0  501  0.00000000000E+00  0.00000000000E+00 -0.32548597973E+03  0.32548597977E+03  0.50400001928E-02 0. -1.
    10030    2    1    2    0    0  0.00000000000E+00  0.00000000000E+00  0.29415016459E+03  0.94512212410E+03  0.89818233680E+03 0.  0.
        3    1    3    3  502    0 -0.24551663391E+03  0.35492846158E+03  0.16364810650E+02  0.43188013105E+03  0.10100000352E+00 0. -1.
       -3    1    3    3    0  502  0.24551663391E+03 -0.35492846158E+03  0.27778535394E+03  0.51324199305E+03  0.10100000352E+00 0.  1.
</event>
<event>
 5   0  0.1483326E-02  0.9368124E+03  0.7818609E-02  0.9380699E-01
       -2   -1    0    0    0  501  0.00000000000E+00  0.00000000000E+00  0.34636490539E+03  0.34636490540E+03  0.25500000920E-02 0. -1.
        2   -1    0    0  501    0  0.00000000000E+00  0.00000000000E+00 -0.63344863529E+03  0.63344863529E+03  0.25500000920E-02 0.  1.
    10030    2    1    2    0    0  0.00000000000E+00  0.00000000000E+00 -0.28708372990E+03  0.97981354069E+03  0.93681241802E+03 0.  0.
        1    1    3    3  502    0  0.18627706652E+02 -0.16668138124E+03  0.31388278603E+03  0.35588211208E+03  0.50400001928E-02 0. -1.
       -1    1    3    3    0  502 -0.18627706652E+02  0.16668138124E+03 -0.60096651593E+03  0.62393142861E+03  0.50400001928E-02 0.  1.
</event>
<event>
 5   0  0.8291252E-03  0.8968101E+03  0.7818609E-02  0.9429578E-01
       -1   -1    0    0    0  501  0.00000000000E+00  0.00000000000E+00  0.18279731635E+03  0.18279731642E+03  0.50400001928E-02 0.  1.
        1   -1    0    0  501    0  0.00000000000E+00  0.00000000000E+00 -0.10999454002E+04  0.10999454002E+04  0.50400001928E-02 0. -1.
    10030    2    1    2    0    0  0.00000000000E+00  0.00000000000E+00 -0.91714808384E+03  0.12827427166E+04  0.89681005199E+03 0.  0.
        1    1    3    3  502    0 -0.43153923298E+03 -0.34906692487E+02 -0.29163143618E+03  0.52200908170E+03  0.50400001928E-02 0.  1.
       -1    1    3    3    0  502  0.43153923298E+03  0.34906692487E+02 -0.62551664766E+03  0.76073363492E+03  0.50400001928E-02 0. -1.
</event>
<event>
 5   0  0.8738044E-03  0.1012617E+04  0.7818609E-02  0.9294814E-01
        1   -1    0    0  501    0  0.00000000000E+00  0.00000000000E+00  0.85258511929E+03  0.85258511931E+03  0.50400001928E-02 0. -1.
       -1   -1    0    0    0  501  0.00000000000E+00  0.00000000000E+00 -0.30067195375E+03  0.30067195379E+03  0.50400001928E-02 0.  1.
    10030    2    1    2    0    0  0.00000000000E+00  0.00000000000E+00  0.55191316554E+03  0.11532570731E+04  0.10126172694E+04 0.  0.
        3    1    3    3  502    0  0.27460340401E+03  0.24339431064E+03  0.67326444841E+03  0.76676779252E+03  0.10100000352E+00 0. -1.
       -3    1    3    3    0  502 -0.27460340401E+03 -0.24339431064E+03 -0.12135128287E+03  0.38648928058E+03  0.10100000352E+00 0.  1.
</event>
<event>
 5   0  0.1454652E-02  0.8912743E+03  0.7818609E-02  0.9436555E-01
       -2   -1    0    0    0  501  0.00000000000E+00  0.00000000000E+00  0.17820002205E+03  0.17820002207E+03  0.25500000920E-02 0.  1.
        2   -1    0    0  501    0  0.00000000000E+00  0.00000000000E+00 -0.11144357291E+04  0.11144357291E+04  0.25500000920E-02 0. -1.
    10030    2    1    2    0    0  0.00000000000E+00  0.00000000000E+00 -0.93623570704E+03  0.12926357512E+04  0.89127430459E+03 0.  0.
        4    1    3    3  502    0  0.90731519877E+02 -0.16837901949E+03  0.11563884349E+03  0.22351209794E+03  0.12699999809E+01 0.  1.
       -4    1    3    3    0  502 -0.90731519877E+02  0.16837901949E+03 -0.10518745505E+04  0.10691236532E+04  0.12699999809E+01 0. -1.
</event>
<event>
 5   0  0.1441195E-02  0.9024034E+03  0.7818609E-02  0.9422582E-01
        2   -1    0    0  501    0  0.00000000000E+00  0.00000000000E+00  0.15116237140E+04  0.15116237140E+04  0.25500000920E-02 0.  1.
       -2   -1    0    0    0  501  0.00000000000E+00  0.00000000000E+00 -0.13467833691E+03  0.13467833694E+03  0.25500000920E-02 0. -1.
    10030    2    1    2    0    0  0.00000000000E+00  0.00000000000E+00  0.13769453771E+04  0.16463020510E+04  0.90240338622E+03 0.  0.
        5    1    3    3  502    0  0.12231157535E+03 -0.12238293935E+03  0.14486460502E+04  0.14589500245E+04  0.46999998093E+01 0.  1.
       -5    1    3    3    0  502 -0.12231157535E+03  0.12238293935E+03 -0.71700673052E+02  0.18735202647E+03  0.46999998093E+01 0. -1.
</event>
<event>
 5   0  0.5770125E-03  0.9024818E+03  0.7818609E-02  0.9422484E-01
       -3   -1    0    0    0  501  0.00000000000E+00  0.00000000000E+00  0.46746349219E+03  0.46746350310E+03  0.10100000352E+00 0. -1.
        3   -1    0    0  501    0  0.00000000000E+00  0.00000000000E+00 -0.43558123271E+03  0.43558124442E+03  0.10100000352E+00 0.  1.
    10030    2    1    2    0    0  0.00000000000E+00  0.00000000000E+00  0.31882259476E+02  0.90304474753E+03  0.90248176578E+03 0.  0.
        2    1    3    3  502    0 -0.15494511092E+03  0.41147309607E+03  0.11749452994E+03  0.45510774632E+03  0.25500000920E-02 0. -1.
       -2    1    3    3    0  502  0.15494511092E+03 -0.41147309607E+03 -0.85612270460E+02  0.44793700121E+03  0.25500000920E-02 0.  1.
</event>
<event>
 5   0  0.1483326E-02  0.8955563E+03  0.7818609E-02  0.9431153E-01
       -2   -1    0    0    0  501  0.00000000000E+00  0.00000000000E+00  0.40632786906E+03  0.40632786907E+03  0.25500000920E-02 0. -1.
        2   -1    0    0  501    0  0.00000000000E+00  0.00000000000E+00 -0.49345686597E+03  0.49345686597E+03  0.25500000920E-02 0.  1.
    10030    2    1    2    0    0  0.00000000000E+00  0.00000000000E+00 -0.87128996911E+02  0.89978473504E+03  0.89555631163E+03 0.  0.
        1    1    3    3  502    0  0.26340029106E+03 -0.59693335016E+02 -0.40240944960E+03  0.48464045717E+03  0.50400001928E-02 0.  1.
       -1    1    3    3    0  502 -0.26340029106E+03  0.59693335016E+02  0.31528045269E+03  0.41514427787E+03  0.50400001928E-02 0. -1.
</event>
<event>
 5   0  0.1441195E-02  0.9166579E+03  0.7818609E-02  0.9404995E-01
       -2   -1    0    0    0  501  0.00000000000E+00  0.00000000000E+00  0.54332466677E+03  0.54332466678E+03  0.25500000920E-02 0.  1.
        2   -1    0    0  501    0  0.00000000000E+00  0.00000000000E+00 -0.38662961119E+03  0.38662961119E+03  0.25500000920E-02 0. -1.
    10030    2    1    2    0    0  0.00000000000E+00  0.00000000000E+00  0.15669505558E+03  0.92995427797E+03  0.91665785257E+03 0.  0.
        5    1    3    3  502    0 -0.34604530371E+03 -0.29769079440E+03  0.11988224057E+03  0.47197563803E+03  0.46999998093E+01 0. -1.
       -5    1    3    3    0  502  0.34604530371E+03  0.29769079440E+03  0.36812815013E+02  0.45797863994E+03  0.46999998093E+01 0.  1.
</event>
<event>
 5   0  0.1454652E-02  0.9371439E+03  0.7818609E-02  0.9380305E-01
        2   -1    0    0  501    0  0.00000000000E+00  0.00000000000E+00  0.59493883620E+03  0.59493883621E+03  0.25500000920E-02 0. -1.
       -2   -1    0    0    0  501  0.00000000000E+00  0.00000000000E+00 -0.36904581186E+03  0.36904581187E+03  0.25500000920E-02 0.  1.
    10030    2    1    2    0    0  0.00000000000E+00  0.00000000000E+00  0.22589302435E+03  0.96398464808E+03  0.93714392880E+03 0.  0.
        4    1    3    3  502    0  0.31716405608E+03 -0.22062647682E+03 -0.15976751696E+03  0.41808653783E+03  0.12699999809E+01 0.  1.
       -4    1    3    3    0  502 -0.31716405608E+03  0.22062647682E+03  0.38566054131E+03  0.54589811024E+03  0.12699999809E+01 0. -1.
</event>
<event>
 5   0  0.8738044E-03  0.8982707E+03  0.7818609E-02  0.9427746E-01
       -1   -1    0    0    0  501  0.00000000000E+00  0.00000000000E+00  0.23835517728E+03  0.23835517733E+03  0.50400001928E-02 0.  1.
        1   -1    0    0  501    0  0.00000000000E+00  0.00000000000E+00 -0.84631072438E+03  0.84631072439E+03  0.50400001928E-02 0. -1.
    10030    2    1    2    0    0  0.00000000000E+00  0.00000000000E+00 -0.60795554710E+03  0.10846659017E+04  0.89827065582E+03 0.  0.
        3    1    3    3  502    0 -0.78563528588E+01  0.37025876060E+02 -0.84438144907E+03  0.84522936503E+03  0.10100000352E+00 0. -1.
       -3    1    3    3    0  502  0.78563528588E+01 -0.37025876060E+02  0.23642590197E+03  0.23943653669E+03  0.10100000352E+00 0.  1.
</event>
<event>
 5   0  0.8738044E-03  0.9072078E+03  0.7818609E-02  0.9416616E-01
        1   -1    0    0  501    0  0.00000000000E+00  0.00000000000E+00  0.36901651846E+03  0.36901651850E+03  0.50400001928E-02 0.  1.
       -1   -1    0    0    0  501  0.00000000000E+00  0.00000000000E+00 -0.55758075026E+03  0.55758075028E+03  0.50400001928E-02 0. -1.
    10030    2    1    2    0    0  0.00000000000E+00  0.00000000000E+00 -0.18856423180E+03  0.92659726878E+03  0.90720782018E+03 0.  0.
        3    1    3    3  502    0  0.31711435773E+03  0.94034172618E+02  0.22275919095E+03  0.39878015102E+03  0.10100000352E+00 0.  1.
       -3    1    3    3    0  502 -0.31711435773E+03 -0.94034172618E+02 -0.41132342274E+03  0.52781711776E+03  0.10100000352E+00 0. -1.
</event>
<event>
 5   0  0.1440615E-02  0.8958445E+03  0.7818609E-02  0.9430791E-01
       -2   -1    0    0    0  501  0.00000000000E+00  0.00000000000E+00  0.19613956963E+03  0.19613956965E+03  0.25500000920E-02 0.  1.
        2   -1    0    0  501    0  0.00000000000E+00  0.00000000000E+00 -0.10229162474E+04  0.10229162474E+04  0.25500000920E-02 0. -1.
    10030    2    1    2    0    0  0.00000000000E+00  0.00000000000E+00 -0.82677667773E+03  0.12190558170E+04  0.89584452343E+03 0.  0.
        3    1    3    3  502    0 -0.41919173193E+03  0.85649318574E+02 -0.59379858751E+03  0.73188406638E+03  0.10100000352E+00 0.  1.
       -3    1    3    3    0  502  0.41919173193E+03 -0.85649318574E+02 -0.23297809023E+03  0.48717175064E+03  0.10100000352E+00 0. -1.
</event>
<event>
 5   0  0.1454652E-02  0.8904231E+03  0.7818609E-02  0.9437633E-01
        2   -1    0    0  501    0  0.00000000000E+00  0.00000000000E+00  0.12588009624E+04  0.12588009624E+04  0.25500000920E-02 0. -1.
       -2   -1    0    0    0  501  0.00000000000E+00  0.00000000000E+00 -0.15746201970E+03  0.15746201972E+03  0.25500000920E-02 0.  1.
    10030    2    1    2    0    0  0.00000000000E+00  0.00000000000E+00  0.11013389427E+04  0.14162629821E+04  0.89042313976E+03 0.  0.
        4    1    3    3  502    0  0.38022595604E+03  0.21598843284E+03  0.68363938282E+03  0.81153385598E+03  0.12699999809E+01 0. -1.
       -4    1    3    3    0  502 -0.38022595604E+03 -0.21598843284E+03  0.41769955986E+03  0.60472912612E+03  0.12699999809E+01 0.  1.
</event>
<event>
 5   0  0.8885324E-03  0.9458211E+03  0.7818609E-02  0.9370048E-01
       -1   -1    0    0    0  501  0.00000000000E+00  0.00000000000E+00  0.29891696960E+03  0.29891696964E+03  0.50400001928E-02 0.  1.
        1   -1    0    0  501    0  0.00000000000E+00  0.00000000000E+00 -0.74818226044E+03  0.74818226046E+03  0.50400001928E-02 0. -1.
    10030    2    1    2    0    0  0.00000000000E+00  0.00000000000E+00 -0.44926529084E+03  0.10470992301E+04  0.94582106983E+03 0.  0.
        2    1    3    3  502    0 -0.17523277102E+03  0.57051592710E+02 -0.70679469158E+03  0.73042463289E+03  0.25500000920E-02 0. -1.
       -2    1    3    3    0  502  0.17523277102E+03 -0.57051592710E+02  0.25752940074E+03  0.31667459722E+03  0.25500000920E-02 0.  1.
</event>
<event>
 5   0  0.8291252E-03  0.8692132E+03  0.7818609E-02  0.9464906E-01
       -1   -1    0    0    0  501  0.00000000000E+00  0.00000000000E+00  0.18303465707E+04  0.18303465707E+04  0.50400001928E-02 0.  1.
        1   -1    0    0  501    0  0.00000000000E+00  0.00000000000E+00 -0.10319516373E+03  0.10319516385E+03  0.50400001928E-02 0. -1.
    10030    2    1    2    0    0  0.00000000000E+00  0.00000000000E+00  0.17271514070E+04  0.19335417346E+04  0.86921324005E+03 0.  0.
        1    1    3    3  502    0 -0.32601862550E+03 -0.20464599374E+03  0.41472356124E+03  0.56583015049E+03  0.50400001928E-02 0. -1.
       -1    1    3    3    0  502  0.32601862550E+03  0.20464599374E+03  0.13124278458E+04  0.13677115841E+04  0.50400001928E-02 0.  1.
</event>
<event>
 5   0  0.8885324E-03  0.9296911E+03  0.7818609E-02  0.9389209E-01
       -1   -1    0    0    0  501  0.00000000000E+00  0.00000000000E+00  0.62304877343E+03  0.62304877345E+03  0.50400001928E-02 0. -1.
        1   -1    0    0  501    0  0.00000000000E+00  0.00000000000E+00 -0.34681297109E+03  0.34681297113E+03  0.50400001928E-02 0.  1.
    10030    2    1    2    0    0  0.00000000000E+00  0.00000000000E+00  0.27623580234E+03  0.96986174458E+03  0.92969112350E+03 0.  0.
        2    1    3    3  502    0  0.10182765972E+03  0.72162410244E+02 -0.32900791333E+03  0.35188420365E+03  0.25500000920E-02 0.  1.
       -2    1    3    3    0  502 -0.10182765972E+03 -0.72162410244E+02  0.60524371567E+03  0.61797754093E+03  0.25500000920E-02 0. -1.
</event>
<event>
 5   0  0.5770125E-03  0.9022596E+03  0.7818609E-02  0.9422761E-01
        3   -1    0    0  501    0  0.00000000000E+00  0.00000000000E+00  0.40276043748E+03  0.40276045014E+03  0.10100000352E+00 0.  1.
       -3   -1    0    0    0  501  0.00000000000E+00  0.00000000000E+00 -0.50530802330E+03  0.50530803340E+03  0.10100000352E+00 0. -1.
    10030    2    1    2    0    0  0.00000000000E+00  0.00000000000E+00 -0.10254758582E+03  0.90806848354E+03  0.90225958761E+03 0.  0.
        4    1    3    3  502    0 -0.15895711890E+03 -0.37789471943E+02  0.37193443445E+03  0.40624161070E+03  0.12699999809E+01 0.  1.
       -4    1    3    3    0  502  0.15895711890E+03  0.37789471943E+02 -0.47448202027E+03  0.50182687284E+03  0.12699999809E+01 0. -1.
</event>
<event>
 5   0  0.1454652E-02  0.9003779E+03  0.7818609E-02  0.9425109E-01
       -2   -1    0    0    0  501  0.00000000000E+00  0.00000000000E+00  0.95883881899E+02  0.95883881933E+02  0.25500000920E-02 0. -1.
        2   -1    0    0  501    0  0.00000000000E+00  0.00000000000E+00 -0.21137035086E+04  0.21137035086E+04  0.25500000920E-02 0.  1.
    10030    2    1    2    0    0  0.00000000000E+00  0.00000000000E+00 -0.20178196267E+04  0.22095873905E+04  0.90037791538E+03 0.  0.
        4    1    3    3  502    0  0.24143997193E+03 -0.37382411492E+03 -0.84191142184E+03  0.95228891838E+03  0.12699999809E+01 0.  1.
       -4    1    3    3    0  502 -0.24143997193E+03  0.37382411492E+03 -0.11759082049E+04  0.12572984722E+04  0.12699999809E+01 0. -1.
</event>
<event>
 5   0  0.1454652E-02  0.9128823E+03  0.7818609E-02  0.9409620E-01
        2   -1    0    0  501    0  0.00000000000E+00  0.00000000000E+00  0.39943583535E+03  0.39943583535E+03  0.25500000920E-02 0.  1.
       -2   -1    0    0    0  501  0.00000000000E+00  0.00000000000E+00 -0.52158196037E+03  0.52158196038E+03  0.25500000920E-02 0. -1.
    10030    2    1    2    0    0  0.00000000000E+00  0.00000000000E+00 -0.12214612502E+03  0.92101779573E+03  0.91288230577E+03 0.  0.
        4    1    3    3  502    0  0.40737864482E+03  0.28779392019E+02  0.14458490414E+03  0.43323437198E+03  0.12699999809E+01 0.  1.
       -4    1    3    3    0  502 -0.40737864482E+03 -0.28779392019E+02 -0.26673102916E+03  0.48778342375E+03  0.12699999809E+01 0. -1.
</event>
<event>
 5   0  0.1441195E-02  0.9239687E+03  0.7818609E-02  0.9396106E-01
       -2   -1    0    0    0  501  0.00000000000E+00  0.00000000000E+00  0.10821214874E+03  0.10821214877E+03  0.25500000920E-02 0. -1.
        2   -1    0    0  501    0  0.00000000000E+00  0.00000000000E+00 -0.19723250639E+04  0.19723250639E+04  0.25500000920E-02 0.  1.
    10030    2    1    2    0    0  0.00000000000E+00  0.00000000000E+00 -0.18641129152E+04  0.20805372127E+04  0.92396868609E+03 0.  0.
        5    1    3    3  502    0  0.16304555674E+03  0.21282185924E+03 -0.17791730192E+04  0.17992653277E+04  0.46999998093E+01 0.  1.
       -5    1    3    3    0  502 -0.16304555674E+03 -0.21282185924E+03 -0.84939895976E+02  0.28127188496E+03  0.46999998093E+01 0. -1.
</event>
<event>
 5   0  0.5770125E-03  0.8954444E+03  0.7818609E-02  0.9431294E-01
        3   -1    0    0  501    0  0.00000000000E+00  0.00000000000E+00  0.22547810077E+03  0.22547812339E+03  0.10100000352E+00 0.  1.
       -3   -1    0    0    0  501  0.00000000000E+00  0.00000000000E+00 -0.88902275069E+03  0.88902275642E+03  0.10100000352E+00 0. -1.
    10030    2    1    2    0    0  0.00000000000E+00  0.00000000000E+00 -0.66354464991E+03  0.11145008798E+04  0.89544441965E+03 0.  0.
        3    1    3    3  502    0 -0.22704620715E+03  0.25771112222E+03 -0.68924501262E+03  0.77008032070E+03  0.10100000352E+00 0. -1.
       -3    1    3    3    0  502  0.22704620715E+03 -0.25771112222E+03  0.25700362711E+02  0.34442055912E+03  0.10100000352E+00 0.  1.
</event>
<event>
 5   0  0.8738044E-03  0.9059792E+03  0.7818609E-02  0.9418138E-01
        1   -1    0    0  501    0  0.00000000000E+00  0.00000000000E+00  0.41996860981E+03  0.41996860984E+03  0.50400001928E-02 0.  1.
       -1   -1    0    0    0  501  0.00000000000E+00  0.00000000000E+00 -0.48860690674E+03  0.48860690677E+03  0.50400001928E-02 0. -1.
    10030    2    1    2    0    0  0.00000000000E+00  0.00000000000E+00 -0.68638296935E+02  0.90857551660E+03  0.90597916839E+03 0.  0.
        3    1    3    3  502    0 -0.46232076947E+02 -0.39184299528E+02  0.41588465161E+03  0.42027713228E+03  0.10100000352E+00 0.  1.
       -3    1    3    3    0  502  0.46232076947E+02  0.39184299528E+02 -0.48452294855E+03  0.48829838433E+03  0.10100000352E+00 0. -1.
</event>
<event>
 5   0  0.8885324E-03  0.9192874E+03  0.7818609E-02  0.9401787E-01
        1   -1    0    0  501    0  0.00000000000E+00  0.00000000000E+00  0.92084407838E+03  0.92084407839E+03  0.50400001928E-02 0.  1.
       -1   -1    0    0    0  501  0.00000000000E+00  0.00000000000E+00 -0.22943335143E+03  0.22943335149E+03  0.50400001928E-02 0. -1.
    10030    2    1    2    0    0  0.00000000000E+00  0.00000000000E+00  0.69141072695E+03  0.11502774299E+04  0.91928742641E+03 0.  0.
        2    1    3    3  502    0  0.15399947444E+03 -0.27972987900E+03 -0.67986192003E+02  0.32647628649E+03  0.25500000920E-02 0. -1.
       -2    1    3    3    0  502 -0.15399947444E+03  0.27972987900E+03  0.75939691895E+03  0.82380114339E+03  0.25500000920E-02 0.  1.
</event>
<event>
 5   0  0.1483326E-02  0.9390509E+03  0.7818609E-02  0.9378041E-01
       -2   -1    0    0    0  501  0.00000000000E+00  0.00000000000E+00  0.19151065379E+03  0.19151065381E+03  0.25500000920E-02 0.  1.
        2   -1    0    0  501    0  0.00000000000E+00  0.00000000000E+00 -0.11511325530E+04  0.11511325530E+04  0.25500000920E-02 0. -1.
    10030    2    1    2    0    0  0.00000000000E+00  0.00000000000E+00 -0.95962189918E+03  0.13426432068E+04  0.93905089923E+03 0.  0.
        1    1    3    3  502    0 -0.16374649937E+03  0.12306932820E+03  0.12425551077E+03  0.23957964768E+03  0.50400001928E-02 0.  1.
       -1    1    3    3    0  502  0.16374649937E+03 -0.12306932820E+03 -0.10838774099E+04  0.11030635591E+04  0.50400001928E-02 0. -1.
</event>
<event>
 5   0  0.8612969E-03  0.9457755E+03  0.7818609E-02  0.9370102E-01
        1   -1    0    0  501    0  0.00000000000E+00  0.00000000000E+00  0.10330910385E+04  0.10330910385E+04  0.50400001928E-02 0. -1.
       -1   -1    0    0    0  501  0.00000000000E+00  0.00000000000E+00 -0.21645994020E+03  0.21645994026E+03  0.50400001928E-02 0.  1.
    10030    2    1    2    0    0  0.00000000000E+00  0.00000000000E+00  0.81663109827E+03  0.12495509787E+04  0.94577550074E+03 0.  0.
        4    1    3    3  502    0  0.13858012089E+03  0.17161958745E+03 -0.14432102260E+03  0.26360558258E+03  0.12699999809E+01 0.  1.
       -4    1    3    3    0  502 -0.13858012089E+03 -0.17161958745E+03  0.96095212087E+03  0.98594539616E+03  0.12699999809E+01 0. -1.
</event>
<event>
 5   0  0.1483326E-02  0.9125400E+03  0.7818609E-02  0.9410040E-01
        2   -1    0    0  501    0  0.00000000000E+00  0.00000000000E+00  0.13324749134E+04  0.13324749134E+04  0.25500000920E-02 0. -1.
       -2   -1    0    0    0  501  0.00000000000E+00  0.00000000000E+00 -0.15623733139E+03  0.15623733141E+03  0.25500000920E-02 0.  1.
    10030    2    1    2    0    0  0.00000000000E+00  0.00000000000E+00  0.11762375820E+04  0.14887122448E+04  0.91254002571E+03 0.  0.
        1    1    3    3  502    0 -0.89508812604E+02 -0.22034417487E+03  0.12233554727E+04  0.12462592008E+04  0.50400001928E-02 0. -1.
       -1    1    3    3    0  502  0.89508812604E+02  0.22034417487E+03 -0.47117890646E+02  0.24245304406E+03  0.50400001928E-02 0.  1.
</event>
<event>
 5   0  0.5770125E-03  0.7914535E+03  0.7818609E-02  0.9572471E-01
       -3   -1    0    0    0  501  0.00000000000E+00  0.00000000000E+00  0.88900021454E+03  0.88900022028E+03  0.10100000352E+00 0. -1.
        3   -1    0    0  501    0  0.00000000000E+00  0.00000000000E+00 -0.17615251985E+03  0.17615254881E+03  0.10100000352E+00 0.  1.
    10030    2    1    2    0    0  0.00000000000E+00  0.00000000000E+00  0.71284769469E+03  0.10651527691E+04  0.79145346400E+03 0.  0.
        2    1    3    3  502    0 -0.27692139579E+03 -0.77391635713E+02 -0.94921238192E+01  0.28768911197E+03  0.25500000920E-02 0.  1.
       -2    1    3    3    0  502  0.27692139579E+03  0.77391635713E+02  0.72233981851E+03  0.77746365712E+03  0.25500000920E-02 0. -1.
</event>
<event>
 5   0  0.1535906E-02  0.8917463E+03  0.7818609E-02  0.9435958E-01
        2   -1    0    0  501    0  0.00000000000E+00  0.00000000000E+00  0.15018418066E+04  0.15018418066E+04  0.25500000920E-02 0. -1.
       -2   -1    0    0    0  501  0.00000000000E+00  0.00000000000E+00 -0.13237272190E+03  0.13237272192E+03  0.25500000920E-02 0.  1.
    10030    2    1    2    0    0  0.00000000000E+00  0.00000000000E+00  0.13694690847E+04  0.16342145285E+04  0.89174634920E+03 0.  0.
        2    1    3    3  502    0  0.38926308050E+03 -0.16743820857E+03  0.43052714390E+03  0.60408188283E+03  0.25500000920E-02 0.  1.
       -2    1    3    3    0  502 -0.38926308050E+03  0.16743820857E+03  0.93894194082E+03  0.10301326457E+04  0.25500000920E-02 0. -1.
</event>
<event>
 5   0  0.8612969E-03  0.8994758E+03  0.7818609E-02  0.9426237E-01
        1   -1    0    0  501    0  0.00000000000E+00  0.00000000000E+00  0.11642106491E+04  0.11642106491E+04  0.50400001928E-02 0. -1.
       -1   -1    0    0    0  501  0.00000000000E+00  0.00000000000E+00 -0.17373501905E+03  0.17373501913E+03  0.50400001928E-02 0.  1.
    10030    2    1    2    0    0  0.00000000000E+00  0.00000000000E+00  0.99047563003E+03  0.13379456682E+04  0.89947575700E+03 0.  0.
        4    1    3    3  502    0 -0.34379372980E+03  0.44167793864E+02  0.68985056898E+02  0.35341968485E+03  0.12699999809E+01 0.  1.
       -4    1    3    3    0  502  0.34379372980E+03 -0.44167793864E+02  0.92149057313E+03  0.98452598337E+03  0.12699999809E+01 0. -1.
</event>
<event>
 5   0  0.1454652E-02  0.8934836E+03  0.7818609E-02  0.9433764E-01
        2   -1    0    0  501    0  0.00000000000E+00  0.00000000000E+00  0.89869865218E+03  0.89869865218E+03  0.25500000920E-02 0. -1.
       -2   -1    0    0    0  501  0.00000000000E+00  0.00000000000E+00 -0.22207470297E+03  0.22207470299E+03  0.25500000920E-02 0.  1.
    10030    2    1    2    0    0  0.00000000000E+00  0.00000000000E+00  0.67662394921E+03  0.11207733552E+04  0.89348360087E+03 0.  0.
        4    1    3    3  502    0  0.43713815190E+03 -0.54435114023E+02  0.24508418582E+03  0.50410397392E+03  0.12699999809E+01 0.  1.
       -4    1    3    3    0  502 -0.43713815190E+03  0.54435114023E+02  0.43153976339E+03  0.61666938125E+03  0.12699999809E+01 0. -1.
</event>
<event>
 5   0  0.8738044E-03  0.8952828E+03  0.7818609E-02  0.9431497E-01
        1   -1    0    0  501    0  0.00000000000E+00  0.00000000000E+00  0.90755743243E+03  0.90755743245E+03  0.50400001928E-02 0.  1.
       -1   -1    0    0    0  501  0.00000000000E+00  0.00000000000E+00 -0.22079352497E+03  0.22079352502E+03  0.50400001928E-02 0. -1.
    10030    2    1    2    0    0  0.00000000000E+00  0.00000000000E+00  0.68676390747E+03  0.11283509575E+04  0.89528275904E+03 0.  0.
        3    1    3    3  502    0 -0.33247800793E+03 -0.29457161316E+02 -0.32554276639E+02  0.33536419195E+03  0.10100000352E+00 0. -1.
       -3    1    3    3    0  502  0.33247800793E+03  0.29457161316E+02  0.71931818411E+03  0.79298676553E+03  0.10100000352E+00 0.  1.
</event>
<event>
 5   0  0.1441195E-02  0.9096994E+03  0.7818609E-02  0.9413537E-01
       -2   -1    0    0    0  501  0.00000000000E+00  0.00000000000E+00  0.19912700405E+03  0.19912700407E+03  0.25500000920E-02 0. -1.
        2   -1    0    0  501    0  0.00000000000E+00  0.00000000000E+00 -0.10389764246E+04  0.10389764246E+04  0.25500000920E-02 0.  1.
    10030    2    1    2    0    0  0.00000000000E+00  0.00000000000E+00 -0.83984942051E+03  0.12381034286E+04  0.90969942885E+03 0.  0.
        5    1    3    3  502    0  0.40535647418E+02 -0.37102300526E+03 -0.77369371331E+03  0.85902576280E+03  0.46999998093E+01 0.  1.
       -5    1    3    3    0  502 -0.40535647418E+02  0.37102300526E+03 -0.66155707208E+02  0.37907766584E+03  0.46999998093E+01 0. -1.
</event>
<event>
 5   0  0.1441195E-02  0.8956708E+03  0.7818609E-02  0.9431009E-01
       -2   -1    0    0    0  501  0.00000000000E+00  0.00000000000E+00  0.18200928982E+03  0.18200928983E+03  0.25500000920E-02 0. -1.
        2   -1    0    0  501    0  0.00000000000E+00  0.00000000000E+00 -0.11019027453E+04  0.11019027453E+04  0.25500000920E-02 0.  1.
    10030    2    1    2    0    0  0.00000000000E+00  0.00000000000E+00 -0.91989345544E+03  0.12839120351E+04  0.89567077908E+03 0.  0.
        5    1    3    3  502    0 -0.13577241159E+03  0.19409520879E+03 -0.10047147202E+04  0.10322697597E+04  0.46999998093E+01 0.  1.
       -5    1    3    3    0  502  0.13577241159E+03 -0.19409520879E+03  0.84821264737E+02  0.25164227541E+03  0.46999998093E+01 0. -1.
</event>
<event>
 5   0  0.1483326E-02  0.9037783E+03  0.7818609E-02  0.9420871E-01
       -2   -1    0    0    0  501  0.00000000000E+00  0.00000000000E+00  0.10102937558E+03  0.10102937561E+03  0.25500000920E-02 0. -1.
        2   -1    0    0  501    0  0.00000000000E+00  0.00000000000E+00 -0.20212317557E+04  0.20212317557E+04  0.25500000920E-02 0.  1.
    10030    2    1    2    0    0  0.00000000000E+00  0.00000000000E+00 -0.19202023801E+04  0.21222611313E+04  0.90377825203E+03 0.  0.
        1    1    3    3  502    0  0.18003980250E+03  0.17221642027E+02  0.12332426427E+02  0.18128156058E+03  0.50400001928E-02 0. -1.
       -1    1    3    3    0  502 -0.18003980250E+03 -0.17221642027E+02 -0.19325348066E+04  0.19409795707E+04  0.50400001928E-02 0.  1.
</event>
<event>
 5   0  0.8885324E-03  0.9687595E+03  0.7818609E-02  0.9343488E-01
        1   -1    0    0  501    0  0.00000000000E+00  0.00000000000E+00  0.84183655069E+03  0.84183655071E+03  0.50400001928E-02 0. -1.
       -1   -1    0    0    0  501  0.00000000000E+00  0.00000000000E+00 -0.27870461192E+03  0.27870461197E+03  0.50400001928E-02 0.  1.
    10030    2    1    2    0    0  0.00000000000E+00  0.00000000000E+00  0.56313193877E+03  0.11205411627E+04  0.96875947314E+03 0.  0.
        2    1    3    3  502    0  0.36712335778E+03  0.27541926927E+03  0.10241776791E+03  0.47023901678E+03  0.25500000920E-02 0. -1.
       -2    1    3    3    0  502 -0.36712335778E+03 -0.27541926927E+03  0.46071417086E+03  0.65030214590E+03  0.25500000920E-02 0.  1.
</event>
<event>
 5   0  0.8738044E-03  0.9369794E+03  0.7818609E-02  0.9380500E-01
        1   -1    0    0  501    0  0.00000000000E+00  0.00000000000E+00  0.88609828321E+03  0.88609828322E+03  0.50400001928E-02 0.  1.
       -1   -1    0    0    0  501  0.00000000000E+00  0.00000000000E+00 -0.24769555376E+03  0.24769555382E+03  0.50400001928E-02 0. -1.
    10030    2    1    2    0    0  0.00000000000E+00  0.00000000000E+00  0.63840272944E+03  0.11337938370E+04  0.93697941277E+03 0.  0.
        3    1    3    3  502    0  0.86257304542E+02 -0.82308908580E+02 -0.22903035119E+03  0.25820532718E+03  0.10100000352E+00 0. -1.
       -3    1    3    3    0  502 -0.86257304542E+02  0.82308908580E+02  0.86743308063E+03  0.87558850986E+03  0.10100000352E+00 0.  1.
</event>
<event>
 5   0  0.8291252E-03  0.9006835E+03  0.7818609E-02  0.9424727E-01
       -1   -1    0    0    0  501  0.00000000000E+00  0.00000000000E+00  0.32187449792E+03  0.32187449796E+03  0.50400001928E-02 0.  1.
        1   -1    0    0  501    0  0.00000000000E+00  0.00000000000E+00 -0.63008307061E+03  0.63008307063E+03  0.50400001928E-02 0. -1.
    10030    2    1    2    0    0  0.00000000000E+00  0.00000000000E+00 -0.30820857269E+03  0.95195756859E+03  0.90068345612E+03 0.  0.
        1    1    3    3  502    0  0.37084809871E+03 -0.24934316595E+03 -0.95187349050E+02  0.45690366399E+03  0.50400001928E-02 0.  1.
       -1    1    3    3    0  502 -0.37084809871E+03  0.24934316595E+03 -0.21302122364E+03  0.49505390461E+03  0.50400001928E-02 0. -1.
</event>
<event>
 5   0  0.1454652E-02  0.9162245E+03  0.7818609E-02  0.9405524E-01
        2   -1    0    0  501    0  0.00000000000E+00  0.00000000000E+00  0.73474599300E+03  0.73474599300E+03  0.25500000920E-02 0. -1.
       -2   -1    0    0    0  501  0.00000000000E+00  0.00000000000E+00 -0.28563181027E+03  0.28563181028E+03  0.25500000920E-02 0.  1.
    10030    2    1    2    0    0  0.00000000000E+00  0.00000000000E+00  0.44911418273E+03  0.10203778033E+04  0.91622448795E+03 0.  0.
        4    1    3    3  502    0  0.28749486157E+03 -0.17685696468E+03 -0.12038352007E+03  0.35836501808E+03  0.12699999809E+01 0.  1.
       -4    1    3    3    0  502 -0.28749486157E+03  0.17685696468E+03  0.56949770280E+03  0.66201278520E+03  0.12699999809E+01 0. -1.
</event>
<event>
 5   0  0.8524692E-03  0.8954510E+03  0.7818609E-02  0.9431286E-01
        1   -1    0    0  501    0  0.00000000000E+00  0.00000000000E+00  0.11129043457E+04  0.11129043457E+04  0.50400001928E-02 0.  1.
       -1   -1    0    0    0  501  0.00000000000E+00  0.00000000000E+00 -0.18012160335E+03  0.18012160342E+03  0.50400001928E-02 0. -1.
    10030    2    1    2    0    0  0.00000000000E+00  0.00000000000E+00  0.93278274236E+03  0.12930259491E+04  0.89545098174E+03 0.  0.
        5    1    3    3  502    0 -0.25566598858E+03 -0.35766305051E+03  0.58847567044E+03  0.73458400480E+03  0.46999998093E+01 0. -1.
       -5    1    3    3    0  502  0.25566598858E+03  0.35766305051E+03  0.34430707192E+03  0.55844194434E+03  0.46999998093E+01 0.  1.
</event>
<event>
 5   0  0.8612969E-03  0.9009230E+03  0.7818609E-02  0.9424428E-01
       -1   -1    0    0    0  501  0.00000000000E+00  0.00000000000E+00  0.38157041871E+03  0.38157041875E+03  0.50400001928E-02 0. -1.
        1   -1    0    0  501    0  0.00000000000E+00  0.00000000000E+00 -0.53179065145E+03  0.53179065148E+03  0.50400001928E-02 0.  1.
    10030    2    1    2    0    0  0.00000000000E+00  0.00000000000E+00 -0.15022023274E+03  0.91336107022E+03  0.90092304126E+03 0.  0.
        4    1    3    3  502    0  0.40042902173E+03 -0.14654617227E+03 -0.22235573162E+03  0.48089797914E+03  0.12699999809E+01 0.  1.
       -4    1    3    3    0  502 -0.40042902173E+03  0.14654617227E+03  0.72135498880E+02  0.43246309109E+03  0.12699999809E+01 0. -1.
</event>
<event>
 5   0  0.8885324E-03  0.9206523E+03  0.7818609E-02  0.9400127E-01
        1   -1    0    0  501    0  0.00000000000E+00  0.00000000000E+00  0.12694692370E+04  0.12694692370E+04  0.50400001928E-02 0.  1.
       -1   -1    0    0    0  501  0.00000000000E+00  0.00000000000E+00 -0.16692029801E+03  0.16692029809E+03  0.50400001928E-02 0. -1.
    10030    2    1    2    0    0  0.00000000000E+00  0.00000000000E+00  0.11025489390E+04  0.14363895351E+04  0.92065234138E+03 0.  0.
        2    1    3    3  502    0  0.18599512526E+03 -0.41969595439E+03  0.49810659719E+03  0.67738398485E+03  0.25500000920E-02 0.  1.
       -2    1    3    3    0  502 -0.18599512526E+03  0.41969595439E+03  0.60444234182E+03  0.75900555027E+03  0.25500000920E-02 0. -1.
</event>
<event>
 5   0  0.1440615E-02  0.9005461E+03  0.7818609E-02  0.9424899E-01
       -2   -1    0    0    0  501  0.00000000000E+00  0.00000000000E+00  0.25063694058E+03  0.25063694059E+03  0.25500000920E-02 0.  1.
        2   -1    0    0  501    0  0.00000000000E+00  0.00000000000E+00 -0.80892231306E+03  0.80892231306E+03  0.25500000920E-02 0. -1.
    10030    2    1    2    0    0  0.00000000000E+00  0.00000000000E+00 -0.55828537248E+03  0.10595592537E+04  0.90054608704E+03 0.  0.
        3    1    3    3  502    0 -0.10720752365E+03 -0.21460395985E+03  0.16918840825E+03  0.29355244914E+03  0.10100000352E+00 0.  1.
       -3    1    3    3    0  502  0.10720752365E+03  0.21460395985E+03 -0.72747378073E+03  0.76600680451E+03  0.10100000352E+00 0. -1.
</event>
<event>
 5   0  0.1454652E-02  0.9314818E+03  0.7818609E-02  0.9387061E-01
        2   -1    0    0  501    0  0.00000000000E+00  0.00000000000E+00  0.24693652260E+04  0.24693652260E+04  0.25500000920E-02 0.  1.
       -2   -1    0    0    0  501  0.00000000000E+00  0.00000000000E+00 -0.87842241063E+02  0.87842241100E+02  0.25500000920E-02 0. -1.
    10030    2    1    2    0    0  0.00000000000E+00  0.00000000000E+00  0.23815229849E+04  0.25572074671E+04  0.93148177760E+03 0.  0.
        4    1    3    3  502    0 -0.14394406001E+02  0.29618518623E+03  0.21767070938E+04  0.21968132029E+04  0.12699999809E+01 0.  1.
       -4    1    3    3    0  502  0.14394406001E+02 -0.29618518623E+03  0.20481589108E+03  0.36039426411E+03  0.12699999809E+01 0. -1.
</event>
<event>
 5   0  0.1483326E-02  0.8944695E+03  0.7818609E-02  0.9432521E-01
        2   -1    0    0  501    0  0.00000000000E+00  0.00000000000E+00  0.89188546190E+03  0.89188546190E+03  0.25500000920E-02 0. -1.
       -2   -1    0    0    0  501  0.00000000000E+00  0.00000000000E+00 -0.22426524794E+03  0.22426524795E+03  0.25500000920E-02 0.  1.
    10030    2    1    2    0    0  0.00000000000E+00  0.00000000000E+00  0.66762021396E+03  0.11161507099E+04  0.89446948356E+03 0.  0.
        1    1    3    3  502    0 -0.11844253316E+03 -0.42583955240E+03  0.41890988657E+03  0.60897738147E+03  0.50400001928E-02 0.  1.
       -1    1    3    3    0  502  0.11844253316E+03  0.42583955240E+03  0.24871032739E+03  0.50717332839E+03  0.50400001928E-02 0. -1.
</event>
<event>
 5   0  0.1440615E-02  0.9060006E+03  0.7818609E-02  0.9418111E-01
       -2   -1    0    0    0  501  0.00000000000E+00  0.00000000000E+00  0.39011989531E+03  0.39011989532E+03  0.25500000920E-02 0.  1.
        2   -1    0    0  501    0  0.00000000000E+00  0.00000000000E+00 -0.52601586758E+03  0.52601586759E+03  0.25500000920E-02 0. -1.
    10030    2    1    2    0    0  0.00000000000E+00  0.00000000000E+00 -0.13589597227E+03  0.91613576290E+03  0.90600056335E+03 0.  0.
        3    1    3    3  502    0 -0.33344377928E+03  0.17565329330E+02 -0.37750320179E+03  0.50398608343E+03  0.10100000352E+00 0. -1.
       -3    1    3    3    0  502  0.33344377928E+03 -0.17565329330E+02  0.24160722952E+03  0.41214967947E+03  0.10100000352E+00 0.  1.
</event>
<event>
 5   0  0.8524692E-03  0.8941301E+03  0.7818609E-02  0.9432949E-01
       -1   -1    0    0    0  501  0.00000000000E+00  0.00000000000E+00  0.48552272265E+03  0.48552272267E+03  0.50400001928E-02 0. -1.
        1   -1    0    0  501    0  0.00000000000E+00  0.00000000000E+00 -0.41165357897E+03  0.41165357900E+03  0.50400001928E-02 0.  1.
    10030    2    1    2    0    0  0.00000000000E+00  0.00000000000E+00  0.73869143675E+02  0.89717630167E+03  0.89413011687E+03 0.  0.
        5    1    3    3  502    0  0.62481519103E+02  0.39153907024E+03  0.24412847577E+03  0.46564749160E+03  0.46999998093E+01 0. -1.
       -5    1    3    3    0  502 -0.62481519103E+02 -0.39153907024E+03 -0.17025933210E+03  0.43152881007E+03  0.46999998093E+01 0.  1.
</event>
<event>
 5   0  0.8612969E-03  0.8816060E+03  0.7818609E-02  0.9448871E-01
        1   -1    0    0  501    0  0.00000000000E+00  0.00000000000E+00  0.15788570410E+03  0.15788570418E+03  0.50400001928E-02 0.  1.
       -1   -1    0    0    0  501  0.00000000000E+00  0.00000000000E+00 -0.12306831684E+04  0.12306831684E+04  0.50400001928E-02 0. -1.
    10030    2    1    2    0    0  0.00000000000E+00  0.00000000000E+00 -0.10727974643E+04  0.13885688726E+04  0.88160598599E+03 0.  0.
        4    1    3    3  502    0 -0.12746525357E+03  0.40379784344E+03 -0.72933738321E+03  0.84334733099E+03  0.12699999809E+01 0. -1.
       -4    1    3    3    0  502  0.12746525357E+03 -0.40379784344E+03 -0.34346008108E+03  0.54522154160E+03  0.12699999809E+01 0.  1.
</event>
<event>
 5   0  0.8738044E-03  0.9508940E+03  0.7818609E-02  0.9364106E-01
        1   -1    0    0  501    0  0.00000000000E+00  0.00000000000E+00  0.12401343097E+04  0.12401343098E+04  0.50400001928E-02 0.  1.
       -1   -1    0    0    0  501  0.00000000000E+00  0.00000000000E+00 -0.18227851325E+03  0.18227851332E+03  0.50400001928E-02 0. -1.
    10030    2    1    2    0    0  0.00000000000E+00  0.00000000000E+00  0.10578557965E+04  0.14224128231E+04  0.95089397572E+03 0.  0.
        3    1    3    3  502    0 -0.11958527631E+03  0.45875667193E+03  0.47517006830E+03  0.67122643449E+03  0.10100000352E+00 0. -1.
       -3    1    3    3    0  502  0.11958527631E+03 -0.45875667193E+03  0.58268572819E+03  0.75118638858E+03  0.10100000352E+00 0.  1.
</event>
<event>
 5   0  0.8291252E-03  0.9033547E+03  0.7818609E-02  0.9421398E-01
        1   -1    0    0  501    0  0.00000000000E+00  0.00000000000E+00  0.40514226398E+03  0.40514226401E+03  0.50400001928E-02 0. -1.
       -1   -1    0    0    0  501  0.00000000000E+00  0.00000000000E+00 -0.50355752840E+03  0.50355752842E+03  0.50400001928E-02 0.  1.
    10030    2    1    2    0    0  0.00000000000E+00  0.00000000000E+00 -0.98415264423E+02  0.90869979243E+03  0.90335471909E+03 0.  0.
        1    1    3    3  502    0 -0.25782297483E+03  0.24650040414E+03 -0.32793430666E+03  0.48453693884E+03  0.50400001928E-02 0.  1.
       -1    1    3    3    0  502  0.25782297483E+03 -0.24650040414E+03  0.22951904224E+03  0.42416285359E+03  0.50400001928E-02 0. -1.
</event>
<event>
 5   0  0.1454652E-02  0.9218678E+03  0.7818609E-02  0.9398651E-01
        2   -1    0    0  501    0  0.00000000000E+00  0.00000000000E+00  0.70244557068E+03  0.70244557068E+03  0.25500000920E-02 0.  1.
       -2   -1    0    0    0  501  0.00000000000E+00  0.00000000000E+00 -0.30245767794E+03  0.30245767795E+03  0.25500000920E-02 0. -1.
    10030    2    1    2    0    0  0.00000000000E+00  0.00000000000E+00  0.39998789274E+03  0.10049032486E+04  0.92186779137E+03 0.  0.
        4    1    3    3  502    0  0.43661530974E+03 -0.11517580602E+03  0.99139809674E+02  0.46230802475E+03  0.12699999809E+01 0. -1.
       -4    1    3    3    0  502 -0.43661530974E+03  0.11517580602E+03  0.30084808306E+03  0.54259522388E+03  0.12699999809E+01 0.  1.
</event>
<event>
 5   0  0.1483326E-02  0.8936030E+03  0.7818609E-02  0.9433613E-01
        2   -1    0    0  501    0  0.00000000000E+00  0.00000000000E+00  0.10998495312E+04  0.10998495312E+04  0.25500000920E-02 0.  1.
       -2   -1    0    0    0  501  0.00000000000E+00  0.00000000000E+00 -0.18150809280E+03  0.18150809281E+03  0.25500000920E-02 0. -1.
    10030    2    1    2    0    0  0.00000000000E+00  0.00000000000E+00  0.91834143843E+03  0.12813576240E+04  0.89360302325E+03 0.  0.
        1    1    3    3  502    0  0.81348902746E+02 -0.27143812537E+03 -0.36177009372E+02  0.28566602164E+03  0.50400001928E-02 0. -1.
       -1    1    3    3    0  502 -0.81348902746E+02  0.27143812537E+03  0.95451844780E+03  0.99569160241E+03  0.50400001928E-02 0.  1.
</event>
<event>
 5   0  0.1535906E-02  0.8888921E+03  0.7818609E-02  0.9439574E-01
        2   -1    0    0  501    0  0.00000000000E+00  0.00000000000E+00  0.60573837516E+03  0.60573837516E+03  0.25500000920E-02 0. -1.
       -2   -1    0    0    0  501  0.00000000000E+00  0.00000000000E+00 -0.32610162646E+03  0.32610162647E+03  0.25500000920E-02 0.  1.
    10030    2    1    2    0    0  0.00000000000E+00  0.00000000000E+00  0.27963674870E+03  0.93184000164E+03  0.88889205049E+03 0.  0.
        2    1    3    3  502    0 -0.32393069431E+03 -0.26734940385E+03 -0.12550243006E+02  0.42019555812E+03  0.25500000920E-02 0.  1.
       -2    1    3    3    0  502  0.32393069431E+03  0.26734940385E+03  0.29218699170E+03  0.51164444352E+03  0.25500000920E-02 0. -1.
</event>
<event>
 5   0  0.8738044E-03  0.9277967E+03  0.7818609E-02  0.9391486E-01
       -1   -1    0    0    0  501  0.00000000000E+00  0.00000000000E+00  0.12269122769E+03  0.12269122780E+03  0.50400001928E-02 0.  1.
        1   -1    0    0  501    0  0.00000000000E+00  0.00000000000E+00 -0.17540102087E+04  0.17540102087E+04  0.50400001928E-02 0. -1.
    10030    2    1    2    0    0  0.00000000000E+00  0.00000000000E+00 -0.16313189810E+04  0.18767014365E+04  0.92779667168E+03 0.  0.
        3    1    3    3  502    0  0.14222058316E+03  0.35486190603E+03 -0.13471773893E+04  0.14003715918E+04  0.10100000352E+00 0. -1.
       -3    1    3    3    0  502 -0.14222058316E+03 -0.35486190603E+03 -0.28414159167E+03  0.47632984469E+03  0.10100000352E+00 0.  1.
</event>
<event>
 5   0  0.1440615E-02  0.8995243E+03  0.7818609E-02  0.9426176E-01
       -2   -1    0    0    0  501  0.00000000000E+00  0.00000000000E+00  0.88753316718E+02  0.88753316755E+02  0.25500000920E-02 0. -1.
        2   -1    0    0  501    0  0.00000000000E+00  0.00000000000E+00 -0.22791936923E+04  0.22791936923E+04  0.25500000920E-02 0.  1.
    10030    2    1    2    0    0  0.00000000000E+00  0.00000000000E+00 -0.21904403755E+04  0.23679470090E+04  0.89952431802E+03 0.  0.
        3    1    3    3  502    0  0.24742688872E+03  0.37360565128E+03 -0.99378596615E+03  0.10901430203E+04  0.10100000352E+00 0. -1.
       -3    1    3    3    0  502 -0.24742688872E+03 -0.37360565128E+03 -0.11966544094E+04  0.12778039887E+04  0.10100000352E+00 0.  1.
</event>
<event>
 5   0  0.1441195E-02  0.8986875E+03  0.7818609E-02  0.9427224E-01
        2   -1    0    0  501    0  0.00000000000E+00  0.00000000000E+00  0.51030931878E+03  0.51030931879E+03  0.25500000920E-02 0. -1.
       -2   -1    0    0    0  501  0.00000000000E+00  0.00000000000E+00 -0.39566158119E+03  0.39566158119E+03  0.25500000920E-02 0.  1.
    10030    2    1    2    0    0  0.00000000000E+00  0.00000000000E+00  0.11464773760E+03  0.90597089998E+03  0.89868746952E+03 0.  0.
        5    1    3    3  502    0  0.11742542696E+02  0.34849802557E+03  0.34299112953E+03  0.48913573379E+03  0.46999998093E+01 0. -1.
       -5    1    3    3    0  502 -0.11742542696E+02 -0.34849802557E+03 -0.22834339193E+03  0.41683516619E+03  0.46999998093E+01 0.  1.
</event>
<event>
 5   0  0.1483326E-02  0.8810178E+03  0.7818609E-02  0.9449626E-01
       -2   -1    0    0    0  501  0.00000000000E+00  0.00000000000E+00  0.98971960480E+03  0.98971960480E+03  0.25500000920E-02 0.  1.
        2   -1    0    0  501    0  0.00000000000E+00  0.00000000000E+00 -0.19606371697E+03  0.19606371698E+03  0.25500000920E-02 0. -1.
    10030    2    1    2    0    0  0.00000000000E+00  0.00000000000E+00  0.79365588783E+03  0.11857833218E+04  0.88101783066E+03 0.  0.
        1    1    3    3  502    0  0.39218088919E+03 -0.61775063129E+02  0.65370596956E+03  0.76482253036E+03  0.50400001928E-02 0.  1.
       -1    1    3    3    0  502 -0.39218088919E+03  0.61775063129E+02  0.13994991827E+03  0.42096079143E+03  0.50400001928E-02 0. -1.
</event>
<event>
 5   0  0.8291252E-03  0.8872011E+03  0.7818609E-02  0.9441724E-01
       -1   -1    0    0    0  501  0.00000000000E+00  0.00000000000E+00  0.32436555800E+03  0.32436555804E+03  0.50400001928E-02 0. -1.
        1   -1    0    0  501    0  0.00000000000E+00  0.00000000000E+00 -0.60666560167E+03  0.60666560169E+03  0.50400001928E-02 0.  1.
    10030    2    1    2    0    0  0.00000000000E+00  0.00000000000E+00 -0.28230004367E+03  0.93103115972E+03  0.88720105147E+03 0.  0.
        1    1    3    3  502    0  0.34128721477E+03  0.16160952178E+02  0.15574616916E+03  0.37549302067E+03  0.50400001928E-02 0. -1.
       -1    1    3    3    0  502 -0.34128721477E+03 -0.16160952178E+02 -0.43804621283E+03  0.55553813905E+03  0.50400001928E-02 0.  1.
</event>
<event>
 5   0  0.8612969E-03  0.8892166E+03  0.7818609E-02  0.9439163E-01
        1   -1    0    0  501    0  0.00000000000E+00  0.00000000000E+00  0.16283946957E+04  0.16283946957E+04  0.50400001928E-02 0. -1.
       -1   -1    0    0    0  501  0.00000000000E+00  0.00000000000E+00 -0.12139350161E+03  0.12139350171E+03  0.50400001928E-02 0.  1.
    10030    2    1    2    0    0  0.00000000000E+00  0.00000000000E+00  0.15070011941E+04  0.17497881974E+04  0.88921658600E+03 0.  0.
        4    1    3    3  502    0  0.15376033267E+03 -0.11946787007E+03 -0.33023626676E+02  0.19750185999E+03  0.12699999809E+01 0.  1.
       -4    1    3    3    0  502 -0.15376033267E+03  0.11946787007E+03  0.15400248207E+04  0.15522863374E+04  0.12699999809E+01 0. -1.
</event>
<event>
 5   0  0.8738044E-03  0.9022736E+03  0.7818609E-02  0.9422744E-01
       -1   -1    0    0    0  501  0.00000000000E+00  0.00000000000E+00  0.36164387928E+03  0.36164387931E+03  0.50400001928E-02 0. -1.
        1   -1    0    0  501    0  0.00000000000E+00  0.00000000000E+00 -0.56277574697E+03  0.56277574699E+03  0.50400001928E-02 0.  1.
    10030    2    1    2    0    0  0.00000000000E+00  0.00000000000E+00 -0.20113186769E+03  0.92441962630E+03  0.90227358229E+03 0.  0.
        3    1    3    3  502    0 -0.17365340184E+03  0.24764758704E+03  0.24237286174E+03  0.38759443449E+03  0.10100000352E+00 0. -1.
       -3    1    3    3    0  502  0.17365340184E+03 -0.24764758704E+03 -0.44350472943E+03  0.53682519181E+03  0.10100000352E+00 0.  1.
</event>
<event>
 5   0  0.1454652E-02  0.8921288E+03  0.7818609E-02  0.9435475E-01
        2   -1    0    0  501    0  0.00000000000E+00  0.00000000000E+00  0.89331637343E+03  0.89331637343E+03  0.25500000920E-02 0.  1.
       -2   -1    0    0    0  501  0.00000000000E+00  0.00000000000E+00 -0.22273572034E+03  0.22273572036E+03  0.25500000920E-02 0. -1.
    10030    2    1    2    0    0  0.00000000000E+00  0.00000000000E+00  0.67058065309E+03  0.11160520938E+04  0.89212883810E+03 0.  0.
        4    1    3    3  502    0 -0.35637168280E+03 -0.26573524002E+03  0.28922606172E+03  0.53034830232E+03  0.12699999809E+01 0.  1.
       -4    1    3    3    0  502  0.35637168280E+03  0.26573524002E+03  0.38135459137E+03  0.58570379148E+03  0.12699999809E+01 0. -1.
</event>
<event>
 5   0  0.1441195E-02  0.8514438E+03  0.7818609E-02  0.9488401E-01
       -2   -1    0    0    0  501  0.00000000000E+00  0.00000000000E+00  0.42165663053E+03  0.42165663054E+03  0.25500000920E-02 0. -1.
        2   -1    0    0  501    0  0.00000000000E+00  0.00000000000E+00 -0.42982631777E+03  0.42982631778E+03  0.25500000920E-02 0.  1.
    10030    2    1    2    0    0  0.00000000000E+00  0.00000000000E+00 -0.81696872419E+01  0.85148294832E+03  0.85144375474E+03 0.  0.
        5    1    3    3  502    0 -0.28431863964E+03 -0.12725777332E+03  0.28607571153E+03  0.42295748302E+03  0.46999998093E+01 0. -1.
       -5    1    3    3    0  502  0.28431863964E+03  0.12725777332E+03 -0.29424539877E+03  0.42852546530E+03  0.46999998093E+01 0.  1.
</event>
<event>
 5   0  0.1535906E-02  0.9017735E+03  0.7818609E-02  0.9423367E-01
       -2   -1    0    0    0  501  0.00000000000E+00  0.00000000000E+00  0.19681941446E+03  0.19681941448E+03  0.25500000920E-02 0. -1.
        2   -1    0    0  501    0  0.00000000000E+00  0.00000000000E+00 -0.10329207446E+04  0.10329207446E+04  0.25500000920E-02 0.  1.
    10030    2    1    2    0    0  0.00000000000E+00  0.00000000000E+00 -0.83610133015E+03  0.12297401591E+04  0.90177348852E+03 0.  0.
        2    1    3    3  502    0 -0.18706294857E+03  0.26409140259E+03  0.10074479594E+02  0.32378744694E+03  0.25500000920E-02 0. -1.
       -2    1    3    3    0  502  0.18706294857E+03 -0.26409140259E+03 -0.84617580974E+03  0.90595271215E+03  0.25500000920E-02 0.  1.
</event>
<event>
 5   0  0.1440615E-02  0.9059535E+03  0.7818609E-02  0.9418170E-01
        2   -1    0    0  501    0  0.00000000000E+00  0.00000000000E+00  0.10737694455E+04  0.10737694455E+04  0.25500000920E-02 0. -1.
       -2   -1    0    0    0  501  0.00000000000E+00  0.00000000000E+00 -0.19109123934E+03  0.19109123936E+03  0.25500000920E-02 0.  1.
    10030    2    1    2    0    0  0.00000000000E+00  0.00000000000E+00  0.88267820620E+03  0.12648606849E+04  0.90595349577E+03 0.  0.
        3    1    3    3  502    0  0.27182915868E+03 -0.36234314028E+03  0.44422788662E+03  0.63444626901E+03  0.10100000352E+00 0. -1.
       -3    1    3    3    0  502 -0.27182915868E+03  0.36234314028E+03  0.43845031958E+03  0.63041441588E+03  0.10100000352E+00 0.  1.
</event>
<event>
 5   0  0.1535906E-02  0.8907994E+03  0.7818609E-02  0.9437156E-01
        2   -1    0    0  501    0  0.00000000000E+00  0.00000000000E+00  0.11415914496E+04  0.11415914496E+04  0.25500000920E-02 0. -1.
       -2   -1    0    0    0  501  0.00000000000E+00  0.00000000000E+00 -0.17377573499E+03  0.17377573501E+03  0.25500000920E-02 0.  1.
    10030    2    1    2    0    0  0.00000000000E+00  0.00000000000E+00  0.96781571456E+03  0.13153671846E+04  0.89079940103E+03 0.  0.
        2    1    3    3  502    0 -0.62103077202E+02 -0.43023433716E+03  0.62724228992E+03  0.76314563967E+03  0.25500000920E-02 0.  1.
       -2    1    3    3    0  502  0.62103077202E+02  0.43023433716E+03  0.34057342464E+03  0.55222154490E+03  0.25500000920E-02 0. -1.
</event>
<event>
 5   0  0.1440615E-02  0.9101341E+03  0.7818609E-02  0.9413001E-01
       -2   -1    0    0    0  501  0.00000000000E+00  0.00000000000E+00  0.81632310152E+02  0.81632310192E+02  0.25500000920E-02 0.  1.
        2   -1    0    0  501    0  0.00000000000E+00  0.00000000000E+00 -0.25368144695E+04  0.25368144695E+04  0.25500000920E-02 0. -1.
    10030    2    1    2    0    0  0.00000000000E+00  0.00000000000E+00 -0.24551821593E+04  0.26184467796E+04  0.91013411237E+03 0.  0.
        3    1    3    3  502    0 -0.41084601227E+03 -0.17530538195E+03 -0.97744853879E+03  0.10746776628E+04  0.10100000352E+00 0.  1.
       -3    1    3    3    0  502  0.41084601227E+03  0.17530538195E+03 -0.14777336205E+04  0.15437691169E+04  0.10100000352E+00 0. -1.
</event>
<event>
 5   0  0.1440615E-02  0.8984480E+03  0.7818609E-02  0.9427524E-01
        2   -1    0    0  501    0  0.00000000000E+00  0.00000000000E+00  0.13160140215E+04  0.13160140215E+04  0.25500000920E-02 0. -1.
       -2   -1    0    0    0  501  0.00000000000E+00  0.00000000000E+00 -0.15334350665E+03  0.15334350668E+03  0.25500000920E-02 0.  1.
    10030    2    1    2    0    0  0.00000000000E+00  0.00000000000E+00  0.11626705149E+04  0.14693575282E+04  0.89844800603E+03 0.  0.
        3    1    3    3  502    0 -0.27245393239E+03 -0.86025631510E+02  0.11482708466E+04  0.11832825115E+04  0.10100000352E+00 0. -1.
       -3    1    3    3    0  502  0.27245393239E+03  0.86025631510E+02  0.14399668243E+02  0.28607501673E+03  0.10100000352E+00 0.  1.
</event>
<event>
 5   0  0.1454652E-02  0.9484582E+03  0.7818609E-02  0.9366955E-01
        2   -1    0    0  501    0  0.00000000000E+00  0.00000000000E+00  0.10021750991E+04  0.10021750991E+04  0.25500000920E-02 0. -1.
       -2   -1    0    0    0  501  0.00000000000E+00  0.00000000000E+00 -0.22440513468E+03  0.22440513469E+03  0.25500000920E-02 0.  1.
    10030    2    1    2    0    0  0.00000000000E+00  0.00000000000E+00  0.77776996439E+03  0.12265802338E+04  0.94845819747E+03 0.  0.
        4    1    3    3  502    0  0.11024496653E+03 -0.44602142367E+03  0.23695005456E+03  0.51694874434E+03  0.12699999809E+01 0.  1.
       -4    1    3    3    0  502 -0.11024496653E+03  0.44602142367E+03  0.54081990983E+03  0.70963148942E+03  0.12699999809E+01 0. -1.
</event>
<event>
 5   0  0.8738044E-03  0.8918831E+03  0.7818609E-02  0.9435785E-01
        1   -1    0    0  501    0  0.00000000000E+00  0.00000000000E+00  0.72113894924E+03  0.72113894925E+03  0.50400001928E-02 0. -1.
       -1   -1    0    0    0  501  0.00000000000E+00  0.00000000000E+00 -0.27576359690E+03  0.27576359695E+03  0.50400001928E-02 0.  1.
    10030    2    1    2    0    0  0.00000000000E+00  0.00000000000E+00  0.44537535233E+03  0.99690254620E+03  0.89188311014E+03 0.  0.
        3    1    3    3  502    0 -0.19665861531E+03 -0.34071580094E+03  0.45742052542E+03  0.60332032559E+03  0.10100000352E+00 0. -1.
       -3    1    3    3    0  502  0.19665861531E+03  0.34071580094E+03 -0.12045173088E+02  0.39358222061E+03  0.10100000352E+00 0.  1.
</event>
<event>
 5   0  0.8885324E-03  0.8983010E+03  0.7818609E-02  0.9427708E-01
       -1   -1    0    0    0  501  0.00000000000E+00  0.00000000000E+00  0.11811517297E+03  0.11811517308E+03  0.50400001928E-02 0. -1.
        1   -1    0    0  501    0  0.00000000000E+00  0.00000000000E+00 -0.17079615550E+04  0.17079615550E+04  0.50400001928E-02 0.  1.
    10030    2    1    2    0    0  0.00000000000E+00  0.00000000000E+00 -0.15898463820E+04  0.18260767281E+04  0.89830100657E+03 0.  0.
        2    1    3    3  502    0 -0.32991424887E+03 -0.24480697824E+03 -0.42585558191E+03  0.59171517207E+03  0.25500000920E-02 0. -1.
       -2    1    3    3    0  502  0.32991424887E+03  0.24480697824E+03 -0.11639908001E+04  0.12343615560E+04  0.25500000920E-02 0.  1.
</event>
<event>
 5   0  0.8885324E-03  0.8967310E+03  0.7818609E-02  0.9429677E-01
       -1   -1    0    0    0  501  0.00000000000E+00  0.00000000000E+00  0.41316620189E+03  0.41316620192E+03  0.50400001928E-02 0.  1.
        1   -1    0    0  501    0  0.00000000000E+00  0.00000000000E+00 -0.48656360566E+03  0.48656360568E+03  0.50400001928E-02 0. -1.
    10030    2    1    2    0    0  0.00000000000E+00  0.00000000000E+00 -0.73397403762E+02  0.89972980761E+03  0.89673103427E+03 0.  0.
        2    1    3    3  502    0 -0.26302052575E+03  0.62983239747E+02 -0.39550464676E+03  0.47913527429E+03  0.25500000920E-02 0. -1.
       -2    1    3    3    0  502  0.26302052575E+03 -0.62983239747E+02  0.32210724300E+03  0.42059453331E+03  0.25500000920E-02 0.  1.
</event>
<event>
 5   0  0.8738044E-03  0.9064632E+03  0.7818609E-02  0.9417538E-01
       -1   -1    0    0    0  501  0.00000000000E+00  0.00000000000E+00  0.23397357636E+03  0.23397357641E+03  0.50400001928E-02 0.  1.
        1   -1    0    0  501    0  0.00000000000E+00  0.00000000000E+00 -0.87795754970E+03  0.87795754972E+03  0.50400001928E-02 0. -1.
    10030    2    1    2    0    0  0.00000000000E+00  0.00000000000E+00 -0.64398397334E+03  0.11119311261E+04  0.90646316601E+03 0.  0.
        3    1    3    3  502    0  0.83901891127E+02  0.25661950983E+03 -0.76854998643E+03  0.81459326783E+03  0.10100000352E+00 0. -1.
       -3    1    3    3    0  502 -0.83901891127E+02 -0.25661950983E+03  0.12456601308E+03  0.29733785829E+03  0.10100000352E+00 0.  1.
</event>
<event>
 5   0  0.1483326E-02  0.9427091E+03  0.7818609E-02  0.9373713E-01
        2   -1    0    0  501    0  0.00000000000E+00  0.00000000000E+00  0.73747705375E+03  0.73747705376E+03  0.25500000920E-02 0. -1.
       -2   -1    0    0    0  501  0.00000000000E+00  0.00000000000E+00 -0.30126375226E+03  0.30126375227E+03  0.25500000920E-02 0.  1.
    10030    2    1    2    0    0  0.00000000000E+00  0.00000000000E+00  0.43621330149E+03  0.10387408060E+04  0.94270908435E+03 0.  0.
        1    1    3    3  502    0  0.39183233783E+03  0.16466794861E+03 -0.64338713204E+01  0.42507588616E+03  0.50400001928E-02 0.  1.
       -1    1    3    3    0  502 -0.39183233783E+03 -0.16466794861E+03  0.44264717281E+03  0.61366491988E+03  0.50400001928E-02 0. -1.
</event>
<event>
 5   0  0.8738044E-03  0.9052999E+03  0.7818609E-02  0.9418980E-01
       -1   -1    0    0    0  501  0.00000000000E+00  0.00000000000E+00  0.35612126204E+03  0.35612126207E+03  0.50400001928E-02 0.  1.
        1   -1    0    0  501    0  0.00000000000E+00  0.00000000000E+00 -0.57534329273E+03  0.57534329275E+03  0.50400001928E-02 0. -1.
    10030    2    1    2    0    0  0.00000000000E+00  0.00000000000E+00 -0.21922203069E+03  0.93146455482E+03  0.90529990509E+03 0.  0.
        3    1    3    3  502    0  0.35491822118E+02  0.44940386950E+03 -0.15163836616E+03  0.47562349779E+03  0.10100000352E+00 0. -1.
       -3    1    3    3    0  502 -0.35491822118E+02 -0.44940386950E+03 -0.67583664531E+02  0.45584105703E+03  0.10100000352E+00 0.  1.
</event>
<event>
 5   0  0.1440615E-02  0.8972276E+03  0.7818609E-02  0.9429054E-01
       -2   -1    0    0    0  501  0.00000000000E+00  0.00000000000E+00  0.28117130309E+03  0.28117130310E+03  0.25500000920E-02 0. -1.
        2   -1    0    0  501    0  0.00000000000E+00  0.00000000000E+00 -0.71577122470E+03  0.71577122471E+03  0.25500000920E-02 0.  1.
    10030    2    1    2    0    0  0.00000000000E+00  0.00000000000E+00 -0.43459992161E+03  0.99694252781E+03  0.89722756974E+03 0.  0.
        3    1    3    3  502    0 -0.37464942464E+03 -0.22490743135E+03 -0.10448387806E+03  0.44929103601E+03  0.10100000352E+00 0. -1.
       -3    1    3    3    0  502  0.37464942464E+03  0.22490743135E+03 -0.33011604356E+03  0.54765149180E+03  0.10100000352E+00 0.  1.
</event>
<event>
 5   0  0.8291252E-03  0.9051618E+03  0.7818609E-02  0.9419152E-01
        1   -1    0    0  501    0  0.00000000000E+00  0.00000000000E+00  0.13720507863E+04  0.13720507863E+04  0.50400001928E-02 0. -1.
       -1   -1    0    0    0  501  0.00000000000E+00  0.00000000000E+00 -0.14928708564E+03  0.14928708572E+03  0.50400001928E-02 0.  1.
    10030    2    1    2    0    0  0.00000000000E+00  0.00000000000E+00  0.12227637006E+04  0.15213378720E+04  0.90516178290E+03 0.  0.
        1    1    3    3  502    0 -0.52094995281E+02 -0.34357491811E+03  0.12405002885E+03  0.36897970482E+03  0.50400001928E-02 0.  1.
       -1    1    3    3    0  502  0.52094995281E+02  0.34357491811E+03  0.10987136718E+04  0.11523581672E+04  0.50400001928E-02 0. -1.
</event>
<event>
 5   0  0.1454652E-02  0.8997904E+03  0.7818609E-02  0.9425843E-01
       -2   -1    0    0    0  501  0.00000000000E+00  0.00000000000E+00  0.46579910493E+03  0.46579910494E+03  0.25500000920E-02 0. -1.
        2   -1    0    0  501    0  0.00000000000E+00  0.00000000000E+00 -0.43453432327E+03  0.43453432328E+03  0.25500000920E-02 0.  1.
    10030    2    1    2    0    0  0.00000000000E+00  0.00000000000E+00  0.31264781665E+02  0.90033342822E+03  0.89979041748E+03 0.  0.
        4    1    3    3  502    0 -0.21384570175E+03 -0.38723552747E+03 -0.66409456253E+02  0.44731774688E+03  0.12699999809E+01 0. -1.
       -4    1    3    3    0  502  0.21384570175E+03  0.38723552747E+03  0.97674237918E+02  0.45301568134E+03  0.12699999809E+01 0.  1.
</event>
<event>
 5   0  0.1454652E-02  0.9112515E+03  0.7818609E-02  0.9411625E-01
        2   -1    0    0  501    0  0.00000000000E+00  0.00000000000E+00  0.59346916137E+03  0.59346916138E+03  0.25500000920E-02 0. -1.
       -2   -1    0    0    0  501  0.00000000000E+00  0.00000000000E+00 -0.34979886937E+03  0.34979886938E+03  0.25500000920E-02 0.  1.
    10030    2    1    2    0    0  0.00000000000E+00  0.00000000000E+00  0.24367029200E+03  0.94326803075E+03  0.91125153862E+03 0.  0.
        4    1    3    3  502    0 -0.41026234926E+01  0.94185369015E+02 -0.33959057533E+03  0.35243593319E+03  0.12699999809E+01 0.  1.
       -4    1    3    3    0  502  0.41026234926E+01 -0.94185369015E+02  0.58326086733E+03  0.59083209756E+03  0.12699999809E+01 0. -1.
</event>
<event>
 5   0  0.8524692E-03  0.9099147E+03  0.7818609E-02  0.9413272E-01
       -1   -1    0    0    0  501  0.00000000000E+00  0.00000000000E+00  0.17288812978E+03  0.17288812985E+03  0.50400001928E-02 0.  1.
        1   -1    0    0  501    0  0.00000000000E+00  0.00000000000E+00 -0.11972262208E+04  0.11972262208E+04  0.50400001928E-02 0. -1.
    10030    2    1    2    0    0  0.00000000000E+00  0.00000000000E+00 -0.10243380910E+04  0.13701143506E+04  0.90991472631E+03 0.  0.
        5    1    3    3  502    0  0.27082981688E+03  0.35875283990E+03 -0.61769833881E+03  0.76395400229E+03  0.46999998093E+01 0. -1.
       -5    1    3    3    0  502 -0.27082981688E+03 -0.35875283990E+03 -0.40663975219E+03  0.60616034835E+03  0.46999998093E+01 0.  1.
</event>
<event>
 5   0  0.8738044E-03  0.9212687E+03  0.7818609E-02  0.9399378E-01
       -1   -1    0    0    0  501  0.00000000000E+00  0.00000000000E+00  0.43078241615E+03  0.43078241618E+03  0.50400001928E-02 0. -1.
        1   -1    0    0  501    0  0.00000000000E+00  0.00000000000E+00 -0.49255488592E+03  0.49255488594E+03  0.50400001928E-02 0.  1.
    10030    2    1    2    0    0  0.00000000000E+00  0.00000000000E+00 -0.61772469766E+02  0.92333730213E+03  0.92126865543E+03 0.  0.
        3    1    3    3  502    0  0.34591843058E+03 -0.28341895954E+03  0.79806800033E+02  0.45426314266E+03  0.10100000352E+00 0. -1.
       -3    1    3    3    0  502 -0.34591843058E+03  0.28341895954E+03 -0.14157926980E+03  0.46907415947E+03  0.10100000352E+00 0.  1.
</event>
<event>
 5   0  0.8885324E-03  0.9044066E+03  0.7818609E-02  0.9420090E-01
        1   -1    0    0  501    0  0.00000000000E+00  0.00000000000E+00  0.15723305981E+03  0.15723305989E+03  0.50400001928E-02 0. -1.
       -1   -1    0    0    0  501  0.00000000000E+00  0.00000000000E+00 -0.13005395998E+04  0.13005395998E+04  0.50400001928E-02 0.  1.
    10030    2    1    2    0    0  0.00000000000E+00  0.00000000000E+00 -0.11433065400E+04  0.14577726597E+04  0.90440659163E+03 0.  0.
        2    1    3    3  502    0  0.34330100835E+03  0.97997417344E+02 -0.10190084720E+04  0.10797394788E+04  0.25500000920E-02 0.  1.
       -2    1    3    3    0  502 -0.34330100835E+03 -0.97997417344E+02 -0.12429806804E+03  0.37803318091E+03  0.25500000920E-02 0. -1.
</event>
<event>
 5   0  0.1454652E-02  0.8380968E+03  0.7818609E-02  0.9506454E-01
       -2   -1    0    0    0  501  0.00000000000E+00  0.00000000000E+00  0.73699474675E+02  0.73699474719E+02  0.25500000920E-02 0. -1.
        2   -1    0    0  501    0  0.00000000000E+00  0.00000000000E+00 -0.23826704264E+04  0.23826704264E+04  0.25500000920E-02 0.  1.
    10030    2    1    2    0    0  0.00000000000E+00  0.00000000000E+00 -0.23089709517E+04  0.24563699011E+04  0.83809679346E+03 0.  0.
        4    1    3    3  502    0  0.16103843239E+02 -0.97943096810E+02  0.38742493038E+02  0.10655879901E+03  0.12699999809E+01 0. -1.
       -4    1    3    3    0  502 -0.16103843239E+02  0.97943096810E+02 -0.23477134447E+04  0.23498111021E+04  0.12699999809E+01 0.  1.
</event>
<event>
 5   0  0.8738044E-03  0.9255629E+03  0.7818609E-02  0.9394179E-01
        1   -1    0    0  501    0  0.00000000000E+00  0.00000000000E+00  0.13231844085E+04  0.13231844085E+04  0.50400001928E-02 0. -1.
       -1   -1    0    0    0  501  0.00000000000E+00  0.00000000000E+00 -0.16185700926E+03  0.16185700933E+03  0.50400001928E-02 0.  1.
    10030    2    1    2    0    0  0.00000000000E+00  0.00000000000E+00  0.11613273993E+04  0.14850414179E+04  0.92556290142E+03 0.  0.
        3    1    3    3  502    0 -0.43216009348E+03 -0.20055873102E+02  0.84431578392E+03  0.94870107917E+03  0.10100000352E+00 0.  1.
       -3    1    3    3    0  502  0.43216009348E+03  0.20055873102E+02  0.31701161534E+03  0.53634033869E+03  0.10100000352E+00 0. -1.
</event>
<event>
 5   0  0.1535906E-02  0.9119103E+03  0.7818609E-02  0.9410814E-01
       -2   -1    0    0    0  501  0.00000000000E+00  0.00000000000E+00  0.40144379881E+03  0.40144379882E+03  0.25500000920E-02 0. -1.
        2   -1    0    0  501    0  0.00000000000E+00  0.00000000000E+00 -0.51786847682E+03  0.51786847682E+03  0.25500000920E-02 0.  1.
    10030    2    1    2    0    0  0.00000000000E+00  0.00000000000E+00 -0.11642467801E+03  0.91931227564E+03  0.91191027765E+03 0.  0.
        2    1    3    3  502    0  0.19906595871E+03  0.28879798834E+03 -0.35189043667E+03  0.49684848134E+03  0.25500000920E-02 0.  1.
       -2    1    3    3    0  502 -0.19906595871E+03 -0.28879798834E+03  0.23546575866E+03  0.42246379430E+03  0.25500000920E-02 0. -1.
</event>
<event>
 5   0  0.1454652E-02  0.8744728E+03  0.7818609E-02  0.9458067E-01
        2   -1    0    0  501    0  0.00000000000E+00  0.00000000000E+00  0.49787879455E+03  0.49787879455E+03  0.25500000920E-02 0. -1.
       -2   -1    0    0    0  501  0.00000000000E+00  0.00000000000E+00 -0.38398033450E+03  0.38398033450E+03  0.25500000920E-02 0.  1.
    10030    2    1    2    0    0  0.00000000000E+00  0.00000000000E+00  0.11389846005E+03  0.88185912906E+03  0.87447279220E+03 0.  0.
        4    1    3    3  502    0 -0.11093217807E+03 -0.39572425450E+03 -0.93544051376E+02  0.42149227298E+03  0.12699999809E+01 0.  1.
       -4    1    3    3    0  502  0.11093217807E+03  0.39572425450E+03  0.20744251143E+03  0.46036685608E+03  0.12699999809E+01 0. -1.
</event>
<event>
 5   0  0.8524692E-03  0.9016497E+03  0.7818609E-02  0.9423522E-01
       -1   -1    0    0    0  501  0.00000000000E+00  0.00000000000E+00  0.27526935844E+03  0.27526935848E+03  0.50400001928E-02 0.  1.
        1   -1    0    0  501    0  0.00000000000E+00  0.00000000000E+00 -0.73834244864E+03  0.73834244866E+03  0.50400001928E-02 0. -1.
    10030    2    1    2    0    0  0.00000000000E+00  0.00000000000E+00 -0.46307309020E+03  0.10136118071E+04  0.90164971508E+03 0.  0.
        5    1    3    3  502    0  0.20113554229E+02  0.12369396070E+03  0.25526642662E+03  0.28440778740E+03  0.46999998093E+01 0.  1.
       -5    1    3    3    0  502 -0.20113554229E+02 -0.12369396070E+03 -0.71833951682E+03  0.72920401974E+03  0.46999998093E+01 0. -1.
</event>
<event>
 5   0  0.5770125E-03  0.8766460E+03  0.7818609E-02  0.9455255E-01
        4   -1    0    0  501    0  0.00000000000E+00  0.00000000000E+00  0.57972903814E+03  0.57973042922E+03  0.12699999809E+01 0. -1.
       -4   -1    0    0    0  501  0.00000000000E+00  0.00000000000E+00 -0.33140534110E+03  0.33140777452E+03  0.12699999809E+01 0.  1.
    10030    2    1    2    0    0  0.00000000000E+00  0.00000000000E+00  0.24832369704E+03  0.91113820374E+03  0.87664597632E+03 0.  0.
        1    1    3    3  502    0  0.29583546228E+03 -0.31578287972E+03  0.19683875205E+03  0.47537663195E+03  0.50400001928E-02 0. -1.
       -1    1    3    3    0  502 -0.29583546228E+03  0.31578287972E+03  0.51484944987E+02  0.43576157179E+03  0.50400001928E-02 0.  1.
</event>
<event>
 5   0  0.1535906E-02  0.9072965E+03  0.7818609E-02  0.9416506E-01
       -2   -1    0    0    0  501  0.00000000000E+00  0.00000000000E+00  0.34110402627E+03  0.34110402628E+03  0.25500000920E-02 0. -1.
        2   -1    0    0  501    0  0.00000000000E+00  0.00000000000E+00 -0.60332543509E+03  0.60332543509E+03  0.25500000920E-02 0.  1.
    10030    2    1    2    0    0  0.00000000000E+00  0.00000000000E+00 -0.26222140882E+03  0.94442946137E+03  0.90729650074E+03 0.  0.
        2    1    3    3  502    0  0.29555074744E+03  0.14180584169E+03  0.19531179035E+03  0.38158332840E+03  0.25500000920E-02 0. -1.
       -2    1    3    3    0  502 -0.29555074744E+03 -0.14180584169E+03 -0.45753319917E+03  0.56284613297E+03  0.25500000920E-02 0.  1.
</event>
<event>
 5   0  0.1440615E-02  0.9043450E+03  0.7818609E-02  0.9420166E-01
       -2   -1    0    0    0  501  0.00000000000E+00  0.00000000000E+00  0.15246660820E+03  0.15246660822E+03  0.25500000920E-02 0.  1.
        2   -1    0    0  501    0  0.00000000000E+00  0.00000000000E+00 -0.13410146697E+04  0.13410146697E+04  0.25500000920E-02 0. -1.
    10030    2    1    2    0    0  0.00000000000E+00  0.00000000000E+00 -0.11885480615E+04  0.14934812779E+04  0.90434497456E+03 0.  0.
        3    1    3    3  502    0  0.56536111357E+02 -0.21981039656E+03  0.51582629853E+02  0.23275248704E+03  0.10100000352E+00 0.  1.
       -3    1    3    3    0  502 -0.56536111357E+02  0.21981039656E+03 -0.12401306913E+04  0.12607287909E+04  0.10100000352E+00 0. -1.
</event>
<event>
 5   0  0.1441195E-02  0.8950052E+03  0.7818609E-02  0.9431847E-01
       -2   -1    0    0    0  501  0.00000000000E+00  0.00000000000E+00  0.64684559960E+03  0.64684559961E+03  0.25500000920E-02 0. -1.
        2   -1    0    0  501    0  0.00000000000E+00  0.00000000000E+00 -0.30959254141E+03  0.30959254142E+03  0.25500000920E-02 0.  1.
    10030    2    1    2    0    0  0.00000000000E+00  0.00000000000E+00  0.33725305819E+03  0.95643814103E+03  0.89500519124E+03 0.  0.
        5    1    3    3  502    0  0.25074604490E+03 -0.36518916109E+03  0.23621138957E+03  0.50205040879E+03  0.46999998093E+01 0.  1.
       -5    1    3    3    0  502 -0.25074604490E+03  0.36518916109E+03  0.10104166862E+03  0.45438773223E+03  0.46999998093E+01 0. -1.
</event>
<event>
 5   0  0.8885324E-03  0.9181990E+03  0.7818609E-02  0.9403113E-01
       -1   -1    0    0    0  501  0.00000000000E+00  0.00000000000E+00  0.11438079439E+03  0.11438079450E+03  0.50400001928E-02 0.  1.
        1   -1    0    0  501    0  0.00000000000E+00  0.00000000000E+00 -0.18427248430E+04  0.18427248430E+04  0.50400001928E-02 0. -1.
    10030    2    1    2    0    0  0.00000000000E+00  0.00000000000E+00 -0.17283440486E+04  0.19571056376E+04  0.91819895776E+03 0.  0.
        2    1    3    3  502    0  0.29415788518E+03 -0.20215886971E+03 -0.24871734644E+03  0.43503722650E+03  0.25500000920E-02 0.  1.
       -2    1    3    3    0  502 -0.29415788518E+03  0.20215886971E+03 -0.14796267022E+04  0.15220684111E+04  0.25500000920E-02 0. -1.
</event>
<event>
 5   0  0.1535906E-02  0.9050413E+03  0.7818609E-02  0.9419301E-01
       -2   -1    0    0    0  501  0.00000000000E+00  0.00000000000E+00  0.29525538886E+03  0.29525538887E+03  0.25500000920E-02 0.  1.
        2   -1    0    0  501    0  0.00000000000E+00  0.00000000000E+00 -0.69355184496E+03  0.69355184496E+03  0.25500000920E-02 0. -1.
    10030    2    1    2    0    0  0.00000000000E+00  0.00000000000E+00 -0.39829645609E+03  0.98880723384E+03  0.90504125804E+03 0.  0.
        2    1    3    3  502    0  0.33543549856E+03  0.12288881792E+03 -0.50262741355E+03  0.61664653743E+03  0.25500000920E-02 0.  1.
       -2    1    3    3    0  502 -0.33543549856E+03 -0.12288881792E+03  0.10433095746E+03  0.37216069641E+03  0.25500000920E-02 0. -1.
</event>
<event>
 5   0  0.5770125E-03  0.8913605E+03  0.7818609E-02  0.9436446E-01
        4   -1    0    0  501    0  0.00000000000E+00  0.00000000000E+00  0.21369560869E+03  0.21369938248E+03  0.12699999809E+01 0. -1.
       -4   -1    0    0    0  501  0.00000000000E+00  0.00000000000E+00 -0.92949140948E+03  0.92949227710E+03  0.12699999809E+01 0.  1.
    10030    2    1    2    0    0  0.00000000000E+00  0.00000000000E+00 -0.71579580079E+03  0.11431916596E+04  0.89136050065E+03 0.  0.
        5    1    3    3  502    0 -0.38634244636E+03 -0.32495755639E+02 -0.63973928710E+03  0.74806744713E+03  0.46999998093E+01 0.  1.
       -5    1    3    3    0  502  0.38634244636E+03  0.32495755639E+02 -0.76056513684E+02  0.39512421245E+03  0.46999998093E+01 0. -1.
</event>
<event>
 5   0  0.1441195E-02  0.8962592E+03  0.7818609E-02  0.9430270E-01
        2   -1    0    0  501    0  0.00000000000E+00  0.00000000000E+00  0.10796038067E+04  0.10796038067E+04  0.25500000920E-02 0.  1.
       -2   -1    0    0    0  501  0.00000000000E+00  0.00000000000E+00 -0.18601279478E+03  0.18601279480E+03  0.25500000920E-02 0. -1.
    10030    2    1    2    0    0  0.00000000000E+00  0.00000000000E+00  0.89359101190E+03  0.12656166015E+04  0.89625916197E+03 0.  0.
        5    1    3    3  502    0  0.14106309367E+03 -0.42068375854E+03  0.35833370917E+03  0.57034968065E+03  0.46999998093E+01 0. -1.
       -5    1    3    3    0  502 -0.14106309367E+03  0.42068375854E+03  0.53525730273E+03  0.69526692084E+03  0.46999998093E+01 0.  1.
</event>
<event>
 5   0  0.8612969E-03  0.9147561E+03  0.7818609E-02  0.9407321E-01
        1   -1    0    0  501    0  0.00000000000E+00  0.00000000000E+00  0.82369448822E+03  0.82369448823E+03  0.50400001928E-02 0.  1.
       -1   -1    0    0    0  501  0.00000000000E+00  0.00000000000E+00 -0.25397118863E+03  0.25397118868E+03  0.50400001928E-02 0. -1.
    10030    2    1    2    0    0  0.00000000000E+00  0.00000000000E+00  0.56972329959E+03  0.10776656769E+04  0.91475607300E+03 0.  0.
        4    1    3    3  502    0 -0.10265522368E+03  0.33002391222E+03  0.63777638571E+03  0.72540623698E+03  0.12699999809E+01 0.  1.
       -4    1    3    3    0  502  0.10265522368E+03 -0.33002391222E+03 -0.68053086116E+02  0.35225943993E+03  0.12699999809E+01 0. -1.
</event>
<event>
 5   0  0.8885324E-03  0.8980540E+03  0.7818609E-02  0.9428017E-01
        1   -1    0    0  501    0  0.00000000000E+00  0.00000000000E+00  0.49191824070E+03  0.49191824073E+03  0.50400001928E-02 0. -1.
       -1   -1    0    0    0  501  0.00000000000E+00  0.00000000000E+00 -0.40987549406E+03  0.40987549409E+03  0.50400001928E-02 0.  1.
    10030    2    1    2    0    0  0.00000000000E+00  0.00000000000E+00  0.82042746647E+02  0.90179373482E+03  0.89805396713E+03 0.  0.
        2    1    3    3  502    0 -0.30228865777E+03  0.29525707545E+03  0.19354219217E+03  0.46477279759E+03  0.25500000920E-02 0. -1.
       -2    1    3    3    0  502  0.30228865777E+03 -0.29525707545E+03 -0.11149944552E+03  0.43702093723E+03  0.25500000920E-02 0.  1.
</event>
<event>
 5   0  0.8291252E-03  0.9303523E+03  0.7818609E-02  0.9388415E-01
       -1   -1    0    0    0  501  0.00000000000E+00  0.00000000000E+00  0.79992788768E+03  0.79992788769E+03  0.50400001928E-02 0. -1.
        1   -1    0    0  501    0  0.00000000000E+00  0.00000000000E+00 -0.27051042670E+03  0.27051042674E+03  0.50400001928E-02 0.  1.
    10030    2    1    2    0    0  0.00000000000E+00  0.00000000000E+00  0.52941746098E+03  0.10704383144E+04  0.93035226502E+03 0.  0.
        1    1    3    3  502    0 -0.27602860632E+03 -0.35161883129E+03  0.11664092004E+03  0.46198776854E+03  0.50400001928E-02 0.  1.
       -1    1    3    3    0  502  0.27602860632E+03  0.35161883129E+03  0.41277654094E+03  0.60845054590E+03  0.50400001928E-02 0. -1.
</event>
<event>
 5   0  0.1441195E-02  0.8781894E+03  0.7818609E-02  0.9453264E-01
       -2   -1    0    0    0  501  0.00000000000E+00  0.00000000000E+00  0.23300153022E+03  0.23300153023E+03  0.25500000920E-02 0.  1.
        2   -1    0    0  501    0  0.00000000000E+00  0.00000000000E+00 -0.82748015051E+03  0.82748015052E+03  0.25500000920E-02 0. -1.
    10030    2    1    2    0    0  0.00000000000E+00  0.00000000000E+00 -0.59447862029E+03  0.10604816808E+04  0.87818936752E+03 0.  0.
        5    1    3    3  502    0  0.13831318040E+03 -0.36581689139E+03 -0.56239046214E+02  0.39514232147E+03  0.46999998093E+01 0.  1.
       -5    1    3    3    0  502 -0.13831318040E+03  0.36581689139E+03 -0.53823957408E+03  0.66533935928E+03  0.46999998093E+01 0. -1.
</event>
<event>
 5   0  0.8524692E-03  0.9150582E+03  0.7818609E-02  0.9406951E-01
       -1   -1    0    0    0  501  0.00000000000E+00  0.00000000000E+00  0.15048845053E+03  0.15048845061E+03  0.50400001928E-02 0.  1.
        1   -1    0    0  501    0  0.00000000000E+00  0.00000000000E+00 -0.13910229442E+04  0.13910229442E+04  0.50400001928E-02 0. -1.
    10030    2    1    2    0    0  0.00000000000E+00  0.00000000000E+00 -0.12405344937E+04  0.15415113948E+04  0.91505822241E+03 0.  0.
        5    1    3    3  502    0  0.91431897677E+02  0.42103202341E+03 -0.87951604072E+03  0.97938670224E+03  0.46999998093E+01 0. -1.
       -5    1    3    3    0  502 -0.91431897677E+02 -0.42103202341E+03 -0.36101845298E+03  0.56212469261E+03  0.46999998093E+01 0.  1.
</event>
<event>
 5   0  0.8738044E-03  0.7878548E+03  0.7818609E-02  0.9577765E-01
        1   -1    0    0  501    0  0.00000000000E+00  0.00000000000E+00  0.52113610708E+03  0.52113610711E+03  0.50400001928E-02 0.  1.
       -1   -1    0    0    0  501  0.00000000000E+00  0.00000000000E+00 -0.29777020205E+03  0.29777020209E+03  0.50400001928E-02 0. -1.
    10030    2    1    2    0    0  0.00000000000E+00  0.00000000000E+00  0.22336590503E+03  0.81890630920E+03  0.78785481893E+03 0.  0.
        3    1    3    3  502    0  0.15311163406E+03 -0.19548301470E+03 -0.20618368118E+03  0.32275145562E+03  0.10100000352E+00 0. -1.
       -3    1    3    3    0  502 -0.15311163406E+03  0.19548301470E+03  0.42954958621E+03  0.49615485358E+03  0.10100000352E+00 0.  1.
</event>
<event>
 5   0  0.1483326E-02  0.9125826E+03  0.7818609E-02  0.9409988E-01
       -2   -1    0    0    0  501  0.00000000000E+00  0.00000000000E+00  0.34063368816E+03  0.34063368817E+03  0.25500000920E-02 0.  1.
        2   -1    0    0  501    0  0.00000000000E+00  0.00000000000E+00 -0.61121884123E+03  0.61121884124E+03  0.25500000920E-02 0. -1.
    10030    2    1    2    0    0  0.00000000000E+00  0.00000000000E+00 -0.27058515308E+03  0.95185252940E+03  0.91258255115E+03 0.  0.
        1    1    3    3  502    0  0.33101903994E+03 -0.30675629068E+03 -0.65101103943E+02  0.45597278476E+03  0.50400001928E-02 0.  1.
       -1    1    3    3    0  502 -0.33101903994E+03  0.30675629068E+03 -0.20548404913E+03  0.49587974465E+03  0.50400001928E-02 0. -1.
</event>
<event>
 5   0  0.8291252E-03  0.9022446E+03  0.7818609E-02  0.9422780E-01
       -1   -1    0    0    0  501  0.00000000000E+00  0.00000000000E+00  0.99522706045E+02  0.99522706172E+02  0.50400001928E-02 0.  1.
        1   -1    0    0  501    0  0.00000000000E+00  0.00000000000E+00 -0.20448735671E+04  0.20448735671E+04  0.50400001928E-02 0. -1.
    10030    2    1    2    0    0  0.00000000000E+00  0.00000000000E+00 -0.19453508610E+04  0.21443962732E+04  0.90224464766E+03 0.  0.
        1    1    3    3  502    0  0.17107706399E+02 -0.24325671667E+03 -0.18747233164E+04  0.18905168651E+04  0.50400001928E-02 0. -1.
       -1    1    3    3    0  502 -0.17107706399E+02  0.24325671667E+03 -0.70627544580E+02  0.25387940819E+03  0.50400001928E-02 0.  1.
</event>
<event>
 5   0  0.1440615E-02  0.8872065E+03  0.7818609E-02  0.9441717E-01
        2   -1    0    0  501    0  0.00000000000E+00  0.00000000000E+00  0.17811043106E+04  0.17811043106E+04  0.25500000920E-02 0.  1.
       -2   -1    0    0    0  501  0.00000000000E+00  0.00000000000E+00 -0.11048416619E+03  0.11048416622E+03  0.25500000920E-02 0. -1.
    10030    2    1    2    0    0  0.00000000000E+00  0.00000000000E+00  0.16706201444E+04  0.18915884768E+04  0.88720645775E+03 0.  0.
        3    1    3    3  502    0  0.22989974098E+03  0.21369665078E+03  0.15036515961E+04  0.15360625906E+04  0.10100000352E+00 0.  1.
       -3    1    3    3    0  502 -0.22989974098E+03 -0.21369665078E+03  0.16696854827E+03  0.35552588622E+03  0.10100000352E+00 0. -1.
</event>
<event>
 5   0  0.8291252E-03  0.8919484E+03  0.7818609E-02  0.9435703E-01
        1   -1    0    0  501    0  0.00000000000E+00  0.00000000000E+00  0.13938242651E+04  0.13938242651E+04  0.50400001928E-02 0. -1.
       -1   -1    0    0    0  501  0.00000000000E+00  0.00000000000E+00 -0.14269588465E+03  0.14269588474E+03  0.50400001928E-02 0.  1.
    10030    2    1    2    0    0  0.00000000000E+00  0.00000000000E+00  0.12511283804E+04  0.15365201498E+04  0.89194839900E+03 0.  0.
        1    1    3    3  502    0 -0.32013906763E+02 -0.42483334381E+03  0.39843002808E+03  0.58331359279E+03  0.50400001928E-02 0. -1.
       -1    1    3    3    0  502  0.32013906763E+02  0.42483334381E+03  0.85269835233E+03  0.95320655701E+03  0.50400001928E-02 0.  1.
</event>
<event>
 5   0  0.8612969E-03  0.9045835E+03  0.7818609E-02  0.9419870E-01
       -1   -1    0    0    0  501  0.00000000000E+00  0.00000000000E+00  0.25347940138E+03  0.25347940143E+03  0.50400001928E-02 0.  1.
        1   -1    0    0  501    0  0.00000000000E+00  0.00000000000E+00 -0.80703930051E+03  0.80703930053E+03  0.50400001928E-02 0. -1.
    10030    2    1    2    0    0  0.00000000000E+00  0.00000000000E+00 -0.55355989913E+03  0.10605187020E+04  0.90458352588E+03 0.  0.
        4    1    3    3  502    0  0.45001502142E+03  0.29791128754E+01 -0.32978194016E+03  0.55792484760E+03  0.12699999809E+01 0. -1.
       -4    1    3    3    0  502 -0.45001502142E+03 -0.29791128754E+01 -0.22377795897E+03  0.50259385436E+03  0.12699999809E+01 0.  1.
</event>
<event>
 5   0  0.1483326E-02  0.9062232E+03  0.7818609E-02  0.9417835E-01
        2   -1    0    0  501    0  0.00000000000E+00  0.00000000000E+00  0.18877463860E+04  0.18877463860E+04  0.25500000920E-02 0. -1.
       -2   -1    0    0    0  501  0.00000000000E+00  0.00000000000E+00 -0.10875938133E+03  0.10875938136E+03  0.25500000920E-02 0.  1.
    10030    2    1    2    0    0  0.00000000000E+00  0.00000000000E+00  0.17789870047E+04  0.19965057674E+04  0.90622321553E+03 0.  0.
        1    1    3    3  502    0 -0.30195937349E+03 -0.22208257389E+03  0.14503559764E+04  0.14980095431E+04  0.50400001928E-02 0. -1.
       -1    1    3    3    0  502  0.30195937349E+03  0.22208257389E+03  0.32863102828E+03  0.49849622430E+03  0.50400001928E-02 0.  1.
</event>
<event>
 5   0  0.8291252E-03  0.8987207E+03  0.7818609E-02  0.9427182E-01
       -1   -1    0    0    0  501  0.00000000000E+00  0.00000000000E+00  0.40653119797E+03  0.40653119800E+03  0.50400001928E-02 0. -1.
        1   -1    0    0  501    0  0.00000000000E+00  0.00000000000E+00 -0.49670164921E+03  0.49670164924E+03  0.50400001928E-02 0.  1.
    10030    2    1    2    0    0  0.00000000000E+00  0.00000000000E+00 -0.90170451241E+02  0.90323284723E+03  0.89872068300E+03 0.  0.
        1    1    3    3  502    0 -0.49324395680E+02  0.11242513880E+03 -0.47951975538E+03  0.49498636715E+03  0.50400001928E-02 0.  1.
       -1    1    3    3    0  502  0.49324395680E+02 -0.11242513880E+03  0.38934930414E+03  0.40824648008E+03  0.50400001928E-02 0. -1.
</event>
<event>
 5   0  0.8291252E-03  0.9036202E+03  0.7818609E-02  0.9421067E-01
        1   -1    0    0  501    0  0.00000000000E+00  0.00000000000E+00  0.15554033807E+04  0.15554033807E+04  0.50400001928E-02 0. -1.
       -1   -1    0    0    0  501  0.00000000000E+00  0.00000000000E+00 -0.13124078404E+03  0.13124078414E+03  0.50400001928E-02 0.  1.
    10030    2    1    2    0    0  0.00000000000E+00  0.00000000000E+00  0.14241625967E+04  0.16866441649E+04  0.90362018409E+03 0.  0.
        1    1    3    3  502    0  0.44712344217E+03  0.97855317777E+01  0.83184910974E+03  0.94445120073E+03  0.50400001928E-02 0. -1.
       -1    1    3    3    0  502 -0.44712344217E+03 -0.97855317777E+01  0.59231348694E+03  0.74219296413E+03  0.50400001928E-02 0.  1.
</event>
<event>
 5   0  0.1440615E-02  0.9056268E+03  0.7818609E-02  0.9418575E-01
       -2   -1    0    0    0  501  0.00000000000E+00  0.00000000000E+00  0.46089840442E+03  0.46089840442E+03  0.25500000920E-02 0.  1.
        2   -1    0    0  501    0  0.00000000000E+00  0.00000000000E+00 -0.44487023816E+03  0.44487023816E+03  0.25500000920E-02 0. -1.
    10030    2    1    2    0    0  0.00000000000E+00  0.00000000000E+00  0.16028166262E+02  0.90576864259E+03  0.90562681706E+03 0.  0.
        3    1    3    3  502    0  0.61667496740E+02 -0.22614497875E+03  0.39549641335E+03  0.45974107358E+03  0.10100000352E+00 0.  1.
       -3    1    3    3    0  502 -0.61667496740E+02  0.22614497875E+03 -0.37946824708E+03  0.44602756901E+03  0.10100000352E+00 0. -1.
</event>
<event>
 5   0  0.1441195E-02  0.8698406E+03  0.7818609E-02  0.9464088E-01
        2   -1    0    0  501    0  0.00000000000E+00  0.00000000000E+00  0.94945851564E+03  0.94945851564E+03  0.25500000920E-02 0. -1.
       -2   -1    0    0    0  501  0.00000000000E+00  0.00000000000E+00 -0.19922479452E+03  0.19922479453E+03  0.25500000920E-02 0.  1.
    10030    2    1    2    0    0  0.00000000000E+00  0.00000000000E+00  0.75023372112E+03  0.11486833102E+04  0.86984062377E+03 0.  0.
        5    1    3    3  502    0  0.82903962616E+02 -0.24890630641E+03 -0.82924374936E+02  0.27518349940E+03  0.46999998093E+01 0.  1.
       -5    1    3    3    0  502 -0.82903962616E+02  0.24890630641E+03  0.83315809606E+03  0.87349981077E+03  0.46999998093E+01 0. -1.
</event>
<event>
 5   0  0.1535906E-02  0.8894236E+03  0.7818609E-02  0.9438900E-01
        2   -1    0    0  501    0  0.00000000000E+00  0.00000000000E+00  0.15554596236E+04  0.15554596236E+04  0.25500000920E-02 0. -1.
       -2   -1    0    0    0  501  0.00000000000E+00  0.00000000000E+00 -0.12714478144E+03  0.12714478147E+03  0.25500000920E-02 0.  1.
    10030    2    1    2    0    0  0.00000000000E+00  0.00000000000E+00  0.14283148422E+04  0.16826044051E+04  0.88942357492E+03 0.  0.
        2    1    3    3  502    0  0.39023986867E+03 -0.14324253097E+03  0.10130545474E+04  0.10950274397E+04  0.25500000920E-02 0. -1.
       -2    1    3    3    0  502 -0.39023986867E+03  0.14324253097E+03  0.41526029478E+03  0.58757696535E+03  0.25500000920E-02 0.  1.
</event>
<event>
 5   0  0.1535906E-02  0.9140438E+03  0.7818609E-02  0.9408194E-01
       -2   -1    0    0    0  501  0.00000000000E+00  0.00000000000E+00  0.80858540647E+02  0.80858540688E+02  0.25500000920E-02 0.  1.
        2   -1    0    0  501    0  0.00000000000E+00  0.00000000000E+00 -0.25831409136E+04  0.25831409136E+04  0.25500000920E-02 0. -1.
    10030    2    1    2    0    0  0.00000000000E+00  0.00000000000E+00 -0.25022823729E+04  0.26639994542E+04  0.91404377272E+03 0.  0.
        2    1    3    3  502    0 -0.54997132982E+02  0.27328407248E+03 -0.23066650733E+04  0.23234484349E+04  0.25500000920E-02 0. -1.
       -2    1    3    3    0  502  0.54997132982E+02 -0.27328407248E+03 -0.19561729958E+03  0.34055101939E+03  0.25500000920E-02 0.  1.
</event>
<event>
 5   0  0.1440615E-02  0.8909956E+03  0.7818609E-02  0.9436908E-01
       -2   -1    0    0    0  501  0.00000000000E+00  0.00000000000E+00  0.17157729399E+04  0.17157729399E+04  0.25500000920E-02 0. -1.
        2   -1    0    0  501    0  0.00000000000E+00  0.00000000000E+00 -0.11567281772E+03  0.11567281775E+03  0.25500000920E-02 0.  1.
    10030    2    1    2    0    0  0.00000000000E+00  0.00000000000E+00  0.16001001222E+04  0.18314457577E+04  0.89099560167E+03 0.  0.
        3    1    3    3  502    0  0.22550802582E+03  0.24651338140E+03  0.14057985214E+04  0.14449540512E+04  0.10100000352E+00 0. -1.
       -3    1    3    3    0  502 -0.22550802582E+03 -0.24651338140E+03  0.19430160074E+03  0.38649170647E+03  0.10100000352E+00 0.  1.
</event>
<event>
 5   0  0.8885324E-03  0.9089144E+03  0.7818609E-02  0.9414506E-01
        1   -1    0    0  501    0  0.00000000000E+00  0.00000000000E+00  0.17851236671E+04  0.17851236671E+04  0.50400001928E-02 0.  1.
       -1   -1    0    0    0  501  0.00000000000E+00  0.00000000000E+00 -0.11569581618E+03  0.11569581629E+03  0.50400001928E-02 0. -1.
    10030    2    1    2    0    0  0.00000000000E+00  0.00000000000E+00  0.16694278509E+04  0.19008194834E+04  0.90891438488E+03 0.  0.
        2    1    3    3  502    0  0.85541470559E+02  0.23771352083E+03  0.16247363859E+04  0.16442607411E+04  0.25500000920E-02 0.  1.
       -2    1    3    3    0  502 -0.85541470559E+02 -0.23771352083E+03  0.44691465006E+02  0.25655874225E+03  0.25500000920E-02 0. -1.
</event>
<event>
 5   0  0.1483326E-02  0.8905603E+03  0.7818609E-02  0.9437459E-01
        2   -1    0    0  501    0  0.00000000000E+00  0.00000000000E+00  0.76496005871E+03  0.76496005871E+03  0.25500000920E-02 0. -1.
       -2   -1    0    0    0  501  0.00000000000E+00  0.00000000000E+00 -0.25919574398E+03  0.25919574399E+03  0.25500000920E-02 0.  1.
    10030    2    1    2    0    0  0.00000000000E+00  0.00000000000E+00  0.50576431473E+03  0.10241558027E+04  0.89056025408E+03 0.  0.
        1    1    3    3  502    0  0.13269069995E+03  0.31698840345E+03  0.57853268360E+03  0.67289563515E+03  0.50400001928E-02 0. -1.
       -1    1    3    3    0  502 -0.13269069995E+03 -0.31698840345E+03 -0.72768368874E+02  0.35126016755E+03  0.50400001928E-02 0.  1.
</event>
<event>
 5   0  0.8291252E-03  0.8894710E+03  0.7818609E-02  0.9438840E-01
       -1   -1    0    0    0  501  0.00000000000E+00  0.00000000000E+00  0.23189328732E+03  0.23189328737E+03  0.50400001928E-02 0.  1.
        1   -1    0    0  501    0  0.00000000000E+00  0.00000000000E+00 -0.85293401379E+03  0.85293401381E+03  0.50400001928E-02 0. -1.
    10030    2    1    2    0    0  0.00000000000E+00  0.00000000000E+00 -0.62104072647E+03  0.10848273012E+04  0.88947101664E+03 0.  0.
        1    1    3    3  502    0 -0.36952517487E+03  0.11344890573E+03 -0.57875668288E+03  0.69597328044E+03  0.50400001928E-02 0. -1.
       -1    1    3    3    0  502  0.36952517487E+03 -0.11344890573E+03 -0.42284043591E+02  0.38885402074E+03  0.50400001928E-02 0.  1.
</event>
<event>
 5   0  0.8738044E-03  0.9031469E+03  0.7818609E-02  0.9421656E-01
       -1   -1    0    0    0  501  0.00000000000E+00  0.00000000000E+00  0.27784353739E+03  0.27784353744E+03  0.50400001928E-02 0.  1.
        1   -1    0    0  501    0  0.00000000000E+00  0.00000000000E+00 -0.73393306498E+03  0.73393306500E+03  0.50400001928E-02 0. -1.
    10030    2    1    2    0    0  0.00000000000E+00  0.00000000000E+00 -0.45608952759E+03  0.10117766024E+04  0.90314685189E+03 0.  0.
        3    1    3    3  502    0 -0.10282999214E+03  0.35412492114E+03  0.63959566701E+02  0.37425833782E+03  0.10100000352E+00 0.  1.
       -3    1    3    3    0  502  0.10282999214E+03 -0.35412492114E+03 -0.52004909429E+03  0.63751826462E+03  0.10100000352E+00 0. -1.
</event>
<event>
 5   0  0.8612969E-03  0.9047739E+03  0.7818609E-02  0.9419633E-01
       -1   -1    0    0    0  501  0.00000000000E+00  0.00000000000E+00  0.57097448942E+03  0.57097448944E+03  0.50400001928E-02 0. -1.
        1   -1    0    0  501    0  0.00000000000E+00  0.00000000000E+00 -0.35842925691E+03  0.35842925695E+03  0.50400001928E-02 0.  1.
    10030    2    1    2    0    0  0.00000000000E+00  0.00000000000E+00  0.21254523251E+03  0.92940374639E+03  0.90477392090E+03 0.  0.
        4    1    3    3  502    0 -0.32598485269E+03 -0.30155420009E+03  0.17601932435E+02  0.44442378503E+03  0.12699999809E+01 0. -1.
       -4    1    3    3    0  502  0.32598485269E+03  0.30155420009E+03  0.19494330008E+03  0.48497996136E+03  0.12699999809E+01 0.  1.
</event>
<event>
 5   0  0.1454652E-02  0.8863563E+03  0.7818609E-02  0.9442799E-01
       -2   -1    0    0    0  501  0.00000000000E+00  0.00000000000E+00  0.81661141167E+03  0.81661141167E+03  0.25500000920E-02 0. -1.
        2   -1    0    0  501    0  0.00000000000E+00  0.00000000000E+00 -0.24051450679E+03  0.24051450681E+03  0.25500000920E-02 0.  1.
    10030    2    1    2    0    0  0.00000000000E+00  0.00000000000E+00  0.57609690488E+03  0.10571259185E+04  0.88635634127E+03 0.  0.
        4    1    3    3  502    0  0.39390625630E+03  0.87380176478E+02  0.69403884875E+02  0.40940926483E+03  0.12699999809E+01 0.  1.
       -4    1    3    3    0  502 -0.39390625630E+03 -0.87380176478E+02  0.50669302000E+03  0.64771665365E+03  0.12699999809E+01 0. -1.
</event>
<event>
 5   0  0.8738044E-03  0.8971531E+03  0.7818609E-02  0.9429147E-01
        1   -1    0    0  501    0  0.00000000000E+00  0.00000000000E+00  0.45782937192E+03  0.45782937195E+03  0.50400001928E-02 0.  1.
       -1   -1    0    0    0  501  0.00000000000E+00  0.00000000000E+00 -0.43951070306E+03  0.43951070308E+03  0.50400001928E-02 0. -1.
    10030    2    1    2    0    0  0.00000000000E+00  0.00000000000E+00  0.18318668869E+02  0.89734007504E+03  0.89715307314E+03 0.  0.
        3    1    3    3  502    0  0.12974919405E+03 -0.11023392602E+02  0.43850925506E+03  0.45743496315E+03  0.10100000352E+00 0.  1.
       -3    1    3    3    0  502 -0.12974919405E+03  0.11023392602E+02 -0.42019058619E+03  0.43990511189E+03  0.10100000352E+00 0. -1.
</event>
<event>
 5   0  0.1441195E-02  0.8771069E+03  0.7818609E-02  0.9454660E-01
       -2   -1    0    0    0  501  0.00000000000E+00  0.00000000000E+00  0.64304341596E+03  0.64304341596E+03  0.25500000920E-02 0.  1.
        2   -1    0    0  501    0  0.00000000000E+00  0.00000000000E+00 -0.29909198528E+03  0.29909198529E+03  0.25500000920E-02 0. -1.
    10030    2    1    2    0    0  0.00000000000E+00  0.00000000000E+00  0.34395143068E+03  0.94213540125E+03  0.87710690775E+03 0.  0.
        5    1    3    3  502    0 -0.12085362999E+03  0.24271764037E+03  0.54218728042E+03  0.60622321786E+03  0.46999998093E+01 0.  1.
       -5    1    3    3    0  502  0.12085362999E+03 -0.24271764037E+03 -0.19823584973E+03  0.33591218339E+03  0.46999998093E+01 0. -1.
</event>
<event>
 5   0  0.8738044E-03  0.8981785E+03  0.7818609E-02  0.9427861E-01
       -1   -1    0    0    0  501  0.00000000000E+00  0.00000000000E+00  0.12799671493E+03  0.12799671503E+03  0.50400001928E-02 0.  1.
        1   -1    0    0  501    0  0.00000000000E+00  0.00000000000E+00 -0.15756745395E+04  0.15756745395E+04  0.50400001928E-02 0. -1.
    10030    2    1    2    0    0  0.00000000000E+00  0.00000000000E+00 -0.14476778245E+04  0.17036712545E+04  0.89817852334E+03 0.  0.
        3    1    3    3  502    0 -0.19308107076E+03 -0.14017203656E+03 -0.14455051679E+04  0.14650644014E+04  0.10100000352E+00 0. -1.
       -3    1    3    3    0  502  0.19308107076E+03  0.14017203656E+03 -0.21726566776E+01  0.23860685312E+03  0.10100000352E+00 0.  1.
</event>
<event>
 5   0  0.1483326E-02  0.1048014E+04  0.7818609E-02  0.9257396E-01
        2   -1    0    0  501    0  0.00000000000E+00  0.00000000000E+00  0.12682849729E+04  0.12682849729E+04  0.25500000920E-02 0. -1.
       -2   -1    0    0    0  501  0.00000000000E+00  0.00000000000E+00 -0.21649988078E+03  0.21649988080E+03  0.25500000920E-02 0.  1.
    10030    2    1    2    0    0  0.00000000000E+00  0.00000000000E+00  0.10517850921E+04  0.14847848537E+04  0.10480143996E+04 0.  0.
        1    1    3    3  502    0  0.15743738231E+03 -0.91348037019E+02 -0.17027244405E+03  0.24924626064E+03  0.50400001928E-02 0.  1.
       -1    1    3    3    0  502 -0.15743738231E+03  0.91348037019E+02  0.12220575362E+04  0.12355385931E+04  0.50400001928E-02 0. -1.
</event>
<event>
 5   0  0.8738044E-03  0.8958810E+03  0.7818609E-02  0.9430745E-01
        1   -1    0    0  501    0  0.00000000000E+00  0.00000000000E+00  0.64235329358E+03  0.64235329360E+03  0.50400001928E-02 0. -1.
       -1   -1    0    0    0  501  0.00000000000E+00  0.00000000000E+00 -0.31236810560E+03  0.31236810564E+03  0.50400001928E-02 0.  1.
    10030    2    1    2    0    0  0.00000000000E+00  0.00000000000E+00  0.32998518799E+03  0.95472139924E+03  0.89588097752E+03 0.  0.
        3    1    3    3  502    0 -0.19436757997E+03  0.16648061259E+03  0.55677434318E+03  0.61277420796E+03  0.10100000352E+00 0. -1.
       -3    1    3    3    0  502  0.19436757997E+03 -0.16648061259E+03 -0.22678915520E+03  0.34194719128E+03  0.10100000352E+00 0.  1.
</event>
<event>
 5   0  0.1441195E-02  0.8949822E+03  0.7818609E-02  0.9431876E-01
        2   -1    0    0  501    0  0.00000000000E+00  0.00000000000E+00  0.12066184530E+04  0.12066184530E+04  0.25500000920E-02 0.  1.
       -2   -1    0    0    0  501  0.00000000000E+00  0.00000000000E+00 -0.16595823009E+03  0.16595823011E+03  0.25500000920E-02 0. -1.
    10030    2    1    2    0    0  0.00000000000E+00  0.00000000000E+00  0.10406602229E+04  0.13725766831E+04  0.89498215150E+03 0.  0.
        5    1    3    3  502    0  0.11457549120E+03 -0.38944648223E+03  0.23165573893E+03  0.46742119880E+03  0.46999998093E+01 0. -1.
       -5    1    3    3    0  502 -0.11457549120E+03  0.38944648223E+03  0.80900448399E+03  0.90515548433E+03  0.46999998093E+01 0.  1.
</event>
<event>
 5   0  0.1440615E-02  0.9028241E+03  0.7818609E-02  0.9422058E-01
       -2   -1    0    0    0  501  0.00000000000E+00  0.00000000000E+00  0.18245828191E+03  0.18245828193E+03  0.25500000920E-02 0.  1.
        2   -1    0    0  501    0  0.00000000000E+00  0.00000000000E+00 -0.11168187372E+04  0.11168187372E+04  0.25500000920E-02 0. -1.
    10030    2    1    2    0    0  0.00000000000E+00  0.00000000000E+00 -0.93436045526E+03  0.12992770191E+04  0.90282407590E+03 0.  0.
        3    1    3    3  502    0  0.11155637757E+03  0.37080839414E+02  0.16004238581E+03  0.19857842150E+03  0.10100000352E+00 0.  1.
       -3    1    3    3    0  502 -0.11155637757E+03 -0.37080839414E+02 -0.10944028411E+04  0.11006985976E+04  0.10100000352E+00 0. -1.
</event>
<event>
 5   0  0.5770125E-03  0.7626928E+03  0.7818609E-02  0.9615645E-01
       -3   -1    0    0    0  501  0.00000000000E+00  0.00000000000E+00  0.20968437373E+03  0.20968439805E+03  0.10100000352E+00 0.  1.
        3   -1    0    0  501    0  0.00000000000E+00  0.00000000000E+00 -0.69354272015E+03  0.69354272750E+03  0.10100000352E+00 0. -1.
    10030    2    1    2    0    0  0.00000000000E+00  0.00000000000E+00 -0.48385834642E+03  0.90322712555E+03  0.76269282214E+03 0.  0.
        3    1    3    3  502    0  0.33617845915E+03 -0.15852345605E+02 -0.45429792995E+03  0.56537940590E+03  0.10100000352E+00 0. -1.
       -3    1    3    3    0  502 -0.33617845915E+03  0.15852345605E+02 -0.29560416472E+02  0.33784771966E+03  0.10100000352E+00 0.  1.
</event>
<event>
 5   0  0.1440615E-02  0.9070035E+03  0.7818609E-02  0.9416869E-01
       -2   -1    0    0    0  501  0.00000000000E+00  0.00000000000E+00  0.10668161867E+03  0.10668161870E+03  0.25500000920E-02 0. -1.
        2   -1    0    0  501    0  0.00000000000E+00  0.00000000000E+00 -0.19278280434E+04  0.19278280434E+04  0.25500000920E-02 0.  1.
    10030    2    1    2    0    0  0.00000000000E+00  0.00000000000E+00 -0.18211464247E+04  0.20345096621E+04  0.90700345364E+03 0.  0.
        3    1    3    3  502    0  0.36857742570E+03  0.26207495284E+03 -0.83512972775E+03  0.94972326076E+03  0.10100000352E+00 0. -1.
       -3    1    3    3    0  502 -0.36857742570E+03 -0.26207495284E+03 -0.98601669699E+03  0.10847864014E+04  0.10100000352E+00 0.  1.
</event>
<event>
 5   0  0.8612969E-03  0.8983289E+03  0.7818609E-02  0.9427673E-01
       -1   -1    0    0    0  501  0.00000000000E+00  0.00000000000E+00  0.48264169811E+03  0.48264169813E+03  0.50400001928E-02 0. -1.
        1   -1    0    0  501    0  0.00000000000E+00  0.00000000000E+00 -0.41800924937E+03  0.41800924940E+03  0.50400001928E-02 0.  1.
    10030    2    1    2    0    0  0.00000000000E+00  0.00000000000E+00  0.64632448738E+02  0.90065094753E+03  0.89832887956E+03 0.  0.
        4    1    3    3  502    0  0.21312036746E+03  0.36694205899E+03  0.17993919704E+03  0.46091918295E+03  0.12699999809E+01 0. -1.
       -4    1    3    3    0  502 -0.21312036746E+03 -0.36694205899E+03 -0.11530674830E+03  0.43973176458E+03  0.12699999809E+01 0.  1.
</event>
<event>
 5   0  0.8612969E-03  0.8951821E+03  0.7818609E-02  0.9431624E-01
       -1   -1    0    0    0  501  0.00000000000E+00  0.00000000000E+00  0.73850995352E+03  0.73850995353E+03  0.50400001928E-02 0. -1.
        1   -1    0    0  501    0  0.00000000000E+00  0.00000000000E+00 -0.27127292021E+03  0.27127292026E+03  0.50400001928E-02 0.  1.
    10030    2    1    2    0    0  0.00000000000E+00  0.00000000000E+00  0.46723703331E+03  0.10097828738E+04  0.89518210824E+03 0.  0.
        4    1    3    3  502    0 -0.34231826128E+03 -0.27730503689E+03  0.14439607222E+03  0.46360728431E+03  0.12699999809E+01 0.  1.
       -4    1    3    3    0  502  0.34231826128E+03  0.27730503689E+03  0.32284096109E+03  0.54617558948E+03  0.12699999809E+01 0. -1.
</event>
<event>
 5   0  0.8291252E-03  0.8948282E+03  0.7818609E-02  0.9432070E-01
        1   -1    0    0  501    0  0.00000000000E+00  0.00000000000E+00  0.61303337107E+03  0.61303337109E+03  0.50400001928E-02 0. -1.
       -1   -1    0    0    0  501  0.00000000000E+00  0.00000000000E+00 -0.32653909352E+03  0.32653909356E+03  0.50400001928E-02 0.  1.
    10030    2    1    2    0    0  0.00000000000E+00  0.00000000000E+00  0.28649427755E+03  0.93957246465E+03  0.89482816521E+03 0.  0.
        1    1    3    3  502    0  0.28550969550E+03  0.91089993892E+02 -0.20557870774E+03  0.36342231400E+03  0.50400001928E-02 0.  1.
       -1    1    3    3    0  502 -0.28550969550E+03 -0.91089993892E+02  0.49207298529E+03  0.57615015065E+03  0.50400001928E-02 0. -1.
</event>
<event>
 5   0  0.8524692E-03  0.7683022E+03  0.7818609E-02  0.9607067E-01
        1   -1    0    0  501    0  0.00000000000E+00  0.00000000000E+00  0.53748688823E+03  0.53748688826E+03  0.50400001928E-02 0.  1.
       -1   -1    0    0    0  501  0.00000000000E+00  0.00000000000E+00 -0.27455937007E+03  0.27455937012E+03  0.50400001928E-02 0. -1.
    10030    2    1    2    0    0  0.00000000000E+00  0.00000000000E+00  0.26292751816E+03  0.81204625838E+03  0.76830218400E+03 0.  0.
        5    1    3    3  502    0  0.11218225972E+03  0.35901982553E+03  0.21380902684E+03  0.43268520251E+03  0.46999998093E+01 0.  1.
       -5    1    3    3    0  502 -0.11218225972E+03 -0.35901982553E+03  0.49118491320E+02  0.37936105586E+03  0.46999998093E+01 0. -1.
</event>
<event>
 5   0  0.8738044E-03  0.9116091E+03  0.7818609E-02  0.9411185E-01
        1   -1    0    0  501    0  0.00000000000E+00  0.00000000000E+00  0.90967236422E+03  0.90967236423E+03  0.50400001928E-02 0. -1.
       -1   -1    0    0    0  501  0.00000000000E+00  0.00000000000E+00 -0.22838749182E+03  0.22838749188E+03  0.50400001928E-02 0.  1.
    10030    2    1    2    0    0  0.00000000000E+00  0.00000000000E+00  0.68128487240E+03  0.11380598561E+04  0.91160910413E+03 0.  0.
        3    1    3    3  502    0 -0.26606404275E+03 -0.33804314153E+03  0.52871140104E+03  0.68161499116E+03  0.10100000352E+00 0. -1.
       -3    1    3    3    0  502  0.26606404275E+03  0.33804314153E+03  0.15257347136E+03  0.45644486495E+03  0.10100000352E+00 0.  1.
</event>
<event>
 5   0  0.8612969E-03  0.9162860E+03  0.7818609E-02  0.9405449E-01
       -1   -1    0    0    0  501  0.00000000000E+00  0.00000000000E+00  0.30607056134E+03  0.30607056138E+03  0.50400001928E-02 0. -1.
        1   -1    0    0  501    0  0.00000000000E+00  0.00000000000E+00 -0.68577332590E+03  0.68577332592E+03  0.50400001928E-02 0.  1.
    10030    2    1    2    0    0  0.00000000000E+00  0.00000000000E+00 -0.37970276456E+03  0.99184388730E+03  0.91628604014E+03 0.  0.
        4    1    3    3  502    0  0.16409562561E+03  0.41521275302E+03 -0.30111030772E+03  0.53851465619E+03  0.12699999809E+01 0.  1.
       -4    1    3    3    0  502 -0.16409562561E+03 -0.41521275302E+03 -0.78592456846E+02  0.45332923112E+03  0.12699999809E+01 0. -1.
</event>
<event>
 5   0  0.8885324E-03  0.8617531E+03  0.7818609E-02  0.9474697E-01
        1   -1    0    0  501    0  0.00000000000E+00  0.00000000000E+00  0.87705076329E+03  0.87705076331E+03  0.50400001928E-02 0. -1.
       -1   -1    0    0    0  501  0.00000000000E+00  0.00000000000E+00 -0.21168054541E+03  0.21168054547E+03  0.50400001928E-02 0.  1.
    10030    2    1    2    0    0  0.00000000000E+00  0.00000000000E+00  0.66537021789E+03  0.10887313088E+04  0.86175305967E+03 0.  0.
        2    1    3    3  502    0  0.78746371162E+02  0.14586066152E+03  0.83515642595E+03  0.85144734386E+03  0.25500000920E-02 0. -1.
       -2    1    3    3    0  502 -0.78746371162E+02 -0.14586066152E+03 -0.16978620806E+03  0.23728396492E+03  0.25500000920E-02 0.  1.
</event>
<event>
 5   0  0.1535906E-02  0.9047046E+03  0.7818609E-02  0.9419719E-01
        2   -1    0    0  501    0  0.00000000000E+00  0.00000000000E+00  0.11389319189E+04  0.11389319189E+04  0.25500000920E-02 0. -1.
       -2   -1    0    0    0  501  0.00000000000E+00  0.00000000000E+00 -0.17966184209E+03  0.17966184211E+03  0.25500000920E-02 0.  1.
    10030    2    1    2    0    0  0.00000000000E+00  0.00000000000E+00  0.95927007678E+03  0.13185937610E+04  0.90470460721E+03 0.  0.
        2    1    3    3  502    0  0.12256959723E+03  0.18552032039E+03 -0.94513419735E+02  0.24160687482E+03  0.25500000920E-02 0.  1.
       -2    1    3    3    0  502 -0.12256959723E+03 -0.18552032039E+03  0.10537834965E+04  0.10769868862E+04  0.25500000920E-02 0. -1.
</event>
<event>
 5   0  0.8738044E-03  0.9072756E+03  0.7818609E-02  0.9416532E-01
        1   -1    0    0  501    0  0.00000000000E+00  0.00000000000E+00  0.53660919895E+03  0.53660919898E+03  0.50400001928E-02 0. -1.
       -1   -1    0    0    0  501  0.00000000000E+00  0.00000000000E+00 -0.38349555811E+03  0.38349555814E+03  0.50400001928E-02 0.  1.
    10030    2    1    2    0    0  0.00000000000E+00  0.00000000000E+00  0.15311364085E+03  0.92010475712E+03  0.90727557945E+03 0.  0.
        3    1    3    3  502    0 -0.21529590316E+03 -0.38338648406E+03  0.18971285167E+03  0.47888255175E+03  0.10100000352E+00 0. -1.
       -3    1    3    3    0  502  0.21529590316E+03  0.38338648406E+03 -0.36599210828E+02  0.44122220537E+03  0.10100000352E+00 0.  1.
</event>
<event>
 5   0  0.8291252E-03  0.7820461E+03  0.7818609E-02  0.9586374E-01
       -1   -1    0    0    0  501  0.00000000000E+00  0.00000000000E+00  0.22690951556E+03  0.22690951562E+03  0.50400001928E-02 0.  1.
        1   -1    0    0  501    0  0.00000000000E+00  0.00000000000E+00 -0.67383259704E+03  0.67383259706E+03  0.50400001928E-02 0. -1.
    10030    2    1    2    0    0  0.00000000000E+00  0.00000000000E+00 -0.44692308148E+03  0.90074211268E+03  0.78204610657E+03 0.  0.
        1    1    3    3  502    0 -0.13188693896E+03 -0.36111313020E+03 -0.30573231830E+03  0.49119151861E+03  0.50400001928E-02 0. -1.
       -1    1    3    3    0  502  0.13188693896E+03  0.36111313020E+03 -0.14119076318E+03  0.40955059407E+03  0.50400001928E-02 0.  1.
</event>
<event>
 5   0  0.1535906E-02  0.9049549E+03  0.7818609E-02  0.9419409E-01
       -2   -1    0    0    0  501  0.00000000000E+00  0.00000000000E+00  0.90113400614E+03  0.90113400614E+03  0.25500000920E-02 0.  1.
        2   -1    0    0  501    0  0.00000000000E+00  0.00000000000E+00 -0.22719799800E+03  0.22719799802E+03  0.25500000920E-02 0. -1.
    10030    2    1    2    0    0  0.00000000000E+00  0.00000000000E+00  0.67393600814E+03  0.11283320042E+04  0.90495489863E+03 0.  0.
        2    1    3    3  502    0  0.32268278988E+03 -0.31162847535E+03  0.26321090564E+03  0.52011197870E+03  0.25500000920E-02 0. -1.
       -2    1    3    3    0  502 -0.32268278988E+03  0.31162847535E+03  0.41072510250E+03  0.60822002545E+03  0.25500000920E-02 0.  1.
</event>
<event>
 5   0  0.8885324E-03  0.9080363E+03  0.7818609E-02  0.9415591E-01
       -1   -1    0    0    0  501  0.00000000000E+00  0.00000000000E+00  0.16991929111E+03  0.16991929118E+03  0.50400001928E-02 0.  1.
        1   -1    0    0  501    0  0.00000000000E+00  0.00000000000E+00 -0.12131199622E+04  0.12131199622E+04  0.50400001928E-02 0. -1.
    10030    2    1    2    0    0  0.00000000000E+00  0.00000000000E+00 -0.10432006710E+04  0.13830392533E+04  0.90803630777E+03 0.  0.
        2    1    3    3  502    0 -0.50644253436E+01 -0.14661352427E+03 -0.11760261836E+04  0.11851408180E+04  0.25500000920E-02 0. -1.
       -2    1    3    3    0  502  0.50644253436E+01  0.14661352427E+03  0.13282551260E+03  0.19789843533E+03  0.25500000920E-02 0.  1.
</event>
<event>
 5   0  0.8738044E-03  0.8385894E+03  0.7818609E-02  0.9505781E-01
       -1   -1    0    0    0  501  0.00000000000E+00  0.00000000000E+00  0.81884808092E+03  0.81884808094E+03  0.50400001928E-02 0. -1.
        1   -1    0    0  501    0  0.00000000000E+00  0.00000000000E+00 -0.21470168388E+03  0.21470168394E+03  0.50400001928E-02 0.  1.
    10030    2    1    2    0    0  0.00000000000E+00  0.00000000000E+00  0.60414639704E+03  0.10335497649E+04  0.83858943913E+03 0.  0.
        3    1    3    3  502    0 -0.38794611077E+03 -0.13790985352E+03  0.20435066401E+03  0.45965260431E+03  0.10100000352E+00 0. -1.
       -3    1    3    3    0  502  0.38794611077E+03  0.13790985352E+03  0.39979573302E+03  0.57389716057E+03  0.10100000352E+00 0.  1.
</event>
<event>
 5   0  0.1483326E-02  0.9084492E+03  0.7818609E-02  0.9415081E-01
        2   -1    0    0  501    0  0.00000000000E+00  0.00000000000E+00  0.98896551766E+03  0.98896551767E+03  0.25500000920E-02 0.  1.
       -2   -1    0    0    0  501  0.00000000000E+00  0.00000000000E+00 -0.20862204121E+03  0.20862204122E+03  0.25500000920E-02 0. -1.
    10030    2    1    2    0    0  0.00000000000E+00  0.00000000000E+00  0.78034347645E+03  0.11975875589E+04  0.90844923907E+03 0.  0.
        1    1    3    3  502    0  0.27551045095E+03 -0.32523546099E+03  0.18325732213E+03  0.46396913670E+03  0.50400001928E-02 0.  1.
       -1    1    3    3    0  502 -0.27551045095E+03  0.32523546099E+03  0.59708615432E+03  0.73361842219E+03  0.50400001928E-02 0. -1.
</event>
<event>
 5   0  0.1535906E-02  0.8852473E+03  0.7818609E-02  0.9444213E-01
       -2   -1    0    0    0  501  0.00000000000E+00  0.00000000000E+00  0.17287010815E+03  0.17287010817E+03  0.25500000920E-02 0.  1.
        2   -1    0    0  501    0  0.00000000000E+00  0.00000000000E+00 -0.11333116754E+04  0.11333116754E+04  0.25500000920E-02 0. -1.
    10030    2    1    2    0    0  0.00000000000E+00  0.00000000000E+00 -0.96044156729E+03  0.13061817836E+04  0.88524733699E+03 0.  0.
        2    1    3    3  502    0 -0.33825502923E+03  0.11940451447E+03 -0.97608694411E+02  0.37175443522E+03  0.25500000920E-02 0.  1.
       -2    1    3    3    0  502  0.33825502923E+03 -0.11940451447E+03 -0.86283287288E+03  0.93442734838E+03  0.25500000920E-02 0. -1.
</event>
<event>
 5   0  0.1454652E-02  0.9002832E+03  0.7818609E-02  0.9425227E-01
       -2   -1    0    0    0  501  0.00000000000E+00  0.00000000000E+00  0.13939727092E+03  0.13939727094E+03  0.25500000920E-02 0.  1.
        2   -1    0    0  501    0  0.00000000000E+00  0.00000000000E+00 -0.14535970553E+04  0.14535970553E+04  0.25500000920E-02 0. -1.
    10030    2    1    2    0    0  0.00000000000E+00  0.00000000000E+00 -0.13141997844E+04  0.15929943263E+04  0.90028320555E+03 0.  0.
        4    1    3    3  502    0 -0.45513224201E+02  0.66459255636E+02  0.12653807304E+03  0.15000594343E+03  0.12699999809E+01 0.  1.
       -4    1    3    3    0  502  0.45513224201E+02 -0.66459255636E+02 -0.14407378575E+04  0.14429883829E+04  0.12699999809E+01 0. -1.
</event>
<event>
 5   0  0.1441195E-02  0.9093754E+03  0.7818609E-02  0.9413937E-01
       -2   -1    0    0    0  501  0.00000000000E+00  0.00000000000E+00  0.45596049557E+03  0.45596049557E+03  0.25500000920E-02 0.  1.
        2   -1    0    0  501    0  0.00000000000E+00  0.00000000000E+00 -0.45341846421E+03  0.45341846422E+03  0.25500000920E-02 0. -1.
    10030    2    1    2    0    0  0.00000000000E+00  0.00000000000E+00  0.25420313541E+01  0.90937895979E+03  0.90937540685E+03 0.  0.
        5    1    3    3  502    0  0.24425932829E+03 -0.14116124660E+03 -0.35528289897E+03  0.45369278735E+03  0.46999998093E+01 0. -1.
       -5    1    3    3    0  502 -0.24425932829E+03  0.14116124660E+03  0.35782493032E+03  0.45568617244E+03  0.46999998093E+01 0.  1.
</event>
<event>
 5   0  0.1454652E-02  0.9098564E+03  0.7818609E-02  0.9413344E-01
       -2   -1    0    0    0  501  0.00000000000E+00  0.00000000000E+00  0.10191465220E+03  0.10191465223E+03  0.25500000920E-02 0. -1.
        2   -1    0    0  501    0  0.00000000000E+00  0.00000000000E+00 -0.20307155035E+04  0.20307155035E+04  0.25500000920E-02 0.  1.
    10030    2    1    2    0    0  0.00000000000E+00  0.00000000000E+00 -0.19288008513E+04  0.21326301558E+04  0.90985639371E+03 0.  0.
        4    1    3    3  502    0 -0.23397080456E+02  0.68817137702E+02  0.88212124957E+02  0.11430754002E+03  0.12699999809E+01 0. -1.
       -4    1    3    3    0  502  0.23397080456E+02 -0.68817137702E+02 -0.20170129763E+04  0.20183226157E+04  0.12699999809E+01 0.  1.
</event>
<event>
 5   0  0.1483326E-02  0.9134863E+03  0.7818609E-02  0.9408878E-01
       -2   -1    0    0    0  501  0.00000000000E+00  0.00000000000E+00  0.22932568274E+03  0.22932568275E+03  0.25500000920E-02 0. -1.
        2   -1    0    0  501    0  0.00000000000E+00  0.00000000000E+00 -0.90968567015E+03  0.90968567016E+03  0.25500000920E-02 0.  1.
    10030    2    1    2    0    0  0.00000000000E+00  0.00000000000E+00 -0.68035998742E+03  0.11390113529E+04  0.91348626129E+03 0.  0.
        1    1    3    3  502    0  0.32648514016E+02  0.43995034927E+03 -0.19268857970E+03  0.48140536356E+03  0.50400001928E-02 0.  1.
       -1    1    3    3    0  502 -0.32648514016E+02 -0.43995034927E+03 -0.48767140771E+03  0.65760598934E+03  0.50400001928E-02 0. -1.
</event>
<event>
 5   0  0.8885324E-03  0.8995401E+03  0.7818609E-02  0.9426156E-01
       -1   -1    0    0    0  501  0.00000000000E+00  0.00000000000E+00  0.16125589792E+03  0.16125589800E+03  0.50400001928E-02 0. -1.
        1   -1    0    0  501    0  0.00000000000E+00  0.00000000000E+00 -0.12544849760E+04  0.12544849760E+04  0.50400001928E-02 0.  1.
    10030    2    1    2    0    0  0.00000000000E+00  0.00000000000E+00 -0.10932290781E+04  0.14157408740E+04  0.89954010760E+03 0.  0.
        2    1    3    3  502    0  0.23521054471E+03 -0.35254905431E+03 -0.30960372921E+03  0.52485169827E+03  0.25500000920E-02 0. -1.
       -2    1    3    3    0  502 -0.23521054471E+03  0.35254905431E+03 -0.78362534886E+03  0.89088917572E+03  0.25500000920E-02 0.  1.
</event>
<event>
 5   0  0.1535906E-02  0.9021438E+03  0.7818609E-02  0.9422906E-01
        2   -1    0    0  501    0  0.00000000000E+00  0.00000000000E+00  0.26088095608E+04  0.26088095608E+04  0.25500000920E-02 0. -1.
       -2   -1    0    0    0  501  0.00000000000E+00  0.00000000000E+00 -0.77991842279E+02  0.77991842321E+02  0.25500000920E-02 0.  1.
    10030    2    1    2    0    0  0.00000000000E+00  0.00000000000E+00  0.25308177185E+04  0.26868014031E+04  0.90214381084E+03 0.  0.
        2    1    3    3  502    0  0.13582396652E+03  0.32495800827E+03  0.42609430816E+03  0.55281300317E+03  0.25500000920E-02 0.  1.
       -2    1    3    3    0  502 -0.13582396652E+03 -0.32495800827E+03  0.21047234104E+04  0.21339884000E+04  0.25500000920E-02 0. -1.
</event>
<event>
 5   0  0.1440615E-02  0.9091730E+03  0.7818609E-02  0.9414187E-01
        2   -1    0    0  501    0  0.00000000000E+00  0.00000000000E+00  0.21935303272E+04  0.21935303272E+04  0.25500000920E-02 0. -1.
       -2   -1    0    0    0  501  0.00000000000E+00  0.00000000000E+00 -0.94208350549E+02  0.94208350584E+02  0.25500000920E-02 0.  1.
    10030    2    1    2    0    0  0.00000000000E+00  0.00000000000E+00  0.20993219766E+04  0.22877386778E+04  0.90917297374E+03 0.  0.
        3    1    3    3  502    0 -0.31688335497E+03  0.87720290740E+02  0.25977598067E+03  0.41903875763E+03  0.10100000352E+00 0.  1.
       -3    1    3    3    0  502  0.31688335497E+03 -0.87720290740E+02  0.18395459960E+04  0.18686999201E+04  0.10100000352E+00 0. -1.
</event>
<event>
 5   0  0.1441195E-02  0.9027880E+03  0.7818609E-02  0.9422103E-01
        2   -1    0    0  501    0  0.00000000000E+00  0.00000000000E+00  0.15747810264E+04  0.15747810264E+04  0.25500000920E-02 0. -1.
       -2   -1    0    0    0  501  0.00000000000E+00  0.00000000000E+00 -0.12938723336E+03  0.12938723338E+03  0.25500000920E-02 0.  1.
    10030    2    1    2    0    0  0.00000000000E+00  0.00000000000E+00  0.14453937931E+04  0.17041682598E+04  0.90278803754E+03 0.  0.
        5    1    3    3  502    0  0.45835907907E+02 -0.40654063946E+03  0.36275852165E+03  0.54680166150E+03  0.46999998093E+01 0.  1.
       -5    1    3    3    0  502 -0.45835907907E+02  0.40654063946E+03  0.10826352714E+04  0.11573665983E+04  0.46999998093E+01 0. -1.
</event>
<event>
 5   0  0.1483326E-02  0.9023833E+03  0.7818609E-02  0.9422607E-01
       -2   -1    0    0    0  501  0.00000000000E+00  0.00000000000E+00  0.10351257549E+03  0.10351257552E+03  0.25500000920E-02 0.  1.
        2   -1    0    0  501    0  0.00000000000E+00  0.00000000000E+00 -0.19666585066E+04  0.19666585066E+04  0.25500000920E-02 0. -1.
    10030    2    1    2    0    0  0.00000000000E+00  0.00000000000E+00 -0.18631459311E+04  0.20701710821E+04  0.90238326041E+03 0.  0.
        1    1    3    3  502    0 -0.37987136797E+03  0.16615780930E+03 -0.13397914829E+04  0.14024806207E+04  0.50400001928E-02 0.  1.
       -1    1    3    3    0  502  0.37987136797E+03 -0.16615780930E+03 -0.52335444827E+03  0.66769046147E+03  0.50400001928E-02 0. -1.
</event>
<event>
 5   0  0.8291252E-03  0.8927118E+03  0.7818609E-02  0.9434738E-01
       -1   -1    0    0    0  501  0.00000000000E+00  0.00000000000E+00  0.51239335578E+03  0.51239335580E+03  0.50400001928E-02 0.  1.
        1   -1    0    0  501    0  0.00000000000E+00  0.00000000000E+00 -0.38882939621E+03  0.38882939624E+03  0.50400001928E-02 0. -1.
    10030    2    1    2    0    0  0.00000000000E+00  0.00000000000E+00  0.12356395957E+03  0.90122275205E+03  0.89271182176E+03 0.  0.
        1    1    3    3  502    0  0.33672627034E+03 -0.29217607582E+03  0.83949437114E+02  0.45365068988E+03  0.50400001928E-02 0. -1.
       -1    1    3    3    0  502 -0.33672627034E+03  0.29217607582E+03  0.39614522455E+02  0.44757206216E+03  0.50400001928E-02 0.  1.
</event>
<event>
 5   0  0.1535906E-02  0.9010301E+03  0.7818609E-02  0.9424295E-01
        2   -1    0    0  501    0  0.00000000000E+00  0.00000000000E+00  0.78705817921E+03  0.78705817922E+03  0.25500000920E-02 0. -1.
       -2   -1    0    0    0  501  0.00000000000E+00  0.00000000000E+00 -0.25787652225E+03  0.25787652227E+03  0.25500000920E-02 0.  1.
    10030    2    1    2    0    0  0.00000000000E+00  0.00000000000E+00  0.52918165696E+03  0.10449347015E+04  0.90103013507E+03 0.  0.
        2    1    3    3  502    0  0.14808122876E+03 -0.13625962372E+03  0.73204087858E+03  0.75919601112E+03  0.25500000920E-02 0. -1.
       -2    1    3    3    0  502 -0.14808122876E+03  0.13625962372E+03 -0.20285922162E+03  0.28573869037E+03  0.25500000920E-02 0.  1.
</event>
<event>
 5   0  0.8738044E-03  0.9121144E+03  0.7818609E-02  0.9410563E-01
       -1   -1    0    0    0  501  0.00000000000E+00  0.00000000000E+00  0.44573205912E+03  0.44573205915E+03  0.50400001928E-02 0.  1.
        1   -1    0    0  501    0  0.00000000000E+00  0.00000000000E+00 -0.46662153067E+03  0.46662153070E+03  0.50400001928E-02 0. -1.
    10030    2    1    2    0    0  0.00000000000E+00  0.00000000000E+00 -0.20889471556E+02  0.91235358985E+03  0.91211441327E+03 0.  0.
        3    1    3    3  502    0  0.65966518871E+02 -0.18169075994E+03 -0.42362090489E+03  0.46563697783E+03  0.10100000352E+00 0. -1.
       -3    1    3    3    0  502 -0.65966518871E+02  0.18169075994E+03  0.40273143333E+03  0.44671661202E+03  0.10100000352E+00 0.  1.
</event>
<event>
 5   0  0.1441195E-02  0.8971206E+03  0.7818609E-02  0.9429188E-01
       -2   -1    0    0    0  501  0.00000000000E+00  0.00000000000E+00  0.74605192344E+02  0.74605192388E+02  0.25500000920E-02 0.  1.
        2   -1    0    0  501    0  0.00000000000E+00  0.00000000000E+00 -0.26969481039E+04  0.26969481039E+04  0.25500000920E-02 0. -1.
    10030    2    1    2    0    0  0.00000000000E+00  0.00000000000E+00 -0.26223429115E+04  0.27715532963E+04  0.89712057627E+03 0.  0.
        5    1    3    3  502    0  0.19683840013E+03 -0.30500715190E+03 -0.49725102805E+03  0.61567474641E+03  0.46999998093E+01 0.  1.
       -5    1    3    3    0  502 -0.19683840013E+03  0.30500715190E+03 -0.21250918835E+04  0.21558785498E+04  0.46999998093E+01 0. -1.
</event>
<event>
 5   0  0.8885324E-03  0.8950367E+03  0.7818609E-02  0.9431807E-01
       -1   -1    0    0    0  501  0.00000000000E+00  0.00000000000E+00  0.16056359216E+03  0.16056359224E+03  0.50400001928E-02 0. -1.
        1   -1    0    0  501    0  0.00000000000E+00  0.00000000000E+00 -0.12473105743E+04  0.12473105743E+04  0.50400001928E-02 0.  1.
    10030    2    1    2    0    0  0.00000000000E+00  0.00000000000E+00 -0.10867469821E+04  0.14078741665E+04  0.89503668394E+03 0.  0.
        2    1    3    3  502    0  0.45122394357E+02  0.15969515478E+03  0.11037701325E+03  0.19930293022E+03  0.25500000920E-02 0. -1.
       -2    1    3    3    0  502 -0.45122394357E+02 -0.15969515478E+03 -0.11971239953E+04  0.12085712363E+04  0.25500000920E-02 0.  1.
</event>
<event>
 5   0  0.1454652E-02  0.8952933E+03  0.7818609E-02  0.9431484E-01
        2   -1    0    0  501    0  0.00000000000E+00  0.00000000000E+00  0.56136266685E+03  0.56136266686E+03  0.25500000920E-02 0.  1.
       -2   -1    0    0    0  501  0.00000000000E+00  0.00000000000E+00 -0.35696622122E+03  0.35696622123E+03  0.25500000920E-02 0. -1.
    10030    2    1    2    0    0  0.00000000000E+00  0.00000000000E+00  0.20439644563E+03  0.91832888809E+03  0.89529327022E+03 0.  0.
        4    1    3    3  502    0  0.40123326464E+03 -0.28248742150E+02 -0.99325093435E+02  0.41431052505E+03  0.12699999809E+01 0. -1.
       -4    1    3    3    0  502 -0.40123326464E+03  0.28248742150E+02  0.30372153906E+03  0.50401836303E+03  0.12699999809E+01 0.  1.
</event>
<event>
 5   0  0.8291252E-03  0.9017163E+03  0.7818609E-02  0.9423439E-01
       -1   -1    0    0    0  501  0.00000000000E+00  0.00000000000E+00  0.14035454860E+04  0.14035454860E+04  0.50400001928E-02 0.  1.
        1   -1    0    0  501    0  0.00000000000E+00  0.00000000000E+00 -0.14482826805E+03  0.14482826814E+03  0.50400001928E-02 0. -1.
    10030    2    1    2    0    0  0.00000000000E+00  0.00000000000E+00  0.12587172180E+04  0.15483737542E+04  0.90171627899E+03 0.  0.
        1    1    3    3  502    0 -0.38715692774E+03 -0.15047386481E+03  0.32829436917E+03  0.52944316365E+03  0.50400001928E-02 0. -1.
       -1    1    3    3    0  502  0.38715692774E+03  0.15047386481E+03  0.93042284880E+03  0.10189305905E+04  0.50400001928E-02 0.  1.
</event>
<event>
 5   0  0.1483326E-02  0.9882919E+03  0.7818609E-02  0.9321480E-01
        2   -1    0    0  501    0  0.00000000000E+00  0.00000000000E+00  0.99242139092E+03  0.99242139093E+03  0.25500000920E-02 0. -1.
       -2   -1    0    0    0  501  0.00000000000E+00  0.00000000000E+00 -0.24604488985E+03  0.24604488986E+03  0.25500000920E-02 0.  1.
    10030    2    1    2    0    0  0.00000000000E+00  0.00000000000E+00  0.74637650108E+03  0.12384662808E+04  0.98829188365E+03 0.  0.
        1    1    3    3  502    0  0.10052001194E+03  0.12312826677E+03 -0.21313495640E+03  0.26587845445E+03  0.50400001928E-02 0.  1.
       -1    1    3    3    0  502 -0.10052001194E+03 -0.12312826677E+03  0.95951145747E+03  0.97258782633E+03  0.50400001928E-02 0. -1.
</event>
<event>
 5   0  0.8612969E-03  0.8990188E+03  0.7818609E-02  0.9426809E-01
        1   -1    0    0  501    0  0.00000000000E+00  0.00000000000E+00  0.10683751742E+04  0.10683751742E+04  0.50400001928E-02 0. -1.
       -1   -1    0    0    0  501  0.00000000000E+00  0.00000000000E+00 -0.18912711146E+03  0.18912711153E+03  0.50400001928E-02 0.  1.
    10030    2    1    2    0    0  0.00000000000E+00  0.00000000000E+00  0.87924806276E+03  0.12575022858E+04  0.89901882229E+03 0.  0.
        4    1    3    3  502    0  0.30720368900E+03  0.19553961689E+03  0.71013682811E+02  0.37101806473E+03  0.12699999809E+01 0. -1.
       -4    1    3    3    0  502 -0.30720368900E+03 -0.19553961689E+03  0.80823437995E+03  0.88648422103E+03  0.12699999809E+01 0.  1.
</event>
<event>
 5   0  0.5770125E-03  0.8784153E+03  0.7818609E-02  0.9452973E-01
        3   -1    0    0  501    0  0.00000000000E+00  0.00000000000E+00  0.20534876903E+04  0.20534876928E+04  0.10100000352E+00 0.  1.
       -3   -1    0    0    0  501  0.00000000000E+00  0.00000000000E+00 -0.93939340938E+02  0.93939395233E+02  0.10100000352E+00 0. -1.
    10030    2    1    2    0    0  0.00000000000E+00  0.00000000000E+00  0.19595483494E+04  0.21474270881E+04  0.87841525765E+03 0.  0.
        4    1    3    3  502    0  0.10600499277E+03  0.41331386279E+03  0.12342575874E+04  0.13059321624E+04  0.12699999809E+01 0.  1.
       -4    1    3    3    0  502 -0.10600499277E+03 -0.41331386279E+03  0.72529076196E+03  0.84149492569E+03  0.12699999809E+01 0. -1.
</event>
<event>
 5   0  0.1440615E-02  0.9041605E+03  0.7818609E-02  0.9420395E-01
        2   -1    0    0  501    0  0.00000000000E+00  0.00000000000E+00  0.92308371346E+03  0.92308371346E+03  0.25500000920E-02 0.  1.
       -2   -1    0    0    0  501  0.00000000000E+00  0.00000000000E+00 -0.22140631754E+03  0.22140631756E+03  0.25500000920E-02 0. -1.
    10030    2    1    2    0    0  0.00000000000E+00  0.00000000000E+00  0.70167739592E+03  0.11444900310E+04  0.90416052953E+03 0.  0.
        3    1    3    3  502    0 -0.21733240966E+03  0.20595516831E+03  0.77958138892E+03  0.83510362219E+03  0.10100000352E+00 0.  1.
       -3    1    3    3    0  502  0.21733240966E+03 -0.20595516831E+03 -0.77903992999E+02  0.30938640883E+03  0.10100000352E+00 0. -1.
</event>
<event>
 5   0  0.8738044E-03  0.8670710E+03  0.7818609E-02  0.9467707E-01
        1   -1    0    0  501    0  0.00000000000E+00  0.00000000000E+00  0.12746003285E+04  0.12746003285E+04  0.50400001928E-02 0. -1.
       -1   -1    0    0    0  501  0.00000000000E+00  0.00000000000E+00 -0.14746037099E+03  0.14746037107E+03  0.50400001928E-02 0.  1.
    10030    2    1    2    0    0  0.00000000000E+00  0.00000000000E+00  0.11271399575E+04  0.14220606996E+04  0.86707101754E+03 0.  0.
        3    1    3    3  502    0 -0.12356168671E+03  0.18780041727E+03 -0.44401168285E+02  0.22914615663E+03  0.10100000352E+00 0.  1.
       -3    1    3    3    0  502  0.12356168671E+03 -0.18780041727E+03  0.11715411258E+04  0.11929145429E+04  0.10100000352E+00 0. -1.
</event>
<event>
 5   0  0.1483326E-02  0.9041202E+03  0.7818609E-02  0.9420446E-01
        2   -1    0    0  501    0  0.00000000000E+00  0.00000000000E+00  0.39405413607E+03  0.39405413608E+03  0.25500000920E-02 0.  1.
       -2   -1    0    0    0  501  0.00000000000E+00  0.00000000000E+00 -0.51860471033E+03  0.51860471034E+03  0.25500000920E-02 0. -1.
    10030    2    1    2    0    0  0.00000000000E+00  0.00000000000E+00 -0.12455057426E+03  0.91265884642E+03  0.90412019356E+03 0.  0.
        1    1    3    3  502    0 -0.17361753533E+03  0.38815672428E+03  0.92632922212E+02  0.43518909623E+03  0.50400001928E-02 0.  1.
       -1    1    3    3    0  502  0.17361753533E+03 -0.38815672428E+03 -0.21718349647E+03  0.47746975019E+03  0.50400001928E-02 0. -1.
</event>
<event>
 5   0  0.8612969E-03  0.9055746E+03  0.7818609E-02  0.9418640E-01
        1   -1    0    0  501    0  0.00000000000E+00  0.00000000000E+00  0.15026894958E+04  0.15026894958E+04  0.50400001928E-02 0.  1.
       -1   -1    0    0    0  501  0.00000000000E+00  0.00000000000E+00 -0.13643293451E+03  0.13643293461E+03  0.50400001928E-02 0. -1.
    10030    2    1    2    0    0  0.00000000000E+00  0.00000000000E+00  0.13662565613E+04  0.16391224305E+04  0.90557459695E+03 0.  0.
        4    1    3    3  502    0 -0.36508858852E+03  0.74301838142E+02  0.11488539860E+04  0.12077572334E+04  0.12699999809E+01 0.  1.
       -4    1    3    3    0  502  0.36508858852E+03 -0.74301838142E+02  0.21740257529E+03  0.43136519709E+03  0.12699999809E+01 0. -1.
</event>
<event>
 5   0  0.1440615E-02  0.8946108E+03  0.7818609E-02  0.9432343E-01
        2   -1    0    0  501    0  0.00000000000E+00  0.00000000000E+00  0.27860471609E+03  0.27860471610E+03  0.25500000920E-02 0. -1.
       -2   -1    0    0    0  501  0.00000000000E+00  0.00000000000E+00 -0.71815772271E+03  0.71815772272E+03  0.25500000920E-02 0.  1.
    10030    2    1    2    0    0  0.00000000000E+00  0.00000000000E+00 -0.43955300662E+03  0.99676243882E+03  0.89461081696E+03 0.  0.
        3    1    3    3  502    0 -0.84049900940E+02 -0.43158905283E+03 -0.12824616513E+03  0.45801810602E+03  0.10100000352E+00 0. -1.
       -3    1    3    3    0  502  0.84049900940E+02  0.43158905283E+03 -0.31130684150E+03  0.53874433281E+03  0.10100000352E+00 0.  1.
</event>
<event>
 5   0  0.8612969E-03  0.9208919E+03  0.7818609E-02  0.9399836E-01
       -1   -1    0    0    0  501  0.00000000000E+00  0.00000000000E+00  0.33030596989E+03  0.33030596992E+03  0.50400001928E-02 0.  1.
        1   -1    0    0  501    0  0.00000000000E+00  0.00000000000E+00 -0.64186079253E+03  0.64186079255E+03  0.50400001928E-02 0. -1.
    10030    2    1    2    0    0  0.00000000000E+00  0.00000000000E+00 -0.31155482265E+03  0.97216676248E+03  0.92089185388E+03 0.  0.
        4    1    3    3  502    0 -0.30678502873E+03  0.28187314120E+03 -0.36275340185E+03  0.55241394355E+03  0.12699999809E+01 0. -1.
       -4    1    3    3    0  502  0.30678502873E+03 -0.28187314120E+03  0.51198579200E+02  0.41975281892E+03  0.12699999809E+01 0.  1.
</event>
<event>
 5   0  0.8524692E-03  0.1038294E+04  0.7818609E-02  0.9267514E-01
       -1   -1    0    0    0  501  0.00000000000E+00  0.00000000000E+00  0.45836791280E+03  0.45836791282E+03  0.50400001928E-02 0. -1.
        1   -1    0    0  501    0  0.00000000000E+00  0.00000000000E+00 -0.58798559625E+03  0.58798559627E+03  0.50400001928E-02 0.  1.
    10030    2    1    2    0    0  0.00000000000E+00  0.00000000000E+00 -0.12961768346E+03  0.10463535091E+04  0.10382942368E+04 0.  0.
        5    1    3    3  502    0 -0.19536185064E+03  0.11885278345E+03 -0.53447287794E+03  0.58135667543E+03  0.46999998093E+01 0.  1.
       -5    1    3    3    0  502  0.19536185064E+03 -0.11885278345E+03  0.40485519449E+03  0.46499683366E+03  0.46999998093E+01 0. -1.
</event>
<event>
 5   0  0.8612969E-03  0.8964008E+03  0.7818609E-02  0.9430092E-01
       -1   -1    0    0    0  501  0.00000000000E+00  0.00000000000E+00  0.32929935497E+03  0.32929935501E+03  0.50400001928E-02 0. -1.
        1   -1    0    0  501    0  0.00000000000E+00  0.00000000000E+00 -0.61003337857E+03  0.61003337859E+03  0.50400001928E-02 0.  1.
    10030    2    1    2    0    0  0.00000000000E+00  0.00000000000E+00 -0.28073402360E+03  0.93933273360E+03  0.89640079898E+03 0.  0.
        4    1    3    3  502    0  0.11247707202E+03 -0.42333616370E+03 -0.23987490962E+03  0.49940583135E+03  0.12699999809E+01 0.  1.
       -4    1    3    3    0  502 -0.11247707202E+03  0.42333616370E+03 -0.40859113976E+02  0.43992690225E+03  0.12699999809E+01 0. -1.
</event>
<event>
 5   0  0.8738044E-03  0.8915589E+03  0.7818609E-02  0.9436195E-01
        1   -1    0    0  501    0  0.00000000000E+00  0.00000000000E+00  0.32239862401E+03  0.32239862405E+03  0.50400001928E-02 0.  1.
       -1   -1    0    0    0  501  0.00000000000E+00  0.00000000000E+00 -0.61637765521E+03  0.61637765524E+03  0.50400001928E-02 0. -1.
    10030    2    1    2    0    0  0.00000000000E+00  0.00000000000E+00 -0.29397903121E+03  0.93877627928E+03  0.89155887734E+03 0.  0.
        3    1    3    3  502    0  0.43662279102E+03 -0.75602872289E+02 -0.95793088393E+02  0.45335591087E+03  0.10100000352E+00 0. -1.
       -3    1    3    3    0  502 -0.43662279102E+03  0.75602872289E+02 -0.19818594281E+03  0.48542036841E+03  0.10100000352E+00 0.  1.
</event>
<event>
 5   0  0.1535906E-02  0.9040726E+03  0.7818609E-02  0.9420505E-01
       -2   -1    0    0    0  501  0.00000000000E+00  0.00000000000E+00  0.19278130560E+03  0.19278130562E+03  0.25500000920E-02 0.  1.
        2   -1    0    0  501    0  0.00000000000E+00  0.00000000000E+00 -0.10599410001E+04  0.10599410001E+04  0.25500000920E-02 0. -1.
    10030    2    1    2    0    0  0.00000000000E+00  0.00000000000E+00 -0.86715969453E+03  0.12527223058E+04  0.90407258532E+03 0.  0.
        2    1    3    3  502    0  0.46484201480E+02  0.13194737725E+03  0.16203078678E+03  0.21406743615E+03  0.25500000920E-02 0.  1.
       -2    1    3    3    0  502 -0.46484201480E+02 -0.13194737725E+03 -0.10291904813E+04  0.10386548696E+04  0.25500000920E-02 0. -1.
</event>
<event>
 5   0  0.1454652E-02  0.9041252E+03  0.7818609E-02  0.9420439E-01
       -2   -1    0    0    0  501  0.00000000000E+00  0.00000000000E+00  0.14064273406E+03  0.14064273409E+03  0.25500000920E-02 0.  1.
        2   -1    0    0  501    0  0.00000000000E+00  0.00000000000E+00 -0.14530475873E+04  0.14530475873E+04  0.25500000920E-02 0. -1.
    10030    2    1    2    0    0  0.00000000000E+00  0.00000000000E+00 -0.13124048532E+04  0.15936903213E+04  0.90412518030E+03 0.  0.
        4    1    3    3  502    0 -0.23579353478E+03 -0.18133431068E+03 -0.12562370804E+04  0.12909740270E+04  0.12699999809E+01 0. -1.
       -4    1    3    3    0  502  0.23579353478E+03  0.18133431068E+03 -0.56167772804E+02  0.30271629437E+03  0.12699999809E+01 0.  1.
</event>
<event>
 5   0  0.1441195E-02  0.8045036E+03  0.7818609E-02  0.9553521E-01
       -2   -1    0    0    0  501  0.00000000000E+00  0.00000000000E+00  0.47999818310E+03  0.47999818310E+03  0.25500000920E-02 0. -1.
        2   -1    0    0  501    0  0.00000000000E+00  0.00000000000E+00 -0.33709816670E+03  0.33709816671E+03  0.25500000920E-02 0.  1.
    10030    2    1    2    0    0  0.00000000000E+00  0.00000000000E+00  0.14290001640E+03  0.81709634982E+03  0.80450359241E+03 0.  0.
        5    1    3    3  502    0 -0.26433967948E+03  0.13079491155E+03 -0.20632991266E+03  0.35996791231E+03  0.46999998093E+01 0.  1.
       -5    1    3    3    0  502  0.26433967948E+03 -0.13079491155E+03  0.34922992906E+03  0.45712843751E+03  0.46999998093E+01 0. -1.
</event>
<event>
 5   0  0.1441195E-02  0.8948727E+03  0.7818609E-02  0.9432014E-01
        2   -1    0    0  501    0  0.00000000000E+00  0.00000000000E+00  0.13831151273E+04  0.13831151273E+04  0.25500000920E-02 0.  1.
       -2   -1    0    0    0  501  0.00000000000E+00  0.00000000000E+00 -0.14474519786E+03  0.14474519789E+03  0.25500000920E-02 0. -1.
    10030    2    1    2    0    0  0.00000000000E+00  0.00000000000E+00  0.12383699295E+04  0.15278603252E+04  0.89487266757E+03 0.  0.
        5    1    3    3  502    0 -0.30188834594E+02 -0.43258036847E+03  0.43106603361E+03  0.61145495030E+03  0.46999998093E+01 0.  1.
       -5    1    3    3    0  502  0.30188834594E+02  0.43258036847E+03  0.80730389586E+03  0.91640537493E+03  0.46999998093E+01 0. -1.
</event>
<event>
 5   0  0.8885324E-03  0.9627166E+03  0.7818609E-02  0.9350409E-01
        1   -1    0    0  501    0  0.00000000000E+00  0.00000000000E+00  0.87517685437E+03  0.87517685439E+03  0.50400001928E-02 0. -1.
       -1   -1    0    0    0  501  0.00000000000E+00  0.00000000000E+00 -0.26475312509E+03  0.26475312514E+03  0.50400001928E-02 0.  1.
    10030    2    1    2    0    0  0.00000000000E+00  0.00000000000E+00  0.61042372928E+03  0.11399299795E+04  0.96271658807E+03 0.  0.
        2    1    3    3  502    0  0.13682882675E+03  0.11921555157E+03 -0.22269413061E+03  0.28727539293E+03  0.25500000920E-02 0.  1.
       -2    1    3    3    0  502 -0.13682882675E+03 -0.11921555157E+03  0.83311785989E+03  0.85265458660E+03  0.25500000920E-02 0. -1.
</event>
<event>
 5   0  0.8291252E-03  0.9027796E+03  0.7818609E-02  0.9422113E-01
        1   -1    0    0  501    0  0.00000000000E+00  0.00000000000E+00  0.45347799416E+03  0.45347799419E+03  0.50400001928E-02 0. -1.
       -1   -1    0    0    0  501  0.00000000000E+00  0.00000000000E+00 -0.44931121221E+03  0.44931121224E+03  0.50400001928E-02 0.  1.
    10030    2    1    2    0    0  0.00000000000E+00  0.00000000000E+00  0.41667819542E+01  0.90278920643E+03  0.90277959058E+03 0.  0.
        1    1    3    3  502    0  0.32456066857E+03  0.30370496811E+03  0.80674380319E+02  0.45175733630E+03  0.50400001928E-02 0. -1.
       -1    1    3    3    0  502 -0.32456066857E+03 -0.30370496811E+03 -0.76507598364E+02  0.45103187013E+03  0.50400001928E-02 0.  1.
</event>
<event>
 5   0  0.1440615E-02  0.9039377E+03  0.7818609E-02  0.9420673E-01
       -2   -1    0    0    0  501  0.00000000000E+00  0.00000000000E+00  0.35385832510E+03  0.35385832511E+03  0.25500000920E-02 0. -1.
        2   -1    0    0  501    0  0.00000000000E+00  0.00000000000E+00 -0.57728138586E+03  0.57728138587E+03  0.25500000920E-02 0.  1.
    10030    2    1    2    0    0  0.00000000000E+00  0.00000000000E+00 -0.22342306076E+03  0.93113971098E+03  0.90393766228E+03 0.  0.
        3    1    3    3  502    0 -0.51778833694E+02  0.38351095288E+03 -0.35222026439E+03  0.52327891554E+03  0.10100000352E+00 0.  1.
       -3    1    3    3    0  502  0.51778833694E+02 -0.38351095288E+03  0.12879720363E+03  0.40786079544E+03  0.10100000352E+00 0. -1.
</event>
<event>
 5   0  0.1483326E-02  0.9696576E+03  0.7818609E-02  0.9342464E-01
       -2   -1    0    0    0  501  0.00000000000E+00  0.00000000000E+00  0.77089698762E+03  0.77089698762E+03  0.25500000920E-02 0. -1.
        2   -1    0    0  501    0  0.00000000000E+00  0.00000000000E+00 -0.30491616081E+03  0.30491616082E+03  0.25500000920E-02 0.  1.
    10030    2    1    2    0    0  0.00000000000E+00  0.00000000000E+00  0.46598082680E+03  0.10758131484E+04  0.96965756812E+03 0.  0.
        1    1    3    3  502    0 -0.47879051960E+03  0.69060457884E+02  0.19705222752E+03  0.52234020418E+03  0.50400001928E-02 0. -1.
       -1    1    3    3    0  502  0.47879051960E+03 -0.69060457884E+02  0.26892859928E+03  0.55347294427E+03  0.50400001928E-02 0.  1.
</event>
<event>
 5   0  0.5770125E-03  0.8873655E+03  0.7818609E-02  0.9441514E-01
        3   -1    0    0  501    0  0.00000000000E+00  0.00000000000E+00  0.14135475554E+04  0.14135475590E+04  0.10100000352E+00 0.  1.
       -3   -1    0    0    0  501  0.00000000000E+00  0.00000000000E+00 -0.13926261694E+03  0.13926265357E+03  0.10100000352E+00 0. -1.
    10030    2    1    2    0    0  0.00000000000E+00  0.00000000000E+00  0.12742849385E+04  0.15528102126E+04  0.88736545566E+03 0.  0.
        2    1    3    3  502    0  0.42009469478E+03  0.14246050862E+03  0.65277592707E+03  0.78923441389E+03  0.25500000920E-02 0.  1.
       -2    1    3    3    0  502 -0.42009469478E+03 -0.14246050862E+03  0.62150901140E+03  0.76357579870E+03  0.25500000920E-02 0. -1.
</event>
<event>
 5   0  0.1441195E-02  0.9232669E+03  0.7818609E-02  0.9396955E-01
        2   -1    0    0  501    0  0.00000000000E+00  0.00000000000E+00  0.14873534666E+04  0.14873534666E+04  0.25500000920E-02 0. -1.
       -2   -1    0    0    0  501  0.00000000000E+00  0.00000000000E+00 -0.14327827448E+03  0.14327827450E+03  0.25500000920E-02 0.  1.
    10030    2    1    2    0    0  0.00000000000E+00  0.00000000000E+00  0.13440751921E+04  0.16306317411E+04  0.92326689154E+03 0.  0.
        5    1    3    3  502    0  0.29503261166E+03  0.35019520342E+03  0.56901725997E+03  0.73039965401E+03  0.46999998093E+01 0.  1.
       -5    1    3    3    0  502 -0.29503261166E+03 -0.35019520342E+03  0.77505793216E+03  0.90023208710E+03  0.46999998093E+01 0. -1.
</event>
<event>
 5   0  0.8738044E-03  0.8967044E+03  0.7818609E-02  0.9429710E-01
       -1   -1    0    0    0  501  0.00000000000E+00  0.00000000000E+00  0.15288861163E+03  0.15288861172E+03  0.50400001928E-02 0. -1.
        1   -1    0    0  501    0  0.00000000000E+00  0.00000000000E+00 -0.13148113999E+04  0.13148113999E+04  0.50400001928E-02 0.  1.
    10030    2    1    2    0    0  0.00000000000E+00  0.00000000000E+00 -0.11619227883E+04  0.14677000116E+04  0.89670438732E+03 0.  0.
        3    1    3    3  502    0 -0.27206850407E+03 -0.34506085372E+03 -0.72672978475E+03  0.84924934732E+03  0.10100000352E+00 0.  1.
       -3    1    3    3    0  502  0.27206850407E+03  0.34506085372E+03 -0.43519300353E+03  0.61845066432E+03  0.10100000352E+00 0. -1.
</event>
<event>
 5   0  0.5770125E-03  0.8019650E+03  0.7818609E-02  0.9557177E-01
        3   -1    0    0  501    0  0.00000000000E+00  0.00000000000E+00  0.88639973453E+02  0.88640030995E+02  0.10100000352E+00 0.  1.
       -3   -1    0    0    0  501  0.00000000000E+00  0.00000000000E+00 -0.18139323709E+04  0.18139323737E+04  0.10100000352E+00 0. -1.
    10030    2    1    2    0    0  0.00000000000E+00  0.00000000000E+00 -0.17252923974E+04  0.19025724047E+04  0.80196502322E+03 0.  0.
        4    1    3    3  502    0  0.32254531074E+03 -0.23562084361E+03 -0.94594041911E+03  0.10268191412E+04  0.12699999809E+01 0.  1.
       -4    1    3    3    0  502 -0.32254531074E+03  0.23562084361E+03 -0.77935197833E+03  0.87575326345E+03  0.12699999809E+01 0. -1.
</event>
<event>
 5   0  0.1535906E-02  0.9019043E+03  0.7818609E-02  0.9423204E-01
        2   -1    0    0  501    0  0.00000000000E+00  0.00000000000E+00  0.67720984515E+03  0.67720984516E+03  0.25500000920E-02 0. -1.
       -2   -1    0    0    0  501  0.00000000000E+00  0.00000000000E+00 -0.30028776789E+03  0.30028776790E+03  0.25500000920E-02 0.  1.
    10030    2    1    2    0    0  0.00000000000E+00  0.00000000000E+00  0.37692207727E+03  0.97749761306E+03  0.90190428051E+03 0.  0.
        2    1    3    3  502    0  0.11438376936E+03  0.43601912578E+03  0.17468728387E+03  0.48343766082E+03  0.25500000920E-02 0.  1.
       -2    1    3    3    0  502 -0.11438376936E+03 -0.43601912578E+03  0.20223479339E+03  0.49405995224E+03  0.25500000920E-02 0. -1.
</event>
<event>
 5   0  0.8291252E-03  0.8988455E+03  0.7818609E-02  0.9427026E-01
       -1   -1    0    0    0  501  0.00000000000E+00  0.00000000000E+00  0.61455577233E+03  0.61455577235E+03  0.50400001928E-02 0.  1.
        1   -1    0    0  501    0  0.00000000000E+00  0.00000000000E+00 -0.32866145469E+03  0.32866145473E+03  0.50400001928E-02 0. -1.
    10030    2    1    2    0    0  0.00000000000E+00  0.00000000000E+00  0.28589431764E+03  0.94321722708E+03  0.89884546870E+03 0.  0.
        1    1    3    3  502    0  0.80208125537E+02 -0.16708231486E+03  0.57258625564E+03  0.60183458152E+03  0.50400001928E-02 0.  1.
       -1    1    3    3    0  502 -0.80208125537E+02  0.16708231486E+03 -0.28669193801E+03  0.34138264555E+03  0.50400001928E-02 0. -1.
</event>
<event>
 5   0  0.1440615E-02  0.9255172E+03  0.7818609E-02  0.9394234E-01
       -2   -1    0    0    0  501  0.00000000000E+00  0.00000000000E+00  0.58228074558E+03  0.58228074559E+03  0.25500000920E-02 0.  1.
        2   -1    0    0  501    0  0.00000000000E+00  0.00000000000E+00 -0.36777019473E+03  0.36777019474E+03  0.25500000920E-02 0. -1.
    10030    2    1    2    0    0  0.00000000000E+00  0.00000000000E+00  0.21451055085E+03  0.95005094033E+03  0.92551715964E+03 0.  0.
        3    1    3    3  502    0  0.40888177233E+03  0.16197197155E+03  0.25503776869E+03  0.50839305362E+03  0.10100000352E+00 0.  1.
       -3    1    3    3    0  502 -0.40888177233E+03 -0.16197197155E+03 -0.40527217836E+02  0.44165788671E+03  0.10100000352E+00 0. -1.
</event>
<event>
 5   0  0.1535906E-02  0.9228702E+03  0.7818609E-02  0.9397436E-01
       -2   -1    0    0    0  501  0.00000000000E+00  0.00000000000E+00  0.13816498916E+03  0.13816498919E+03  0.25500000920E-02 0. -1.
        2   -1    0    0  501    0  0.00000000000E+00  0.00000000000E+00 -0.15410732019E+04  0.15410732019E+04  0.25500000920E-02 0.  1.
    10030    2    1    2    0    0  0.00000000000E+00  0.00000000000E+00 -0.14029082127E+04  0.16792381911E+04  0.92287022328E+03 0.  0.
        2    1    3    3  502    0  0.18049213539E+03 -0.35992889734E+03 -0.11115515157E+04  0.11822322082E+04  0.25500000920E-02 0.  1.
       -2    1    3    3    0  502 -0.18049213539E+03  0.35992889734E+03 -0.29135669698E+03  0.49700598282E+03  0.25500000920E-02 0. -1.
</event>
<event>
 5   0  0.8291252E-03  0.8958087E+03  0.7818609E-02  0.9430836E-01
        1   -1    0    0  501    0  0.00000000000E+00  0.00000000000E+00  0.63125099972E+03  0.63125099974E+03  0.50400001928E-02 0.  1.
       -1   -1    0    0    0  501  0.00000000000E+00  0.00000000000E+00 -0.31781064120E+03  0.31781064124E+03  0.50400001928E-02 0. -1.
    10030    2    1    2    0    0  0.00000000000E+00  0.00000000000E+00  0.31344035852E+03  0.94906164098E+03  0.89580865146E+03 0.  0.
        1    1    3    3  502    0  0.16382991148E+03  0.40700514503E+03  0.61223772380E+02  0.44299184903E+03  0.50400001928E-02 0.  1.
       -1    1    3    3    0  502 -0.16382991148E+03 -0.40700514503E+03  0.25221658614E+03  0.50606979195E+03  0.50400001928E-02 0. -1.
</event>
<event>
 5   0  0.1441195E-02  0.8942529E+03  0.7818609E-02  0.9432794E-01
       -2   -1    0    0    0  501  0.00000000000E+00  0.00000000000E+00  0.96479408606E+02  0.96479408640E+02  0.25500000920E-02 0.  1.
        2   -1    0    0  501    0  0.00000000000E+00  0.00000000000E+00 -0.20721733050E+04  0.20721733050E+04  0.25500000920E-02 0. -1.
    10030    2    1    2    0    0  0.00000000000E+00  0.00000000000E+00 -0.19756938964E+04  0.21686527136E+04  0.89425288377E+03 0.  0.
        5    1    3    3  502    0 -0.35031965231E+03  0.72304735695E+02 -0.33735875181E+03  0.49171623018E+03  0.46999998093E+01 0.  1.
       -5    1    3    3    0  502  0.35031965231E+03 -0.72304735695E+02 -0.16383351446E+04  0.16769364835E+04  0.46999998093E+01 0. -1.
</event>
<event>
 5   0  0.1535906E-02  0.6897490E+03  0.7818609E-02  0.9734925E-01
        2   -1    0    0  501    0  0.00000000000E+00  0.00000000000E+00  0.17925208445E+04  0.17925208445E+04  0.25500000920E-02 0. -1.
       -2   -1    0    0    0  501  0.00000000000E+00  0.00000000000E+00 -0.66352603790E+02  0.66352603839E+02  0.25500000920E-02 0.  1.
    10030    2    1    2    0    0  0.00000000000E+00  0.00000000000E+00  0.17261682407E+04  0.18588734484E+04  0.68974901357E+03 0.  0.
        2    1    3    3  502    0 -0.27386792565E+03  0.20869685893E+03  0.91564738105E+03  0.97824748712E+03  0.25500000920E-02 0. -1.
       -2    1    3    3    0  502  0.27386792565E+03 -0.20869685893E+03  0.81052085969E+03  0.88062596124E+03  0.25500000920E-02 0.  1.
</event>
<event>
 5   0  0.1441195E-02  0.9059204E+03  0.7818609E-02  0.9418211E-01
        2   -1    0    0  501    0  0.00000000000E+00  0.00000000000E+00  0.13068722283E+04  0.13068722283E+04  0.25500000920E-02 0. -1.
       -2   -1    0    0    0  501  0.00000000000E+00  0.00000000000E+00 -0.15699542760E+03  0.15699542762E+03  0.25500000920E-02 0.  1.
    10030    2    1    2    0    0  0.00000000000E+00  0.00000000000E+00  0.11498768007E+04  0.14638676559E+04  0.90592044751E+03 0.  0.
        5    1    3    3  502    0  0.35743006620E+03  0.12299284664E+03  0.17171840958E+03  0.41520211311E+03  0.46999998093E+01 0.  1.
       -5    1    3    3    0  502 -0.35743006620E+03 -0.12299284664E+03  0.97815839108E+03  0.10486655428E+04  0.46999998093E+01 0. -1.
</event>
<event>
 5   0  0.8291252E-03  0.8938230E+03  0.7818609E-02  0.9433336E-01
        1   -1    0    0  501    0  0.00000000000E+00  0.00000000000E+00  0.74626537906E+03  0.74626537908E+03  0.50400001928E-02 0. -1.
       -1   -1    0    0    0  501  0.00000000000E+00  0.00000000000E+00 -0.26763923858E+03  0.26763923862E+03  0.50400001928E-02 0.  1.
    10030    2    1    2    0    0  0.00000000000E+00  0.00000000000E+00  0.47862614049E+03  0.10139046177E+04  0.89382302020E+03 0.  0.
        1    1    3    3  502    0 -0.16127448946E+02 -0.14084607830E+03  0.72008338276E+03  0.73390584582E+03  0.50400001928E-02 0. -1.
       -1    1    3    3    0  502  0.16127448946E+02  0.14084607830E+03 -0.24145724227E+03  0.27999877188E+03  0.50400001928E-02 0.  1.
</event>
<event>
 5   0  0.1454652E-02  0.8983426E+03  0.7818609E-02  0.9427656E-01
        2   -1    0    0  501    0  0.00000000000E+00  0.00000000000E+00  0.13584367548E+04  0.13584367548E+04  0.25500000920E-02 0.  1.
       -2   -1    0    0    0  501  0.00000000000E+00  0.00000000000E+00 -0.14851987759E+03  0.14851987761E+03  0.25500000920E-02 0. -1.
    10030    2    1    2    0    0  0.00000000000E+00  0.00000000000E+00  0.12099168773E+04  0.15069566325E+04  0.89834260849E+03 0.  0.
        4    1    3    3  502    0 -0.38737172868E+03 -0.95351259779E+02  0.25871094501E+03  0.47548047792E+03  0.12699999809E+01 0. -1.
       -4    1    3    3    0  502  0.38737172868E+03  0.95351259779E+02  0.95120593225E+03  0.10314761545E+04  0.12699999809E+01 0.  1.
</event>
<event>
 5   0  0.1440615E-02  0.8977942E+03  0.7818609E-02  0.9428343E-01
        2   -1    0    0  501    0  0.00000000000E+00  0.00000000000E+00  0.56244136199E+03  0.56244136200E+03  0.25500000920E-02 0.  1.
       -2   -1    0    0    0  501  0.00000000000E+00  0.00000000000E+00 -0.35827489685E+03  0.35827489685E+03  0.25500000920E-02 0. -1.
    10030    2    1    2    0    0  0.00000000000E+00  0.00000000000E+00  0.20416646515E+03  0.92071625886E+03  0.89779423245E+03 0.  0.
        3    1    3    3  502    0  0.36453442439E+03  0.76283539815E+02 -0.15492258269E+03  0.40336775012E+03  0.10100000352E+00 0.  1.
       -3    1    3    3    0  502 -0.36453442439E+03 -0.76283539815E+02  0.35908904784E+03  0.51734850873E+03  0.10100000352E+00 0. -1.
</event>
<event>
 5   0  0.1441195E-02  0.8852982E+03  0.7818609E-02  0.9444148E-01
       -2   -1    0    0    0  501  0.00000000000E+00  0.00000000000E+00  0.90382723916E+02  0.90382723952E+02  0.25500000920E-02 0. -1.
        2   -1    0    0  501    0  0.00000000000E+00  0.00000000000E+00 -0.21678727281E+04  0.21678727281E+04  0.25500000920E-02 0.  1.
    10030    2    1    2    0    0  0.00000000000E+00  0.00000000000E+00 -0.20774900041E+04  0.22582554520E+04  0.88529823745E+03 0.  0.
        5    1    3    3  502    0 -0.30842870527E+03 -0.33955136461E+01 -0.22897293030E+03  0.38417507539E+03  0.46999998093E+01 0. -1.
       -5    1    3    3    0  502  0.30842870527E+03  0.33955136461E+01 -0.18485170738E+04  0.18740803766E+04  0.46999998093E+01 0.  1.
</event>
<event>
 5   0  0.1440615E-02  0.8861429E+03  0.7818609E-02  0.9443071E-01
        2   -1    0    0  501    0  0.00000000000E+00  0.00000000000E+00  0.68151704355E+03  0.68151704355E+03  0.25500000920E-02 0.  1.
       -2   -1    0    0    0  501  0.00000000000E+00  0.00000000000E+00 -0.28805191938E+03  0.28805191939E+03  0.25500000920E-02 0. -1.
    10030    2    1    2    0    0  0.00000000000E+00  0.00000000000E+00  0.39346512417E+03  0.96956896294E+03  0.88614286092E+03 0.  0.
        3    1    3    3  502    0  0.18861914109E+02  0.24158099458E+03 -0.20912766945E+03  0.32008052280E+03  0.10100000352E+00 0. -1.
       -3    1    3    3    0  502 -0.18861914109E+02 -0.24158099458E+03  0.60259279362E+03  0.64948844014E+03  0.10100000352E+00 0.  1.
</event>
<event>
 5   0  0.8738044E-03  0.9061310E+03  0.7818609E-02  0.9417950E-01
       -1   -1    0    0    0  501  0.00000000000E+00  0.00000000000E+00  0.27019648874E+03  0.27019648879E+03  0.50400001928E-02 0.  1.
        1   -1    0    0  501    0  0.00000000000E+00  0.00000000000E+00 -0.75970033711E+03  0.75970033713E+03  0.50400001928E-02 0. -1.
    10030    2    1    2    0    0  0.00000000000E+00  0.00000000000E+00 -0.48950384837E+03  0.10298968259E+04  0.90613103604E+03 0.  0.
        3    1    3    3  502    0 -0.15282874873E+03 -0.26359951664E+03 -0.62585115050E+03  0.69608261320E+03  0.10100000352E+00 0. -1.
       -3    1    3    3    0  502  0.15282874873E+03  0.26359951664E+03  0.13634730213E+03  0.33381421272E+03  0.10100000352E+00 0.  1.
</event>
<event>
 5   0  0.8738044E-03  0.8968814E+03  0.7818609E-02  0.9429488E-01
       -1   -1    0    0    0  501  0.00000000000E+00  0.00000000000E+00  0.14510575803E+03  0.14510575812E+03  0.50400001928E-02 0. -1.
        1   -1    0    0  501    0  0.00000000000E+00  0.00000000000E+00 -0.13858793621E+04  0.13858793621E+04  0.50400001928E-02 0.  1.
    10030    2    1    2    0    0  0.00000000000E+00  0.00000000000E+00 -0.12407736041E+04  0.15309851202E+04  0.89688143128E+03 0.  0.
        3    1    3    3  502    0 -0.19140776841E+03 -0.70243513287E+02  0.61409074863E+02  0.21293700863E+03  0.10100000352E+00 0. -1.
       -3    1    3    3    0  502  0.19140776841E+03  0.70243513287E+02 -0.13021826789E+04  0.13180481116E+04  0.10100000352E+00 0.  1.
</event>
<event>
 5   0  0.1454652E-02  0.9076060E+03  0.7818609E-02  0.9416123E-01
       -2   -1    0    0    0  501  0.00000000000E+00  0.00000000000E+00  0.21752649122E+03  0.21752649123E+03  0.25500000920E-02 0.  1.
        2   -1    0    0  501    0  0.00000000000E+00  0.00000000000E+00 -0.94672214405E+03  0.94672214405E+03  0.25500000920E-02 0. -1.
    10030    2    1    2    0    0  0.00000000000E+00  0.00000000000E+00 -0.72919565283E+03  0.11642486353E+04  0.90760596332E+03 0.  0.
        4    1    3    3  502    0 -0.10611880610E+03  0.24183131396E+03 -0.83799331244E+03  0.87862278027E+03  0.12699999809E+01 0. -1.
       -4    1    3    3    0  502  0.10611880610E+03 -0.24183131396E+03  0.10879765961E+03  0.28562585502E+03  0.12699999809E+01 0.  1.
</event>
<event>
 5   0  0.8524692E-03  0.9132855E+03  0.7818609E-02  0.9409125E-01
       -1   -1    0    0    0  501  0.00000000000E+00  0.00000000000E+00  0.17890308852E+03  0.17890308859E+03  0.50400001928E-02 0. -1.
        1   -1    0    0  501    0  0.00000000000E+00  0.00000000000E+00 -0.11655617773E+04  0.11655617773E+04  0.50400001928E-02 0.  1.
    10030    2    1    2    0    0  0.00000000000E+00  0.00000000000E+00 -0.98665868879E+03  0.13444648659E+04  0.91328550165E+03 0.  0.
        5    1    3    3  502    0 -0.94312217288E+02 -0.28554086966E+02 -0.11496870346E+04  0.11539118241E+04  0.46999998093E+01 0.  1.
       -5    1    3    3    0  502  0.94312217288E+02  0.28554086966E+02  0.16302834582E+03  0.19055304183E+03  0.46999998093E+01 0. -1.
</event>
<event>
 5   0  0.5770125E-03  0.8990359E+03  0.7818609E-02  0.9426787E-01
       -3   -1    0    0    0  501  0.00000000000E+00  0.00000000000E+00  0.20300326689E+03  0.20300329201E+03  0.10100000352E+00 0. -1.
        3   -1    0    0  501    0  0.00000000000E+00  0.00000000000E+00 -0.99538483469E+03  0.99538483982E+03  0.10100000352E+00 0.  1.
    10030    2    1    2    0    0  0.00000000000E+00  0.00000000000E+00 -0.79238156781E+03  0.11983881318E+04  0.89903590891E+03 0.  0.
        2    1    3    3  502    0 -0.32015956221E+03 -0.74298250470E+01 -0.81667697442E+03  0.87722210878E+03  0.25500000920E-02 0. -1.
       -2    1    3    3    0  502  0.32015956221E+03  0.74298250470E+01  0.24295406614E+02  0.32116602305E+03  0.25500000920E-02 0.  1.
</event>
<event>
 5   0  0.8738044E-03  0.8905367E+03  0.7818609E-02  0.9437489E-01
        1   -1    0    0  501    0  0.00000000000E+00  0.00000000000E+00  0.67209478430E+03  0.67209478432E+03  0.50400001928E-02 0.  1.
       -1   -1    0    0    0  501  0.00000000000E+00  0.00000000000E+00 -0.29499395861E+03  0.29499395865E+03  0.50400001928E-02 0. -1.
    10030    2    1    2    0    0  0.00000000000E+00  0.00000000000E+00  0.37710082569E+03  0.96708874297E+03  0.89053669439E+03 0.  0.
        3    1    3    3  502    0  0.34881501487E+03 -0.18629072997E+03 -0.33707879997E+02  0.39687829626E+03  0.10100000352E+00 0. -1.
       -3    1    3    3    0  502 -0.34881501487E+03  0.18629072997E+03  0.41080870568E+03  0.57021044671E+03  0.10100000352E+00 0.  1.
</event>
<event>
 5   0  0.8524692E-03  0.9008628E+03  0.7818609E-02  0.9424504E-01
       -1   -1    0    0    0  501  0.00000000000E+00  0.00000000000E+00  0.56772193922E+03  0.56772193924E+03  0.50400001928E-02 0. -1.
        1   -1    0    0  501    0  0.00000000000E+00  0.00000000000E+00 -0.35737289328E+03  0.35737289332E+03  0.50400001928E-02 0.  1.
    10030    2    1    2    0    0  0.00000000000E+00  0.00000000000E+00  0.21034904593E+03  0.92509483256E+03  0.90086276874E+03 0.  0.
        5    1    3    3  502    0  0.13393744217E+03  0.13946712438E+03  0.52290403263E+03  0.55753119602E+03  0.46999998093E+01 0. -1.
       -5    1    3    3    0  502 -0.13393744217E+03 -0.13946712438E+03 -0.31255498669E+03  0.36756363654E+03  0.46999998093E+01 0.  1.
</event>
<event>
 5   0  0.8738044E-03  0.9107477E+03  0.7818609E-02  0.9412245E-01
       -1   -1    0    0    0  501  0.00000000000E+00  0.00000000000E+00  0.96807308983E+03  0.96807308984E+03  0.50400001928E-02 0. -1.
        1   -1    0    0  501    0  0.00000000000E+00  0.00000000000E+00 -0.21420423211E+03  0.21420423216E+03  0.50400001928E-02 0.  1.
    10030    2    1    2    0    0  0.00000000000E+00  0.00000000000E+00  0.75386885772E+03  0.11822773220E+04  0.91074772110E+03 0.  0.
        3    1    3    3  502    0  0.11857475731E+03  0.11562785787E+03  0.92758966805E+03  0.94225918784E+03  0.10100000352E+00 0. -1.
       -3    1    3    3    0  502 -0.11857475731E+03 -0.11562785787E+03 -0.17372081033E+03  0.24001813417E+03  0.10100000352E+00 0.  1.
</event>
<event>
 5   0  0.1483326E-02  0.8912588E+03  0.7818609E-02  0.9436575E-01
       -2   -1    0    0    0  501  0.00000000000E+00  0.00000000000E+00  0.99027551520E+02  0.99027551553E+02  0.25500000920E-02 0. -1.
        2   -1    0    0  501    0  0.00000000000E+00  0.00000000000E+00 -0.20053564772E+04  0.20053564772E+04  0.25500000920E-02 0.  1.
    10030    2    1    2    0    0  0.00000000000E+00  0.00000000000E+00 -0.19063289257E+04  0.21043840287E+04  0.89125875456E+03 0.  0.
        1    1    3    3  502    0  0.30585169111E+03 -0.26512562023E+02 -0.17158423043E+04  0.17430900683E+04  0.50400001928E-02 0.  1.
       -1    1    3    3    0  502 -0.30585169111E+03  0.26512562023E+02 -0.19048662132E+03  0.36129396041E+03  0.50400001928E-02 0. -1.
</event>
<event>
 5   0  0.8885324E-03  0.8997721E+03  0.7818609E-02  0.9425866E-01
       -1   -1    0    0    0  501  0.00000000000E+00  0.00000000000E+00  0.13484561944E+03  0.13484561953E+03  0.50400001928E-02 0. -1.
        1   -1    0    0  501    0  0.00000000000E+00  0.00000000000E+00 -0.15009569287E+04  0.15009569287E+04  0.50400001928E-02 0.  1.
    10030    2    1    2    0    0  0.00000000000E+00  0.00000000000E+00 -0.13661113093E+04  0.16358025483E+04  0.89977211980E+03 0.  0.
        2    1    3    3  502    0 -0.39788502413E+02 -0.25219649772E+03 -0.96244473885E+01  0.25549721795E+03  0.25500000920E-02 0. -1.
       -2    1    3    3    0  502  0.39788502413E+02  0.25219649772E+03 -0.13564868619E+04  0.13803053303E+04  0.25500000920E-02 0.  1.
</event>
<event>
 5   0  0.8738044E-03  0.8999315E+03  0.7818609E-02  0.9425667E-01
       -1   -1    0    0    0  501  0.00000000000E+00  0.00000000000E+00  0.16058354358E+03  0.16058354366E+03  0.50400001928E-02 0. -1.
        1   -1    0    0  501    0  0.00000000000E+00  0.00000000000E+00 -0.12608338958E+04  0.12608338958E+04  0.50400001928E-02 0.  1.
    10030    2    1    2    0    0  0.00000000000E+00  0.00000000000E+00 -0.11002503522E+04  0.14214174395E+04  0.89993149722E+03 0.  0.
        3    1    3    3  502    0  0.10471416749E+03 -0.24882234699E+03  0.18466536309E+02  0.27058943143E+03  0.10100000352E+00 0. -1.
       -3    1    3    3    0  502 -0.10471416749E+03  0.24882234699E+03 -0.11187168885E+04  0.11508280080E+04  0.10100000352E+00 0.  1.
</event>
<event>
 5   0  0.8885324E-03  0.9036154E+03  0.7818609E-02  0.9421073E-01
       -1   -1    0    0    0  501  0.00000000000E+00  0.00000000000E+00  0.38087656771E+03  0.38087656775E+03  0.50400001928E-02 0.  1.
        1   -1    0    0  501    0  0.00000000000E+00  0.00000000000E+00 -0.53594844464E+03  0.53594844466E+03  0.50400001928E-02 0. -1.
    10030    2    1    2    0    0  0.00000000000E+00  0.00000000000E+00 -0.15507187693E+03  0.91682501241E+03  0.90361541397E+03 0.  0.
        2    1    3    3  502    0 -0.15717564569E+03  0.28891904935E+03  0.23675321508E+03  0.40525360644E+03  0.25500000920E-02 0.  1.
       -2    1    3    3    0  502  0.15717564569E+03 -0.28891904935E+03 -0.39182509200E+03  0.51157140597E+03  0.25500000920E-02 0. -1.
</event>
<event>
 5   0  0.8738044E-03  0.8910738E+03  0.7818609E-02  0.9436809E-01
        1   -1    0    0  501    0  0.00000000000E+00  0.00000000000E+00  0.97512798829E+03  0.97512798830E+03  0.50400001928E-02 0.  1.
       -1   -1    0    0    0  501  0.00000000000E+00  0.00000000000E+00 -0.20356621202E+03  0.20356621208E+03  0.50400001928E-02 0. -1.
    10030    2    1    2    0    0  0.00000000000E+00  0.00000000000E+00  0.77156177627E+03  0.11786942004E+04  0.89107375869E+03 0.  0.
        3    1    3    3  502    0 -0.33680576016E+03 -0.72813546960E+02  0.75936525099E+03  0.83389179592E+03  0.10100000352E+00 0.  1.
       -3    1    3    3    0  502  0.33680576016E+03  0.72813546960E+02  0.12196525283E+02  0.34480240447E+03  0.10100000352E+00 0. -1.
</event>
<event>
 5   0  0.1441195E-02  0.9014130E+03  0.7818609E-02  0.9423817E-01
       -2   -1    0    0    0  501  0.00000000000E+00  0.00000000000E+00  0.25174281811E+03  0.25174281812E+03  0.25500000920E-02 0. -1.
        2   -1    0    0  501    0  0.00000000000E+00  0.00000000000E+00 -0.80692012313E+03  0.80692012313E+03  0.25500000920E-02 0.  1.
    10030    2    1    2    0    0  0.00000000000E+00  0.00000000000E+00 -0.55517730502E+03  0.10586629413E+04  0.90141299257E+03 0.  0.
        5    1    3    3  502    0  0.29039879539E+03  0.31400700996E+03 -0.11074095108E+03  0.44183425729E+03  0.46999998093E+01 0. -1.
       -5    1    3    3    0  502 -0.29039879539E+03 -0.31400700996E+03 -0.44443635394E+03  0.61682868397E+03  0.46999998093E+01 0.  1.
</event>
<event>
 5   0  0.1483326E-02  0.9043698E+03  0.7818609E-02  0.9420135E-01
       -2   -1    0    0    0  501  0.00000000000E+00  0.00000000000E+00  0.49102200417E+03  0.49102200418E+03  0.25500000920E-02 0. -1.
        2   -1    0    0  501    0  0.00000000000E+00  0.00000000000E+00 -0.41641957354E+03  0.41641957355E+03  0.25500000920E-02 0.  1.
    10030    2    1    2    0    0  0.00000000000E+00  0.00000000000E+00  0.74602430633E+02  0.90744157772E+03  0.90436977743E+03 0.  0.
        1    1    3    3  502    0 -0.17337675343E+03 -0.38818521176E+03  0.19185008217E+03  0.46642653367E+03  0.50400001928E-02 0. -1.
       -1    1    3    3    0  502  0.17337675343E+03  0.38818521176E+03 -0.11724765154E+03  0.44101504405E+03  0.50400001928E-02 0.  1.
</event>
<event>
 5   0  0.8291252E-03  0.9003096E+03  0.7818609E-02  0.9425195E-01
       -1   -1    0    0    0  501  0.00000000000E+00  0.00000000000E+00  0.28299374935E+03  0.28299374939E+03  0.50400001928E-02 0.  1.
        1   -1    0    0  501    0  0.00000000000E+00  0.00000000000E+00 -0.71605585249E+03  0.71605585251E+03  0.50400001928E-02 0. -1.
    10030    2    1    2    0    0  0.00000000000E+00  0.00000000000E+00 -0.43306210315E+03  0.99904960190E+03  0.90030957003E+03 0.  0.
        1    1    3    3  502    0  0.68281468832E+02  0.21596355337E+03  0.21515432386E+03  0.31240038168E+03  0.50400001928E-02 0.  1.
       -1    1    3    3    0  502 -0.68281468832E+02 -0.21596355337E+03 -0.64821642701E+03  0.68664922023E+03  0.50400001928E-02 0. -1.
</event>
<event>
 5   0  0.1535906E-02  0.9000501E+03  0.7818609E-02  0.9425519E-01
       -2   -1    0    0    0  501  0.00000000000E+00  0.00000000000E+00  0.25047410502E+03  0.25047410503E+03  0.25500000920E-02 0.  1.
        2   -1    0    0  501    0  0.00000000000E+00  0.00000000000E+00 -0.80855684664E+03  0.80855684664E+03  0.25500000920E-02 0. -1.
    10030    2    1    2    0    0  0.00000000000E+00  0.00000000000E+00 -0.55808274162E+03  0.10590309517E+04  0.90005011534E+03 0.  0.
        2    1    3    3  502    0 -0.76356415311E+02  0.29920835882E+03  0.10614570289E+03  0.32653155192E+03  0.25500000920E-02 0. -1.
       -2    1    3    3    0  502  0.76356415311E+02 -0.29920835882E+03 -0.66422844451E+03  0.73249939976E+03  0.25500000920E-02 0.  1.
</event>
<event>
 5   0  0.1441195E-02  0.9034448E+03  0.7818609E-02  0.9421286E-01
        2   -1    0    0  501    0  0.00000000000E+00  0.00000000000E+00  0.19094169594E+04  0.19094169594E+04  0.25500000920E-02 0.  1.
       -2   -1    0    0    0  501  0.00000000000E+00  0.00000000000E+00 -0.10686671085E+03  0.10686671088E+03  0.25500000920E-02 0. -1.
    10030    2    1    2    0    0  0.00000000000E+00  0.00000000000E+00  0.18025502486E+04  0.20162836703E+04  0.90344476339E+03 0.  0.
        5    1    3    3  502    0 -0.26688074443E+03  0.29747763384E+01  0.87987999919E+02  0.28106611174E+03  0.46999998093E+01 0. -1.
       -5    1    3    3    0  502  0.26688074443E+03 -0.29747763384E+01  0.17145622486E+04  0.17352175586E+04  0.46999998093E+01 0.  1.
</event>
<event>
 5   0  0.8885324E-03  0.8936379E+03  0.7818609E-02  0.9433570E-01
       -1   -1    0    0    0  501  0.00000000000E+00  0.00000000000E+00  0.48870970383E+03  0.48870970386E+03  0.50400001928E-02 0. -1.
        1   -1    0    0  501    0  0.00000000000E+00  0.00000000000E+00 -0.40851891028E+03  0.40851891031E+03  0.50400001928E-02 0.  1.
    10030    2    1    2    0    0  0.00000000000E+00  0.00000000000E+00  0.80190793548E+02  0.89722861417E+03  0.89363785882E+03 0.  0.
        2    1    3    3  502    0  0.39595602187E+03 -0.15653067953E+02 -0.16718259866E+03  0.43008860842E+03  0.25500000920E-02 0.  1.
       -2    1    3    3    0  502 -0.39595602187E+03  0.15653067953E+02  0.24737339221E+03  0.46714000575E+03  0.25500000920E-02 0. -1.
</event>
<event>
 5   0  0.1535906E-02  0.8409551E+03  0.7818609E-02  0.9502558E-01
        2   -1    0    0  501    0  0.00000000000E+00  0.00000000000E+00  0.85231100333E+03  0.85231100334E+03  0.25500000920E-02 0. -1.
       -2   -1    0    0    0  501  0.00000000000E+00  0.00000000000E+00 -0.20743760200E+03  0.20743760201E+03  0.25500000920E-02 0.  1.
    10030    2    1    2    0    0  0.00000000000E+00  0.00000000000E+00  0.64487340134E+03  0.10597486054E+04  0.84095505397E+03 0.  0.
        2    1    3    3  502    0  0.15894265034E+03 -0.36188510004E+03  0.50320784478E+03  0.63987633710E+03  0.25500000920E-02 0. -1.
       -2    1    3    3    0  502 -0.15894265034E+03  0.36188510004E+03  0.14166555656E+03  0.41987226825E+03  0.25500000920E-02 0.  1.
</event>
<event>
 5   0  0.1440615E-02  0.8686128E+03  0.7818609E-02  0.9465691E-01
       -2   -1    0    0    0  501  0.00000000000E+00  0.00000000000E+00  0.29670049110E+03  0.29670049111E+03  0.25500000920E-02 0. -1.
        2   -1    0    0  501    0  0.00000000000E+00  0.00000000000E+00 -0.63573211488E+03  0.63573211488E+03  0.25500000920E-02 0.  1.
    10030    2    1    2    0    0  0.00000000000E+00  0.00000000000E+00 -0.33903162378E+03  0.93243260599E+03  0.86861275767E+03 0.  0.
        3    1    3    3  502    0 -0.14271734336E+03 -0.34101541068E+03  0.75184941266E+02  0.37724333793E+03  0.10100000352E+00 0. -1.
       -3    1    3    3    0  502  0.14271734336E+03  0.34101541068E+03 -0.41421656504E+03  0.55518926806E+03  0.10100000352E+00 0.  1.
</event>
<event>
 5   0  0.8524692E-03  0.9057804E+03  0.7818609E-02  0.9418384E-01
        1   -1    0    0  501    0  0.00000000000E+00  0.00000000000E+00  0.51650459438E+03  0.51650459441E+03  0.50400001928E-02 0.  1.
       -1   -1    0    0    0  501  0.00000000000E+00  0.00000000000E+00 -0.39711074118E+03  0.39711074122E+03  0.50400001928E-02 0. -1.
    10030    2    1    2    0    0  0.00000000000E+00  0.00000000000E+00  0.11939385320E+03  0.91361533562E+03  0.90578037587E+03 0.  0.
        5    1    3    3  502    0  0.22129068292E+03 -0.21743792047E+03  0.39245758917E+03  0.50029377859E+03  0.46999998093E+01 0.  1.
       -5    1    3    3    0  502 -0.22129068292E+03  0.21743792047E+03 -0.27306373596E+03  0.41332155703E+03  0.46999998093E+01 0. -1.
</event>
<event>
 5   0  0.8524692E-03  0.9266786E+03  0.7818609E-02  0.9392833E-01
       -1   -1    0    0    0  501  0.00000000000E+00  0.00000000000E+00  0.61316555670E+03  0.61316555672E+03  0.50400001928E-02 0.  1.
        1   -1    0    0  501    0  0.00000000000E+00  0.00000000000E+00 -0.35012290206E+03  0.35012290210E+03  0.50400001928E-02 0. -1.
    10030    2    1    2    0    0  0.00000000000E+00  0.00000000000E+00  0.26304265463E+03  0.96328845882E+03  0.92667859408E+03 0.  0.
        5    1    3    3  502    0  0.35831468090E+03  0.17693872578E+03  0.37522851104E+03  0.54819271130E+03  0.46999998093E+01 0.  1.
       -5    1    3    3    0  502 -0.35831468090E+03 -0.17693872578E+03 -0.11218585641E+03  0.41509574751E+03  0.46999998093E+01 0. -1.
</event>
<event>
 5   0  0.1483326E-02  0.9085744E+03  0.7818609E-02  0.9414926E-01
       -2   -1    0    0    0  501  0.00000000000E+00  0.00000000000E+00  0.16694504104E+03  0.16694504106E+03  0.25500000920E-02 0. -1.
        2   -1    0    0  501    0  0.00000000000E+00  0.00000000000E+00 -0.12361964383E+04  0.12361964383E+04  0.25500000920E-02 0.  1.
    10030    2    1    2    0    0  0.00000000000E+00  0.00000000000E+00 -0.10692513973E+04  0.14031414794E+04  0.90857441115E+03 0.  0.
        1    1    3    3  502    0  0.16259053381E+03 -0.26498397807E+03 -0.10461816167E+04  0.10913973453E+04  0.50400001928E-02 0.  1.
       -1    1    3    3    0  502 -0.16259053381E+03  0.26498397807E+03 -0.23069780617E+02  0.31174413406E+03  0.50400001928E-02 0. -1.
</event>
<event>
 5   0  0.8612969E-03  0.9277195E+03  0.7818609E-02  0.9391579E-01
        1   -1    0    0  501    0  0.00000000000E+00  0.00000000000E+00  0.83115817101E+03  0.83115817102E+03  0.50400001928E-02 0.  1.
       -1   -1    0    0    0  501  0.00000000000E+00  0.00000000000E+00 -0.25887474819E+03  0.25887474824E+03  0.50400001928E-02 0. -1.
    10030    2    1    2    0    0  0.00000000000E+00  0.00000000000E+00  0.57228342282E+03  0.10900329193E+04  0.92771948834E+03 0.  0.
        4    1    3    3  502    0 -0.13993971920E+03 -0.11101028314E+03  0.78912576605E+03  0.80909053604E+03  0.12699999809E+01 0.  1.
       -4    1    3    3    0  502  0.13993971920E+03  0.11101028314E+03 -0.21684234323E+03  0.28094238322E+03  0.12699999809E+01 0. -1.
</event>
<event>
 5   0  0.8885324E-03  0.1073118E+04  0.7818609E-02  0.9231797E-01
        1   -1    0    0  501    0  0.00000000000E+00  0.00000000000E+00  0.25906264174E+03  0.25906264179E+03  0.50400001928E-02 0. -1.
       -1   -1    0    0    0  501  0.00000000000E+00  0.00000000000E+00 -0.11112961570E+04  0.11112961570E+04  0.50400001928E-02 0.  1.
    10030    2    1    2    0    0  0.00000000000E+00  0.00000000000E+00 -0.85223351521E+03  0.13703587988E+04  0.10731175485E+04 0.  0.
        2    1    3    3  502    0  0.18313201130E+03  0.43648948000E+03 -0.10347828732E+03  0.48452879756E+03  0.25500000920E-02 0. -1.
       -2    1    3    3    0  502 -0.18313201130E+03 -0.43648948000E+03 -0.74875522790E+03  0.88583000120E+03  0.25500000920E-02 0.  1.
</event>
<event>
 5   0  0.1454652E-02  0.9202975E+03  0.7818609E-02  0.9400558E-01
        2   -1    0    0  501    0  0.00000000000E+00  0.00000000000E+00  0.95438576549E+03  0.95438576549E+03  0.25500000920E-02 0.  1.
       -2   -1    0    0    0  501  0.00000000000E+00  0.00000000000E+00 -0.22185670888E+03  0.22185670890E+03  0.25500000920E-02 0. -1.
    10030    2    1    2    0    0  0.00000000000E+00  0.00000000000E+00  0.73252905660E+03  0.11762424744E+04  0.92029752786E+03 0.  0.
        4    1    3    3  502    0 -0.18264469519E+03 -0.24673477214E+02  0.90514776140E+03  0.92372179146E+03  0.12699999809E+01 0.  1.
       -4    1    3    3    0  502  0.18264469519E+03  0.24673477214E+02 -0.17261870480E+03  0.25252068292E+03  0.12699999809E+01 0. -1.
</event>
<event>
 5   0  0.1535906E-02  0.9100540E+03  0.7818609E-02  0.9413100E-01
       -2   -1    0    0    0  501  0.00000000000E+00  0.00000000000E+00  0.90378034216E+02  0.90378034252E+02  0.25500000920E-02 0. -1.
        2   -1    0    0  501    0  0.00000000000E+00  0.00000000000E+00 -0.22909278883E+04  0.22909278883E+04  0.25500000920E-02 0.  1.
    10030    2    1    2    0    0  0.00000000000E+00  0.00000000000E+00 -0.22005498541E+04  0.23813059226E+04  0.91005397449E+03 0.  0.
        2    1    3    3  502    0  0.53145944138E+02 -0.36393992405E+03 -0.39925884011E+03  0.54284839606E+03  0.25500000920E-02 0. -1.
       -2    1    3    3    0  502 -0.53145944138E+02  0.36393992405E+03 -0.18012910140E+04  0.18384575265E+04  0.25500000920E-02 0.  1.
</event>
<event>
 5   0  0.1440615E-02  0.9066303E+03  0.7818609E-02  0.9417331E-01
        2   -1    0    0  501    0  0.00000000000E+00  0.00000000000E+00  0.58729889106E+03  0.58729889106E+03  0.25500000920E-02 0.  1.
       -2   -1    0    0    0  501  0.00000000000E+00  0.00000000000E+00 -0.34989783490E+03  0.34989783491E+03  0.25500000920E-02 0. -1.
    10030    2    1    2    0    0  0.00000000000E+00  0.00000000000E+00  0.23740105616E+03  0.93719672597E+03  0.90663026736E+03 0.  0.
        3    1    3    3  502    0  0.25902740334E+03  0.19664885841E+03  0.44514587141E+03  0.55129014705E+03  0.10100000352E+00 0.  1.
       -3    1    3    3    0  502 -0.25902740334E+03 -0.19664885841E+03 -0.20774481525E+03  0.38590657893E+03  0.10100000352E+00 0. -1.
</event>
<event>
 5   0  0.5770125E-03  0.9183017E+03  0.7818609E-02  0.9402988E-01
        4   -1    0    0  501    0  0.00000000000E+00  0.00000000000E+00  0.40194345652E+03  0.40194546289E+03  0.12699999809E+01 0.  1.
       -4   -1    0    0    0  501  0.00000000000E+00  0.00000000000E+00 -0.52449628812E+03  0.52449782568E+03  0.12699999809E+01 0. -1.
    10030    2    1    2    0    0  0.00000000000E+00  0.00000000000E+00 -0.12255283159E+03  0.92644328858E+03  0.91830167724E+03 0.  0.
        4    1    3    3  502    0 -0.37820312065E+03  0.22609751755E+03 -0.19149514728E+03  0.48044738759E+03  0.12699999809E+01 0.  1.
       -4    1    3    3    0  502  0.37820312065E+03 -0.22609751755E+03  0.68942315684E+02  0.44599590099E+03  0.12699999809E+01 0. -1.
</event>
<event>
 5   0  0.1454652E-02  0.9005825E+03  0.7818609E-02  0.9424854E-01
       -2   -1    0    0    0  501  0.00000000000E+00  0.00000000000E+00  0.14303700536E+03  0.14303700538E+03  0.25500000920E-02 0.  1.
        2   -1    0    0  501    0  0.00000000000E+00  0.00000000000E+00 -0.14175506357E+04  0.14175506357E+04  0.25500000920E-02 0. -1.
    10030    2    1    2    0    0  0.00000000000E+00  0.00000000000E+00 -0.12745136304E+04  0.15605876411E+04  0.90058247351E+03 0.  0.
        4    1    3    3  502    0 -0.18999612591E+03  0.14381414307E+03 -0.12993371397E+04  0.13210070594E+04  0.12699999809E+01 0. -1.
       -4    1    3    3    0  502  0.18999612591E+03 -0.14381414307E+03  0.24823509314E+02  0.23958058168E+03  0.12699999809E+01 0.  1.
</event>
<event>
 5   0  0.1440615E-02  0.9024743E+03  0.7818609E-02  0.9422494E-01
        2   -1    0    0  501    0  0.00000000000E+00  0.00000000000E+00  0.48543492757E+03  0.48543492757E+03  0.25500000920E-02 0.  1.
       -2   -1    0    0    0  501  0.00000000000E+00  0.00000000000E+00 -0.41944856335E+03  0.41944856336E+03  0.25500000920E-02 0. -1.
    10030    2    1    2    0    0  0.00000000000E+00  0.00000000000E+00  0.65986364212E+02  0.90488349094E+03  0.90247433864E+03 0.  0.
        3    1    3    3  502    0  0.24769212860E+03 -0.16385128199E+02  0.41082149315E+03  0.47999392958E+03  0.10100000352E+00 0.  1.
       -3    1    3    3    0  502 -0.24769212860E+03  0.16385128199E+02 -0.34483512894E+03  0.42488956136E+03  0.10100000352E+00 0. -1.
</event>
<event>
 5   0  0.8738044E-03  0.8778428E+03  0.7818609E-02  0.9453711E-01
       -1   -1    0    0    0  501  0.00000000000E+00  0.00000000000E+00  0.26379003829E+03  0.26379003834E+03  0.50400001928E-02 0.  1.
        1   -1    0    0  501    0  0.00000000000E+00  0.00000000000E+00 -0.73032316025E+03  0.73032316027E+03  0.50400001928E-02 0. -1.
    10030    2    1    2    0    0  0.00000000000E+00  0.00000000000E+00 -0.46653312196E+03  0.99411319861E+03  0.87784275230E+03 0.  0.
        3    1    3    3  502    0  0.10712387250E+03 -0.33670069347E+03  0.61625477994E+02  0.35866501193E+03  0.10100000352E+00 0.  1.
       -3    1    3    3    0  502 -0.10712387250E+03  0.33670069347E+03 -0.52815859995E+03  0.63544818667E+03  0.10100000352E+00 0. -1.
</event>
<event>
 5   0  0.1440615E-02  0.8914644E+03  0.7818609E-02  0.9436315E-01
        2   -1    0    0  501    0  0.00000000000E+00  0.00000000000E+00  0.82240244567E+03  0.82240244568E+03  0.25500000920E-02 0. -1.
       -2   -1    0    0    0  501  0.00000000000E+00  0.00000000000E+00 -0.24158145827E+03  0.24158145828E+03  0.25500000920E-02 0.  1.
    10030    2    1    2    0    0  0.00000000000E+00  0.00000000000E+00  0.58082098740E+03  0.10639839040E+04  0.89146437308E+03 0.  0.
        3    1    3    3  502    0  0.93738903024E+02 -0.38089587661E+03  0.54305588009E+03  0.66990921016E+03  0.10100000352E+00 0. -1.
       -3    1    3    3    0  502 -0.93738903024E+02  0.38089587661E+03  0.37765107313E+02  0.39407469380E+03  0.10100000352E+00 0.  1.
</event>
<event>
 5   0  0.8885324E-03  0.9091570E+03  0.7818609E-02  0.9414207E-01
       -1   -1    0    0    0  501  0.00000000000E+00  0.00000000000E+00  0.29459742312E+03  0.29459742316E+03  0.50400001928E-02 0.  1.
        1   -1    0    0  501    0  0.00000000000E+00  0.00000000000E+00 -0.70143728961E+03  0.70143728963E+03  0.50400001928E-02 0. -1.
    10030    2    1    2    0    0  0.00000000000E+00  0.00000000000E+00 -0.40683986649E+03  0.99603471279E+03  0.90915701180E+03 0.  0.
        2    1    3    3  502    0  0.41625159485E+03 -0.64611651819E+02 -0.39063406363E+03  0.57448675132E+03  0.25500000920E-02 0. -1.
       -2    1    3    3    0  502 -0.41625159485E+03  0.64611651819E+02 -0.16205802867E+02  0.42154796147E+03  0.25500000920E-02 0.  1.
</event>
<event>
 5   0  0.8291252E-03  0.9716165E+03  0.7818609E-02  0.9340235E-01
       -1   -1    0    0    0  501  0.00000000000E+00  0.00000000000E+00  0.14533519323E+04  0.14533519323E+04  0.50400001928E-02 0.  1.
        1   -1    0    0  501    0  0.00000000000E+00  0.00000000000E+00 -0.16238987196E+03  0.16238987204E+03  0.50400001928E-02 0. -1.
    10030    2    1    2    0    0  0.00000000000E+00  0.00000000000E+00  0.12909620603E+04  0.16157418043E+04  0.97161645574E+03 0.  0.
        1    1    3    3  502    0 -0.14569757772E+03  0.46068409907E+03  0.56147347087E+03  0.74074967553E+03  0.50400001928E-02 0.  1.
       -1    1    3    3    0  502  0.14569757772E+03 -0.46068409907E+03  0.72948858946E+03  0.87499212880E+03  0.50400001928E-02 0. -1.
</event>
<event>
 5   0  0.1454652E-02  0.8952957E+03  0.7818609E-02  0.9431481E-01
       -2   -1    0    0    0  501  0.00000000000E+00  0.00000000000E+00  0.37348850586E+03  0.37348850587E+03  0.25500000920E-02 0.  1.
        2   -1    0    0  501    0  0.00000000000E+00  0.00000000000E+00 -0.53653213201E+03  0.53653213202E+03  0.25500000920E-02 0. -1.
    10030    2    1    2    0    0  0.00000000000E+00  0.00000000000E+00 -0.16304362615E+03  0.91002063789E+03  0.89529567035E+03 0.  0.
        4    1    3    3  502    0 -0.42749827829E+03  0.73802906354E+02 -0.19372451292E+03  0.47511308836E+03  0.12699999809E+01 0. -1.
       -4    1    3    3    0  502  0.42749827829E+03 -0.73802906354E+02  0.30680886773E+02  0.43490754953E+03  0.12699999809E+01 0.  1.
</event>
<event>
 5   0  0.1454652E-02  0.8964256E+03  0.7818609E-02  0.9430061E-01
        2   -1    0    0  501    0  0.00000000000E+00  0.00000000000E+00  0.18275560672E+04  0.18275560672E+04  0.25500000920E-02 0.  1.
       -2   -1    0    0    0  501  0.00000000000E+00  0.00000000000E+00 -0.10992533844E+03  0.10992533847E+03  0.25500000920E-02 0. -1.
    10030    2    1    2    0    0  0.00000000000E+00  0.00000000000E+00  0.17176307288E+04  0.19374814057E+04  0.89642561149E+03 0.  0.
        4    1    3    3  502    0 -0.37219081506E+03 -0.20270924355E+03  0.11740754234E+04  0.12482274444E+04  0.12699999809E+01 0.  1.
       -4    1    3    3    0  502  0.37219081506E+03  0.20270924355E+03  0.54355530537E+03  0.68925396127E+03  0.12699999809E+01 0. -1.
</event>
<event>
 5   0  0.1454652E-02  0.8998403E+03  0.7818609E-02  0.9425781E-01
        2   -1    0    0  501    0  0.00000000000E+00  0.00000000000E+00  0.86222607661E+03  0.86222607661E+03  0.25500000920E-02 0.  1.
       -2   -1    0    0    0  501  0.00000000000E+00  0.00000000000E+00 -0.23477386419E+03  0.23477386420E+03  0.25500000920E-02 0. -1.
    10030    2    1    2    0    0  0.00000000000E+00  0.00000000000E+00  0.62745221242E+03  0.10969999408E+04  0.89984031432E+03 0.  0.
        4    1    3    3  502    0  0.31667942158E+03 -0.10114683475E+03  0.68331808141E+03  0.75989588202E+03  0.12699999809E+01 0.  1.
       -4    1    3    3    0  502 -0.31667942158E+03  0.10114683475E+03 -0.55865868992E+02  0.33710405879E+03  0.12699999809E+01 0. -1.
</event>
<event>
 5   0  0.5770125E-03  0.8821125E+03  0.7818609E-02  0.9448222E-01
        3   -1    0    0  501    0  0.00000000000E+00  0.00000000000E+00  0.26400451854E+03  0.26400453786E+03  0.10100000352E+00 0.  1.
       -3   -1    0    0    0  501  0.00000000000E+00  0.00000000000E+00 -0.73684566666E+03  0.73684567358E+03  0.10100000352E+00 0. -1.
    10030    2    1    2    0    0  0.00000000000E+00  0.00000000000E+00 -0.47284114812E+03  0.10008502114E+04  0.88211246130E+03 0.  0.
        2    1    3    3  502    0 -0.26362237128E+02  0.31078804909E+03  0.11739906753E+03  0.33326674012E+03  0.25500000920E-02 0.  1.
       -2    1    3    3    0  502  0.26362237128E+02 -0.31078804909E+03 -0.59024021565E+03  0.66758347132E+03  0.25500000920E-02 0. -1.
</event>
<event>
 5   0  0.8291252E-03  0.8999011E+03  0.7818609E-02  0.9425705E-01
        1   -1    0    0  501    0  0.00000000000E+00  0.00000000000E+00  0.31330449710E+03  0.31330449714E+03  0.50400001928E-02 0.  1.
       -1   -1    0    0    0  501  0.00000000000E+00  0.00000000000E+00 -0.64619408572E+03  0.64619408574E+03  0.50400001928E-02 0. -1.
    10030    2    1    2    0    0  0.00000000000E+00  0.00000000000E+00 -0.33288958862E+03  0.95949858288E+03  0.89990113476E+03 0.  0.
        1    1    3    3  502    0 -0.22691801158E+03  0.45459029816E+01  0.24779910268E+03  0.33603101721E+03  0.50400001928E-02 0.  1.
       -1    1    3    3    0  502  0.22691801158E+03 -0.45459029816E+01 -0.58068869130E+03  0.62346756567E+03  0.50400001928E-02 0. -1.
</event>
<event>
 5   0  0.5770125E-03  0.8523852E+03  0.7818609E-02  0.9487141E-01
       -3   -1    0    0    0  501  0.00000000000E+00  0.00000000000E+00  0.78033223018E+03  0.78033223672E+03  0.10100000352E+00 0.  1.
        3   -1    0    0  501    0  0.00000000000E+00  0.00000000000E+00 -0.23277279157E+03  0.23277281348E+03  0.10100000352E+00 0. -1.
    10030    2    1    2    0    0  0.00000000000E+00  0.00000000000E+00  0.54755943862E+03  0.10131050502E+04  0.85238518518E+03 0.  0.
        4    1    3    3  502    0  0.21785791980E+02  0.33559695185E+03  0.58494141751E+03  0.67472810053E+03  0.12699999809E+01 0.  1.
       -4    1    3    3    0  502 -0.21785791980E+02 -0.33559695185E+03 -0.37381978897E+02  0.33837694967E+03  0.12699999809E+01 0. -1.
</event>
<event>
 5   0  0.1440615E-02  0.8967465E+03  0.7818609E-02  0.9429658E-01
        2   -1    0    0  501    0  0.00000000000E+00  0.00000000000E+00  0.20077257386E+04  0.20077257386E+04  0.25500000920E-02 0.  1.
       -2   -1    0    0    0  501  0.00000000000E+00  0.00000000000E+00 -0.10013247954E+03  0.10013247957E+03  0.25500000920E-02 0. -1.
    10030    2    1    2    0    0  0.00000000000E+00  0.00000000000E+00  0.19075932591E+04  0.21078582182E+04  0.89674646691E+03 0.  0.
        3    1    3    3  502    0 -0.15541222271E+03  0.18630324272E+03  0.18401071804E+04  0.18560324089E+04  0.10100000352E+00 0.  1.
       -3    1    3    3    0  502  0.15541222271E+03 -0.18630324272E+03  0.67486078653E+02  0.25182580929E+03  0.10100000352E+00 0. -1.
</event>
<event>
 5   0  0.5770125E-03  0.9018096E+03  0.7818609E-02  0.9423322E-01
       -3   -1    0    0    0  501  0.00000000000E+00  0.00000000000E+00  0.66393158968E+03  0.66393159736E+03  0.10100000352E+00 0. -1.
        3   -1    0    0  501    0  0.00000000000E+00  0.00000000000E+00 -0.30622905434E+03  0.30622907099E+03  0.10100000352E+00 0.  1.
    10030    2    1    2    0    0  0.00000000000E+00  0.00000000000E+00  0.35770253534E+03  0.97016066836E+03  0.90180963548E+03 0.  0.
        3    1    3    3  502    0  0.27111858196E+03  0.33882474207E+03  0.47060440367E+02  0.43648847244E+03  0.10100000352E+00 0.  1.
       -3    1    3    3    0  502 -0.27111858196E+03 -0.33882474207E+03  0.31064209498E+03  0.53367219592E+03  0.10100000352E+00 0. -1.
</event>
<event>
 5   0  0.1483326E-02  0.9228578E+03  0.7818609E-02  0.9397451E-01
       -2   -1    0    0    0  501  0.00000000000E+00  0.00000000000E+00  0.24603587763E+03  0.24603587765E+03  0.25500000920E-02 0. -1.
        2   -1    0    0  501    0  0.00000000000E+00  0.00000000000E+00 -0.86538846757E+03  0.86538846758E+03  0.25500000920E-02 0.  1.
    10030    2    1    2    0    0  0.00000000000E+00  0.00000000000E+00 -0.61935258994E+03  0.11114243452E+04  0.92285775962E+03 0.  0.
        1    1    3    3  502    0  0.39975307737E+03  0.34565267986E+02 -0.35260137352E+02  0.40279096059E+03  0.50400001928E-02 0. -1.
       -1    1    3    3    0  502 -0.39975307737E+03 -0.34565267986E+02 -0.58409245259E+03  0.70863338463E+03  0.50400001928E-02 0.  1.
</event>
<event>
 5   0  0.5770125E-03  0.8912883E+03  0.7818609E-02  0.9436537E-01
        4   -1    0    0  501    0  0.00000000000E+00  0.00000000000E+00  0.23873779011E+03  0.23874116806E+03  0.12699999809E+01 0.  1.
       -4   -1    0    0    0  501  0.00000000000E+00  0.00000000000E+00 -0.83185985783E+03  0.83186082728E+03  0.12699999809E+01 0. -1.
    10030    2    1    2    0    0  0.00000000000E+00  0.00000000000E+00 -0.59312206772E+03  0.10706019953E+04  0.89128830644E+03 0.  0.
        4    1    3    3  502    0 -0.18540031220E+03  0.20084910896E+03  0.12622097660E+03  0.30107638261E+03  0.12699999809E+01 0.  1.
       -4    1    3    3    0  502  0.18540031220E+03 -0.20084910896E+03 -0.71934304432E+03  0.76952561273E+03  0.12699999809E+01 0. -1.
</event>
<event>
 5   0  0.8291252E-03  0.9087293E+03  0.7818609E-02  0.9414735E-01
        1   -1    0    0  501    0  0.00000000000E+00  0.00000000000E+00  0.35433595539E+03  0.35433595543E+03  0.50400001928E-02 0.  1.
       -1   -1    0    0    0  501  0.00000000000E+00  0.00000000000E+00 -0.58263131747E+03  0.58263131749E+03  0.50400001928E-02 0. -1.
    10030    2    1    2    0    0  0.00000000000E+00  0.00000000000E+00 -0.22829536208E+03  0.93696727292E+03  0.90872927661E+03 0.  0.
        1    1    3    3  502    0  0.14437689490E+03  0.33340335895E+03  0.16717639535E+03  0.39993803862E+03  0.50400001928E-02 0.  1.
       -1    1    3    3    0  502 -0.14437689490E+03 -0.33340335895E+03 -0.39547175743E+03  0.53702923430E+03  0.50400001928E-02 0. -1.
</event>
<event>
 5   0  0.8885324E-03  0.8621203E+03  0.7818609E-02  0.9474212E-01
       -1   -1    0    0    0  501  0.00000000000E+00  0.00000000000E+00  0.11975349068E+03  0.11975349079E+03  0.50400001928E-02 0. -1.
        1   -1    0    0  501    0  0.00000000000E+00  0.00000000000E+00 -0.15516277326E+04  0.15516277326E+04  0.50400001928E-02 0.  1.
    10030    2    1    2    0    0  0.00000000000E+00  0.00000000000E+00 -0.14318742420E+04  0.16713812234E+04  0.86212026380E+03 0.  0.
        2    1    3    3  502    0 -0.18228651434E+03 -0.28397124688E+03 -0.19593231756E+03  0.39020189061E+03  0.25500000920E-02 0. -1.
       -2    1    3    3    0  502  0.18228651434E+03  0.28397124688E+03 -0.12359419244E+04  0.12811793328E+04  0.25500000920E-02 0.  1.
</event>
<event>
 5   0  0.1440615E-02  0.8891192E+03  0.7818609E-02  0.9439286E-01
       -2   -1    0    0    0  501  0.00000000000E+00  0.00000000000E+00  0.31549544213E+03  0.31549544214E+03  0.25500000920E-02 0.  1.
        2   -1    0    0  501    0  0.00000000000E+00  0.00000000000E+00 -0.62642182571E+03  0.62642182571E+03  0.25500000920E-02 0. -1.
    10030    2    1    2    0    0  0.00000000000E+00  0.00000000000E+00 -0.31092638358E+03  0.94191726785E+03  0.88911918406E+03 0.  0.
        3    1    3    3  502    0  0.43322294580E+03  0.97675099597E+02 -0.13399468612E+03  0.46387189175E+03  0.10100000352E+00 0. -1.
       -3    1    3    3    0  502 -0.43322294580E+03 -0.97675099597E+02 -0.17693169745E+03  0.47804537610E+03  0.10100000352E+00 0.  1.
</event>
<event>
 5   0  0.8885324E-03  0.9987344E+03  0.7818609E-02  0.9309934E-01
       -1   -1    0    0    0  501  0.00000000000E+00  0.00000000000E+00  0.59619960081E+03  0.59619960083E+03  0.50400001928E-02 0.  1.
        1   -1    0    0  501    0  0.00000000000E+00  0.00000000000E+00 -0.41826190345E+03  0.41826190348E+03  0.50400001928E-02 0. -1.
    10030    2    1    2    0    0  0.00000000000E+00  0.00000000000E+00  0.17793769736E+03  0.10144615043E+04  0.99873435887E+03 0.  0.
        2    1    3    3  502    0 -0.41187158831E+03  0.11391718341E+03 -0.17346420562E+03  0.46119969707E+03  0.25500000920E-02 0. -1.
       -2    1    3    3    0  502  0.41187158831E+03 -0.11391718341E+03  0.35140190297E+03  0.55326180725E+03  0.25500000920E-02 0.  1.
</event>
<event>
 5   0  0.1454652E-02  0.8952491E+03  0.7818609E-02  0.9431540E-01
       -2   -1    0    0    0  501  0.00000000000E+00  0.00000000000E+00  0.15853107318E+03  0.15853107320E+03  0.25500000920E-02 0.  1.
        2   -1    0    0  501    0  0.00000000000E+00  0.00000000000E+00 -0.12639019979E+04  0.12639019979E+04  0.25500000920E-02 0. -1.
    10030    2    1    2    0    0  0.00000000000E+00  0.00000000000E+00 -0.11053709247E+04  0.14224330711E+04  0.89524910531E+03 0.  0.
        4    1    3    3  502    0  0.30668045230E+03 -0.78567809987E+02 -0.10554821954E+04  0.11019392353E+04  0.12699999809E+01 0. -1.
       -4    1    3    3    0  502 -0.30668045230E+03  0.78567809987E+02 -0.49888729350E+02  0.32049383583E+03  0.12699999809E+01 0.  1.
</event>
<event>
 5   0  0.8738044E-03  0.8952587E+03  0.7818609E-02  0.9431528E-01
        1   -1    0    0  501    0  0.00000000000E+00  0.00000000000E+00  0.49697940276E+03  0.49697940279E+03  0.50400001928E-02 0.  1.
       -1   -1    0    0    0  501  0.00000000000E+00  0.00000000000E+00 -0.40317976397E+03  0.40317976400E+03  0.50400001928E-02 0. -1.
    10030    2    1    2    0    0  0.00000000000E+00  0.00000000000E+00  0.93799638796E+02  0.90015916678E+03  0.89525870747E+03 0.  0.
        3    1    3    3  502    0 -0.17838042785E+03 -0.26991368574E+03  0.35794578706E+03  0.48249162839E+03  0.10100000352E+00 0.  1.
       -3    1    3    3    0  502  0.17838042785E+03  0.26991368574E+03 -0.26414614827E+03  0.41766753840E+03  0.10100000352E+00 0. -1.
</event>
<event>
 5   0  0.8291252E-03  0.8968288E+03  0.7818609E-02  0.9429554E-01
        1   -1    0    0  501    0  0.00000000000E+00  0.00000000000E+00  0.51518200659E+03  0.51518200662E+03  0.50400001928E-02 0. -1.
       -1   -1    0    0    0  501  0.00000000000E+00  0.00000000000E+00 -0.39029985029E+03  0.39029985032E+03  0.50400001928E-02 0.  1.
    10030    2    1    2    0    0  0.00000000000E+00  0.00000000000E+00  0.12488215630E+03  0.90548185694E+03  0.89682876865E+03 0.  0.
        1    1    3    3  502    0  0.17011778053E+02 -0.39684981109E+03  0.27252632143E+03  0.48171544407E+03  0.50400001928E-02 0. -1.
       -1    1    3    3    0  502 -0.17011778053E+02  0.39684981109E+03 -0.14764416513E+03  0.42376641287E+03  0.50400001928E-02 0.  1.
</event>
<event>
 5   0  0.1454652E-02  0.8938538E+03  0.7818609E-02  0.9433297E-01
       -2   -1    0    0    0  501  0.00000000000E+00  0.00000000000E+00  0.49673813444E+03  0.49673813445E+03  0.25500000920E-02 0.  1.
        2   -1    0    0  501    0  0.00000000000E+00  0.00000000000E+00 -0.40211055031E+03  0.40211055032E+03  0.25500000920E-02 0. -1.
    10030    2    1    2    0    0  0.00000000000E+00  0.00000000000E+00  0.94627584127E+02  0.89884868477E+03  0.89385377911E+03 0.  0.
        4    1    3    3  502    0  0.62595997848E+02 -0.24600107534E+03 -0.32258305567E+03  0.41048292135E+03  0.12699999809E+01 0. -1.
       -4    1    3    3    0  502 -0.62595997848E+02  0.24600107534E+03  0.41721063980E+03  0.48836576342E+03  0.12699999809E+01 0.  1.
</event>
<event>
 5   0  0.1441195E-02  0.8807917E+03  0.7818609E-02  0.9449916E-01
        2   -1    0    0  501    0  0.00000000000E+00  0.00000000000E+00  0.78880591979E+03  0.78880591979E+03  0.25500000920E-02 0. -1.
       -2   -1    0    0    0  501  0.00000000000E+00  0.00000000000E+00 -0.24587607492E+03  0.24587607494E+03  0.25500000920E-02 0.  1.
    10030    2    1    2    0    0  0.00000000000E+00  0.00000000000E+00  0.54292984486E+03  0.10346819947E+04  0.88079169715E+03 0.  0.
        5    1    3    3  502    0  0.22274074838E+03 -0.74405363337E+02  0.70907985878E+03  0.74697117428E+03  0.46999998093E+01 0. -1.
       -5    1    3    3    0  502 -0.22274074838E+03  0.74405363337E+02 -0.16615001392E+03  0.28771082045E+03  0.46999998093E+01 0.  1.
</event>
<event>
 5   0  0.8885324E-03  0.9078793E+03  0.7818609E-02  0.9415785E-01
        1   -1    0    0  501    0  0.00000000000E+00  0.00000000000E+00  0.55501520569E+03  0.55501520571E+03  0.50400001928E-02 0.  1.
       -1   -1    0    0    0  501  0.00000000000E+00  0.00000000000E+00 -0.37127125947E+03  0.37127125951E+03  0.50400001928E-02 0. -1.
    10030    2    1    2    0    0  0.00000000000E+00  0.00000000000E+00  0.18374394622E+03  0.92628646522E+03  0.90787927494E+03 0.  0.
        2    1    3    3  502    0 -0.15663113893E+03 -0.18197619223E+03 -0.30118230187E+03  0.38517454120E+03  0.25500000920E-02 0. -1.
       -2    1    3    3    0  502  0.15663113893E+03  0.18197619223E+03  0.48492624809E+03  0.54111192402E+03  0.25500000920E-02 0.  1.
</event>
<event>
 5   0  0.8885324E-03  0.8988196E+03  0.7818609E-02  0.9427058E-01
       -1   -1    0    0    0  501  0.00000000000E+00  0.00000000000E+00  0.36324247184E+03  0.36324247187E+03  0.50400001928E-02 0. -1.
        1   -1    0    0  501    0  0.00000000000E+00  0.00000000000E+00 -0.55601745897E+03  0.55601745899E+03  0.50400001928E-02 0.  1.
    10030    2    1    2    0    0  0.00000000000E+00  0.00000000000E+00 -0.19277498713E+03  0.91925993087E+03  0.89881957301E+03 0.  0.
        2    1    3    3  502    0  0.29166913307E+03  0.32963456221E+03 -0.18922248804E+03  0.47909808785E+03  0.25500000920E-02 0.  1.
       -2    1    3    3    0  502 -0.29166913307E+03 -0.32963456221E+03 -0.35524990860E+01  0.44016184302E+03  0.25500000920E-02 0. -1.
</event>
<event>
 5   0  0.8291252E-03  0.9656360E+03  0.7818609E-02  0.9347059E-01
        1   -1    0    0  501    0  0.00000000000E+00  0.00000000000E+00  0.21786113821E+03  0.21786113827E+03  0.50400001928E-02 0. -1.
       -1   -1    0    0    0  501  0.00000000000E+00  0.00000000000E+00 -0.10700083253E+04  0.10700083253E+04  0.50400001928E-02 0.  1.
    10030    2    1    2    0    0  0.00000000000E+00  0.00000000000E+00 -0.85214718707E+03  0.12878694636E+04  0.96563602187E+03 0.  0.
        1    1    3    3  502    0 -0.20156863538E+03 -0.78129368097E+02  0.14970698875E+03  0.26295683188E+03  0.50400001928E-02 0. -1.
       -1    1    3    3    0  502  0.20156863538E+03  0.78129368097E+02 -0.10018541758E+04  0.10249126317E+04  0.50400001928E-02 0.  1.
</event>
<event>
 5   0  0.8524692E-03  0.9354100E+03  0.7818609E-02  0.9382369E-01
       -1   -1    0    0    0  501  0.00000000000E+00  0.00000000000E+00  0.56429399481E+03  0.56429399483E+03  0.50400001928E-02 0.  1.
        1   -1    0    0  501    0  0.00000000000E+00  0.00000000000E+00 -0.38764893237E+03  0.38764893241E+03  0.50400001928E-02 0. -1.
    10030    2    1    2    0    0  0.00000000000E+00  0.00000000000E+00  0.17664506244E+03  0.95194292724E+03  0.93540999494E+03 0.  0.
        5    1    3    3  502    0  0.29961715419E+03  0.26650569242E+02 -0.27612032007E+03  0.40834447845E+03  0.46999998093E+01 0. -1.
       -5    1    3    3    0  502 -0.29961715419E+03 -0.26650569242E+02  0.45276538251E+03  0.54359844879E+03  0.46999998093E+01 0.  1.
</event>
<event>
 5   0  0.8738044E-03  0.8914837E+03  0.7818609E-02  0.9436290E-01
        1   -1    0    0  501    0  0.00000000000E+00  0.00000000000E+00  0.11025610184E+04  0.11025610184E+04  0.50400001928E-02 0.  1.
       -1   -1    0    0    0  501  0.00000000000E+00  0.00000000000E+00 -0.18020391323E+03  0.18020391330E+03  0.50400001928E-02 0. -1.
    10030    2    1    2    0    0  0.00000000000E+00  0.00000000000E+00  0.92235710515E+03  0.12827649317E+04  0.89148372983E+03 0.  0.
        3    1    3    3  502    0 -0.26493424359E+03 -0.28142827674E+03  0.14170884715E+03  0.41167151460E+03  0.10100000352E+00 0. -1.
       -3    1    3    3    0  502  0.26493424359E+03  0.28142827674E+03  0.78064825800E+03  0.87109341709E+03  0.10100000352E+00 0.  1.
</event>
<event>
 5   0  0.1483326E-02  0.9493719E+03  0.7818609E-02  0.9365885E-01
        2   -1    0    0  501    0  0.00000000000E+00  0.00000000000E+00  0.10887186021E+04  0.10887186021E+04  0.25500000920E-02 0. -1.
       -2   -1    0    0    0  501  0.00000000000E+00  0.00000000000E+00 -0.20696510036E+03  0.20696510038E+03  0.25500000920E-02 0.  1.
    10030    2    1    2    0    0  0.00000000000E+00  0.00000000000E+00  0.88175350169E+03  0.12956837024E+04  0.94937190764E+03 0.  0.
        1    1    3    3  502    0  0.83274273297E+02  0.35844584386E+03  0.31650444092E+02  0.36935048154E+03  0.50400001928E-02 0.  1.
       -1    1    3    3    0  502 -0.83274273297E+02 -0.35844584386E+03  0.85010305760E+03  0.92633322090E+03  0.50400001928E-02 0. -1.
</event>
<event>
 5   0  0.8738044E-03  0.9056408E+03  0.7818609E-02  0.9418557E-01
        1   -1    0    0  501    0  0.00000000000E+00  0.00000000000E+00  0.35278576981E+03  0.35278576984E+03  0.50400001928E-02 0.  1.
       -1   -1    0    0    0  501  0.00000000000E+00  0.00000000000E+00 -0.58122050645E+03  0.58122050647E+03  0.50400001928E-02 0. -1.
    10030    2    1    2    0    0  0.00000000000E+00  0.00000000000E+00 -0.22843473665E+03  0.93400627632E+03  0.90564082024E+03 0.  0.
        3    1    3    3  502    0 -0.39392187779E+03 -0.70785813482E+02  0.10422125196E+03  0.41357847714E+03  0.10100000352E+00 0.  1.
       -3    1    3    3    0  502  0.39392187779E+03  0.70785813482E+02 -0.33265598861E+03  0.52042779917E+03  0.10100000352E+00 0. -1.
</event>
<event>
 5   0  0.8291252E-03  0.8873856E+03  0.7818609E-02  0.9441489E-01
       -1   -1    0    0    0  501  0.00000000000E+00  0.00000000000E+00  0.80583256762E+02  0.80583256920E+02  0.50400001928E-02 0.  1.
        1   -1    0    0  501    0  0.00000000000E+00  0.00000000000E+00 -0.24429802538E+04  0.24429802538E+04  0.50400001928E-02 0. -1.
    10030    2    1    2    0    0  0.00000000000E+00  0.00000000000E+00 -0.23623969971E+04  0.25235635108E+04  0.88738561013E+03 0.  0.
        1    1    3    3  502    0  0.28283594676E+03 -0.34175833635E+03 -0.12047132823E+04  0.12837947756E+04  0.50400001928E-02 0. -1.
       -1    1    3    3    0  502 -0.28283594676E+03  0.34175833635E+03 -0.11576837148E+04  0.12397687352E+04  0.50400001928E-02 0.  1.
</event>
<event>
 5   0  0.8291252E-03  0.9563583E+03  0.7818609E-02  0.9357749E-01
        1   -1    0    0  501    0  0.00000000000E+00  0.00000000000E+00  0.13625811092E+04  0.13625811092E+04  0.50400001928E-02 0.  1.
       -1   -1    0    0    0  501  0.00000000000E+00  0.00000000000E+00 -0.16781042032E+03  0.16781042040E+03  0.50400001928E-02 0. -1.
    10030    2    1    2    0    0  0.00000000000E+00  0.00000000000E+00  0.11947706889E+04  0.15303915296E+04  0.95635831929E+03 0.  0.
        1    1    3    3  502    0 -0.25724003779E+01  0.47234364562E+03  0.47827663118E+03  0.67220805764E+03  0.50400001928E-02 0. -1.
       -1    1    3    3    0  502  0.25724003779E+01 -0.47234364562E+03  0.71649405769E+03  0.85818347195E+03  0.50400001928E-02 0.  1.
</event>
<event>
 5   0  0.8885324E-03  0.8600886E+03  0.7818609E-02  0.9476896E-01
       -1   -1    0    0    0  501  0.00000000000E+00  0.00000000000E+00  0.57367667833E+03  0.57367667835E+03  0.50400001928E-02 0. -1.
        1   -1    0    0  501    0  0.00000000000E+00  0.00000000000E+00 -0.32237339899E+03  0.32237339903E+03  0.50400001928E-02 0.  1.
    10030    2    1    2    0    0  0.00000000000E+00  0.00000000000E+00  0.25130327934E+03  0.89605007738E+03  0.86008860181E+03 0.  0.
        2    1    3    3  502    0 -0.55516242634E+02  0.37512696032E+03  0.33695145734E+03  0.50728549572E+03  0.25500000920E-02 0. -1.
       -2    1    3    3    0  502  0.55516242634E+02 -0.37512696032E+03 -0.85648178006E+02  0.38876458166E+03  0.25500000920E-02 0.  1.
</event>
<event>
 5   0  0.8738044E-03  0.9061555E+03  0.7818609E-02  0.9417919E-01
       -1   -1    0    0    0  501  0.00000000000E+00  0.00000000000E+00  0.12723769125E+03  0.12723769135E+03  0.50400001928E-02 0.  1.
        1   -1    0    0  501    0  0.00000000000E+00  0.00000000000E+00 -0.16133541165E+04  0.16133541165E+04  0.50400001928E-02 0. -1.
    10030    2    1    2    0    0  0.00000000000E+00  0.00000000000E+00 -0.14861164252E+04  0.17405918078E+04  0.90615551211E+03 0.  0.
        3    1    3    3  502    0 -0.21554032053E+03 -0.29116713566E+03 -0.12657404049E+04  0.13165617013E+04  0.10100000352E+00 0. -1.
       -3    1    3    3    0  502  0.21554032053E+03  0.29116713566E+03 -0.22037602032E+03  0.42403010647E+03  0.10100000352E+00 0.  1.
</event>
<event>
 5   0  0.1483326E-02  0.9195783E+03  0.7818609E-02  0.9401433E-01
        2   -1    0    0  501    0  0.00000000000E+00  0.00000000000E+00  0.15419210380E+04  0.15419210380E+04  0.25500000920E-02 0. -1.
       -2   -1    0    0    0  501  0.00000000000E+00  0.00000000000E+00 -0.13710563068E+03  0.13710563071E+03  0.25500000920E-02 0.  1.
    10030    2    1    2    0    0  0.00000000000E+00  0.00000000000E+00  0.14048154073E+04  0.16790266687E+04  0.91957828682E+03 0.  0.
        1    1    3    3  502    0 -0.44459804041E+03  0.69787086083E+02  0.53046190908E+03  0.69564897177E+03  0.50400001928E-02 0.  1.
       -1    1    3    3    0  502  0.44459804041E+03 -0.69787086083E+02  0.87435349824E+03  0.98337769693E+03  0.50400001928E-02 0. -1.
</event>
<event>
 5   0  0.1440615E-02  0.8886970E+03  0.7818609E-02  0.9439822E-01
       -2   -1    0    0    0  501  0.00000000000E+00  0.00000000000E+00  0.21738860776E+03  0.21738860777E+03  0.25500000920E-02 0.  1.
        2   -1    0    0  501    0  0.00000000000E+00  0.00000000000E+00 -0.90826097903E+03  0.90826097904E+03  0.25500000920E-02 0. -1.
    10030    2    1    2    0    0  0.00000000000E+00  0.00000000000E+00 -0.69087237128E+03  0.11256495868E+04  0.88869700061E+03 0.  0.
        3    1    3    3  502    0 -0.15617580635E+03 -0.23515839599E+02 -0.87150940574E+03  0.88570453973E+03  0.10100000352E+00 0. -1.
       -3    1    3    3    0  502  0.15617580635E+03  0.23515839599E+02  0.18063703446E+03  0.23994504708E+03  0.10100000352E+00 0.  1.
</event>
<event>
 5   0  0.8738044E-03  0.9030009E+03  0.7818609E-02  0.9421838E-01
       -1   -1    0    0    0  501  0.00000000000E+00  0.00000000000E+00  0.15998121932E+03  0.15998121940E+03  0.50400001928E-02 0. -1.
        1   -1    0    0  501    0  0.00000000000E+00  0.00000000000E+00 -0.12742286265E+04  0.12742286265E+04  0.50400001928E-02 0.  1.
    10030    2    1    2    0    0  0.00000000000E+00  0.00000000000E+00 -0.11142474072E+04  0.14342098459E+04  0.90300088464E+03 0.  0.
        3    1    3    3  502    0  0.87714025920E+02 -0.29401323800E+03 -0.10832109031E+04  0.11258256549E+04  0.10100000352E+00 0.  1.
       -3    1    3    3    0  502 -0.87714025920E+02  0.29401323800E+03 -0.31036504077E+02  0.30838419099E+03  0.10100000352E+00 0. -1.
</event>
<event>
 5   0  0.1441195E-02  0.8285292E+03  0.7818609E-02  0.9519616E-01
       -2   -1    0    0    0  501  0.00000000000E+00  0.00000000000E+00  0.19228330112E+03  0.19228330114E+03  0.25500000920E-02 0.  1.
        2   -1    0    0  501    0  0.00000000000E+00  0.00000000000E+00 -0.89251198893E+03  0.89251198894E+03  0.25500000920E-02 0. -1.
    10030    2    1    2    0    0  0.00000000000E+00  0.00000000000E+00 -0.70022868781E+03  0.10847952901E+04  0.82852918242E+03 0.  0.
        5    1    3    3  502    0 -0.18435032314E+03  0.11355484109E+03 -0.81249153039E+03  0.84085927510E+03  0.46999998093E+01 0. -1.
       -5    1    3    3    0  502  0.18435032314E+03 -0.11355484109E+03  0.11226284257E+03  0.24393601497E+03  0.46999998093E+01 0.  1.
</event>
<event>
 5   0  0.8612969E-03  0.9029725E+03  0.7818609E-02  0.9421873E-01
       -1   -1    0    0    0  501  0.00000000000E+00  0.00000000000E+00  0.64857976325E+03  0.64857976327E+03  0.50400001928E-02 0.  1.
        1   -1    0    0  501    0  0.00000000000E+00  0.00000000000E+00 -0.31428644039E+03  0.31428644043E+03  0.50400001928E-02 0. -1.
    10030    2    1    2    0    0  0.00000000000E+00  0.00000000000E+00  0.33429332286E+03  0.96286620371E+03  0.90297248049E+03 0.  0.
        4    1    3    3  502    0  0.36732546231E+03  0.16307581039E+03  0.38650102768E+03  0.55758978873E+03  0.12699999809E+01 0.  1.
       -4    1    3    3    0  502 -0.36732546231E+03 -0.16307581039E+03 -0.52207704816E+02  0.40527641498E+03  0.12699999809E+01 0. -1.
</event>
<event>
 5   0  0.8885324E-03  0.9003415E+03  0.7818609E-02  0.9425155E-01
       -1   -1    0    0    0  501  0.00000000000E+00  0.00000000000E+00  0.19181487889E+03  0.19181487896E+03  0.50400001928E-02 0.  1.
        1   -1    0    0  501    0  0.00000000000E+00  0.00000000000E+00 -0.10565066212E+04  0.10565066212E+04  0.50400001928E-02 0. -1.
    10030    2    1    2    0    0  0.00000000000E+00  0.00000000000E+00 -0.86469174234E+03  0.12483215002E+04  0.90034146778E+03 0.  0.
        2    1    3    3  502    0  0.17475221520E+03  0.39949577727E+03 -0.58747556770E+03  0.73161653578E+03  0.25500000920E-02 0.  1.
       -2    1    3    3    0  502 -0.17475221520E+03 -0.39949577727E+03 -0.27721617464E+03  0.51670496443E+03  0.25500000920E-02 0. -1.
</event>
<event>
 5   0  0.8291252E-03  0.9022705E+03  0.7818609E-02  0.9422748E-01
        1   -1    0    0  501    0  0.00000000000E+00  0.00000000000E+00  0.42587105109E+03  0.42587105112E+03  0.50400001928E-02 0.  1.
       -1   -1    0    0    0  501  0.00000000000E+00  0.00000000000E+00 -0.47789824049E+03  0.47789824052E+03  0.50400001928E-02 0. -1.
    10030    2    1    2    0    0  0.00000000000E+00  0.00000000000E+00 -0.52027189403E+02  0.90376929164E+03  0.90227052710E+03 0.  0.
        1    1    3    3  502    0  0.24245486672E+03  0.18779181748E+03  0.30540289633E+03  0.43280602840E+03  0.50400001928E-02 0.  1.
       -1    1    3    3    0  502 -0.24245486672E+03 -0.18779181748E+03 -0.35743008573E+03  0.47096326324E+03  0.50400001928E-02 0. -1.
</event>
<event>
 5   0  0.8738044E-03  0.8918537E+03  0.7818609E-02  0.9435822E-01
       -1   -1    0    0    0  501  0.00000000000E+00  0.00000000000E+00  0.88682478701E+03  0.88682478702E+03  0.50400001928E-02 0.  1.
        1   -1    0    0  501    0  0.00000000000E+00  0.00000000000E+00 -0.22422776004E+03  0.22422776010E+03  0.50400001928E-02 0. -1.
    10030    2    1    2    0    0  0.00000000000E+00  0.00000000000E+00  0.66259702696E+03  0.11110525471E+04  0.89185365522E+03 0.  0.
        3    1    3    3  502    0 -0.17467252744E+03 -0.31029136118E+03  0.66571419872E+03  0.75496134023E+03  0.10100000352E+00 0.  1.
       -3    1    3    3    0  502  0.17467252744E+03  0.31029136118E+03 -0.31171717547E+01  0.35609120689E+03  0.10100000352E+00 0. -1.
</event>
<event>
 5   0  0.1441195E-02  0.8939276E+03  0.7818609E-02  0.9433204E-01
       -2   -1    0    0    0  501  0.00000000000E+00  0.00000000000E+00  0.69853871705E+03  0.69853871705E+03  0.25500000920E-02 0. -1.
        2   -1    0    0  501    0  0.00000000000E+00  0.00000000000E+00 -0.28599224926E+03  0.28599224927E+03  0.25500000920E-02 0.  1.
    10030    2    1    2    0    0  0.00000000000E+00  0.00000000000E+00  0.41254646778E+03  0.98453096632E+03  0.89392764560E+03 0.  0.
        5    1    3    3  502    0  0.50286692686E+02 -0.23035291285E+03  0.62444475190E+03  0.66749123896E+03  0.46999998093E+01 0. -1.
       -5    1    3    3    0  502 -0.50286692686E+02  0.23035291285E+03 -0.21189828411E+03  0.31703972736E+03  0.46999998093E+01 0.  1.
</event>
<event>
 5   0  0.1454652E-02  0.8937606E+03  0.7818609E-02  0.9433415E-01
        2   -1    0    0  501    0  0.00000000000E+00  0.00000000000E+00  0.54431475065E+03  0.54431475065E+03  0.25500000920E-02 0. -1.
       -2   -1    0    0    0  501  0.00000000000E+00  0.00000000000E+00 -0.36688696892E+03  0.36688696893E+03  0.25500000920E-02 0.  1.
    10030    2    1    2    0    0  0.00000000000E+00  0.00000000000E+00  0.17742778173E+03  0.91120171958E+03  0.89376056975E+03 0.  0.
        4    1    3    3  502    0  0.11936868464E+03 -0.28434748948E+03 -0.24101350064E+03  0.39139685491E+03  0.12699999809E+01 0.  1.
       -4    1    3    3    0  502 -0.11936868464E+03  0.28434748948E+03  0.41844128237E+03  0.51980486467E+03  0.12699999809E+01 0. -1.
</event>
<event>
 5   0  0.8524692E-03  0.9117845E+03  0.7818609E-02  0.9410969E-01
        1   -1    0    0  501    0  0.00000000000E+00  0.00000000000E+00  0.23438845126E+04  0.23438845126E+04  0.50400001928E-02 0. -1.
       -1   -1    0    0    0  501  0.00000000000E+00  0.00000000000E+00 -0.88672356491E+02  0.88672356634E+02  0.50400001928E-02 0.  1.
    10030    2    1    2    0    0  0.00000000000E+00  0.00000000000E+00  0.22552121561E+04  0.24325568693E+04  0.91178454310E+03 0.  0.
        5    1    3    3  502    0 -0.41120335682E+03 -0.15738638800E+03  0.81242018125E+03  0.92407105608E+03  0.46999998093E+01 0.  1.
       -5    1    3    3    0  502  0.41120335682E+03  0.15738638800E+03  0.14427919749E+04  0.15084858132E+04  0.46999998093E+01 0. -1.
</event>
<event>
 5   0  0.8524692E-03  0.8987755E+03  0.7818609E-02  0.9427113E-01
       -1   -1    0    0    0  501  0.00000000000E+00  0.00000000000E+00  0.30594500806E+03  0.30594500810E+03  0.50400001928E-02 0. -1.
        1   -1    0    0  501    0  0.00000000000E+00  0.00000000000E+00 -0.66008384610E+03  0.66008384612E+03  0.50400001928E-02 0.  1.
    10030    2    1    2    0    0  0.00000000000E+00  0.00000000000E+00 -0.35413883805E+03  0.96602885422E+03  0.89877551734E+03 0.  0.
        5    1    3    3  502    0 -0.23155222309E+03 -0.89928587406E+02  0.22541544467E+03  0.33546653417E+03  0.46999998093E+01 0. -1.
       -5    1    3    3    0  502  0.23155222309E+03  0.89928587406E+02 -0.57955428272E+03  0.63056232005E+03  0.46999998093E+01 0.  1.
</event>
<event>
 5   0  0.1440615E-02  0.8536789E+03  0.7818609E-02  0.9485413E-01
       -2   -1    0    0    0  501  0.00000000000E+00  0.00000000000E+00  0.17315264535E+03  0.17315264537E+03  0.25500000920E-02 0. -1.
        2   -1    0    0  501    0  0.00000000000E+00  0.00000000000E+00 -0.10522039707E+04  0.10522039707E+04  0.25500000920E-02 0.  1.
    10030    2    1    2    0    0  0.00000000000E+00  0.00000000000E+00 -0.87905132534E+03  0.12253566161E+04  0.85367886464E+03 0.  0.
        3    1    3    3  502    0 -0.41636741166E+03 -0.93676521634E+02 -0.42890202183E+03  0.60505707725E+03  0.10100000352E+00 0.  1.
       -3    1    3    3    0  502  0.41636741166E+03  0.93676521634E+02 -0.45014930351E+03  0.62029953881E+03  0.10100000352E+00 0. -1.
</event>
<event>
 5   0  0.1454652E-02  0.8956644E+03  0.7818609E-02  0.9431017E-01
        2   -1    0    0  501    0  0.00000000000E+00  0.00000000000E+00  0.57075668893E+03  0.57075668894E+03  0.25500000920E-02 0.  1.
       -2   -1    0    0    0  501  0.00000000000E+00  0.00000000000E+00 -0.35138211474E+03  0.35138211475E+03  0.25500000920E-02 0. -1.
    10030    2    1    2    0    0  0.00000000000E+00  0.00000000000E+00  0.21937457419E+03  0.92213880369E+03  0.89566442905E+03 0.  0.
        4    1    3    3  502    0  0.28350175872E+03  0.23598202738E+03  0.37114507781E+03  0.52326957310E+03  0.12699999809E+01 0.  1.
       -4    1    3    3    0  502 -0.28350175872E+03 -0.23598202738E+03 -0.15177050362E+03  0.39886923059E+03  0.12699999809E+01 0. -1.
</event>
<event>
 5   0  0.1454652E-02  0.9106389E+03  0.7818609E-02  0.9412379E-01
        2   -1    0    0  501    0  0.00000000000E+00  0.00000000000E+00  0.90103432426E+03  0.90103432426E+03  0.25500000920E-02 0. -1.
       -2   -1    0    0    0  501  0.00000000000E+00  0.00000000000E+00 -0.23008647620E+03  0.23008647622E+03  0.25500000920E-02 0.  1.
    10030    2    1    2    0    0  0.00000000000E+00  0.00000000000E+00  0.67094784806E+03  0.11311208005E+04  0.91063892431E+03 0.  0.
        4    1    3    3  502    0  0.37333445444E+02  0.15457946793E+03 -0.19446890105E+03  0.25121378233E+03  0.12699999809E+01 0.  1.
       -4    1    3    3    0  502 -0.37333445444E+02 -0.15457946793E+03  0.86541674911E+03  0.87990701815E+03  0.12699999809E+01 0. -1.
</event>
<event>
 5   0  0.8612969E-03  0.8852849E+03  0.7818609E-02  0.9444165E-01
       -1   -1    0    0    0  501  0.00000000000E+00  0.00000000000E+00  0.37945185935E+03  0.37945185939E+03  0.50400001928E-02 0.  1.
        1   -1    0    0  501    0  0.00000000000E+00  0.00000000000E+00 -0.51635629813E+03  0.51635629816E+03  0.50400001928E-02 0. -1.
    10030    2    1    2    0    0  0.00000000000E+00  0.00000000000E+00 -0.13690443878E+03  0.89580815754E+03  0.88528494269E+03 0.  0.
        4    1    3    3  502    0 -0.41302712297E+03  0.15894365037E+03 -0.59615936204E+02  0.44655364857E+03  0.12699999809E+01 0. -1.
       -4    1    3    3    0  502  0.41302712297E+03 -0.15894365037E+03 -0.77288502576E+02  0.44925450897E+03  0.12699999809E+01 0.  1.
</event>
<event>
 5   0  0.8738044E-03  0.8973292E+03  0.7818609E-02  0.9428926E-01
       -1   -1    0    0    0  501  0.00000000000E+00  0.00000000000E+00  0.36068534448E+03  0.36068534452E+03  0.50400001928E-02 0.  1.
        1   -1    0    0  501    0  0.00000000000E+00  0.00000000000E+00 -0.55810394000E+03  0.55810394002E+03  0.50400001928E-02 0. -1.
    10030    2    1    2    0    0  0.00000000000E+00  0.00000000000E+00 -0.19741859552E+03  0.91878928454E+03  0.89732917457E+03 0.  0.
        3    1    3    3  502    0  0.37021452076E+03 -0.17676883477E+03 -0.28469557020E+03  0.49935717700E+03  0.10100000352E+00 0. -1.
       -3    1    3    3    0  502 -0.37021452076E+03  0.17676883477E+03  0.87276974681E+02  0.41943210754E+03  0.10100000352E+00 0.  1.
</event>
<event>
 5   0  0.8291252E-03  0.9113901E+03  0.7818609E-02  0.9411454E-01
        1   -1    0    0  501    0  0.00000000000E+00  0.00000000000E+00  0.24946668773E+03  0.24946668778E+03  0.50400001928E-02 0. -1.
       -1   -1    0    0    0  501  0.00000000000E+00  0.00000000000E+00 -0.83240767353E+03  0.83240767355E+03  0.50400001928E-02 0.  1.
    10030    2    1    2    0    0  0.00000000000E+00  0.00000000000E+00 -0.58294098580E+03  0.10818743613E+04  0.91139011448E+03 0.  0.
        1    1    3    3  502    0 -0.42511200005E+03  0.15495869979E+03 -0.22726413222E+03  0.50634118641E+03  0.50400001928E-02 0.  1.
       -1    1    3    3    0  502  0.42511200005E+03 -0.15495869979E+03 -0.35567685359E+03  0.57553317492E+03  0.50400001928E-02 0. -1.
</event>
<event>
 5   0  0.1454652E-02  0.1015388E+04  0.7818609E-02  0.9291826E-01
        2   -1    0    0  501    0  0.00000000000E+00  0.00000000000E+00  0.17309944627E+04  0.17309944627E+04  0.25500000920E-02 0.  1.
       -2   -1    0    0    0  501  0.00000000000E+00  0.00000000000E+00 -0.14890479209E+03  0.14890479211E+03  0.25500000920E-02 0. -1.
    10030    2    1    2    0    0  0.00000000000E+00  0.00000000000E+00  0.15820896706E+04  0.18798992548E+04  0.10153883407E+04 0.  0.
        4    1    3    3  502    0 -0.44479638942E+03 -0.71155192394E+02  0.12246259946E+04  0.13048437949E+04  0.12699999809E+01 0.  1.
       -4    1    3    3    0  502  0.44479638942E+03  0.71155192394E+02  0.35746367599E+03  0.57505545994E+03  0.12699999809E+01 0. -1.
</event>
<event>
 5   0  0.8612969E-03  0.9100501E+03  0.7818609E-02  0.9413105E-01
       -1   -1    0    0    0  501  0.00000000000E+00  0.00000000000E+00  0.10169787142E+04  0.10169787142E+04  0.50400001928E-02 0. -1.
        1   -1    0    0  501    0  0.00000000000E+00  0.00000000000E+00 -0.20359106818E+03  0.20359106824E+03  0.50400001928E-02 0.  1.
    10030    2    1    2    0    0  0.00000000000E+00  0.00000000000E+00  0.81338764604E+03  0.12205697825E+04  0.91005007068E+03 0.  0.
        4    1    3    3  502    0  0.33005043463E+03 -0.29329312066E+03  0.25920916011E+03  0.51200111876E+03  0.12699999809E+01 0. -1.
       -4    1    3    3    0  502 -0.33005043463E+03  0.29329312066E+03  0.55417848593E+03  0.70856866371E+03  0.12699999809E+01 0.  1.
</event>
<event>
 5   0  0.1440615E-02  0.9040455E+03  0.7818609E-02  0.9420538E-01
       -2   -1    0    0    0  501  0.00000000000E+00  0.00000000000E+00  0.27667263465E+03  0.27667263466E+03  0.25500000920E-02 0. -1.
        2   -1    0    0  501    0  0.00000000000E+00  0.00000000000E+00 -0.73850655064E+03  0.73850655065E+03  0.25500000920E-02 0.  1.
    10030    2    1    2    0    0  0.00000000000E+00  0.00000000000E+00 -0.46183391599E+03  0.10151791853E+04  0.90404547028E+03 0.  0.
        3    1    3    3  502    0 -0.14428539613E+03  0.44615665546E+02  0.24750327606E+03  0.28994260641E+03  0.10100000352E+00 0. -1.
       -3    1    3    3    0  502  0.14428539613E+03 -0.44615665546E+02 -0.70933719205E+03  0.72523657890E+03  0.10100000352E+00 0.  1.
</event>
<event>
 5   0  0.8524692E-03  0.9350347E+03  0.7818609E-02  0.9382816E-01
       -1   -1    0    0    0  501  0.00000000000E+00  0.00000000000E+00  0.13341823353E+04  0.13341823353E+04  0.50400001928E-02 0. -1.
        1   -1    0    0  501    0  0.00000000000E+00  0.00000000000E+00 -0.16382504060E+03  0.16382504068E+03  0.50400001928E-02 0.  1.
    10030    2    1    2    0    0  0.00000000000E+00  0.00000000000E+00  0.11703572947E+04  0.14980073760E+04  0.93503470593E+03 0.  0.
        5    1    3    3  502    0 -0.23692094541E+03 -0.94096705667E+01  0.12306634602E+04  0.12533055169E+04  0.46999998093E+01 0. -1.
       -5    1    3    3    0  502  0.23692094541E+03  0.94096705667E+01 -0.60306165499E+02  0.24470185915E+03  0.46999998093E+01 0.  1.
</event>
<event>
 5   0  0.1440615E-02  0.8996802E+03  0.7818609E-02  0.9425981E-01
       -2   -1    0    0    0  501  0.00000000000E+00  0.00000000000E+00  0.31546630615E+03  0.31546630616E+03  0.25500000920E-02 0. -1.
        2   -1    0    0  501    0  0.00000000000E+00  0.00000000000E+00 -0.64145086216E+03  0.64145086217E+03  0.25500000920E-02 0.  1.
    10030    2    1    2    0    0  0.00000000000E+00  0.00000000000E+00 -0.32598455602E+03  0.95691716833E+03  0.89968024113E+03 0.  0.
        3    1    3    3  502    0 -0.79650777285E+02 -0.32078482573E+03  0.16155796032E+03  0.36789690877E+03  0.10100000352E+00 0. -1.
       -3    1    3    3    0  502  0.79650777285E+02  0.32078482573E+03 -0.48754251633E+03  0.58902025956E+03  0.10100000352E+00 0.  1.
</event>
<event>
 5   0  0.1483326E-02  0.8678512E+03  0.7818609E-02  0.9466686E-01
        2   -1    0    0  501    0  0.00000000000E+00  0.00000000000E+00  0.22859047590E+03  0.22859047592E+03  0.25500000920E-02 0.  1.
       -2   -1    0    0    0  501  0.00000000000E+00  0.00000000000E+00 -0.82370635021E+03  0.82370635021E+03  0.25500000920E-02 0. -1.
    10030    2    1    2    0    0  0.00000000000E+00  0.00000000000E+00 -0.59511587431E+03  0.10522968261E+04  0.86785120063E+03 0.  0.
        1    1    3    3  502    0 -0.83219390518E+02 -0.35162202817E+03 -0.58888840421E+03  0.69090742526E+03  0.50400001928E-02 0.  1.
       -1    1    3    3    0  502  0.83219390518E+02  0.35162202817E+03 -0.62274701007E+01  0.36138940087E+03  0.50400001928E-02 0. -1.
</event>
<event>
 5   0  0.8524692E-03  0.8757815E+03  0.7818609E-02  0.9456373E-01
       -1   -1    0    0    0  501  0.00000000000E+00  0.00000000000E+00  0.10161360301E+04  0.10161360302E+04  0.50400001928E-02 0.  1.
        1   -1    0    0  501    0  0.00000000000E+00  0.00000000000E+00 -0.18870340068E+03  0.18870340075E+03  0.50400001928E-02 0. -1.
    10030    2    1    2    0    0  0.00000000000E+00  0.00000000000E+00  0.82743262946E+03  0.12048394309E+04  0.87578153552E+03 0.  0.
        5    1    3    3  502    0 -0.16966380334E+03 -0.40290002089E+03  0.37968257858E+03  0.57904678867E+03  0.46999998093E+01 0. -1.
       -5    1    3    3    0  502  0.16966380334E+03  0.40290002089E+03  0.44775005088E+03  0.62579264223E+03  0.46999998093E+01 0.  1.
</event>
<event>
 5   0  0.8885324E-03  0.8979990E+03  0.7818609E-02  0.9428086E-01
       -1   -1    0    0    0  501  0.00000000000E+00  0.00000000000E+00  0.59288042202E+03  0.59288042204E+03  0.50400001928E-02 0.  1.
        1   -1    0    0  501    0  0.00000000000E+00  0.00000000000E+00 -0.34003580037E+03  0.34003580040E+03  0.50400001928E-02 0. -1.
    10030    2    1    2    0    0  0.00000000000E+00  0.00000000000E+00  0.25284462166E+03  0.93291622245E+03  0.89799903976E+03 0.  0.
        2    1    3    3  502    0  0.16329373573E+03  0.41191905403E+03  0.20175688037E+03  0.48687574389E+03  0.25500000920E-02 0. -1.
       -2    1    3    3    0  502 -0.16329373573E+03 -0.41191905403E+03  0.51087741283E+02  0.44604047856E+03  0.25500000920E-02 0.  1.
</event>
<event>
 5   0  0.1535906E-02  0.8755727E+03  0.7818609E-02  0.9456643E-01
        2   -1    0    0  501    0  0.00000000000E+00  0.00000000000E+00  0.85115843803E+03  0.85115843803E+03  0.25500000920E-02 0. -1.
       -2   -1    0    0    0  501  0.00000000000E+00  0.00000000000E+00 -0.22517182885E+03  0.22517182886E+03  0.25500000920E-02 0.  1.
    10030    2    1    2    0    0  0.00000000000E+00  0.00000000000E+00  0.62598660918E+03  0.10763302669E+04  0.87557273174E+03 0.  0.
        2    1    3    3  502    0  0.21991939358E+03 -0.11199809284E+02 -0.15213704336E+03  0.26764838010E+03  0.25500000920E-02 0.  1.
       -2    1    3    3    0  502 -0.21991939358E+03  0.11199809284E+02  0.77812365253E+03  0.80868188680E+03  0.25500000920E-02 0. -1.
</event>
<event>
 5   0  0.1535906E-02  0.9070111E+03  0.7818609E-02  0.9416859E-01
        2   -1    0    0  501    0  0.00000000000E+00  0.00000000000E+00  0.14038843880E+04  0.14038843880E+04  0.25500000920E-02 0. -1.
       -2   -1    0    0    0  501  0.00000000000E+00  0.00000000000E+00 -0.14649874353E+03  0.14649874355E+03  0.25500000920E-02 0.  1.
    10030    2    1    2    0    0  0.00000000000E+00  0.00000000000E+00  0.12573856445E+04  0.15503831316E+04  0.90701113317E+03 0.  0.
        2    1    3    3  502    0  0.35534066590E+03  0.13659006364E+03  0.10499780162E+04  0.11168606309E+04  0.25500000920E-02 0. -1.
       -2    1    3    3    0  502 -0.35534066590E+03 -0.13659006364E+03  0.20740762834E+03  0.43352250072E+03  0.25500000920E-02 0.  1.
</event>
<event>
 5   0  0.8291252E-03  0.9334764E+03  0.7818609E-02  0.9384675E-01
        1   -1    0    0  501    0  0.00000000000E+00  0.00000000000E+00  0.29675506127E+03  0.29675506131E+03  0.50400001928E-02 0.  1.
       -1   -1    0    0    0  501  0.00000000000E+00  0.00000000000E+00 -0.73408877515E+03  0.73408877517E+03  0.50400001928E-02 0. -1.
    10030    2    1    2    0    0  0.00000000000E+00  0.00000000000E+00 -0.43733371388E+03  0.10308438365E+04  0.93347642601E+03 0.  0.
        1    1    3    3  502    0  0.74525717533E+02 -0.46034403513E+03 -0.19731498232E+03  0.50636342238E+03  0.50400001928E-02 0. -1.
       -1    1    3    3    0  502 -0.74525717533E+02  0.46034403513E+03 -0.24001873156E+03  0.52448041410E+03  0.50400001928E-02 0.  1.
</event>
<event>
 5   0  0.8885324E-03  0.9065335E+03  0.7818609E-02  0.9417451E-01
       -1   -1    0    0    0  501  0.00000000000E+00  0.00000000000E+00  0.11300335612E+03  0.11300335623E+03  0.50400001928E-02 0. -1.
        1   -1    0    0  501    0  0.00000000000E+00  0.00000000000E+00 -0.18180940324E+04  0.18180940324E+04  0.50400001928E-02 0.  1.
    10030    2    1    2    0    0  0.00000000000E+00  0.00000000000E+00 -0.17050906763E+04  0.19310973887E+04  0.90653345777E+03 0.  0.
        2    1    3    3  502    0 -0.17355077829E+03 -0.21353114457E+03 -0.85273199969E+02  0.28807454067E+03  0.25500000920E-02 0. -1.
       -2    1    3    3    0  502  0.17355077829E+03  0.21353114457E+03 -0.16198174763E+04  0.16430228480E+04  0.25500000920E-02 0.  1.
</event>
<event>
 5   0  0.1483326E-02  0.8790620E+03  0.7818609E-02  0.9452140E-01
        2   -1    0    0  501    0  0.00000000000E+00  0.00000000000E+00  0.80824989903E+03  0.80824989903E+03  0.25500000920E-02 0. -1.
       -2   -1    0    0    0  501  0.00000000000E+00  0.00000000000E+00 -0.23901950766E+03  0.23901950767E+03  0.25500000920E-02 0.  1.
    10030    2    1    2    0    0  0.00000000000E+00  0.00000000000E+00  0.56923039137E+03  0.10472694067E+04  0.87906198402E+03 0.  0.
        1    1    3    3  502    0 -0.29655875123E+03 -0.35857646031E+02  0.66872981340E+03  0.73241547435E+03  0.50400001928E-02 0. -1.
       -1    1    3    3    0  502  0.29655875123E+03  0.35857646031E+02 -0.99499422027E+02  0.31485393235E+03  0.50400001928E-02 0.  1.
</event>
<event>
 5   0  0.8612969E-03  0.9642461E+03  0.7818609E-02  0.9348652E-01
        1   -1    0    0  501    0  0.00000000000E+00  0.00000000000E+00  0.15577907619E+04  0.15577907619E+04  0.50400001928E-02 0. -1.
       -1   -1    0    0    0  501  0.00000000000E+00  0.00000000000E+00 -0.14921300705E+03  0.14921300713E+03  0.50400001928E-02 0.  1.
    10030    2    1    2    0    0  0.00000000000E+00  0.00000000000E+00  0.14085777549E+04  0.17070037691E+04  0.96424611799E+03 0.  0.
        4    1    3    3  502    0  0.45457346711E+03 -0.15807061562E+03  0.75491058975E+03  0.89527368326E+03  0.12699999809E+01 0.  1.
       -4    1    3    3    0  502 -0.45457346711E+03  0.15807061562E+03  0.65366716512E+03  0.81173008579E+03  0.12699999809E+01 0. -1.
</event>
<event>
 5   0  0.1483326E-02  0.8977269E+03  0.7818609E-02  0.9428427E-01
       -2   -1    0    0    0  501  0.00000000000E+00  0.00000000000E+00  0.35522319132E+03  0.35522319133E+03  0.25500000920E-02 0. -1.
        2   -1    0    0  501    0  0.00000000000E+00  0.00000000000E+00 -0.56718817125E+03  0.56718817125E+03  0.25500000920E-02 0.  1.
    10030    2    1    2    0    0  0.00000000000E+00  0.00000000000E+00 -0.21196497992E+03  0.92241136259E+03  0.89772689005E+03 0.  0.
        1    1    3    3  502    0  0.30115049008E+03  0.27958216543E+03 -0.29156040808E+03  0.50385045052E+03  0.50400001928E-02 0.  1.
       -1    1    3    3    0  502 -0.30115049008E+03 -0.27958216543E+03  0.79595428158E+02  0.41856091207E+03  0.50400001928E-02 0. -1.
</event>
<event>
 5   0  0.8291252E-03  0.9030290E+03  0.7818609E-02  0.9421803E-01
       -1   -1    0    0    0  501  0.00000000000E+00  0.00000000000E+00  0.24641584789E+03  0.24641584794E+03  0.50400001928E-02 0.  1.
        1   -1    0    0  501    0  0.00000000000E+00  0.00000000000E+00 -0.82732234266E+03  0.82732234267E+03  0.50400001928E-02 0. -1.
    10030    2    1    2    0    0  0.00000000000E+00  0.00000000000E+00 -0.58090649477E+03  0.10737381906E+04  0.90302898421E+03 0.  0.
        1    1    3    3  502    0  0.22704890161E+03  0.98452640285E+02  0.15859061984E+03  0.29393045236E+03  0.50400001928E-02 0.  1.
       -1    1    3    3    0  502 -0.22704890161E+03 -0.98452640285E+02 -0.73949711461E+03  0.77980773825E+03  0.50400001928E-02 0. -1.
</event>
<event>
 5   0  0.1454652E-02  0.9242567E+03  0.7818609E-02  0.9395757E-01
       -2   -1    0    0    0  501  0.00000000000E+00  0.00000000000E+00  0.38742467828E+03  0.38742467828E+03  0.25500000920E-02 0.  1.
        2   -1    0    0  501    0  0.00000000000E+00  0.00000000000E+00 -0.55123650544E+03  0.55123650545E+03  0.25500000920E-02 0. -1.
    10030    2    1    2    0    0  0.00000000000E+00  0.00000000000E+00 -0.16381182716E+03  0.93866118373E+03  0.92425673009E+03 0.  0.
        4    1    3    3  502    0  0.24262293166E+03 -0.13250005594E+03  0.29418817436E+03  0.40369598291E+03  0.12699999809E+01 0.  1.
       -4    1    3    3    0  502 -0.24262293166E+03  0.13250005594E+03 -0.45800000152E+03  0.53496520081E+03  0.12699999809E+01 0. -1.
</event>
<event>
 5   0  0.8524692E-03  0.9021864E+03  0.7818609E-02  0.9422852E-01
        1   -1    0    0  501    0  0.00000000000E+00  0.00000000000E+00  0.37523194147E+03  0.37523194151E+03  0.50400001928E-02 0. -1.
       -1   -1    0    0    0  501  0.00000000000E+00  0.00000000000E+00 -0.54229143810E+03  0.54229143812E+03  0.50400001928E-02 0.  1.
    10030    2    1    2    0    0  0.00000000000E+00  0.00000000000E+00 -0.16705949663E+03  0.91752337963E+03  0.90218638693E+03 0.  0.
        5    1    3    3  502    0  0.27480522235E+03  0.33717691934E+03  0.37901876814E+02  0.43665183777E+03  0.46999998093E+01 0.  1.
       -5    1    3    3    0  502 -0.27480522235E+03 -0.33717691934E+03 -0.20496137344E+03  0.48087154186E+03  0.46999998093E+01 0. -1.
</event>
<event>
 5   0  0.1440615E-02  0.9038058E+03  0.7818609E-02  0.9420836E-01
       -2   -1    0    0    0  501  0.00000000000E+00  0.00000000000E+00  0.13192855826E+03  0.13192855829E+03  0.25500000920E-02 0. -1.
        2   -1    0    0  501    0  0.00000000000E+00  0.00000000000E+00 -0.15479303421E+04  0.15479303421E+04  0.25500000920E-02 0.  1.
    10030    2    1    2    0    0  0.00000000000E+00  0.00000000000E+00 -0.14160017839E+04  0.16798589004E+04  0.90380577195E+03 0.  0.
        3    1    3    3  502    0 -0.90107549256E+02 -0.29194875635E+03 -0.13268582232E+04  0.13615822419E+04  0.10100000352E+00 0.  1.
       -3    1    3    3    0  502  0.90107549256E+02  0.29194875635E+03 -0.89143560694E+02  0.31827665855E+03  0.10100000352E+00 0. -1.
</event>
<event>
 5   0  0.1535906E-02  0.8999537E+03  0.7818609E-02  0.9425639E-01
       -2   -1    0    0    0  501  0.00000000000E+00  0.00000000000E+00  0.11372308168E+03  0.11372308171E+03  0.25500000920E-02 0.  1.
        2   -1    0    0  501    0  0.00000000000E+00  0.00000000000E+00 -0.17804580989E+04  0.17804580989E+04  0.25500000920E-02 0. -1.
    10030    2    1    2    0    0  0.00000000000E+00  0.00000000000E+00 -0.16667350172E+04  0.18941811806E+04  0.89995373625E+03 0.  0.
        2    1    3    3  502    0  0.39879269818E+03  0.47766503883E+02 -0.12603884575E+04  0.13228364672E+04  0.25500000920E-02 0. -1.
       -2    1    3    3    0  502 -0.39879269818E+03 -0.47766503883E+02 -0.40634655973E+03  0.57134471348E+03  0.25500000920E-02 0.  1.
</event>
<event>
 5   0  0.1483326E-02  0.8996416E+03  0.7818609E-02  0.9426030E-01
        2   -1    0    0  501    0  0.00000000000E+00  0.00000000000E+00  0.34898801861E+03  0.34898801862E+03  0.25500000920E-02 0. -1.
       -2   -1    0    0    0  501  0.00000000000E+00  0.00000000000E+00 -0.57978704677E+03  0.57978704678E+03  0.25500000920E-02 0.  1.
    10030    2    1    2    0    0  0.00000000000E+00  0.00000000000E+00 -0.23079902816E+03  0.92877506539E+03  0.89964155679E+03 0.  0.
        1    1    3    3  502    0  0.18823482640E+03 -0.16930638677E+03  0.26844966786E+03  0.36900166215E+03  0.50400001928E-02 0. -1.
       -1    1    3    3    0  502 -0.18823482640E+03  0.16930638677E+03 -0.49924869602E+03  0.55977340324E+03  0.50400001928E-02 0.  1.
</event>
<event>
 5   0  0.8885324E-03  0.8331834E+03  0.7818609E-02  0.9513190E-01
       -1   -1    0    0    0  501  0.00000000000E+00  0.00000000000E+00  0.17205741907E+03  0.17205741914E+03  0.50400001928E-02 0.  1.
        1   -1    0    0  501    0  0.00000000000E+00  0.00000000000E+00 -0.10086670566E+04  0.10086670566E+04  0.50400001928E-02 0. -1.
    10030    2    1    2    0    0  0.00000000000E+00  0.00000000000E+00 -0.83660963753E+03  0.11807244758E+04  0.83318341440E+03 0.  0.
        2    1    3    3  502    0  0.19643919898E+03 -0.36673332275E+03 -0.38768176284E+03  0.56866408200E+03  0.25500000920E-02 0.  1.
       -2    1    3    3    0  502 -0.19643919898E+03  0.36673332275E+03 -0.44892787469E+03  0.61206039375E+03  0.25500000920E-02 0. -1.
</event>
<event>
 5   0  0.1535906E-02  0.7474972E+03  0.7818609E-02  0.9639285E-01
       -2   -1    0    0    0  501  0.00000000000E+00  0.00000000000E+00  0.76885412607E+02  0.76885412649E+02  0.25500000920E-02 0.  1.
        2   -1    0    0  501    0  0.00000000000E+00  0.00000000000E+00 -0.18168336265E+04  0.18168336265E+04  0.25500000920E-02 0. -1.
    10030    2    1    2    0    0  0.00000000000E+00  0.00000000000E+00 -0.17399482139E+04  0.18937190392E+04  0.74749716536E+03 0.  0.
        2    1    3    3  502    0 -0.28593049635E+03  0.65678298216E+01 -0.14795146336E+04  0.15069050853E+04  0.25500000920E-02 0. -1.
       -2    1    3    3    0  502  0.28593049635E+03 -0.65678298216E+01 -0.26043358031E+03  0.38681395385E+03  0.25500000920E-02 0.  1.
</event>
<event>
 5   0  0.8738044E-03  0.9018152E+03  0.7818609E-02  0.9423315E-01
       -1   -1    0    0    0  501  0.00000000000E+00  0.00000000000E+00  0.37627909021E+03  0.37627909025E+03  0.50400001928E-02 0.  1.
        1   -1    0    0  501    0  0.00000000000E+00  0.00000000000E+00 -0.54033744877E+03  0.54033744879E+03  0.50400001928E-02 0. -1.
    10030    2    1    2    0    0  0.00000000000E+00  0.00000000000E+00 -0.16405835856E+03  0.91661653904E+03  0.90181524418E+03 0.  0.
        3    1    3    3  502    0 -0.38749334511E+03 -0.21822031185E+03 -0.15772618549E+03  0.47185671214E+03  0.10100000352E+00 0. -1.
       -3    1    3    3    0  502  0.38749334511E+03  0.21822031185E+03 -0.63321730664E+01  0.44475982690E+03  0.10100000352E+00 0.  1.
</event>
<event>
 5   0  0.8612969E-03  0.8987714E+03  0.7818609E-02  0.9427118E-01
       -1   -1    0    0    0  501  0.00000000000E+00  0.00000000000E+00  0.10723489510E+03  0.10723489522E+03  0.50400001928E-02 0.  1.
        1   -1    0    0  501    0  0.00000000000E+00  0.00000000000E+00 -0.18832258119E+04  0.18832258120E+04  0.50400001928E-02 0. -1.
    10030    2    1    2    0    0  0.00000000000E+00  0.00000000000E+00 -0.17759909168E+04  0.19904607072E+04  0.89877143373E+03 0.  0.
        4    1    3    3  502    0 -0.42855265848E+03 -0.99294293499E+02 -0.68466763987E+03  0.81381086734E+03  0.12699999809E+01 0.  1.
       -4    1    3    3    0  502  0.42855265848E+03  0.99294293499E+02 -0.10913232770E+04  0.11766498398E+04  0.12699999809E+01 0. -1.
</event>
<event>
 5   0  0.8885324E-03  0.9181813E+03  0.7818609E-02  0.9403135E-01
        1   -1    0    0  501    0  0.00000000000E+00  0.00000000000E+00  0.20759984006E+04  0.20759984006E+04  0.50400001928E-02 0. -1.
       -1   -1    0    0    0  501  0.00000000000E+00  0.00000000000E+00 -0.10152427056E+03  0.10152427068E+03  0.50400001928E-02 0.  1.
    10030    2    1    2    0    0  0.00000000000E+00  0.00000000000E+00  0.19744741300E+04  0.21775226713E+04  0.91818129678E+03 0.  0.
        2    1    3    3  502    0 -0.99118242916E+02 -0.36678214774E+03  0.15983945290E+04  0.16429298951E+04  0.25500000920E-02 0. -1.
       -2    1    3    3    0  502  0.99118242916E+02  0.36678214774E+03  0.37607960102E+03  0.53459277613E+03  0.25500000920E-02 0.  1.
</event>
<event>
 5   0  0.8524692E-03  0.9004038E+03  0.7818609E-02  0.9425077E-01
        1   -1    0    0  501    0  0.00000000000E+00  0.00000000000E+00  0.22792700771E+03  0.22792700776E+03  0.50400001928E-02 0. -1.
       -1   -1    0    0    0  501  0.00000000000E+00  0.00000000000E+00 -0.88923973964E+03  0.88923973966E+03  0.50400001928E-02 0.  1.
    10030    2    1    2    0    0  0.00000000000E+00  0.00000000000E+00 -0.66131273194E+03  0.11171667474E+04  0.90040380504E+03 0.  0.
        5    1    3    3  502    0  0.24822118985E+03 -0.14155017768E+02 -0.79629845341E+03  0.83422265644E+03  0.46999998093E+01 0.  1.
       -5    1    3    3    0  502 -0.24822118985E+03  0.14155017768E+02  0.13498572148E+03  0.28294409098E+03  0.46999998093E+01 0. -1.
</event>
<event>
 5   0  0.1440615E-02  0.8892520E+03  0.7818609E-02  0.9439118E-01
        2   -1    0    0  501    0  0.00000000000E+00  0.00000000000E+00  0.82183712519E+03  0.82183712520E+03  0.25500000920E-02 0.  1.
       -2   -1    0    0    0  501  0.00000000000E+00  0.00000000000E+00 -0.24054919633E+03  0.24054919634E+03  0.25500000920E-02 0. -1.
    10030    2    1    2    0    0  0.00000000000E+00  0.00000000000E+00  0.58128792886E+03  0.10623863215E+04  0.88925195527E+03 0.  0.
        3    1    3    3  502    0  0.33346933586E+03 -0.24986573289E+03  0.10534051797E+03  0.42980381264E+03  0.10100000352E+00 0.  1.
       -3    1    3    3    0  502 -0.33346933586E+03  0.24986573289E+03  0.47594741089E+03  0.63258250890E+03  0.10100000352E+00 0. -1.
</event>
<event>
 5   0  0.1454652E-02  0.8908248E+03  0.7818609E-02  0.9437124E-01
        2   -1    0    0  501    0  0.00000000000E+00  0.00000000000E+00  0.16331553618E+04  0.16331553618E+04  0.25500000920E-02 0.  1.
       -2   -1    0    0    0  501  0.00000000000E+00  0.00000000000E+00 -0.12147785555E+03  0.12147785558E+03  0.25500000920E-02 0. -1.
    10030    2    1    2    0    0  0.00000000000E+00  0.00000000000E+00  0.15116775063E+04  0.17546332174E+04  0.89082481142E+03 0.  0.
        4    1    3    3  502    0 -0.50897936757E+00  0.35498452553E+03  0.12857367875E+04  0.13338421841E+04  0.12699999809E+01 0.  1.
       -4    1    3    3    0  502  0.50897936757E+00 -0.35498452553E+03  0.22594071878E+03  0.42079103333E+03  0.12699999809E+01 0. -1.
</event>
<event>
 5   0  0.1440615E-02  0.8811133E+03  0.7818609E-02  0.9449504E-01
       -2   -1    0    0    0  501  0.00000000000E+00  0.00000000000E+00  0.36313079438E+03  0.36313079439E+03  0.25500000920E-02 0. -1.
        2   -1    0    0  501    0  0.00000000000E+00  0.00000000000E+00 -0.53449106049E+03  0.53449106049E+03  0.25500000920E-02 0.  1.
    10030    2    1    2    0    0  0.00000000000E+00  0.00000000000E+00 -0.17136026611E+03  0.89762185488E+03  0.88111330347E+03 0.  0.
        3    1    3    3  502    0  0.11482930642E+03  0.14692534611E+03 -0.49230427905E+03  0.52643740399E+03  0.10100000352E+00 0.  1.
       -3    1    3    3    0  502 -0.11482930642E+03 -0.14692534611E+03  0.32094401294E+03  0.37118445089E+03  0.10100000352E+00 0. -1.
</event>
<event>
 5   0  0.8885324E-03  0.9219910E+03  0.7818609E-02  0.9398502E-01
        1   -1    0    0  501    0  0.00000000000E+00  0.00000000000E+00  0.11633343969E+04  0.11633343969E+04  0.50400001928E-02 0. -1.
       -1   -1    0    0    0  501  0.00000000000E+00  0.00000000000E+00 -0.18267907703E+03  0.18267907710E+03  0.50400001928E-02 0.  1.
    10030    2    1    2    0    0  0.00000000000E+00  0.00000000000E+00  0.98065531986E+03  0.13460134740E+04  0.92199100637E+03 0.  0.
        2    1    3    3  502    0  0.35234334101E+03  0.76161447932E+02  0.70824661842E+02  0.36737246608E+03  0.25500000920E-02 0.  1.
       -2    1    3    3    0  502 -0.35234334101E+03 -0.76161447932E+02  0.90983065802E+03  0.97864100792E+03  0.25500000920E-02 0. -1.
</event>
<event>
 5   0  0.5770125E-03  0.9059530E+03  0.7818609E-02  0.9418170E-01
       -4   -1    0    0    0  501  0.00000000000E+00  0.00000000000E+00  0.37634021903E+03  0.37634236190E+03  0.12699999809E+01 0.  1.
        4   -1    0    0  501    0  0.00000000000E+00  0.00000000000E+00 -0.54521427721E+03  0.54521575635E+03  0.12699999809E+01 0. -1.
    10030    2    1    2    0    0  0.00000000000E+00  0.00000000000E+00 -0.16887405818E+03  0.92155811824E+03  0.90595304391E+03 0.  0.
        4    1    3    3  502    0  0.86017616395E+02  0.27696877616E+03  0.26951545692E+03  0.39591782950E+03  0.12699999809E+01 0.  1.
       -4    1    3    3    0  502 -0.86017616395E+02 -0.27696877616E+03 -0.43838951510E+03  0.52564028874E+03  0.12699999809E+01 0. -1.
</event>
<event>
 5   0  0.8524692E-03  0.9108120E+03  0.7818609E-02  0.9412166E-01
        1   -1    0    0  501    0  0.00000000000E+00  0.00000000000E+00  0.21807830953E+04  0.21807830953E+04  0.50400001928E-02 0. -1.
       -1   -1    0    0    0  501  0.00000000000E+00  0.00000000000E+00 -0.95100987885E+02  0.95100988019E+02  0.50400001928E-02 0.  1.
    10030    2    1    2    0    0  0.00000000000E+00  0.00000000000E+00  0.20856821074E+04  0.22758840833E+04  0.91081200449E+03 0.  0.
        5    1    3    3  502    0 -0.11881056605E+03  0.13119905780E+02 -0.55140508125E+02  0.13172185911E+03  0.46999998093E+01 0.  1.
       -5    1    3    3    0  502  0.11881056605E+03 -0.13119905780E+02  0.21408226155E+04  0.21441622242E+04  0.46999998093E+01 0. -1.
</event>
<event>
 5   0  0.8524692E-03  0.8985917E+03  0.7818609E-02  0.9427344E-01
        1   -1    0    0  501    0  0.00000000000E+00  0.00000000000E+00  0.84072499255E+03  0.84072499257E+03  0.50400001928E-02 0.  1.
       -1   -1    0    0    0  501  0.00000000000E+00  0.00000000000E+00 -0.24011032113E+03  0.24011032118E+03  0.50400001928E-02 0. -1.
    10030    2    1    2    0    0  0.00000000000E+00  0.00000000000E+00  0.60061467142E+03  0.10808353138E+04  0.89859167141E+03 0.  0.
        5    1    3    3  502    0 -0.40609761340E+03 -0.19056407332E+03  0.33012927810E+03  0.55698955817E+03  0.46999998093E+01 0.  1.
       -5    1    3    3    0  502  0.40609761340E+03  0.19056407332E+03  0.27048539332E+03  0.52384575559E+03  0.46999998093E+01 0. -1.
</event>
<event>
 5   0  0.8612969E-03  0.9089871E+03  0.7818609E-02  0.9414416E-01
       -1   -1    0    0    0  501  0.00000000000E+00  0.00000000000E+00  0.19149679114E+03  0.19149679120E+03  0.50400001928E-02 0.  1.
        1   -1    0    0  501    0  0.00000000000E+00  0.00000000000E+00 -0.10786833131E+04  0.10786833131E+04  0.50400001928E-02 0. -1.
    10030    2    1    2    0    0  0.00000000000E+00  0.00000000000E+00 -0.88718652192E+03  0.12701801043E+04  0.90898711356E+03 0.  0.
        4    1    3    3  502    0 -0.19401841631E+03  0.30989191462E+03 -0.82084524413E+03  0.89859038072E+03  0.12699999809E+01 0. -1.
       -4    1    3    3    0  502  0.19401841631E+03 -0.30989191462E+03 -0.66341277793E+02  0.37158972356E+03  0.12699999809E+01 0.  1.
</event>
<event>
 5   0  0.8291252E-03  0.8613250E+03  0.7818609E-02  0.9475262E-01
       -1   -1    0    0    0  501  0.00000000000E+00  0.00000000000E+00  0.41460985997E+03  0.41460986000E+03  0.50400001928E-02 0.  1.
        1   -1    0    0  501    0  0.00000000000E+00  0.00000000000E+00 -0.44733665567E+03  0.44733665570E+03  0.50400001928E-02 0. -1.
    10030    2    1    2    0    0  0.00000000000E+00  0.00000000000E+00 -0.32726795701E+02  0.86194651570E+03  0.86132499834E+03 0.  0.
        1    1    3    3  502    0 -0.26324435613E+03 -0.51445070552E+01 -0.35741150263E+03  0.44392233467E+03  0.50400001928E-02 0. -1.
       -1    1    3    3    0  502  0.26324435613E+03  0.51445070552E+01  0.32468470692E+03  0.41802418103E+03  0.50400001928E-02 0.  1.
</event>
<event>
 5   0  0.1454652E-02  0.9262176E+03  0.7818609E-02  0.9393389E-01
       -2   -1    0    0    0  501  0.00000000000E+00  0.00000000000E+00  0.39942382911E+03  0.39942382911E+03  0.25500000920E-02 0.  1.
        2   -1    0    0  501    0  0.00000000000E+00  0.00000000000E+00 -0.53694778092E+03  0.53694778092E+03  0.25500000920E-02 0. -1.
    10030    2    1    2    0    0  0.00000000000E+00  0.00000000000E+00 -0.13752395181E+03  0.93637161004E+03  0.92621755261E+03 0.  0.
        4    1    3    3  502    0  0.40821294677E+03  0.21782221302E+03 -0.88567547048E+02  0.47109462923E+03  0.12699999809E+01 0. -1.
       -4    1    3    3    0  502 -0.40821294677E+03 -0.21782221302E+03 -0.48956404765E+02  0.46527698081E+03  0.12699999809E+01 0.  1.
</event>
<event>
 5   0  0.1441195E-02  0.9050897E+03  0.7818609E-02  0.9419241E-01
        2   -1    0    0  501    0  0.00000000000E+00  0.00000000000E+00  0.88339677505E+03  0.88339677506E+03  0.25500000920E-02 0.  1.
       -2   -1    0    0    0  501  0.00000000000E+00  0.00000000000E+00 -0.23182881570E+03  0.23182881572E+03  0.25500000920E-02 0. -1.
    10030    2    1    2    0    0  0.00000000000E+00  0.00000000000E+00  0.65156795935E+03  0.11152255908E+04  0.90508967106E+03 0.  0.
        5    1    3    3  502    0  0.37137783485E+03  0.17782362591E+03  0.94503080819E+02  0.42248746778E+03  0.46999998093E+01 0. -1.
       -5    1    3    3    0  502 -0.37137783485E+03 -0.17782362591E+03  0.55706487853E+03  0.69273812299E+03  0.46999998093E+01 0.  1.
</event>
<event>
 5   0  0.8524692E-03  0.9050698E+03  0.7818609E-02  0.9419266E-01
       -1   -1    0    0    0  501  0.00000000000E+00  0.00000000000E+00  0.99541056639E+03  0.99541056640E+03  0.50400001928E-02 0. -1.
        1   -1    0    0  501    0  0.00000000000E+00  0.00000000000E+00 -0.20573201307E+03  0.20573201313E+03  0.50400001928E-02 0.  1.
    10030    2    1    2    0    0  0.00000000000E+00  0.00000000000E+00  0.78967855332E+03  0.12011425795E+04  0.90506976460E+03 0.  0.
        5    1    3    3  502    0 -0.12904395800E+03  0.43788483833E+02 -0.17782174950E+03  0.22408132231E+03  0.46999998093E+01 0.  1.
       -5    1    3    3    0  502  0.12904395800E+03 -0.43788483833E+02  0.96750030282E+03  0.97706125723E+03  0.46999998093E+01 0. -1.
</event>
<event>
 5   0  0.1483326E-02  0.9087898E+03  0.7818609E-02  0.9414660E-01
        2   -1    0    0  501    0  0.00000000000E+00  0.00000000000E+00  0.12246365434E+04  0.12246365434E+04  0.25500000920E-02 0. -1.
       -2   -1    0    0    0  501  0.00000000000E+00  0.00000000000E+00 -0.16860081321E+03  0.16860081323E+03  0.25500000920E-02 0.  1.
    10030    2    1    2    0    0  0.00000000000E+00  0.00000000000E+00  0.10560357302E+04  0.13932373566E+04  0.90878978234E+03 0.  0.
        1    1    3    3  502    0 -0.12455251810E+03 -0.25112454686E+03 -0.20250636162E+02  0.28104618142E+03  0.50400001928E-02 0.  1.
       -1    1    3    3    0  502  0.12455251810E+03  0.25112454686E+03  0.10762863663E+04  0.11121911752E+04  0.50400001928E-02 0. -1.
</event>
<event>
 5   0  0.1535906E-02  0.8982910E+03  0.7818609E-02  0.9427720E-01
       -2   -1    0    0    0  501  0.00000000000E+00  0.00000000000E+00  0.39874050013E+03  0.39874050014E+03  0.25500000920E-02 0. -1.
        2   -1    0    0  501    0  0.00000000000E+00  0.00000000000E+00 -0.50592225515E+03  0.50592225516E+03  0.25500000920E-02 0.  1.
    10030    2    1    2    0    0  0.00000000000E+00  0.00000000000E+00 -0.10718175502E+03  0.90466275530E+03  0.89829102868E+03 0.  0.
        2    1    3    3  502    0  0.71682392030E+02 -0.18127576139E+03  0.35391792754E+03  0.40405094535E+03  0.25500000920E-02 0. -1.
       -2    1    3    3    0  502 -0.71682392030E+02  0.18127576139E+03 -0.46109968256E+03  0.50061180995E+03  0.25500000920E-02 0.  1.
</event>
<event>
 5   0  0.1535906E-02  0.8686425E+03  0.7818609E-02  0.9465652E-01
        2   -1    0    0  501    0  0.00000000000E+00  0.00000000000E+00  0.10543137056E+04  0.10543137056E+04  0.25500000920E-02 0. -1.
       -2   -1    0    0    0  501  0.00000000000E+00  0.00000000000E+00 -0.17891730384E+03  0.17891730386E+03  0.25500000920E-02 0.  1.
    10030    2    1    2    0    0  0.00000000000E+00  0.00000000000E+00  0.87539640179E+03  0.12332310095E+04  0.86864254011E+03 0.  0.
        2    1    3    3  502    0  0.36603122199E+02  0.89474859939E+02 -0.16344879508E+03  0.18989746638E+03  0.25500000920E-02 0.  1.
       -2    1    3    3    0  502 -0.36603122199E+02 -0.89474859939E+02  0.10388451969E+04  0.10433335431E+04  0.25500000920E-02 0. -1.
</event>
<event>
 5   0  0.8612969E-03  0.9030730E+03  0.7818609E-02  0.9421748E-01
       -1   -1    0    0    0  501  0.00000000000E+00  0.00000000000E+00  0.98593724612E+02  0.98593724741E+02  0.50400001928E-02 0.  1.
        1   -1    0    0  501    0  0.00000000000E+00  0.00000000000E+00 -0.20679331411E+04  0.20679331411E+04  0.50400001928E-02 0. -1.
    10030    2    1    2    0    0  0.00000000000E+00  0.00000000000E+00 -0.19693394165E+04  0.21665268658E+04  0.90307304416E+03 0.  0.
        4    1    3    3  502    0 -0.77044233238E+02 -0.16365425063E+03 -0.19772114867E+04  0.19854685603E+04  0.12699999809E+01 0. -1.
       -4    1    3    3    0  502  0.77044233238E+02  0.16365425063E+03  0.78720702596E+01  0.18105830557E+03  0.12699999809E+01 0.  1.
</event>
<event>
 5   0  0.8291252E-03  0.8947802E+03  0.7818609E-02  0.9432130E-01
       -1   -1    0    0    0  501  0.00000000000E+00  0.00000000000E+00  0.53620922611E+03  0.53620922614E+03  0.50400001928E-02 0. -1.
        1   -1    0    0  501    0  0.00000000000E+00  0.00000000000E+00 -0.37328317605E+03  0.37328317608E+03  0.50400001928E-02 0.  1.
    10030    2    1    2    0    0  0.00000000000E+00  0.00000000000E+00  0.16292605006E+03  0.90949240222E+03  0.89478015842E+03 0.  0.
        1    1    3    3  502    0 -0.16145305857E+03 -0.77770677433E+02 -0.33520705501E+03  0.38010411487E+03  0.50400001928E-02 0.  1.
       -1    1    3    3    0  502  0.16145305857E+03  0.77770677433E+02  0.49813310507E+03  0.52938828735E+03  0.50400001928E-02 0. -1.
</event>
<event>
 5   0  0.1441195E-02  0.9060269E+03  0.7818609E-02  0.9418079E-01
        2   -1    0    0  501    0  0.00000000000E+00  0.00000000000E+00  0.39726426410E+03  0.39726426411E+03  0.25500000920E-02 0. -1.
       -2   -1    0    0    0  501  0.00000000000E+00  0.00000000000E+00 -0.51658606588E+03  0.51658606589E+03  0.25500000920E-02 0.  1.
    10030    2    1    2    0    0  0.00000000000E+00  0.00000000000E+00 -0.11932180178E+03  0.91385032999E+03  0.90602689433E+03 0.  0.
        5    1    3    3  502    0 -0.42271438858E+03  0.13213112552E+03  0.36307963501E+02  0.44439447213E+03  0.46999998093E+01 0.  1.
       -5    1    3    3    0  502  0.42271438858E+03 -0.13213112552E+03 -0.15562976528E+03  0.46945585787E+03  0.46999998093E+01 0. -1.
</event>
<event>
 5   0  0.8524692E-03  0.8719529E+03  0.7818609E-02  0.9461337E-01
        1   -1    0    0  501    0  0.00000000000E+00  0.00000000000E+00  0.19813647269E+03  0.19813647276E+03  0.50400001928E-02 0. -1.
       -1   -1    0    0    0  501  0.00000000000E+00  0.00000000000E+00 -0.95931580803E+03  0.95931580805E+03  0.50400001928E-02 0.  1.
    10030    2    1    2    0    0  0.00000000000E+00  0.00000000000E+00 -0.76117933534E+03  0.11574522808E+04  0.87195286672E+03 0.  0.
        5    1    3    3  502    0  0.23555843747E+03 -0.28083865398E+03 -0.67319456810E+02  0.37270917120E+03  0.46999998093E+01 0. -1.
       -5    1    3    3    0  502 -0.23555843747E+03  0.28083865398E+03 -0.69385987853E+03  0.78474310960E+03  0.46999998093E+01 0.  1.
</event>
<event>
 5   0  0.1535906E-02  0.8916523E+03  0.7818609E-02  0.9436077E-01
        2   -1    0    0  501    0  0.00000000000E+00  0.00000000000E+00  0.81032427493E+03  0.81032427494E+03  0.25500000920E-02 0.  1.
       -2   -1    0    0    0  501  0.00000000000E+00  0.00000000000E+00 -0.24528568912E+03  0.24528568914E+03  0.25500000920E-02 0. -1.
    10030    2    1    2    0    0  0.00000000000E+00  0.00000000000E+00  0.56503858581E+03  0.10556099641E+04  0.89165228245E+03 0.  0.
        2    1    3    3  502    0 -0.13882011740E+03  0.96693637236E+02  0.77084715723E+03  0.78919327436E+03  0.25500000920E-02 0.  1.
       -2    1    3    3    0  502  0.13882011740E+03 -0.96693637236E+02 -0.20580857143E+03  0.26641668971E+03  0.25500000920E-02 0. -1.
</event>
<event>
 5   0  0.1454652E-02  0.8993291E+03  0.7818609E-02  0.9426420E-01
       -2   -1    0    0    0  501  0.00000000000E+00  0.00000000000E+00  0.36199986272E+03  0.36199986273E+03  0.25500000920E-02 0.  1.
        2   -1    0    0  501    0  0.00000000000E+00  0.00000000000E+00 -0.55855881668E+03  0.55855881669E+03  0.25500000920E-02 0. -1.
    10030    2    1    2    0    0  0.00000000000E+00  0.00000000000E+00 -0.19655895396E+03  0.92055867941E+03  0.89932911654E+03 0.  0.
        4    1    3    3  502    0  0.36268157742E+03 -0.26164742771E+03 -0.14628320486E+03  0.47052916164E+03  0.12699999809E+01 0. -1.
       -4    1    3    3    0  502 -0.36268157742E+03  0.26164742771E+03 -0.50275749096E+02  0.45002951778E+03  0.12699999809E+01 0.  1.
</event>
<event>
 5   0  0.8612969E-03  0.8989527E+03  0.7818609E-02  0.9426892E-01
        1   -1    0    0  501    0  0.00000000000E+00  0.00000000000E+00  0.79948296834E+03  0.79948296836E+03  0.50400001928E-02 0.  1.
       -1   -1    0    0    0  501  0.00000000000E+00  0.00000000000E+00 -0.25269952664E+03  0.25269952669E+03  0.50400001928E-02 0. -1.
    10030    2    1    2    0    0  0.00000000000E+00  0.00000000000E+00  0.54678344171E+03  0.10521824950E+04  0.89895265212E+03 0.  0.
        4    1    3    3  502    0  0.69889201854E+02 -0.29177401204E+03 -0.11833587329E+03  0.32252374555E+03  0.12699999809E+01 0. -1.
       -4    1    3    3    0  502 -0.69889201854E+02  0.29177401204E+03  0.66511931500E+03  0.72965874950E+03  0.12699999809E+01 0.  1.
</event>
<event>
 5   0  0.1441195E-02  0.8222726E+03  0.7818609E-02  0.9528327E-01
       -2   -1    0    0    0  501  0.00000000000E+00  0.00000000000E+00  0.35755019973E+03  0.35755019974E+03  0.25500000920E-02 0.  1.
        2   -1    0    0  501    0  0.00000000000E+00  0.00000000000E+00 -0.47275330335E+03  0.47275330335E+03  0.25500000920E-02 0. -1.
    10030    2    1    2    0    0  0.00000000000E+00  0.00000000000E+00 -0.11520310361E+03  0.83030350310E+03  0.82227255346E+03 0.  0.
        5    1    3    3  502    0 -0.63243321404E+02 -0.25643190199E+03  0.26052131547E+03  0.37101278128E+03  0.46999998093E+01 0.  1.
       -5    1    3    3    0  502  0.63243321404E+02  0.25643190199E+03 -0.37572441908E+03  0.45929072182E+03  0.46999998093E+01 0. -1.
</event>
<event>
 5   0  0.1440615E-02  0.9088016E+03  0.7818609E-02  0.9414645E-01
       -2   -1    0    0    0  501  0.00000000000E+00  0.00000000000E+00  0.10950977630E+03  0.10950977633E+03  0.25500000920E-02 0.  1.
        2   -1    0    0  501    0  0.00000000000E+00  0.00000000000E+00 -0.18854947534E+04  0.18854947534E+04  0.25500000920E-02 0. -1.
    10030    2    1    2    0    0  0.00000000000E+00  0.00000000000E+00 -0.17759849771E+04  0.19950045297E+04  0.90880164765E+03 0.  0.
        3    1    3    3  502    0  0.11709444238E+03  0.36419146395E+03 -0.34968147454E+03  0.51828918056E+03  0.10100000352E+00 0. -1.
       -3    1    3    3    0  502 -0.11709444238E+03 -0.36419146395E+03 -0.14263035026E+04  0.14767153492E+04  0.10100000352E+00 0.  1.
</event>
<event>
 5   0  0.1454652E-02  0.8578973E+03  0.7818609E-02  0.9479798E-01
       -2   -1    0    0    0  501  0.00000000000E+00  0.00000000000E+00  0.30769084052E+03  0.30769084053E+03  0.25500000920E-02 0.  1.
        2   -1    0    0  501    0  0.00000000000E+00  0.00000000000E+00 -0.59799288709E+03  0.59799288709E+03  0.25500000920E-02 0. -1.
    10030    2    1    2    0    0  0.00000000000E+00  0.00000000000E+00 -0.29030204656E+03  0.90568372763E+03  0.85789727605E+03 0.  0.
        4    1    3    3  502    0 -0.11203591502E+03  0.37507505717E+03  0.40009497357E+02  0.39349169946E+03  0.12699999809E+01 0.  1.
       -4    1    3    3    0  502  0.11203591502E+03 -0.37507505717E+03 -0.33031154392E+03  0.51219202816E+03  0.12699999809E+01 0. -1.
</event>
<event>
 5   0  0.8885324E-03  0.9037648E+03  0.7818609E-02  0.9420887E-01
       -1   -1    0    0    0  501  0.00000000000E+00  0.00000000000E+00  0.26894269938E+03  0.26894269942E+03  0.50400001928E-02 0.  1.
        1   -1    0    0  501    0  0.00000000000E+00  0.00000000000E+00 -0.75926104678E+03  0.75926104679E+03  0.50400001928E-02 0. -1.
    10030    2    1    2    0    0  0.00000000000E+00  0.00000000000E+00 -0.49031834740E+03  0.10282037462E+04  0.90376482668E+03 0.  0.
        2    1    3    3  502    0  0.29897228655E+03  0.20133639543E+03 -0.55522275435E+03  0.66196153907E+03  0.25500000920E-02 0. -1.
       -2    1    3    3    0  502 -0.29897228655E+03 -0.20133639543E+03  0.64904406946E+02  0.36624220715E+03  0.25500000920E-02 0.  1.
</event>
<event>
 5   0  0.1441195E-02  0.8983320E+03  0.7818609E-02  0.9427669E-01
       -2   -1    0    0    0  501  0.00000000000E+00  0.00000000000E+00  0.11958104834E+03  0.11958104837E+03  0.25500000920E-02 0. -1.
        2   -1    0    0  501    0  0.00000000000E+00  0.00000000000E+00 -0.16871409939E+04  0.16871409939E+04  0.25500000920E-02 0.  1.
    10030    2    1    2    0    0  0.00000000000E+00  0.00000000000E+00 -0.15675599456E+04  0.18067220423E+04  0.89833198490E+03 0.  0.
        5    1    3    3  502    0 -0.11059015691E+03  0.36369205316E+03 -0.12648971032E+04  0.13207909993E+04  0.46999998093E+01 0.  1.
       -5    1    3    3    0  502  0.11059015691E+03 -0.36369205316E+03 -0.30266284245E+03  0.48593104298E+03  0.46999998093E+01 0. -1.
</event>
<event>
 5   0  0.8738044E-03  0.7719818E+03  0.7818609E-02  0.9601482E-01
       -1   -1    0    0    0  501  0.00000000000E+00  0.00000000000E+00  0.41068274952E+03  0.41068274955E+03  0.50400001928E-02 0.  1.
        1   -1    0    0  501    0  0.00000000000E+00  0.00000000000E+00 -0.36278358537E+03  0.36278358540E+03  0.50400001928E-02 0. -1.
    10030    2    1    2    0    0  0.00000000000E+00  0.00000000000E+00  0.47899164153E+02  0.77346633496E+03  0.77198176234E+03 0.  0.
        3    1    3    3  502    0 -0.27821388328E+02 -0.32325767518E+03  0.23344351580E+03  0.39970669181E+03  0.10100000352E+00 0.  1.
       -3    1    3    3    0  502  0.27821388328E+02  0.32325767518E+03 -0.18554435164E+03  0.37375964314E+03  0.10100000352E+00 0. -1.
</event>
<event>
 5   0  0.1454652E-02  0.9169698E+03  0.7818609E-02  0.9404613E-01
        2   -1    0    0  501    0  0.00000000000E+00  0.00000000000E+00  0.13018430254E+04  0.13018430254E+04  0.25500000920E-02 0.  1.
       -2   -1    0    0    0  501  0.00000000000E+00  0.00000000000E+00 -0.16146986538E+03  0.16146986540E+03  0.25500000920E-02 0. -1.
    10030    2    1    2    0    0  0.00000000000E+00  0.00000000000E+00  0.11403731600E+04  0.14633128908E+04  0.91696983170E+03 0.  0.
        4    1    3    3  502    0 -0.67767543452E+02 -0.87168488245E+02  0.12803075118E+04  0.12850602021E+04  0.12699999809E+01 0.  1.
       -4    1    3    3    0  502  0.67767543452E+02  0.87168488245E+02 -0.13993435184E+03  0.17825268866E+03  0.12699999809E+01 0. -1.
</event>
<event>
 5   0  0.8291252E-03  0.8870975E+03  0.7818609E-02  0.9441855E-01
        1   -1    0    0  501    0  0.00000000000E+00  0.00000000000E+00  0.55935977296E+03  0.55935977299E+03  0.50400001928E-02 0. -1.
       -1   -1    0    0    0  501  0.00000000000E+00  0.00000000000E+00 -0.35171551494E+03  0.35171551498E+03  0.50400001928E-02 0.  1.
    10030    2    1    2    0    0  0.00000000000E+00  0.00000000000E+00  0.20764425802E+03  0.91107528796E+03  0.88709753829E+03 0.  0.
        1    1    3    3  502    0 -0.32427557832E+03  0.29316900650E+03  0.26741578325E+02  0.43797012353E+03  0.50400001928E-02 0.  1.
       -1    1    3    3    0  502  0.32427557832E+03 -0.29316900650E+03  0.18090267970E+03  0.47310516443E+03  0.50400001928E-02 0. -1.
</event>
<event>
 5   0  0.1441195E-02  0.8667909E+03  0.7818609E-02  0.9468074E-01
        2   -1    0    0  501    0  0.00000000000E+00  0.00000000000E+00  0.54912581050E+03  0.54912581050E+03  0.25500000920E-02 0. -1.
       -2   -1    0    0    0  501  0.00000000000E+00  0.00000000000E+00 -0.34205570990E+03  0.34205570991E+03  0.25500000920E-02 0.  1.
    10030    2    1    2    0    0  0.00000000000E+00  0.00000000000E+00  0.20707010059E+03  0.89118152042E+03  0.86679090660E+03 0.  0.
        5    1    3    3  502    0 -0.39915539489E+03  0.13022366729E+03  0.21391665737E+03  0.47123843126E+03  0.46999998093E+01 0.  1.
       -5    1    3    3    0  502  0.39915539489E+03 -0.13022366729E+03 -0.68465567750E+01  0.41994308916E+03  0.46999998093E+01 0. -1.
</event>
<event>
 5   0  0.8524692E-03  0.9111501E+03  0.7818609E-02  0.9411750E-01
        1   -1    0    0  501    0  0.00000000000E+00  0.00000000000E+00  0.28245499494E+03  0.28245499498E+03  0.50400001928E-02 0.  1.
       -1   -1    0    0    0  501  0.00000000000E+00  0.00000000000E+00 -0.73480240379E+03  0.73480240380E+03  0.50400001928E-02 0. -1.
    10030    2    1    2    0    0  0.00000000000E+00  0.00000000000E+00 -0.45234740885E+03  0.10172573988E+04  0.91115006289E+03 0.  0.
        5    1    3    3  502    0 -0.22671307273E+03  0.25244647250E+03 -0.56554363713E+03  0.65953751547E+03  0.46999998093E+01 0. -1.
       -5    1    3    3    0  502  0.22671307273E+03 -0.25244647250E+03  0.11319622828E+03  0.35771988331E+03  0.46999998093E+01 0.  1.
</event>
<event>
 5   0  0.8524692E-03  0.8538119E+03  0.7818609E-02  0.9485235E-01
       -1   -1    0    0    0  501  0.00000000000E+00  0.00000000000E+00  0.34957069125E+03  0.34957069128E+03  0.50400001928E-02 0. -1.
        1   -1    0    0  501    0  0.00000000000E+00  0.00000000000E+00 -0.52134998215E+03  0.52134998217E+03  0.50400001928E-02 0.  1.
    10030    2    1    2    0    0  0.00000000000E+00  0.00000000000E+00 -0.17177929090E+03  0.87092067346E+03  0.85381186140E+03 0.  0.
        5    1    3    3  502    0  0.16284148133E+03 -0.14234208749E+03  0.28951760776E+03  0.36141548543E+03  0.46999998093E+01 0. -1.
       -5    1    3    3    0  502 -0.16284148133E+03  0.14234208749E+03 -0.46129689866E+03  0.50950518802E+03  0.46999998093E+01 0.  1.
</event>
<event>
 5   0  0.1441195E-02  0.9126105E+03  0.7818609E-02  0.9409954E-01
       -2   -1    0    0    0  501  0.00000000000E+00  0.00000000000E+00  0.38330843111E+03  0.38330843112E+03  0.25500000920E-02 0.  1.
        2   -1    0    0  501    0  0.00000000000E+00  0.00000000000E+00 -0.54320344972E+03  0.54320344972E+03  0.25500000920E-02 0. -1.
    10030    2    1    2    0    0  0.00000000000E+00  0.00000000000E+00 -0.15989501860E+03  0.92651188084E+03  0.91261045817E+03 0.  0.
        5    1    3    3  502    0  0.21918339539E+03  0.34395677864E+03  0.12772835084E+03  0.42741577883E+03  0.46999998093E+01 0.  1.
       -5    1    3    3    0  502 -0.21918339539E+03 -0.34395677864E+03 -0.28762336944E+03  0.49909610201E+03  0.46999998093E+01 0. -1.
</event>
<event>
 5   0  0.8612969E-03  0.9037189E+03  0.7818609E-02  0.9420944E-01
        1   -1    0    0  501    0  0.00000000000E+00  0.00000000000E+00  0.42690170528E+03  0.42690170531E+03  0.50400001928E-02 0.  1.
       -1   -1    0    0    0  501  0.00000000000E+00  0.00000000000E+00 -0.47827633284E+03  0.47827633287E+03  0.50400001928E-02 0. -1.
    10030    2    1    2    0    0  0.00000000000E+00  0.00000000000E+00 -0.51374627566E+02  0.90517803818E+03  0.90371894328E+03 0.  0.
        4    1    3    3  502    0  0.20481380183E+03 -0.12065822569E+03  0.35920940928E+03  0.43074367490E+03  0.12699999809E+01 0.  1.
       -4    1    3    3    0  502 -0.20481380183E+03  0.12065822569E+03 -0.41058403685E+03  0.47443436328E+03  0.12699999809E+01 0. -1.
</event>
<event>
 5   0  0.8612969E-03  0.9243906E+03  0.7818609E-02  0.9395595E-01
        1   -1    0    0  501    0  0.00000000000E+00  0.00000000000E+00  0.50032409785E+03  0.50032409788E+03  0.50400001928E-02 0.  1.
       -1   -1    0    0    0  501  0.00000000000E+00  0.00000000000E+00 -0.42697221068E+03  0.42697221071E+03  0.50400001928E-02 0. -1.
    10030    2    1    2    0    0  0.00000000000E+00  0.00000000000E+00  0.73351887174E+02  0.92729630859E+03  0.92439058009E+03 0.  0.
        4    1    3    3  502    0  0.53065152593E+01  0.33782728438E+03 -0.27970002676E+03  0.43862187708E+03  0.12699999809E+01 0. -1.
       -4    1    3    3    0  502 -0.53065152593E+01 -0.33782728438E+03  0.35305191394E+03  0.48867443151E+03  0.12699999809E+01 0.  1.
</event>
<event>
 5   0  0.8524692E-03  0.8836344E+03  0.7818609E-02  0.9446274E-01
       -1   -1    0    0    0  501  0.00000000000E+00  0.00000000000E+00  0.23459927945E+03  0.23459927951E+03  0.50400001928E-02 0.  1.
        1   -1    0    0  501    0  0.00000000000E+00  0.00000000000E+00 -0.83206748374E+03  0.83206748375E+03  0.50400001928E-02 0. -1.
    10030    2    1    2    0    0  0.00000000000E+00  0.00000000000E+00 -0.59746820428E+03  0.10666667633E+04  0.88363438634E+03 0.  0.
        5    1    3    3  502    0  0.25622701711E+03 -0.75512563108E+02  0.12604380452E+03  0.29540406588E+03  0.46999998093E+01 0.  1.
       -5    1    3    3    0  502 -0.25622701711E+03  0.75512563108E+02 -0.72351200881E+03  0.77126269738E+03  0.46999998093E+01 0. -1.
</event>
<event>
 5   0  0.8885324E-03  0.9101097E+03  0.7818609E-02  0.9413031E-01
        1   -1    0    0  501    0  0.00000000000E+00  0.00000000000E+00  0.36178884011E+03  0.36178884014E+03  0.50400001928E-02 0. -1.
       -1   -1    0    0    0  501  0.00000000000E+00  0.00000000000E+00 -0.57236399428E+03  0.57236399430E+03  0.50400001928E-02 0.  1.
    10030    2    1    2    0    0  0.00000000000E+00  0.00000000000E+00 -0.21057515417E+03  0.93415283444E+03  0.91010967611E+03 0.  0.
        2    1    3    3  502    0 -0.39973409603E+03  0.16962002871E+03 -0.24495813665E+03  0.49856071886E+03  0.25500000920E-02 0.  1.
       -2    1    3    3    0  502  0.39973409603E+03 -0.16962002871E+03  0.34382982477E+02  0.43559211559E+03  0.25500000920E-02 0. -1.
</event>
<event>
 5   0  0.8612969E-03  0.9044420E+03  0.7818609E-02  0.9420046E-01
       -1   -1    0    0    0  501  0.00000000000E+00  0.00000000000E+00  0.29075848935E+03  0.29075848939E+03  0.50400001928E-02 0. -1.
        1   -1    0    0  501    0  0.00000000000E+00  0.00000000000E+00 -0.70334603429E+03  0.70334603431E+03  0.50400001928E-02 0.  1.
    10030    2    1    2    0    0  0.00000000000E+00  0.00000000000E+00 -0.41258754494E+03  0.99410452370E+03  0.90444199471E+03 0.  0.
        4    1    3    3  502    0  0.93400430384E+00 -0.24553321928E+03 -0.62369740278E+03  0.67028911469E+03  0.12699999809E+01 0.  1.
       -4    1    3    3    0  502 -0.93400430384E+00  0.24553321928E+03  0.21110985785E+03  0.32381540901E+03  0.12699999809E+01 0. -1.
</event>
<event>
 5   0  0.8612969E-03  0.9311934E+03  0.7818609E-02  0.9387407E-01
       -1   -1    0    0    0  501  0.00000000000E+00  0.00000000000E+00  0.15605921310E+03  0.15605921318E+03  0.50400001928E-02 0.  1.
        1   -1    0    0  501    0  0.00000000000E+00  0.00000000000E+00 -0.13890900108E+04  0.13890900109E+04  0.50400001928E-02 0. -1.
    10030    2    1    2    0    0  0.00000000000E+00  0.00000000000E+00 -0.12330307977E+04  0.15451492240E+04  0.93119341511E+03 0.  0.
        4    1    3    3  502    0  0.37567964458E+03  0.25423942722E+02 -0.16210025837E+03  0.40995082496E+03  0.12699999809E+01 0.  1.
       -4    1    3    3    0  502 -0.37567964458E+03 -0.25423942722E+02 -0.10709305394E+04  0.11351983991E+04  0.12699999809E+01 0. -1.
</event>
<event>
 5   0  0.8291252E-03  0.8868910E+03  0.7818609E-02  0.9442118E-01
        1   -1    0    0  501    0  0.00000000000E+00  0.00000000000E+00  0.68384690589E+03  0.68384690591E+03  0.50400001928E-02 0. -1.
       -1   -1    0    0    0  501  0.00000000000E+00  0.00000000000E+00 -0.28755544130E+03  0.28755544134E+03  0.50400001928E-02 0.  1.
    10030    2    1    2    0    0  0.00000000000E+00  0.00000000000E+00  0.39629146460E+03  0.97140234725E+03  0.88689097151E+03 0.  0.
        1    1    3    3  502    0 -0.21315238500E+03 -0.23506263997E+03  0.53743012693E+03  0.62411499365E+03  0.50400001928E-02 0. -1.
       -1    1    3    3    0  502  0.21315238500E+03  0.23506263997E+03 -0.14113866234E+03  0.34728735360E+03  0.50400001928E-02 0.  1.
</event>
<event>
 5   0  0.1535906E-02  0.9037448E+03  0.7818609E-02  0.9420912E-01
        2   -1    0    0  501    0  0.00000000000E+00  0.00000000000E+00  0.75448638967E+03  0.75448638968E+03  0.25500000920E-02 0. -1.
       -2   -1    0    0    0  501  0.00000000000E+00  0.00000000000E+00 -0.27063264458E+03  0.27063264459E+03  0.25500000920E-02 0.  1.
    10030    2    1    2    0    0  0.00000000000E+00  0.00000000000E+00  0.48385374509E+03  0.10251190343E+04  0.90374475809E+03 0.  0.
        2    1    3    3  502    0 -0.19474583202E+02  0.31423716259E+03 -0.12574150995E+03  0.33902091540E+03  0.25500000920E-02 0.  1.
       -2    1    3    3    0  502  0.19474583202E+02 -0.31423716259E+03  0.60959525504E+03  0.68609811887E+03  0.25500000920E-02 0. -1.
</event>
<event>
 5   0  0.8291252E-03  0.9017429E+03  0.7818609E-02  0.9423405E-01
        1   -1    0    0  501    0  0.00000000000E+00  0.00000000000E+00  0.98758062861E+03  0.98758062862E+03  0.50400001928E-02 0.  1.
       -1   -1    0    0    0  501  0.00000000000E+00  0.00000000000E+00 -0.20584147875E+03  0.20584147882E+03  0.50400001928E-02 0. -1.
    10030    2    1    2    0    0  0.00000000000E+00  0.00000000000E+00  0.78173914986E+03  0.11934221074E+04  0.90174288359E+03 0.  0.
        1    1    3    3  502    0 -0.27460519706E+03 -0.15367232093E+03 -0.36470960961E+02  0.31678593323E+03  0.50400001928E-02 0. -1.
       -1    1    3    3    0  502  0.27460519706E+03  0.15367232093E+03  0.81821011082E+03  0.87663617421E+03  0.50400001928E-02 0.  1.
</event>
<event>
 5   0  0.8612969E-03  0.8726565E+03  0.7818609E-02  0.9460423E-01
       -1   -1    0    0    0  501  0.00000000000E+00  0.00000000000E+00  0.12287576021E+03  0.12287576032E+03  0.50400001928E-02 0. -1.
        1   -1    0    0  501    0  0.00000000000E+00  0.00000000000E+00 -0.15493888991E+04  0.15493888991E+04  0.50400001928E-02 0.  1.
    10030    2    1    2    0    0  0.00000000000E+00  0.00000000000E+00 -0.14265131389E+04  0.16722646594E+04  0.87265649355E+03 0.  0.
        4    1    3    3  502    0 -0.12742709306E+03  0.32160293371E+03 -0.12228411494E+04  0.12708297292E+04  0.12699999809E+01 0.  1.
       -4    1    3    3    0  502  0.12742709306E+03 -0.32160293371E+03 -0.20367198950E+03  0.40143493025E+03  0.12699999809E+01 0. -1.
</event>
<event>
 5   0  0.1441195E-02  0.8916593E+03  0.7818609E-02  0.9436068E-01
        2   -1    0    0  501    0  0.00000000000E+00  0.00000000000E+00  0.89130067247E+03  0.89130067247E+03  0.25500000920E-02 0. -1.
       -2   -1    0    0    0  501  0.00000000000E+00  0.00000000000E+00 -0.22300451014E+03  0.22300451015E+03  0.25500000920E-02 0.  1.
    10030    2    1    2    0    0  0.00000000000E+00  0.00000000000E+00  0.66829616233E+03  0.11143051826E+04  0.89165928439E+03 0.  0.
        5    1    3    3  502    0  0.16726576187E+03  0.16838333612E+03  0.80575186685E+03  0.83999341897E+03  0.46999998093E+01 0. -1.
       -5    1    3    3    0  502 -0.16726576187E+03 -0.16838333612E+03 -0.13745570452E+03  0.27431176366E+03  0.46999998093E+01 0.  1.
</event>
<event>
 5   0  0.5770125E-03  0.9233615E+03  0.7818609E-02  0.9396840E-01
       -4   -1    0    0    0  501  0.00000000000E+00  0.00000000000E+00  0.59324322554E+03  0.59324458493E+03  0.12699999809E+01 0. -1.
        4   -1    0    0  501    0  0.00000000000E+00  0.00000000000E+00 -0.35929178511E+03  0.35929402965E+03  0.12699999809E+01 0.  1.
    10030    2    1    2    0    0  0.00000000000E+00  0.00000000000E+00  0.23395144043E+03  0.95253861458E+03  0.92336154121E+03 0.  0.
        2    1    3    3  502    0  0.13247861926E+03  0.38495559367E+03 -0.10763756296E+03  0.42110240872E+03  0.25500000920E-02 0.  1.
       -2    1    3    3    0  502 -0.13247861926E+03 -0.38495559367E+03  0.34158900339E+03  0.53143620587E+03  0.25500000920E-02 0. -1.
</event>
<event>
 5   0  0.8738044E-03  0.9107209E+03  0.7818609E-02  0.9412278E-01
       -1   -1    0    0    0  501  0.00000000000E+00  0.00000000000E+00  0.15337626371E+03  0.15337626380E+03  0.50400001928E-02 0. -1.
        1   -1    0    0  501    0  0.00000000000E+00  0.00000000000E+00 -0.13519246502E+04  0.13519246502E+04  0.50400001928E-02 0.  1.
    10030    2    1    2    0    0  0.00000000000E+00  0.00000000000E+00 -0.11985483864E+04  0.15053009140E+04  0.91072092703E+03 0.  0.
        3    1    3    3  502    0 -0.19350472548E+03  0.37692240473E+03 -0.32349504850E+03  0.53307000907E+03  0.10100000352E+00 0. -1.
       -3    1    3    3    0  502  0.19350472548E+03 -0.37692240473E+03 -0.87505333795E+03  0.97223090489E+03  0.10100000352E+00 0.  1.
</event>
<event>
 5   0  0.8612969E-03  0.8933350E+03  0.7818609E-02  0.9433952E-01
        1   -1    0    0  501    0  0.00000000000E+00  0.00000000000E+00  0.83877876457E+03  0.83877876459E+03  0.50400001928E-02 0. -1.
       -1   -1    0    0    0  501  0.00000000000E+00  0.00000000000E+00 -0.23785994608E+03  0.23785994613E+03  0.50400001928E-02 0.  1.
    10030    2    1    2    0    0  0.00000000000E+00  0.00000000000E+00  0.60091881850E+03  0.10766387107E+04  0.89333503625E+03 0.  0.
        4    1    3    3  502    0 -0.27057859738E+03  0.26882411904E+03  0.58060089388E+03  0.69467848334E+03  0.12699999809E+01 0. -1.
       -4    1    3    3    0  502  0.27057859738E+03 -0.26882411904E+03  0.20317924613E+02  0.38196022738E+03  0.12699999809E+01 0.  1.
</event>
<event>
 5   0  0.8885324E-03  0.8988130E+03  0.7818609E-02  0.9427066E-01
        1   -1    0    0  501    0  0.00000000000E+00  0.00000000000E+00  0.48552362032E+03  0.48552362034E+03  0.50400001928E-02 0.  1.
       -1   -1    0    0    0  501  0.00000000000E+00  0.00000000000E+00 -0.41597606325E+03  0.41597606328E+03  0.50400001928E-02 0. -1.
    10030    2    1    2    0    0  0.00000000000E+00  0.00000000000E+00  0.69547557064E+02  0.90149968363E+03  0.89881300440E+03 0.  0.
        2    1    3    3  502    0 -0.71711323940E+02 -0.19001848555E+03  0.43686694072E+03  0.48176992718E+03  0.25500000920E-02 0.  1.
       -2    1    3    3    0  502  0.71711323940E+02  0.19001848555E+03 -0.36731938366E+03  0.41972975645E+03  0.25500000920E-02 0. -1.
</event>
<event>
 5   0  0.1454652E-02  0.8938978E+03  0.7818609E-02  0.9433242E-01
       -2   -1    0    0    0  501  0.00000000000E+00  0.00000000000E+00  0.11517645811E+03  0.11517645814E+03  0.25500000920E-02 0. -1.
        2   -1    0    0  501    0  0.00000000000E+00  0.00000000000E+00 -0.17344109063E+04  0.17344109063E+04  0.25500000920E-02 0.  1.
    10030    2    1    2    0    0  0.00000000000E+00  0.00000000000E+00 -0.16192344482E+04  0.18495873644E+04  0.89389776847E+03 0.  0.
        4    1    3    3  502    0  0.21827756689E+02 -0.36872902171E+03 -0.13302981645E+04  0.13806275246E+04  0.12699999809E+01 0.  1.
       -4    1    3    3    0  502 -0.21827756689E+02  0.36872902171E+03 -0.28893628371E+03  0.46895983982E+03  0.12699999809E+01 0. -1.
</event>
<event>
 5   0  0.8524692E-03  0.8918617E+03  0.7818609E-02  0.9435812E-01
       -1   -1    0    0    0  501  0.00000000000E+00  0.00000000000E+00  0.74441706102E+03  0.74441706104E+03  0.50400001928E-02 0.  1.
        1   -1    0    0  501    0  0.00000000000E+00  0.00000000000E+00 -0.26712758693E+03  0.26712758698E+03  0.50400001928E-02 0. -1.
    10030    2    1    2    0    0  0.00000000000E+00  0.00000000000E+00  0.47728947410E+03  0.10115446480E+04  0.89186172294E+03 0.  0.
        5    1    3    3  502    0  0.27957296550E+03 -0.26000894585E+03 -0.22630319980E+02  0.38249172062E+03  0.46999998093E+01 0. -1.
       -5    1    3    3    0  502 -0.27957296550E+03  0.26000894585E+03  0.49991979407E+03  0.62905292740E+03  0.46999998093E+01 0.  1.
</event>
<event>
 5   0  0.8738044E-03  0.8401194E+03  0.7818609E-02  0.9503695E-01
        1   -1    0    0  501    0  0.00000000000E+00  0.00000000000E+00  0.29231593263E+03  0.29231593268E+03  0.50400001928E-02 0. -1.
       -1   -1    0    0    0  501  0.00000000000E+00  0.00000000000E+00 -0.60362830694E+03  0.60362830696E+03  0.50400001928E-02 0.  1.
    10030    2    1    2    0    0  0.00000000000E+00  0.00000000000E+00 -0.31131237430E+03  0.89594423963E+03  0.84011944754E+03 0.  0.
        3    1    3    3  502    0  0.34122639999E+03 -0.12372317915E+03  0.69834738081E+02  0.36962113299E+03  0.10100000352E+00 0. -1.
       -3    1    3    3    0  502 -0.34122639999E+03  0.12372317915E+03 -0.38114711238E+03  0.52632310664E+03  0.10100000352E+00 0.  1.
</event>
<event>
 5   0  0.1535906E-02  0.9111648E+03  0.7818609E-02  0.9411731E-01
        2   -1    0    0  501    0  0.00000000000E+00  0.00000000000E+00  0.77825299568E+03  0.77825299568E+03  0.25500000920E-02 0.  1.
       -2   -1    0    0    0  501  0.00000000000E+00  0.00000000000E+00 -0.26669391040E+03  0.26669391041E+03  0.25500000920E-02 0. -1.
    10030    2    1    2    0    0  0.00000000000E+00  0.00000000000E+00  0.51155908528E+03  0.10449469061E+04  0.91116482527E+03 0.  0.
        2    1    3    3  502    0  0.41785959517E+03  0.11507364144E+03  0.41677172490E+03  0.60128799665E+03  0.25500000920E-02 0. -1.
       -2    1    3    3    0  502 -0.41785959517E+03 -0.11507364144E+03  0.94787360386E+02  0.44365890944E+03  0.25500000920E-02 0.  1.
</event>
<event>
 5   0  0.1441195E-02  0.8675484E+03  0.7818609E-02  0.9467082E-01
        2   -1    0    0  501    0  0.00000000000E+00  0.00000000000E+00  0.14241157773E+04  0.14241157773E+04  0.25500000920E-02 0.  1.
       -2   -1    0    0    0  501  0.00000000000E+00  0.00000000000E+00 -0.13212414356E+03  0.13212414358E+03  0.25500000920E-02 0. -1.
    10030    2    1    2    0    0  0.00000000000E+00  0.00000000000E+00  0.12919916338E+04  0.15562399209E+04  0.86754844804E+03 0.  0.
        5    1    3    3  502    0 -0.17612376191E+03  0.20832226591E+03  0.41070583036E+02  0.27591054487E+03  0.46999998093E+01 0. -1.
       -5    1    3    3    0  502  0.17612376191E+03 -0.20832226591E+03  0.12509210507E+04  0.12803293760E+04  0.46999998093E+01 0.  1.
</event>
<event>
 5   0  0.1440615E-02  0.9050921E+03  0.7818609E-02  0.9419238E-01
       -2   -1    0    0    0  501  0.00000000000E+00  0.00000000000E+00  0.16318737667E+03  0.16318737669E+03  0.25500000920E-02 0.  1.
        2   -1    0    0  501    0  0.00000000000E+00  0.00000000000E+00 -0.12549862239E+04  0.12549862240E+04  0.25500000920E-02 0. -1.
    10030    2    1    2    0    0  0.00000000000E+00  0.00000000000E+00 -0.10917988473E+04  0.14181736006E+04  0.90509206086E+03 0.  0.
        3    1    3    3  502    0  0.13917456046E+03 -0.40402657249E+03 -0.77931175955E+03  0.88878223336E+03  0.10100000352E+00 0. -1.
       -3    1    3    3    0  502 -0.13917456046E+03  0.40402657249E+03 -0.31248708773E+03  0.52939136728E+03  0.10100000352E+00 0.  1.
</event>
<event>
 5   0  0.5770125E-03  0.9021293E+03  0.7818609E-02  0.9422924E-01
       -4   -1    0    0    0  501  0.00000000000E+00  0.00000000000E+00  0.72332394366E+03  0.72332505858E+03  0.12699999809E+01 0. -1.
        4   -1    0    0  501    0  0.00000000000E+00  0.00000000000E+00 -0.28128103731E+03  0.28128390435E+03  0.12699999809E+01 0.  1.
    10030    2    1    2    0    0  0.00000000000E+00  0.00000000000E+00  0.44204290635E+03  0.10046089629E+04  0.90212927973E+03 0.  0.
        5    1    3    3  502    0 -0.10286090463E+03 -0.43342173792E+03  0.14225891917E+03  0.46764779341E+03  0.46999998093E+01 0.  1.
       -5    1    3    3    0  502  0.10286090463E+03  0.43342173792E+03  0.29978398718E+03  0.53696116952E+03  0.46999998093E+01 0. -1.
</event>
<event>
 5   0  0.1440615E-02  0.8988568E+03  0.7818609E-02  0.9427012E-01
       -2   -1    0    0    0  501  0.00000000000E+00  0.00000000000E+00  0.30274112197E+03  0.30274112198E+03  0.25500000920E-02 0.  1.
        2   -1    0    0  501    0  0.00000000000E+00  0.00000000000E+00 -0.66719018369E+03  0.66719018370E+03  0.25500000920E-02 0. -1.
    10030    2    1    2    0    0  0.00000000000E+00  0.00000000000E+00 -0.36444906172E+03  0.96993130567E+03  0.89885684017E+03 0.  0.
        3    1    3    3  502    0 -0.26860858223E+03  0.13953206647E+03  0.17625829103E+03  0.35026670321E+03  0.10100000352E+00 0.  1.
       -3    1    3    3    0  502  0.26860858223E+03 -0.13953206647E+03 -0.54070735275E+03  0.61966460246E+03  0.10100000352E+00 0. -1.
</event>
<event>
 5   0  0.8524692E-03  0.8882569E+03  0.7818609E-02  0.9440381E-01
       -1   -1    0    0    0  501  0.00000000000E+00  0.00000000000E+00  0.23195022152E+03  0.23195022158E+03  0.50400001928E-02 0. -1.
        1   -1    0    0  501    0  0.00000000000E+00  0.00000000000E+00 -0.85039828342E+03  0.85039828343E+03  0.50400001928E-02 0.  1.
    10030    2    1    2    0    0  0.00000000000E+00  0.00000000000E+00 -0.61844806190E+03  0.10823485050E+04  0.88825687784E+03 0.  0.
        5    1    3    3  502    0  0.14181060996E+03 -0.41193429851E+03 -0.41424125636E+03  0.60118052518E+03  0.46999998093E+01 0.  1.
       -5    1    3    3    0  502 -0.14181060996E+03  0.41193429851E+03 -0.20420680554E+03  0.48116797983E+03  0.46999998093E+01 0. -1.
</event>
<event>
 5   0  0.8738044E-03  0.8552611E+03  0.7818609E-02  0.9483303E-01
        1   -1    0    0  501    0  0.00000000000E+00  0.00000000000E+00  0.59854722218E+03  0.59854722221E+03  0.50400001928E-02 0. -1.
       -1   -1    0    0    0  501  0.00000000000E+00  0.00000000000E+00 -0.30551956486E+03  0.30551956491E+03  0.50400001928E-02 0.  1.
    10030    2    1    2    0    0  0.00000000000E+00  0.00000000000E+00  0.29302765732E+03  0.90406678711E+03  0.85526109908E+03 0.  0.
        3    1    3    3  502    0  0.19959574521E+03 -0.23929471974E+03 -0.16305915341E+03  0.35169407460E+03  0.10100000352E+00 0.  1.
       -3    1    3    3    0  502 -0.19959574521E+03  0.23929471974E+03  0.45608681073E+03  0.55237271251E+03  0.10100000352E+00 0. -1.
</event>
<event>
 5   0  0.5770125E-03  0.9146287E+03  0.7818609E-02  0.9407477E-01
        3   -1    0    0  501    0  0.00000000000E+00  0.00000000000E+00  0.25350800268E+03  0.25350802280E+03  0.10100000352E+00 0. -1.
       -3   -1    0    0    0  501  0.00000000000E+00  0.00000000000E+00 -0.82496960396E+03  0.82496961015E+03  0.10100000352E+00 0.  1.
    10030    2    1    2    0    0  0.00000000000E+00  0.00000000000E+00 -0.57146160128E+03  0.10784776329E+04  0.91462869135E+03 0.  0.
        1    1    3    3  502    0 -0.94282227691E+02 -0.24585156060E+02 -0.81258833355E+03  0.81840904700E+03  0.50400001928E-02 0.  1.
       -1    1    3    3    0  502  0.94282227691E+02  0.24585156060E+02  0.24112673227E+03  0.26006858595E+03  0.50400001928E-02 0. -1.
</event>
<event>
 5   0  0.8612969E-03  0.9005506E+03  0.7818609E-02  0.9424893E-01
        1   -1    0    0  501    0  0.00000000000E+00  0.00000000000E+00  0.78158354790E+03  0.78158354792E+03  0.50400001928E-02 0. -1.
       -1   -1    0    0    0  501  0.00000000000E+00  0.00000000000E+00 -0.25940651066E+03  0.25940651071E+03  0.50400001928E-02 0.  1.
    10030    2    1    2    0    0  0.00000000000E+00  0.00000000000E+00  0.52217703724E+03  0.10409900586E+04  0.90055063375E+03 0.  0.
        4    1    3    3  502    0  0.35059392571E+01 -0.32624577247E+03  0.61980084109E+03  0.70043078971E+03  0.12699999809E+01 0. -1.
       -4    1    3    3    0  502 -0.35059392571E+01  0.32624577247E+03 -0.97623803850E+02  0.34055926892E+03  0.12699999809E+01 0.  1.
</event>
<event>
 5   0  0.1454652E-02  0.9002570E+03  0.7818609E-02  0.9425260E-01
       -2   -1    0    0    0  501  0.00000000000E+00  0.00000000000E+00  0.10199260079E+03  0.10199260082E+03  0.25500000920E-02 0. -1.
        2   -1    0    0  501    0  0.00000000000E+00  0.00000000000E+00 -0.19865723210E+04  0.19865723210E+04  0.25500000920E-02 0.  1.
    10030    2    1    2    0    0  0.00000000000E+00  0.00000000000E+00 -0.18845797202E+04  0.20885649218E+04  0.90025702488E+03 0.  0.
        4    1    3    3  502    0 -0.14330624925E+03  0.27526430408E+03 -0.18587111470E+03  0.36174134731E+03  0.12699999809E+01 0. -1.
       -4    1    3    3    0  502  0.14330624925E+03 -0.27526430408E+03 -0.16987086055E+04  0.17268235745E+04  0.12699999809E+01 0.  1.
</event>
<event>
 5   0  0.8612969E-03  0.8957167E+03  0.7818609E-02  0.9430952E-01
       -1   -1    0    0    0  501  0.00000000000E+00  0.00000000000E+00  0.50664150806E+03  0.50664150808E+03  0.50400001928E-02 0.  1.
        1   -1    0    0  501    0  0.00000000000E+00  0.00000000000E+00 -0.39589554617E+03  0.39589554620E+03  0.50400001928E-02 0. -1.
    10030    2    1    2    0    0  0.00000000000E+00  0.00000000000E+00  0.11074596189E+03  0.90253705429E+03  0.89571673329E+03 0.  0.
        4    1    3    3  502    0 -0.31889403760E+03  0.22930637382E+03 -0.16144138470E+03  0.42466428374E+03  0.12699999809E+01 0. -1.
       -4    1    3    3    0  502  0.31889403760E+03 -0.22930637382E+03  0.27218734658E+03  0.47787277055E+03  0.12699999809E+01 0.  1.
</event>
<event>
 5   0  0.1441195E-02  0.7975555E+03  0.7818609E-02  0.9563562E-01
        2   -1    0    0  501    0  0.00000000000E+00  0.00000000000E+00  0.16739694334E+04  0.16739694334E+04  0.25500000920E-02 0.  1.
       -2   -1    0    0    0  501  0.00000000000E+00  0.00000000000E+00 -0.94997959732E+02  0.94997959766E+02  0.25500000920E-02 0. -1.
    10030    2    1    2    0    0  0.00000000000E+00  0.00000000000E+00  0.15789714736E+04  0.17689673931E+04  0.79755546730E+03 0.  0.
        5    1    3    3  502    0  0.23891924374E+03  0.23977644560E+03  0.32198780099E+03  0.46719737036E+03  0.46999998093E+01 0. -1.
       -5    1    3    3    0  502 -0.23891924374E+03 -0.23977644560E+03  0.12569836727E+04  0.13017700228E+04  0.46999998093E+01 0.  1.
</event>
<event>
 5   0  0.8738044E-03  0.8845138E+03  0.7818609E-02  0.9445150E-01
        1   -1    0    0  501    0  0.00000000000E+00  0.00000000000E+00  0.38464727956E+03  0.38464727959E+03  0.50400001928E-02 0. -1.
       -1   -1    0    0    0  501  0.00000000000E+00  0.00000000000E+00 -0.50849491879E+03  0.50849491881E+03  0.50400001928E-02 0.  1.
    10030    2    1    2    0    0  0.00000000000E+00  0.00000000000E+00 -0.12384763923E+03  0.89314219841E+03  0.88451384886E+03 0.  0.
        3    1    3    3  502    0  0.25270310478E+03  0.56462056386E+02  0.30010444211E+03  0.39637041937E+03  0.10100000352E+00 0. -1.
       -3    1    3    3    0  502 -0.25270310478E+03 -0.56462056386E+02 -0.42395208134E+03  0.49677177904E+03  0.10100000352E+00 0.  1.
</event>
<event>
 5   0  0.1535906E-02  0.9279257E+03  0.7818609E-02  0.9391331E-01
       -2   -1    0    0    0  501  0.00000000000E+00  0.00000000000E+00  0.19096251538E+03  0.19096251539E+03  0.25500000920E-02 0.  1.
        2   -1    0    0  501    0  0.00000000000E+00  0.00000000000E+00 -0.11272449043E+04  0.11272449043E+04  0.25500000920E-02 0. -1.
    10030    2    1    2    0    0  0.00000000000E+00  0.00000000000E+00 -0.93628238895E+03  0.13182074197E+04  0.92792569183E+03 0.  0.
        2    1    3    3  502    0  0.37695250006E+03 -0.21396234918E+03 -0.23304030853E+03  0.49211874540E+03  0.25500000920E-02 0.  1.
       -2    1    3    3    0  502 -0.37695250006E+03  0.21396234918E+03 -0.70324208043E+03  0.82608867433E+03  0.25500000920E-02 0. -1.
</event>
<event>
 5   0  0.1454652E-02  0.8925823E+03  0.7818609E-02  0.9434902E-01
       -2   -1    0    0    0  501  0.00000000000E+00  0.00000000000E+00  0.34522680255E+03  0.34522680256E+03  0.25500000920E-02 0.  1.
        2   -1    0    0  501    0  0.00000000000E+00  0.00000000000E+00 -0.57694190304E+03  0.57694190305E+03  0.25500000920E-02 0. -1.
    10030    2    1    2    0    0  0.00000000000E+00  0.00000000000E+00 -0.23171510049E+03  0.92216870560E+03  0.89258234006E+03 0.  0.
        4    1    3    3  502    0  0.71358345258E+02 -0.46745327795E+02 -0.56843847616E+03  0.57480523065E+03  0.12699999809E+01 0. -1.
       -4    1    3    3    0  502 -0.71358345258E+02  0.46745327795E+02  0.33672337567E+03  0.34736347495E+03  0.12699999809E+01 0.  1.
</event>
<event>
 5   0  0.1535906E-02  0.8895383E+03  0.7818609E-02  0.9438754E-01
       -2   -1    0    0    0  501  0.00000000000E+00  0.00000000000E+00  0.17565193628E+03  0.17565193630E+03  0.25500000920E-02 0. -1.
        2   -1    0    0  501    0  0.00000000000E+00  0.00000000000E+00 -0.11262021746E+04  0.11262021746E+04  0.25500000920E-02 0.  1.
    10030    2    1    2    0    0  0.00000000000E+00  0.00000000000E+00 -0.95055023831E+03  0.13018541109E+04  0.88953829062E+03 0.  0.
        2    1    3    3  502    0 -0.39258629145E+03 -0.12861834746E+03 -0.71643547621E+03  0.82701056046E+03  0.25500000920E-02 0.  1.
       -2    1    3    3    0  502  0.39258629145E+03  0.12861834746E+03 -0.23411476209E+03  0.47484355042E+03  0.25500000920E-02 0. -1.
</event>
<event>
 5   0  0.8612969E-03  0.8863153E+03  0.7818609E-02  0.9442852E-01
        1   -1    0    0  501    0  0.00000000000E+00  0.00000000000E+00  0.46301801875E+03  0.46301801878E+03  0.50400001928E-02 0. -1.
       -1   -1    0    0    0  501  0.00000000000E+00  0.00000000000E+00 -0.42414912885E+03  0.42414912888E+03  0.50400001928E-02 0.  1.
    10030    2    1    2    0    0  0.00000000000E+00  0.00000000000E+00  0.38868889898E+02  0.88716714766E+03  0.88631526969E+03 0.  0.
        4    1    3    3  502    0  0.66346016164E+01 -0.28535067565E+03  0.35875591862E+03  0.45845004971E+03  0.12699999809E+01 0. -1.
       -4    1    3    3    0  502 -0.66346016164E+01  0.28535067565E+03 -0.31988702872E+03  0.42871709795E+03  0.12699999809E+01 0.  1.
</event>
<event>
 5   0  0.1441195E-02  0.9031604E+03  0.7818609E-02  0.9421639E-01
       -2   -1    0    0    0  501  0.00000000000E+00  0.00000000000E+00  0.11325929342E+03  0.11325929345E+03  0.25500000920E-02 0. -1.
        2   -1    0    0  501    0  0.00000000000E+00  0.00000000000E+00 -0.18005116745E+04  0.18005116745E+04  0.25500000920E-02 0.  1.
    10030    2    1    2    0    0  0.00000000000E+00  0.00000000000E+00 -0.16872523811E+04  0.19137709680E+04  0.90316040675E+03 0.  0.
        5    1    3    3  502    0  0.41912473344E+02 -0.18458016468E+03 -0.17123426486E+04  0.17227785489E+04  0.46999998093E+01 0.  1.
       -5    1    3    3    0  502 -0.41912473344E+02  0.18458016468E+03  0.25090267446E+02  0.19099241904E+03  0.46999998093E+01 0. -1.
</event>
<event>
 5   0  0.8885324E-03  0.8806452E+03  0.7818609E-02  0.9450105E-01
        1   -1    0    0  501    0  0.00000000000E+00  0.00000000000E+00  0.74854145912E+03  0.74854145914E+03  0.50400001928E-02 0. -1.
       -1   -1    0    0    0  501  0.00000000000E+00  0.00000000000E+00 -0.25901568148E+03  0.25901568153E+03  0.50400001928E-02 0.  1.
    10030    2    1    2    0    0  0.00000000000E+00  0.00000000000E+00  0.48952577764E+03  0.10075571407E+04  0.88064516392E+03 0.  0.
        2    1    3    3  502    0 -0.15872512531E+03  0.10088830557E+03  0.70027466863E+03  0.72509084061E+03  0.25500000920E-02 0. -1.
       -2    1    3    3    0  502  0.15872512531E+03 -0.10088830557E+03 -0.21074889099E+03  0.28246630005E+03  0.25500000920E-02 0.  1.
</event>
<event>
 5   0  0.8291252E-03  0.8881550E+03  0.7818609E-02  0.9440511E-01
       -1   -1    0    0    0  501  0.00000000000E+00  0.00000000000E+00  0.55819370507E+03  0.55819370509E+03  0.50400001928E-02 0. -1.
        1   -1    0    0  501    0  0.00000000000E+00  0.00000000000E+00 -0.35329099108E+03  0.35329099112E+03  0.50400001928E-02 0.  1.
    10030    2    1    2    0    0  0.00000000000E+00  0.00000000000E+00  0.20490271399E+03  0.91148469621E+03  0.88815495789E+03 0.  0.
        1    1    3    3  502    0 -0.41044988169E+03  0.83799380754E+02 -0.48773857823E+02  0.42174676149E+03  0.50400001928E-02 0.  1.
       -1    1    3    3    0  502  0.41044988169E+03 -0.83799380754E+02  0.25367657181E+03  0.48973793472E+03  0.50400001928E-02 0. -1.
</event>
<event>
 5   0  0.8524692E-03  0.9071317E+03  0.7818609E-02  0.9416710E-01
        1   -1    0    0  501    0  0.00000000000E+00  0.00000000000E+00  0.84839898376E+03  0.84839898378E+03  0.50400001928E-02 0. -1.
       -1   -1    0    0    0  501  0.00000000000E+00  0.00000000000E+00 -0.24248256504E+03  0.24248256509E+03  0.50400001928E-02 0.  1.
    10030    2    1    2    0    0  0.00000000000E+00  0.00000000000E+00  0.60591641873E+03  0.10908815489E+04  0.90713165924E+03 0.  0.
        5    1    3    3  502    0 -0.94470864592E+02  0.32141004916E+03 -0.64700651874E+02  0.34122928993E+03  0.46999998093E+01 0.  1.
       -5    1    3    3    0  502  0.94470864592E+02 -0.32141004916E+03  0.67061707060E+03  0.74965225894E+03  0.46999998093E+01 0. -1.
</event>
<event>
 5   0  0.8612969E-03  0.8949358E+03  0.7818609E-02  0.9431934E-01
        1   -1    0    0  501    0  0.00000000000E+00  0.00000000000E+00  0.33889857545E+03  0.33889857549E+03  0.50400001928E-02 0.  1.
       -1   -1    0    0    0  501  0.00000000000E+00  0.00000000000E+00 -0.59081848468E+03  0.59081848470E+03  0.50400001928E-02 0. -1.
    10030    2    1    2    0    0  0.00000000000E+00  0.00000000000E+00 -0.25191990923E+03  0.92971706019E+03  0.89493584762E+03 0.  0.
        4    1    3    3  502    0  0.30826876528E+03 -0.28330114329E+03  0.38091057000E+02  0.42040660195E+03  0.12699999809E+01 0.  1.
       -4    1    3    3    0  502 -0.30826876528E+03  0.28330114329E+03 -0.29001096623E+03  0.50931045824E+03  0.12699999809E+01 0. -1.
</event>
<event>
 5   0  0.1483326E-02  0.9217300E+03  0.7818609E-02  0.9398818E-01
        2   -1    0    0  501    0  0.00000000000E+00  0.00000000000E+00  0.42137491457E+03  0.42137491458E+03  0.25500000920E-02 0. -1.
       -2   -1    0    0    0  501  0.00000000000E+00  0.00000000000E+00 -0.50405594144E+03  0.50405594145E+03  0.25500000920E-02 0.  1.
    10030    2    1    2    0    0  0.00000000000E+00  0.00000000000E+00 -0.82681026876E+02  0.92543085603E+03  0.92172995887E+03 0.  0.
        1    1    3    3  502    0  0.44286269393E+02 -0.21572359255E+03 -0.44780993294E+03  0.49903073864E+03  0.50400001928E-02 0.  1.
       -1    1    3    3    0  502 -0.44286269393E+02  0.21572359255E+03  0.36512890607E+03  0.42640011739E+03  0.50400001928E-02 0. -1.
</event>
<event>
 5   0  0.8291252E-03  0.9061218E+03  0.7818609E-02  0.9417961E-01
        1   -1    0    0  501    0  0.00000000000E+00  0.00000000000E+00  0.34501273665E+03  0.34501273669E+03  0.50400001928E-02 0. -1.
       -1   -1    0    0    0  501  0.00000000000E+00  0.00000000000E+00 -0.59494669185E+03  0.59494669187E+03  0.50400001928E-02 0.  1.
    10030    2    1    2    0    0  0.00000000000E+00  0.00000000000E+00 -0.24993395520E+03  0.93995942856E+03  0.90612181597E+03 0.  0.
        1    1    3    3  502    0 -0.29763375022E+03 -0.11980648895E+03 -0.45679484166E+03  0.55821229963E+03  0.50400001928E-02 0.  1.
       -1    1    3    3    0  502  0.29763375022E+03  0.11980648895E+03  0.20686088646E+03  0.38174712892E+03  0.50400001928E-02 0. -1.
</event>
<event>
 5   0  0.1440615E-02  0.9076290E+03  0.7818609E-02  0.9416095E-01
       -2   -1    0    0    0  501  0.00000000000E+00  0.00000000000E+00  0.90423177997E+02  0.90423178033E+02  0.25500000920E-02 0. -1.
        2   -1    0    0  501    0  0.00000000000E+00  0.00000000000E+00 -0.22775975537E+04  0.22775975537E+04  0.25500000920E-02 0.  1.
    10030    2    1    2    0    0  0.00000000000E+00  0.00000000000E+00 -0.21871743757E+04  0.23680207317E+04  0.90762901904E+03 0.  0.
        3    1    3    3  502    0  0.42490876527E+03  0.10687563181E+03 -0.14020448741E+04  0.14689110588E+04  0.10100000352E+00 0. -1.
       -3    1    3    3    0  502 -0.42490876527E+03 -0.10687563181E+03 -0.78512950165E+03  0.89910967297E+03  0.10100000352E+00 0.  1.
</event>
<event>
 5   0  0.1483326E-02  0.9113757E+03  0.7818609E-02  0.9411472E-01
        2   -1    0    0  501    0  0.00000000000E+00  0.00000000000E+00  0.48422037415E+03  0.48422037415E+03  0.25500000920E-02 0.  1.
       -2   -1    0    0    0  501  0.00000000000E+00  0.00000000000E+00 -0.42883662105E+03  0.42883662106E+03  0.25500000920E-02 0. -1.
    10030    2    1    2    0    0  0.00000000000E+00  0.00000000000E+00  0.55383753093E+02  0.91305699521E+03  0.91137572735E+03 0.  0.
        1    1    3    3  502    0 -0.11292976895E+03 -0.35270933976E+03 -0.23830577048E+03  0.44039374580E+03  0.50400001928E-02 0. -1.
       -1    1    3    3    0  502  0.11292976895E+03  0.35270933976E+03  0.29368952357E+03  0.47266324942E+03  0.50400001928E-02 0.  1.
</event>
<event>
 5   0  0.1483326E-02  0.9022946E+03  0.7818609E-02  0.9422718E-01
        2   -1    0    0  501    0  0.00000000000E+00  0.00000000000E+00  0.11494422145E+04  0.11494422145E+04  0.25500000920E-02 0.  1.
       -2   -1    0    0    0  501  0.00000000000E+00  0.00000000000E+00 -0.17707187113E+03  0.17707187115E+03  0.25500000920E-02 0. -1.
    10030    2    1    2    0    0  0.00000000000E+00  0.00000000000E+00  0.97237034341E+03  0.13265140857E+04  0.90229459424E+03 0.  0.
        1    1    3    3  502    0 -0.20349260126E+02 -0.26587970995E+03  0.10211842641E+04  0.10554257026E+04  0.50400001928E-02 0.  1.
       -1    1    3    3    0  502  0.20349260126E+02  0.26587970995E+03 -0.48813920671E+02  0.27108838306E+03  0.50400001928E-02 0. -1.
</event>
<event>
 5   0  0.1441195E-02  0.8989837E+03  0.7818609E-02  0.9426853E-01
        2   -1    0    0  501    0  0.00000000000E+00  0.00000000000E+00  0.10181342148E+04  0.10181342148E+04  0.25500000920E-02 0. -1.
       -2   -1    0    0    0  501  0.00000000000E+00  0.00000000000E+00 -0.19844430047E+03  0.19844430049E+03  0.25500000920E-02 0.  1.
    10030    2    1    2    0    0  0.00000000000E+00  0.00000000000E+00  0.81968991428E+03  0.12165785152E+04  0.89898371964E+03 0.  0.
        5    1    3    3  502    0 -0.34945724552E+03  0.12532036605E+03  0.66966760638E+02  0.37726939661E+03  0.46999998093E+01 0.  1.
       -5    1    3    3    0  502  0.34945724552E+03 -0.12532036605E+03  0.75272315364E+03  0.83930911863E+03  0.46999998093E+01 0. -1.
</event>
<event>
 5   0  0.8524692E-03  0.9362087E+03  0.7818609E-02  0.9381417E-01
       -1   -1    0    0    0  501  0.00000000000E+00  0.00000000000E+00  0.58482165816E+03  0.58482165819E+03  0.50400001928E-02 0. -1.
        1   -1    0    0  501    0  0.00000000000E+00  0.00000000000E+00 -0.37468123922E+03  0.37468123925E+03  0.50400001928E-02 0.  1.
    10030    2    1    2    0    0  0.00000000000E+00  0.00000000000E+00  0.21014041895E+03  0.95950289744E+03  0.93620874516E+03 0.  0.
        5    1    3    3  502    0 -0.21235784814E+03 -0.13164899386E+03 -0.30059681541E+03  0.39090644493E+03  0.46999998093E+01 0.  1.
       -5    1    3    3    0  502  0.21235784814E+03  0.13164899386E+03  0.51073723436E+03  0.56859645251E+03  0.46999998093E+01 0. -1.
</event>
<event>
 5   0  0.1440615E-02  0.9031148E+03  0.7818609E-02  0.9421696E-01
        2   -1    0    0  501    0  0.00000000000E+00  0.00000000000E+00  0.29786312537E+03  0.29786312538E+03  0.25500000920E-02 0.  1.
       -2   -1    0    0    0  501  0.00000000000E+00  0.00000000000E+00 -0.68455634795E+03  0.68455634795E+03  0.25500000920E-02 0. -1.
    10030    2    1    2    0    0  0.00000000000E+00  0.00000000000E+00 -0.38669322258E+03  0.98241947334E+03  0.90311481729E+03 0.  0.
        3    1    3    3  502    0 -0.66575520309E+02  0.11809624312E+02  0.29232514802E+03  0.30004294609E+03  0.10100000352E+00 0.  1.
       -3    1    3    3    0  502  0.66575520309E+02 -0.11809624312E+02 -0.67901837060E+03  0.68237652725E+03  0.10100000352E+00 0. -1.
</event>
<event>
 5   0  0.8885324E-03  0.9346193E+03  0.7818609E-02  0.9383311E-01
       -1   -1    0    0    0  501  0.00000000000E+00  0.00000000000E+00  0.21902210034E+03  0.21902210039E+03  0.50400001928E-02 0. -1.
        1   -1    0    0  501    0  0.00000000000E+00  0.00000000000E+00 -0.99706064452E+03  0.99706064453E+03  0.50400001928E-02 0.  1.
    10030    2    1    2    0    0  0.00000000000E+00  0.00000000000E+00 -0.77803854419E+03  0.12160827449E+04  0.93461931623E+03 0.  0.
        2    1    3    3  502    0  0.34210077529E+02  0.98198209356E+02  0.20377710263E+03  0.22877570957E+03  0.25500000920E-02 0. -1.
       -2    1    3    3    0  502 -0.34210077529E+02 -0.98198209356E+02 -0.98181564682E+03  0.98730703536E+03  0.25500000920E-02 0.  1.
</event>
<event>
 5   0  0.8291252E-03  0.8625940E+03  0.7818609E-02  0.9473588E-01
       -1   -1    0    0    0  501  0.00000000000E+00  0.00000000000E+00  0.49277358133E+03  0.49277358135E+03  0.50400001928E-02 0. -1.
        1   -1    0    0  501    0  0.00000000000E+00  0.00000000000E+00 -0.37749003563E+03  0.37749003566E+03  0.50400001928E-02 0.  1.
    10030    2    1    2    0    0  0.00000000000E+00  0.00000000000E+00  0.11528354570E+03  0.87026361701E+03  0.86259403382E+03 0.  0.
        1    1    3    3  502    0  0.33336398967E+03 -0.11086312476E+03  0.31005608306E+03  0.46856905223E+03  0.50400001928E-02 0. -1.
       -1    1    3    3    0  502 -0.33336398967E+03  0.11086312476E+03 -0.19477253736E+03  0.40169456478E+03  0.50400001928E-02 0.  1.
</event>
<event>
 5   0  0.8738044E-03  0.9054051E+03  0.7818609E-02  0.9418850E-01
        1   -1    0    0  501    0  0.00000000000E+00  0.00000000000E+00  0.59027615934E+03  0.59027615936E+03  0.50400001928E-02 0. -1.
       -1   -1    0    0    0  501  0.00000000000E+00  0.00000000000E+00 -0.34719276299E+03  0.34719276302E+03  0.50400001928E-02 0.  1.
    10030    2    1    2    0    0  0.00000000000E+00  0.00000000000E+00  0.24308339635E+03  0.93746892238E+03  0.90540512637E+03 0.  0.
        3    1    3    3  502    0  0.38119975014E+03 -0.12526531112E+03 -0.95487923154E+02  0.41245921174E+03  0.10100000352E+00 0.  1.
       -3    1    3    3    0  502 -0.38119975014E+03  0.12526531112E+03  0.33857131951E+03  0.52500971065E+03  0.10100000352E+00 0. -1.
</event>
<event>
 5   0  0.8738044E-03  0.8853760E+03  0.7818609E-02  0.9444049E-01
       -1   -1    0    0    0  501  0.00000000000E+00  0.00000000000E+00  0.30620084045E+03  0.30620084049E+03  0.50400001928E-02 0. -1.
        1   -1    0    0  501    0  0.00000000000E+00  0.00000000000E+00 -0.64001342851E+03  0.64001342853E+03  0.50400001928E-02 0.  1.
    10030    2    1    2    0    0  0.00000000000E+00  0.00000000000E+00 -0.33381258806E+03  0.94621426902E+03  0.88537596475E+03 0.  0.
        3    1    3    3  502    0 -0.22238034482E+03 -0.34934247393E+03 -0.33411645351E+03  0.53209679247E+03  0.10100000352E+00 0.  1.
       -3    1    3    3    0  502  0.22238034482E+03  0.34934247393E+03  0.30386544255E+00  0.41411747655E+03  0.10100000352E+00 0. -1.
</event>
<event>
 5   0  0.1535906E-02  0.8568130E+03  0.7818609E-02  0.9481238E-01
        2   -1    0    0  501    0  0.00000000000E+00  0.00000000000E+00  0.29514901283E+03  0.29514901284E+03  0.25500000920E-02 0. -1.
       -2   -1    0    0    0  501  0.00000000000E+00  0.00000000000E+00 -0.62182875074E+03  0.62182875075E+03  0.25500000920E-02 0.  1.
    10030    2    1    2    0    0  0.00000000000E+00  0.00000000000E+00 -0.32667973792E+03  0.91697776359E+03  0.85681302964E+03 0.  0.
        2    1    3    3  502    0  0.21065217457E+02 -0.23824368588E+03 -0.54372466056E+03  0.59400362268E+03  0.25500000920E-02 0.  1.
       -2    1    3    3    0  502 -0.21065217457E+02  0.23824368588E+03  0.21704492264E+03  0.32297414091E+03  0.25500000920E-02 0. -1.
</event>
<event>
 5   0  0.8524692E-03  0.9024639E+03  0.7818609E-02  0.9422507E-01
        1   -1    0    0  501    0  0.00000000000E+00  0.00000000000E+00  0.28867245492E+03  0.28867245497E+03  0.50400001928E-02 0. -1.
       -1   -1    0    0    0  501  0.00000000000E+00  0.00000000000E+00 -0.70533319753E+03  0.70533319755E+03  0.50400001928E-02 0.  1.
    10030    2    1    2    0    0  0.00000000000E+00  0.00000000000E+00 -0.41666074261E+03  0.99400565252E+03  0.90246388449E+03 0.  0.
        5    1    3    3  502    0  0.50973449551E+02 -0.11080119603E+03  0.27014535159E+03  0.29643852412E+03  0.46999998093E+01 0. -1.
       -5    1    3    3    0  502 -0.50973449551E+02  0.11080119603E+03 -0.68680609419E+03  0.69756712840E+03  0.46999998093E+01 0.  1.
</event>
<event>
 5   0  0.1441195E-02  0.7467193E+03  0.7818609E-02  0.9640511E-01
        2   -1    0    0  501    0  0.00000000000E+00  0.00000000000E+00  0.72069408227E+03  0.72069408228E+03  0.25500000920E-02 0. -1.
       -2   -1    0    0    0  501  0.00000000000E+00  0.00000000000E+00 -0.19342108812E+03  0.19342108813E+03  0.25500000920E-02 0.  1.
    10030    2    1    2    0    0  0.00000000000E+00  0.00000000000E+00  0.52727299415E+03  0.91411517041E+03  0.74671931434E+03 0.  0.
        5    1    3    3  502    0  0.55823194363E+02 -0.11818183601E+03 -0.16446116313E+03  0.21012553288E+03  0.46999998093E+01 0.  1.
       -5    1    3    3    0  502 -0.55823194363E+02  0.11818183601E+03  0.69173415729E+03  0.70398963753E+03  0.46999998093E+01 0. -1.
</event>
<event>
 5   0  0.5770125E-03  0.8463709E+03  0.7818609E-02  0.9495221E-01
        4   -1    0    0  501    0  0.00000000000E+00  0.00000000000E+00  0.73073167614E+03  0.73073277976E+03  0.12699999809E+01 0.  1.
       -4   -1    0    0    0  501  0.00000000000E+00  0.00000000000E+00 -0.24507462143E+03  0.24507791204E+03  0.12699999809E+01 0. -1.
    10030    2    1    2    0    0  0.00000000000E+00  0.00000000000E+00  0.48565705471E+03  0.97581069179E+03  0.84637091835E+03 0.  0.
        5    1    3    3  502    0  0.72231829440E+02  0.39043288334E+03  0.41152214905E+03  0.57186348260E+03  0.46999998093E+01 0.  1.
       -5    1    3    3    0  502 -0.72231829440E+02 -0.39043288334E+03  0.74134905660E+02  0.40394720919E+03  0.46999998093E+01 0. -1.
</event>
<event>
 5   0  0.5770125E-03  0.8947702E+03  0.7818609E-02  0.9432143E-01
       -4   -1    0    0    0  501  0.00000000000E+00  0.00000000000E+00  0.87872960739E+03  0.87873052514E+03  0.12699999809E+01 0.  1.
        4   -1    0    0  501    0  0.00000000000E+00  0.00000000000E+00 -0.22777310127E+03  0.22777664183E+03  0.12699999809E+01 0. -1.
    10030    2    1    2    0    0  0.00000000000E+00  0.00000000000E+00  0.65095650612E+03  0.11065071670E+04  0.89477021501E+03 0.  0.
        2    1    3    3  502    0  0.23747225743E+03  0.50233757426E+02 -0.13926901795E+03  0.27984346125E+03  0.25500000920E-02 0. -1.
       -2    1    3    3    0  502 -0.23747225743E+03 -0.50233757426E+02  0.79022552408E+03  0.82666370572E+03  0.25500000920E-02 0.  1.
</event>
<event>
 5   0  0.8291252E-03  0.9003231E+03  0.7818609E-02  0.9425178E-01
        1   -1    0    0  501    0  0.00000000000E+00  0.00000000000E+00  0.10854257802E+04  0.10854257802E+04  0.50400001928E-02 0. -1.
       -1   -1    0    0    0  501  0.00000000000E+00  0.00000000000E+00 -0.18669669454E+03  0.18669669461E+03  0.50400001928E-02 0.  1.
    10030    2    1    2    0    0  0.00000000000E+00  0.00000000000E+00  0.89872908564E+03  0.12721224748E+04  0.90032306508E+03 0.  0.
        1    1    3    3  502    0 -0.12846555383E+03  0.28388981933E+03  0.90841110683E+03  0.96036845382E+03  0.50400001928E-02 0. -1.
       -1    1    3    3    0  502  0.12846555383E+03 -0.28388981933E+03 -0.96820211947E+01  0.31175402098E+03  0.50400001928E-02 0.  1.
</event>
<event>
 5   0  0.8885324E-03  0.8931124E+03  0.7818609E-02  0.9434232E-01
        1   -1    0    0  501    0  0.00000000000E+00  0.00000000000E+00  0.11890323458E+04  0.11890323458E+04  0.50400001928E-02 0. -1.
       -1   -1    0    0    0  501  0.00000000000E+00  0.00000000000E+00 -0.16770983686E+03  0.16770983693E+03  0.50400001928E-02 0.  1.
    10030    2    1    2    0    0  0.00000000000E+00  0.00000000000E+00  0.10213225089E+04  0.13567421827E+04  0.89311235750E+03 0.  0.
        2    1    3    3  502    0 -0.38250988282E+02 -0.26822259547E+03 -0.28584466534E+02  0.27244003113E+03  0.25500000920E-02 0.  1.
       -2    1    3    3    0  502  0.38250988282E+02  0.26822259547E+03  0.10499069754E+04  0.10843021516E+04  0.25500000920E-02 0. -1.
</event>
<event>
 5   0  0.1483326E-02  0.7910095E+03  0.7818609E-02  0.9573122E-01
       -2   -1    0    0    0  501  0.00000000000E+00  0.00000000000E+00  0.11168911126E+03  0.11168911129E+03  0.25500000920E-02 0. -1.
        2   -1    0    0  501    0  0.00000000000E+00  0.00000000000E+00 -0.14005303896E+04  0.14005303896E+04  0.25500000920E-02 0.  1.
    10030    2    1    2    0    0  0.00000000000E+00  0.00000000000E+00 -0.12888412784E+04  0.15122195009E+04  0.79100946781E+03 0.  0.
        1    1    3    3  502    0 -0.76317352933E+02  0.36912682379E+03 -0.41544773286E+03  0.56095968586E+03  0.50400001928E-02 0. -1.
       -1    1    3    3    0  502  0.76317352933E+02 -0.36912682379E+03 -0.87339354550E+03  0.95125981506E+03  0.50400001928E-02 0.  1.
</event>
<event>
 5   0  0.1483326E-02  0.8969887E+03  0.7818609E-02  0.9429354E-01
       -2   -1    0    0    0  501  0.00000000000E+00  0.00000000000E+00  0.31813741555E+03  0.31813741556E+03  0.25500000920E-02 0. -1.
        2   -1    0    0  501    0  0.00000000000E+00  0.00000000000E+00 -0.63226502246E+03  0.63226502246E+03  0.25500000920E-02 0.  1.
    10030    2    1    2    0    0  0.00000000000E+00  0.00000000000E+00 -0.31412760691E+03  0.95040243802E+03  0.89698865142E+03 0.  0.
        1    1    3    3  502    0 -0.20612990063E+03 -0.15222069403E+03 -0.54706737162E+03  0.60410544174E+03  0.50400001928E-02 0.  1.
       -1    1    3    3    0  502  0.20612990063E+03  0.15222069403E+03  0.23293976471E+03  0.34629699628E+03  0.50400001928E-02 0. -1.
</event>
<event>
 5   0  0.8524692E-03  0.8926797E+03  0.7818609E-02  0.9434779E-01
       -1   -1    0    0    0  501  0.00000000000E+00  0.00000000000E+00  0.21574190291E+03  0.21574190297E+03  0.50400001928E-02 0.  1.
        1   -1    0    0  501    0  0.00000000000E+00  0.00000000000E+00 -0.92341486728E+03  0.92341486730E+03  0.50400001928E-02 0. -1.
    10030    2    1    2    0    0  0.00000000000E+00  0.00000000000E+00 -0.70767296437E+03  0.11391567703E+04  0.89267974255E+03 0.  0.
        5    1    3    3  502    0  0.15580904007E+03 -0.10871176913E+03 -0.86920526066E+03  0.88973849016E+03  0.46999998093E+01 0. -1.
       -5    1    3    3    0  502 -0.15580904007E+03  0.10871176913E+03  0.16153229629E+03  0.24941828012E+03  0.46999998093E+01 0.  1.
</event>
<event>
 5   0  0.8612969E-03  0.9013345E+03  0.7818609E-02  0.9423915E-01
       -1   -1    0    0    0  501  0.00000000000E+00  0.00000000000E+00  0.27516357155E+03  0.27516357160E+03  0.50400001928E-02 0.  1.
        1   -1    0    0  501    0  0.00000000000E+00  0.00000000000E+00 -0.73811002427E+03  0.73811002429E+03  0.50400001928E-02 0. -1.
    10030    2    1    2    0    0  0.00000000000E+00  0.00000000000E+00 -0.46294645271E+03  0.10132735959E+04  0.90133454502E+03 0.  0.
        4    1    3    3  502    0 -0.24091885444E+02  0.30630264551E+03  0.13916548990E+03  0.33729864522E+03  0.12699999809E+01 0.  1.
       -4    1    3    3    0  502  0.24091885444E+02 -0.30630264551E+03 -0.60211194261E+03  0.67597495067E+03  0.12699999809E+01 0. -1.
</event>
<event>
 5   0  0.1441195E-02  0.1017880E+04  0.7818609E-02  0.9289149E-01
        2   -1    0    0  501    0  0.00000000000E+00  0.00000000000E+00  0.59940549005E+03  0.59940549005E+03  0.25500000920E-02 0. -1.
       -2   -1    0    0    0  501  0.00000000000E+00  0.00000000000E+00 -0.43212779139E+03  0.43212779140E+03  0.25500000920E-02 0.  1.
    10030    2    1    2    0    0  0.00000000000E+00  0.00000000000E+00  0.16727769865E+03  0.10315332815E+04  0.10178796993E+04 0.  0.
        5    1    3    3  502    0  0.22424260110E+03 -0.14389191029E+03 -0.35577629388E+03  0.44450926568E+03  0.46999998093E+01 0.  1.
       -5    1    3    3    0  502 -0.22424260110E+03  0.14389191029E+03  0.52305399253E+03  0.58702401577E+03  0.46999998093E+01 0. -1.
</event>
<event>
 5   0  0.8524692E-03  0.8952654E+03  0.7818609E-02  0.9431519E-01
        1   -1    0    0  501    0  0.00000000000E+00  0.00000000000E+00  0.93553697956E+03  0.93553697957E+03  0.50400001928E-02 0.  1.
       -1   -1    0    0    0  501  0.00000000000E+00  0.00000000000E+00 -0.21418186556E+03  0.21418186562E+03  0.50400001928E-02 0. -1.
    10030    2    1    2    0    0  0.00000000000E+00  0.00000000000E+00  0.72135511400E+03  0.11497188452E+04  0.89526544806E+03 0.  0.
        5    1    3    3  502    0  0.31414496066E+03 -0.23560241674E+03  0.63658317564E+03  0.74796776976E+03  0.46999998093E+01 0.  1.
       -5    1    3    3    0  502 -0.31414496066E+03  0.23560241674E+03  0.84771938357E+02  0.40175107543E+03  0.46999998093E+01 0. -1.
</event>
<event>
 5   0  0.8885324E-03  0.9036687E+03  0.7818609E-02  0.9421007E-01
       -1   -1    0    0    0  501  0.00000000000E+00  0.00000000000E+00  0.16378887478E+04  0.16378887478E+04  0.50400001928E-02 0. -1.
        1   -1    0    0  501    0  0.00000000000E+00  0.00000000000E+00 -0.12464477844E+03  0.12464477854E+03  0.50400001928E-02 0.  1.
    10030    2    1    2    0    0  0.00000000000E+00  0.00000000000E+00  0.15132439694E+04  0.17625335264E+04  0.90366870075E+03 0.  0.
        2    1    3    3  502    0 -0.15913151890E+03  0.60101977419E+02  0.15730520384E+04  0.15822224254E+04  0.25500000920E-02 0. -1.
       -2    1    3    3    0  502  0.15913151890E+03 -0.60101977419E+02 -0.59808069024E+02  0.18031110094E+03  0.25500000920E-02 0.  1.
</event>
<event>
 5   0  0.1441195E-02  0.8327925E+03  0.7818609E-02  0.9513728E-01
        2   -1    0    0  501    0  0.00000000000E+00  0.00000000000E+00  0.14231869929E+04  0.14231869929E+04  0.25500000920E-02 0.  1.
       -2   -1    0    0    0  501  0.00000000000E+00  0.00000000000E+00 -0.12182926711E+03  0.12182926713E+03  0.25500000920E-02 0. -1.
    10030    2    1    2    0    0  0.00000000000E+00  0.00000000000E+00  0.13013577258E+04  0.15450162600E+04  0.83279247912E+03 0.  0.
        5    1    3    3  502    0 -0.13209044677E+03 -0.28885565527E+03  0.15121951355E+03  0.35181658146E+03  0.46999998093E+01 0. -1.
       -5    1    3    3    0  502  0.13209044677E+03  0.28885565527E+03  0.11501382122E+04  0.11931996786E+04  0.46999998093E+01 0.  1.
</event>
<event>
 5   0  0.1483326E-02  0.8934018E+03  0.7818609E-02  0.9433867E-01
       -2   -1    0    0    0  501  0.00000000000E+00  0.00000000000E+00  0.39045139334E+03  0.39045139335E+03  0.25500000920E-02 0.  1.
        2   -1    0    0  501    0  0.00000000000E+00  0.00000000000E+00 -0.51105389518E+03  0.51105389518E+03  0.25500000920E-02 0. -1.
    10030    2    1    2    0    0  0.00000000000E+00  0.00000000000E+00 -0.12060250183E+03  0.90150528854E+03  0.89340182550E+03 0.  0.
        1    1    3    3  502    0  0.14284913814E+03 -0.10548183221E+03  0.35330610071E+03  0.39542065452E+03  0.50400001928E-02 0.  1.
       -1    1    3    3    0  502 -0.14284913814E+03  0.10548183221E+03 -0.47390860255E+03  0.50608463402E+03  0.50400001928E-02 0. -1.
</event>
<event>
 5   0  0.8885324E-03  0.9615405E+03  0.7818609E-02  0.9351762E-01
        1   -1    0    0  501    0  0.00000000000E+00  0.00000000000E+00  0.17567717781E+04  0.17567717781E+04  0.50400001928E-02 0.  1.
       -1   -1    0    0    0  501  0.00000000000E+00  0.00000000000E+00 -0.13157088973E+03  0.13157088983E+03  0.50400001928E-02 0. -1.
    10030    2    1    2    0    0  0.00000000000E+00  0.00000000000E+00  0.16252008884E+04  0.18883426680E+04  0.96154048486E+03 0.  0.
        2    1    3    3  502    0 -0.11260238916E+03 -0.46553366328E+03  0.89449971650E+03  0.10146578894E+04  0.25500000920E-02 0.  1.
       -2    1    3    3    0  502  0.11260238916E+03  0.46553366328E+03  0.73070117191E+03  0.87368477858E+03  0.25500000920E-02 0. -1.
</event>
<event>
 5   0  0.8524692E-03  0.8859969E+03  0.7818609E-02  0.9443257E-01
       -1   -1    0    0    0  501  0.00000000000E+00  0.00000000000E+00  0.11716145012E+04  0.11716145012E+04  0.50400001928E-02 0. -1.
        1   -1    0    0  501    0  0.00000000000E+00  0.00000000000E+00 -0.16750189385E+03  0.16750189392E+03  0.50400001928E-02 0.  1.
    10030    2    1    2    0    0  0.00000000000E+00  0.00000000000E+00  0.10041126073E+04  0.13391163951E+04  0.88599694776E+03 0.  0.
        5    1    3    3  502    0 -0.37700990368E+03  0.89051033168E+02  0.82678024944E+03  0.91304667178E+03  0.46999998093E+01 0.  1.
       -5    1    3    3    0  502  0.37700990368E+03 -0.89051033168E+02  0.17733235788E+03  0.42606972332E+03  0.46999998093E+01 0. -1.
</event>
<event>
 5   0  0.8738044E-03  0.9007969E+03  0.7818609E-02  0.9424586E-01
       -1   -1    0    0    0  501  0.00000000000E+00  0.00000000000E+00  0.21222481913E+03  0.21222481919E+03  0.50400001928E-02 0.  1.
        1   -1    0    0  501    0  0.00000000000E+00  0.00000000000E+00 -0.95586721275E+03  0.95586721277E+03  0.50400001928E-02 0. -1.
    10030    2    1    2    0    0  0.00000000000E+00  0.00000000000E+00 -0.74364239362E+03  0.11680920320E+04  0.90079686141E+03 0.  0.
        3    1    3    3  502    0 -0.90300338082E+02 -0.31374985571E+03 -0.77415431933E+03  0.84018333913E+03  0.10100000352E+00 0. -1.
       -3    1    3    3    0  502  0.90300338082E+02  0.31374985571E+03  0.30511925705E+02  0.32790869282E+03  0.10100000352E+00 0.  1.
</event>
<event>
 5   0  0.8738044E-03  0.8878445E+03  0.7818609E-02  0.9440905E-01
        1   -1    0    0  501    0  0.00000000000E+00  0.00000000000E+00  0.64298227798E+03  0.64298227800E+03  0.50400001928E-02 0. -1.
       -1   -1    0    0    0  501  0.00000000000E+00  0.00000000000E+00 -0.30648893214E+03  0.30648893218E+03  0.50400001928E-02 0.  1.
    10030    2    1    2    0    0  0.00000000000E+00  0.00000000000E+00  0.33649334584E+03  0.94947121018E+03  0.88784447239E+03 0.  0.
        3    1    3    3  502    0  0.20099975568E+03  0.16710635853E+03  0.55195762558E+03  0.61072306939E+03  0.10100000352E+00 0. -1.
       -3    1    3    3    0  502 -0.20099975568E+03 -0.16710635853E+03 -0.21546427974E+03  0.33874814079E+03  0.10100000352E+00 0.  1.
</event>
<event>
 5   0  0.8524692E-03  0.9347887E+03  0.7818609E-02  0.9383109E-01
        1   -1    0    0  501    0  0.00000000000E+00  0.00000000000E+00  0.66110044560E+03  0.66110044562E+03  0.50400001928E-02 0. -1.
       -1   -1    0    0    0  501  0.00000000000E+00  0.00000000000E+00 -0.33044521204E+03  0.33044521208E+03  0.50400001928E-02 0.  1.
    10030    2    1    2    0    0  0.00000000000E+00  0.00000000000E+00  0.33065523356E+03  0.99154565770E+03  0.93478869689E+03 0.  0.
        5    1    3    3  502    0  0.88564907932E+02  0.27341615176E+03 -0.22560824452E+03  0.36540567176E+03  0.46999998093E+01 0.  1.
       -5    1    3    3    0  502 -0.88564907932E+02 -0.27341615176E+03  0.55626347808E+03  0.62613998595E+03  0.46999998093E+01 0. -1.
</event>
<event>
 5   0  0.8612969E-03  0.8996825E+03  0.7818609E-02  0.9425978E-01
       -1   -1    0    0    0  501  0.00000000000E+00  0.00000000000E+00  0.29632362409E+03  0.29632362413E+03  0.50400001928E-02 0. -1.
        1   -1    0    0  501    0  0.00000000000E+00  0.00000000000E+00 -0.68289239719E+03  0.68289239721E+03  0.50400001928E-02 0.  1.
    10030    2    1    2    0    0  0.00000000000E+00  0.00000000000E+00 -0.38656877310E+03  0.97921602135E+03  0.89968249962E+03 0.  0.
        4    1    3    3  502    0  0.34671744311E+03  0.12158122239E+03  0.89198456950E+02  0.37809120146E+03  0.12699999809E+01 0. -1.
       -4    1    3    3    0  502 -0.34671744311E+03 -0.12158122239E+03 -0.47576723005E+03  0.60112481989E+03  0.12699999809E+01 0.  1.
</event>
<event>
 5   0  0.8738044E-03  0.9055556E+03  0.7818609E-02  0.9418663E-01
       -1   -1    0    0    0  501  0.00000000000E+00  0.00000000000E+00  0.21679360952E+03  0.21679360957E+03  0.50400001928E-02 0.  1.
        1   -1    0    0  501    0  0.00000000000E+00  0.00000000000E+00 -0.94563560901E+03  0.94563560902E+03  0.50400001928E-02 0. -1.
    10030    2    1    2    0    0  0.00000000000E+00  0.00000000000E+00 -0.72884199949E+03  0.11624292186E+04  0.90555564601E+03 0.  0.
        3    1    3    3  502    0  0.12015992499E+02 -0.55636756048E+02 -0.94102470284E+03  0.94274457530E+03  0.10100000352E+00 0. -1.
       -3    1    3    3    0  502 -0.12015992499E+02  0.55636756048E+02  0.21218270335E+03  0.21968464330E+03  0.10100000352E+00 0.  1.
</event>
<event>
 5   0  0.1454652E-02  0.9015863E+03  0.7818609E-02  0.9423601E-01
       -2   -1    0    0    0  501  0.00000000000E+00  0.00000000000E+00  0.11740365504E+04  0.11740365504E+04  0.25500000920E-02 0.  1.
        2   -1    0    0  501    0  0.00000000000E+00  0.00000000000E+00 -0.17309042480E+03  0.17309042482E+03  0.25500000920E-02 0. -1.
    10030    2    1    2    0    0  0.00000000000E+00  0.00000000000E+00  0.10009461256E+04  0.13471269752E+04  0.90158634696E+03 0.  0.
        4    1    3    3  502    0  0.10147083726E+03  0.40415586162E+03  0.75743009459E+03  0.86448843393E+03  0.12699999809E+01 0. -1.
       -4    1    3    3    0  502 -0.10147083726E+03 -0.40415586162E+03  0.24351603103E+03  0.48263854132E+03  0.12699999809E+01 0.  1.
</event>
<event>
 5   0  0.8738044E-03  0.8998399E+03  0.7818609E-02  0.9425782E-01
        1   -1    0    0  501    0  0.00000000000E+00  0.00000000000E+00  0.98729154053E+03  0.98729154054E+03  0.50400001928E-02 0. -1.
       -1   -1    0    0    0  501  0.00000000000E+00  0.00000000000E+00 -0.20503361970E+03  0.20503361976E+03  0.50400001928E-02 0.  1.
    10030    2    1    2    0    0  0.00000000000E+00  0.00000000000E+00  0.78225792083E+03  0.11923251603E+04  0.89983989309E+03 0.  0.
        3    1    3    3  502    0  0.10475474186E+03 -0.30138802617E+03 -0.29182146146E+02  0.32040584595E+03  0.10100000352E+00 0.  1.
       -3    1    3    3    0  502 -0.10475474186E+03  0.30138802617E+03  0.81144006697E+03  0.87191931436E+03  0.10100000352E+00 0. -1.
</event>
<event>
 5   0  0.1440615E-02  0.9045381E+03  0.7818609E-02  0.9419926E-01
        2   -1    0    0  501    0  0.00000000000E+00  0.00000000000E+00  0.46679944451E+03  0.46679944451E+03  0.25500000920E-02 0. -1.
       -2   -1    0    0    0  501  0.00000000000E+00  0.00000000000E+00 -0.43819099054E+03  0.43819099055E+03  0.25500000920E-02 0.  1.
    10030    2    1    2    0    0  0.00000000000E+00  0.00000000000E+00  0.28608453966E+02  0.90499043506E+03  0.90453813845E+03 0.  0.
        3    1    3    3  502    0  0.30525719274E+02 -0.45014781355E+03  0.45663594513E+02  0.45348654627E+03  0.10100000352E+00 0.  1.
       -3    1    3    3    0  502 -0.30525719274E+02  0.45014781355E+03 -0.17055140547E+02  0.45150388880E+03  0.10100000352E+00 0. -1.
</event>
<event>
 5   0  0.1440615E-02  0.8968274E+03  0.7818609E-02  0.9429556E-01
        2   -1    0    0  501    0  0.00000000000E+00  0.00000000000E+00  0.10131955600E+04  0.10131955600E+04  0.25500000920E-02 0. -1.
       -2   -1    0    0    0  501  0.00000000000E+00  0.00000000000E+00 -0.19845611984E+03  0.19845611986E+03  0.25500000920E-02 0.  1.
    10030    2    1    2    0    0  0.00000000000E+00  0.00000000000E+00  0.81473944014E+03  0.12116516798E+04  0.89682742930E+03 0.  0.
        3    1    3    3  502    0 -0.41863103429E+03  0.20372878030E+02  0.62272369082E+03  0.75063426670E+03  0.10100000352E+00 0. -1.
       -3    1    3    3    0  502  0.41863103429E+03 -0.20372878030E+02  0.19201574932E+03  0.46101741314E+03  0.10100000352E+00 0.  1.
</event>
<event>
 5   0  0.5770125E-03  0.8712311E+03  0.7818609E-02  0.9462276E-01
       -4   -1    0    0    0  501  0.00000000000E+00  0.00000000000E+00  0.52360411111E+03  0.52360565130E+03  0.12699999809E+01 0.  1.
        4   -1    0    0  501    0  0.00000000000E+00  0.00000000000E+00 -0.36240973681E+03  0.36241196205E+03  0.12699999809E+01 0. -1.
    10030    2    1    2    0    0  0.00000000000E+00  0.00000000000E+00  0.16119437430E+03  0.88601761335E+03  0.87123107432E+03 0.  0.
        4    1    3    3  502    0 -0.22196659525E+02 -0.25898230799E+03 -0.27489927430E+03  0.37833285802E+03  0.12699999809E+01 0. -1.
       -4    1    3    3    0  502  0.22196659525E+02  0.25898230799E+03  0.43609364860E+03  0.50768475533E+03  0.12699999809E+01 0.  1.
</event>
<event>
 5   0  0.1441195E-02  0.8949568E+03  0.7818609E-02  0.9431908E-01
       -2   -1    0    0    0  501  0.00000000000E+00  0.00000000000E+00  0.11826138877E+03  0.11826138879E+03  0.25500000920E-02 0. -1.
        2   -1    0    0  501    0  0.00000000000E+00  0.00000000000E+00 -0.16931725656E+04  0.16931725656E+04  0.25500000920E-02 0.  1.
    10030    2    1    2    0    0  0.00000000000E+00  0.00000000000E+00 -0.15749111768E+04  0.18114339544E+04  0.89495684600E+03 0.  0.
        5    1    3    3  502    0 -0.29557521975E+02  0.24105812180E+03 -0.15481097521E+04  0.15670509117E+04  0.46999998093E+01 0.  1.
       -5    1    3    3    0  502  0.29557521975E+02 -0.24105812180E+03 -0.26801424684E+02  0.24438304269E+03  0.46999998093E+01 0. -1.
</event>
<event>
 5   0  0.8524692E-03  0.9040683E+03  0.7818609E-02  0.9420510E-01
        1   -1    0    0  501    0  0.00000000000E+00  0.00000000000E+00  0.11961253020E+04  0.11961253020E+04  0.50400001928E-02 0.  1.
       -1   -1    0    0    0  501  0.00000000000E+00  0.00000000000E+00 -0.17083065154E+03  0.17083065161E+03  0.50400001928E-02 0. -1.
    10030    2    1    2    0    0  0.00000000000E+00  0.00000000000E+00  0.10252946505E+04  0.13669559536E+04  0.90406828221E+03 0.  0.
        5    1    3    3  502    0  0.45077016470E+02 -0.31954996305E+02  0.11909627846E+04  0.11922531206E+04  0.46999998093E+01 0.  1.
       -5    1    3    3    0  502 -0.45077016470E+02  0.31954996305E+02 -0.16566813415E+03  0.17470283304E+03  0.46999998093E+01 0. -1.
</event>
<event>
 5   0  0.8885324E-03  0.8888516E+03  0.7818609E-02  0.9439626E-01
       -1   -1    0    0    0  501  0.00000000000E+00  0.00000000000E+00  0.46705180739E+03  0.46705180742E+03  0.50400001928E-02 0.  1.
        1   -1    0    0  501    0  0.00000000000E+00  0.00000000000E+00 -0.42289586965E+03  0.42289586968E+03  0.50400001928E-02 0. -1.
    10030    2    1    2    0    0  0.00000000000E+00  0.00000000000E+00  0.44155937741E+02  0.88994767709E+03  0.88885157429E+03 0.  0.
        2    1    3    3  502    0  0.41706108631E+03 -0.27818804819E+00  0.17580640159E+03  0.45260127921E+03  0.25500000920E-02 0.  1.
       -2    1    3    3    0  502 -0.41706108631E+03  0.27818804819E+00 -0.13165046385E+03  0.43734639788E+03  0.25500000920E-02 0. -1.
</event>
<event>
 5   0  0.1441195E-02  0.9415551E+03  0.7818609E-02  0.9375076E-01
        2   -1    0    0  501    0  0.00000000000E+00  0.00000000000E+00  0.54344941569E+03  0.54344941569E+03  0.25500000920E-02 0.  1.
       -2   -1    0    0    0  501  0.00000000000E+00  0.00000000000E+00 -0.40782357733E+03  0.40782357734E+03  0.25500000920E-02 0. -1.
    10030    2    1    2    0    0  0.00000000000E+00  0.00000000000E+00  0.13562583835E+03  0.95127299303E+03  0.94155506437E+03 0.  0.
        5    1    3    3  502    0 -0.58412494807E+02 -0.43354673494E+03  0.24348857563E+03  0.50068310076E+03  0.46999998093E+01 0.  1.
       -5    1    3    3    0  502  0.58412494807E+02  0.43354673494E+03 -0.10786273728E+03  0.45058989227E+03  0.46999998093E+01 0. -1.
</event>
<event>
 5   0  0.1483326E-02  0.8820651E+03  0.7818609E-02  0.9448283E-01
        2   -1    0    0  501    0  0.00000000000E+00  0.00000000000E+00  0.36263663162E+03  0.36263663163E+03  0.25500000920E-02 0.  1.
       -2   -1    0    0    0  501  0.00000000000E+00  0.00000000000E+00 -0.53637634852E+03  0.53637634852E+03  0.25500000920E-02 0. -1.
    10030    2    1    2    0    0  0.00000000000E+00  0.00000000000E+00 -0.17373971690E+03  0.89901298015E+03  0.88206510488E+03 0.  0.
        1    1    3    3  502    0 -0.39673819315E+03 -0.19094140300E+03 -0.60886920561E+02  0.44448512957E+03  0.50400001928E-02 0. -1.
       -1    1    3    3    0  502  0.39673819315E+03  0.19094140300E+03 -0.11285279634E+03  0.45452785058E+03  0.50400001928E-02 0.  1.
</event>
<event>
 5   0  0.8885324E-03  0.8208416E+03  0.7818609E-02  0.9530330E-01
       -1   -1    0    0    0  501  0.00000000000E+00  0.00000000000E+00  0.21427260809E+03  0.21427260815E+03  0.50400001928E-02 0.  1.
        1   -1    0    0  501    0  0.00000000000E+00  0.00000000000E+00 -0.78612593074E+03  0.78612593076E+03  0.50400001928E-02 0. -1.
    10030    2    1    2    0    0  0.00000000000E+00  0.00000000000E+00 -0.57185332265E+03  0.10003985389E+04  0.82084164979E+03 0.  0.
        2    1    3    3  502    0  0.21057473694E+03 -0.26374195467E+03 -0.12931558097E+01  0.33749549738E+03  0.25500000920E-02 0.  1.
       -2    1    3    3    0  502 -0.21057473694E+03  0.26374195467E+03 -0.57056016684E+03  0.66290304154E+03  0.25500000920E-02 0. -1.
</event>
<event>
 5   0  0.1483326E-02  0.9040650E+03  0.7818609E-02  0.9420514E-01
       -2   -1    0    0    0  501  0.00000000000E+00  0.00000000000E+00  0.16724872594E+03  0.16724872596E+03  0.25500000920E-02 0.  1.
        2   -1    0    0  501    0  0.00000000000E+00  0.00000000000E+00 -0.12217335570E+04  0.12217335570E+04  0.25500000920E-02 0. -1.
    10030    2    1    2    0    0  0.00000000000E+00  0.00000000000E+00 -0.10544848311E+04  0.13889822830E+04  0.90406499958E+03 0.  0.
        1    1    3    3  502    0 -0.25950857359E+03  0.14996395924E+03 -0.73675392535E+01  0.29981355790E+03  0.50400001928E-02 0.  1.
       -1    1    3    3    0  502  0.25950857359E+03 -0.14996395924E+03 -0.10471172918E+04  0.10891687251E+04  0.50400001928E-02 0. -1.
</event>
<event>
 5   0  0.8612969E-03  0.9010600E+03  0.7818609E-02  0.9424257E-01
       -1   -1    0    0    0  501  0.00000000000E+00  0.00000000000E+00  0.19229559052E+03  0.19229559059E+03  0.50400001928E-02 0. -1.
        1   -1    0    0  501    0  0.00000000000E+00  0.00000000000E+00 -0.10555483360E+04  0.10555483361E+04  0.50400001928E-02 0.  1.
    10030    2    1    2    0    0  0.00000000000E+00  0.00000000000E+00 -0.86325274552E+03  0.12478439266E+04  0.90106002164E+03 0.  0.
        4    1    3    3  502    0 -0.21048921957E+03  0.37232139392E+03 -0.62770420204E+03  0.75956771264E+03  0.12699999809E+01 0.  1.
       -4    1    3    3    0  502  0.21048921957E+03 -0.37232139392E+03 -0.23554854348E+03  0.48827621400E+03  0.12699999809E+01 0. -1.
</event>
<event>
 5   0  0.5770125E-03  0.8934118E+03  0.7818609E-02  0.9433855E-01
        3   -1    0    0  501    0  0.00000000000E+00  0.00000000000E+00  0.14113295482E+04  0.14113295519E+04  0.10100000352E+00 0.  1.
       -3   -1    0    0    0  501  0.00000000000E+00  0.00000000000E+00 -0.14138876979E+03  0.14138880586E+03  0.10100000352E+00 0. -1.
    10030    2    1    2    0    0  0.00000000000E+00  0.00000000000E+00  0.12699407785E+04  0.15527183577E+04  0.89341184098E+03 0.  0.
        1    1    3    3  502    0 -0.85827330112E+02 -0.10426213405E+03 -0.10506241505E+03  0.17109948647E+03  0.50400001928E-02 0. -1.
       -1    1    3    3    0  502  0.85827330112E+02  0.10426213405E+03  0.13750031935E+04  0.13816188712E+04  0.50400001928E-02 0.  1.
</event>
<event>
 5   0  0.1440615E-02  0.9033805E+03  0.7818609E-02  0.9421366E-01
        2   -1    0    0  501    0  0.00000000000E+00  0.00000000000E+00  0.11195489113E+04  0.11195489113E+04  0.25500000920E-02 0.  1.
       -2   -1    0    0    0  501  0.00000000000E+00  0.00000000000E+00 -0.18223773675E+03  0.18223773677E+03  0.25500000920E-02 0. -1.
    10030    2    1    2    0    0  0.00000000000E+00  0.00000000000E+00  0.93731117453E+03  0.13017866481E+04  0.90338045094E+03 0.  0.
        3    1    3    3  502    0  0.26137629785E+03 -0.21198212506E+03  0.34504958994E+02  0.33829660480E+03  0.10100000352E+00 0. -1.
       -3    1    3    3    0  502 -0.26137629785E+03  0.21198212506E+03  0.90280621554E+03  0.96349004325E+03  0.10100000352E+00 0.  1.
</event>
<event>
 5   0  0.8612969E-03  0.8965089E+03  0.7818609E-02  0.9429956E-01
       -1   -1    0    0    0  501  0.00000000000E+00  0.00000000000E+00  0.35980679839E+03  0.35980679843E+03  0.50400001928E-02 0.  1.
        1   -1    0    0  501    0  0.00000000000E+00  0.00000000000E+00 -0.55844429855E+03  0.55844429857E+03  0.50400001928E-02 0. -1.
    10030    2    1    2    0    0  0.00000000000E+00  0.00000000000E+00 -0.19863750015E+03  0.91825109700E+03  0.89650890719E+03 0.  0.
        4    1    3    3  502    0 -0.18432579574E+02  0.21563397322E+03  0.30274770406E+03  0.37214991013E+03  0.12699999809E+01 0.  1.
       -4    1    3    3    0  502  0.18432579574E+02 -0.21563397322E+03 -0.50138520421E+03  0.54610118687E+03  0.12699999809E+01 0. -1.
</event>
<event>
 5   0  0.1440615E-02  0.8886577E+03  0.7818609E-02  0.9439872E-01
       -2   -1    0    0    0  501  0.00000000000E+00  0.00000000000E+00  0.17856637806E+03  0.17856637808E+03  0.25500000920E-02 0.  1.
        2   -1    0    0  501    0  0.00000000000E+00  0.00000000000E+00 -0.11056287065E+04  0.11056287065E+04  0.25500000920E-02 0. -1.
    10030    2    1    2    0    0  0.00000000000E+00  0.00000000000E+00 -0.92706232839E+03  0.12841950845E+04  0.88865766998E+03 0.  0.
        3    1    3    3  502    0 -0.42994907652E+03  0.68747335804E+02 -0.59153185867E+03  0.73450143267E+03  0.10100000352E+00 0. -1.
       -3    1    3    3    0  502  0.42994907652E+03 -0.68747335804E+02 -0.33553046973E+03  0.54969365186E+03  0.10100000352E+00 0.  1.
</event>
<event>
 5   0  0.1454652E-02  0.9024042E+03  0.7818609E-02  0.9422581E-01
        2   -1    0    0  501    0  0.00000000000E+00  0.00000000000E+00  0.71286909839E+03  0.71286909839E+03  0.25500000920E-02 0. -1.
       -2   -1    0    0    0  501  0.00000000000E+00  0.00000000000E+00 -0.28558307484E+03  0.28558307486E+03  0.25500000920E-02 0.  1.
    10030    2    1    2    0    0  0.00000000000E+00  0.00000000000E+00  0.42728602354E+03  0.99845217325E+03  0.90240423112E+03 0.  0.
        4    1    3    3  502    0  0.43410297191E+03 -0.12235365964E+03  0.22789534288E+03  0.50532534911E+03  0.12699999809E+01 0.  1.
       -4    1    3    3    0  502 -0.43410297191E+03  0.12235365964E+03  0.19939068066E+03  0.49312682414E+03  0.12699999809E+01 0. -1.
</event>
<event>
 5   0  0.1535906E-02  0.8855979E+03  0.7818609E-02  0.9443766E-01
       -2   -1    0    0    0  501  0.00000000000E+00  0.00000000000E+00  0.77073553526E+03  0.77073553526E+03  0.25500000920E-02 0.  1.
        2   -1    0    0  501    0  0.00000000000E+00  0.00000000000E+00 -0.25439451393E+03  0.25439451394E+03  0.25500000920E-02 0. -1.
    10030    2    1    2    0    0  0.00000000000E+00  0.00000000000E+00  0.51634102133E+03  0.10251300492E+04  0.88559785878E+03 0.  0.
        2    1    3    3  502    0 -0.76865646575E+02  0.31193594092E+03 -0.94568356100E+02  0.33489630162E+03  0.25500000920E-02 0. -1.
       -2    1    3    3    0  502  0.76865646575E+02 -0.31193594092E+03  0.61090937743E+03  0.69023374758E+03  0.25500000920E-02 0.  1.
</event>
<event>
 5   0  0.1535906E-02  0.9077307E+03  0.7818609E-02  0.9415969E-01
       -2   -1    0    0    0  501  0.00000000000E+00  0.00000000000E+00  0.45906894772E+03  0.45906894772E+03  0.25500000920E-02 0.  1.
        2   -1    0    0  501    0  0.00000000000E+00  0.00000000000E+00 -0.44872076488E+03  0.44872076489E+03  0.25500000920E-02 0. -1.
    10030    2    1    2    0    0  0.00000000000E+00  0.00000000000E+00  0.10348182834E+02  0.90778971261E+03  0.90773072959E+03 0.  0.
        2    1    3    3  502    0  0.25499487100E+02 -0.72140743912E+02 -0.44222424222E+03  0.44879482081E+03  0.25500000920E-02 0. -1.
       -2    1    3    3    0  502 -0.25499487100E+02  0.72140743912E+02  0.45257242505E+03  0.45899489180E+03  0.25500000920E-02 0.  1.
</event>
<event>
 5   0  0.8885324E-03  0.9147079E+03  0.7818609E-02  0.9407380E-01
        1   -1    0    0  501    0  0.00000000000E+00  0.00000000000E+00  0.97511460201E+03  0.97511460203E+03  0.50400001928E-02 0.  1.
       -1   -1    0    0    0  501  0.00000000000E+00  0.00000000000E+00 -0.21451083643E+03  0.21451083649E+03  0.50400001928E-02 0. -1.
    10030    2    1    2    0    0  0.00000000000E+00  0.00000000000E+00  0.76060376558E+03  0.11896254385E+04  0.91470792921E+03 0.  0.
        2    1    3    3  502    0 -0.88427510670E+02  0.44870495523E+03  0.37492579483E+03  0.59137544176E+03  0.25500000920E-02 0.  1.
       -2    1    3    3    0  502  0.88427510670E+02 -0.44870495523E+03  0.38567797075E+03  0.59824999676E+03  0.25500000920E-02 0. -1.
</event>
<event>
 5   0  0.1535906E-02  0.9067282E+03  0.7818609E-02  0.9417210E-01
        2   -1    0    0  501    0  0.00000000000E+00  0.00000000000E+00  0.52041349566E+03  0.52041349566E+03  0.25500000920E-02 0.  1.
       -2   -1    0    0    0  501  0.00000000000E+00  0.00000000000E+00 -0.39495325191E+03  0.39495325192E+03  0.25500000920E-02 0. -1.
    10030    2    1    2    0    0  0.00000000000E+00  0.00000000000E+00  0.12546024375E+03  0.91536674758E+03  0.90672818960E+03 0.  0.
        2    1    3    3  502    0  0.40237027084E+03 -0.78920004710E+02  0.25798635429E+03  0.48444520950E+03  0.25500000920E-02 0.  1.
       -2    1    3    3    0  502 -0.40237027084E+03  0.78920004710E+02 -0.13252611054E+03  0.43092153808E+03  0.25500000920E-02 0. -1.
</event>
<event>
 5   0  0.1441195E-02  0.8935722E+03  0.7818609E-02  0.9433652E-01
        2   -1    0    0  501    0  0.00000000000E+00  0.00000000000E+00  0.39098389956E+03  0.39098389957E+03  0.25500000920E-02 0.  1.
       -2   -1    0    0    0  501  0.00000000000E+00  0.00000000000E+00 -0.51055255593E+03  0.51055255593E+03  0.25500000920E-02 0. -1.
    10030    2    1    2    0    0  0.00000000000E+00  0.00000000000E+00 -0.11956865637E+03  0.90153645550E+03  0.89357222261E+03 0.  0.
        5    1    3    3  502    0  0.20301029425E+03  0.19078809439E+03  0.29258843468E+03  0.40403385829E+03  0.46999998093E+01 0.  1.
       -5    1    3    3    0  502 -0.20301029425E+03 -0.19078809439E+03 -0.41215709105E+03  0.49750259722E+03  0.46999998093E+01 0. -1.
</event>
<event>
 5   0  0.1441195E-02  0.9052093E+03  0.7818609E-02  0.9419093E-01
       -2   -1    0    0    0  501  0.00000000000E+00  0.00000000000E+00  0.31203234024E+03  0.31203234025E+03  0.25500000920E-02 0. -1.
        2   -1    0    0  501    0  0.00000000000E+00  0.00000000000E+00 -0.65650555560E+03  0.65650555560E+03  0.25500000920E-02 0.  1.
    10030    2    1    2    0    0  0.00000000000E+00  0.00000000000E+00 -0.34447321536E+03  0.96853789585E+03  0.90520929049E+03 0.  0.
        5    1    3    3  502    0 -0.58657202029E+02  0.18845439311E+03  0.26353171860E+03  0.32928222293E+03  0.46999998093E+01 0. -1.
       -5    1    3    3    0  502  0.58657202029E+02 -0.18845439311E+03 -0.60800493396E+03  0.63925567292E+03  0.46999998093E+01 0.  1.
</event>
<event>
 5   0  0.1440615E-02  0.9212993E+03  0.7818609E-02  0.9399341E-01
        2   -1    0    0  501    0  0.00000000000E+00  0.00000000000E+00  0.70550381089E+03  0.70550381089E+03  0.25500000920E-02 0. -1.
       -2   -1    0    0    0  501  0.00000000000E+00  0.00000000000E+00 -0.30077527100E+03  0.30077527101E+03  0.25500000920E-02 0.  1.
    10030    2    1    2    0    0  0.00000000000E+00  0.00000000000E+00  0.40472853989E+03  0.10062790819E+04  0.92129929972E+03 0.  0.
        3    1    3    3  502    0 -0.41760788384E+03  0.19406532643E+03  0.18942254364E+03  0.49793433885E+03  0.10100000352E+00 0.  1.
       -3    1    3    3    0  502  0.41760788384E+03 -0.19406532643E+03  0.21530599625E+03  0.50834474305E+03  0.10100000352E+00 0. -1.
</event>
<event>
 5   0  0.8524692E-03  0.9183100E+03  0.7818609E-02  0.9402978E-01
        1   -1    0    0  501    0  0.00000000000E+00  0.00000000000E+00  0.26315018360E+03  0.26315018365E+03  0.50400001928E-02 0.  1.
       -1   -1    0    0    0  501  0.00000000000E+00  0.00000000000E+00 -0.80115207893E+03  0.80115207894E+03  0.50400001928E-02 0. -1.
    10030    2    1    2    0    0  0.00000000000E+00  0.00000000000E+00 -0.53800189532E+03  0.10643022626E+04  0.91831000582E+03 0.  0.
        5    1    3    3  502    0 -0.45440253211E+03  0.25636650841E+02 -0.33913909120E+03  0.56760577185E+03  0.46999998093E+01 0.  1.
       -5    1    3    3    0  502  0.45440253211E+03 -0.25636650841E+02 -0.19886280412E+03  0.49669649074E+03  0.46999998093E+01 0. -1.
</event>
<event>
 5   0  0.8291252E-03  0.8980885E+03  0.7818609E-02  0.9427974E-01
        1   -1    0    0  501    0  0.00000000000E+00  0.00000000000E+00  0.10853324765E+04  0.10853324766E+04  0.50400001928E-02 0. -1.
       -1   -1    0    0    0  501  0.00000000000E+00  0.00000000000E+00 -0.18578708048E+03  0.18578708055E+03  0.50400001928E-02 0.  1.
    10030    2    1    2    0    0  0.00000000000E+00  0.00000000000E+00  0.89954539606E+03  0.12711195571E+04  0.89808853065E+03 0.  0.
        1    1    3    3  502    0  0.30016073950E+03  0.89861621850E+02 -0.55011839672E+01  0.31337173400E+03  0.50400001928E-02 0. -1.
       -1    1    3    3    0  502 -0.30016073950E+03 -0.89861621850E+02  0.90504658003E+03  0.95774782311E+03  0.50400001928E-02 0.  1.
</event>
<event>
 5   0  0.1440615E-02  0.9313372E+03  0.7818609E-02  0.9387235E-01
       -2   -1    0    0    0  501  0.00000000000E+00  0.00000000000E+00  0.24742719580E+03  0.24742719582E+03  0.25500000920E-02 0. -1.
        2   -1    0    0  501    0  0.00000000000E+00  0.00000000000E+00 -0.87640819923E+03  0.87640819923E+03  0.25500000920E-02 0.  1.
    10030    2    1    2    0    0  0.00000000000E+00  0.00000000000E+00 -0.62898100342E+03  0.11238353951E+04  0.93133715297E+03 0.  0.
        3    1    3    3  502    0 -0.37425459392E+03 -0.67634242059E+02 -0.63874304200E+03  0.74339328465E+03  0.10100000352E+00 0.  1.
       -3    1    3    3    0  502  0.37425459392E+03  0.67634242059E+02  0.97620385709E+01  0.38044211040E+03  0.10100000352E+00 0. -1.
</event>
<event>
 5   0  0.5770125E-03  0.8619731E+03  0.7818609E-02  0.9474406E-01
        4   -1    0    0  501    0  0.00000000000E+00  0.00000000000E+00  0.30784133093E+03  0.30784395062E+03  0.12699999809E+01 0. -1.
       -4   -1    0    0    0  501  0.00000000000E+00  0.00000000000E+00 -0.60338749206E+03  0.60338882860E+03  0.12699999809E+01 0.  1.
    10030    2    1    2    0    0  0.00000000000E+00  0.00000000000E+00 -0.29554616113E+03  0.91123277921E+03  0.86197311127E+03 0.  0.
        1    1    3    3  502    0  0.54950981523E+02 -0.42672517426E+03 -0.17442130286E+03  0.46425938400E+03  0.50400001928E-02 0.  1.
       -1    1    3    3    0  502 -0.54950981523E+02  0.42672517426E+03 -0.12112485827E+03  0.44697339522E+03  0.50400001928E-02 0. -1.
</event>
<event>
 5   0  0.1454652E-02  0.8982594E+03  0.7818609E-02  0.9427760E-01
        2   -1    0    0  501    0  0.00000000000E+00  0.00000000000E+00  0.23772219698E+04  0.23772219698E+04  0.25500000920E-02 0. -1.
       -2   -1    0    0    0  501  0.00000000000E+00  0.00000000000E+00 -0.84854295895E+02  0.84854295934E+02  0.25500000920E-02 0.  1.
    10030    2    1    2    0    0  0.00000000000E+00  0.00000000000E+00  0.22923676739E+04  0.24620762658E+04  0.89825942018E+03 0.  0.
        4    1    3    3  502    0  0.33839841629E+01  0.27663284435E+03  0.17642232767E+03  0.32812136858E+03  0.12699999809E+01 0.  1.
       -4    1    3    3    0  502 -0.33839841629E+01 -0.27663284435E+03  0.21159453463E+04  0.21339548972E+04  0.12699999809E+01 0. -1.
</event>
<event>
 5   0  0.5770125E-03  0.8418386E+03  0.7818609E-02  0.9501357E-01
       -3   -1    0    0    0  501  0.00000000000E+00  0.00000000000E+00  0.13044781750E+03  0.13044785660E+03  0.10100000352E+00 0.  1.
        3   -1    0    0  501    0  0.00000000000E+00  0.00000000000E+00 -0.13581907270E+04  0.13581907308E+04  0.10100000352E+00 0. -1.
    10030    2    1    2    0    0  0.00000000000E+00  0.00000000000E+00 -0.12277429095E+04  0.14886385874E+04  0.84183857831E+03 0.  0.
        4    1    3    3  502    0 -0.18560820914E+03  0.24300196574E+03 -0.11253743733E+04  0.11661772831E+04  0.12699999809E+01 0. -1.
       -4    1    3    3    0  502  0.18560820914E+03 -0.24300196574E+03 -0.10236853626E+03  0.32246130430E+03  0.12699999809E+01 0.  1.
</event>
<event>
 5   0  0.8612969E-03  0.9029239E+03  0.7818609E-02  0.9421934E-01
        1   -1    0    0  501    0  0.00000000000E+00  0.00000000000E+00  0.32336641413E+03  0.32336641417E+03  0.50400001928E-02 0. -1.
       -1   -1    0    0    0  501  0.00000000000E+00  0.00000000000E+00 -0.63030014947E+03  0.63030014949E+03  0.50400001928E-02 0.  1.
    10030    2    1    2    0    0  0.00000000000E+00  0.00000000000E+00 -0.30693373534E+03  0.95366656366E+03  0.90292391526E+03 0.  0.
        4    1    3    3  502    0 -0.25858151824E+03  0.34156803229E+03 -0.30442120903E+01  0.42842035711E+03  0.12699999809E+01 0. -1.
       -4    1    3    3    0  502  0.25858151824E+03 -0.34156803229E+03 -0.30388952325E+03  0.52524620655E+03  0.12699999809E+01 0.  1.
</event>
<event>
 5   0  0.1454652E-02  0.9067941E+03  0.7818609E-02  0.9417128E-01
        2   -1    0    0  501    0  0.00000000000E+00  0.00000000000E+00  0.21781533233E+03  0.21781533234E+03  0.25500000920E-02 0.  1.
       -2   -1    0    0    0  501  0.00000000000E+00  0.00000000000E+00 -0.94377593142E+03  0.94377593143E+03  0.25500000920E-02 0. -1.
    10030    2    1    2    0    0  0.00000000000E+00  0.00000000000E+00 -0.72596059910E+03  0.11615912638E+04  0.90679406296E+03 0.  0.
        4    1    3    3  502    0 -0.17254556955E+03  0.28592228619E+03  0.29854169111E+02  0.33528556728E+03  0.12699999809E+01 0.  1.
       -4    1    3    3    0  502  0.17254556955E+03 -0.28592228619E+03 -0.75581476821E+03  0.82630569649E+03  0.12699999809E+01 0. -1.
</event>
<event>
 5   0  0.1483326E-02  0.9014501E+03  0.7818609E-02  0.9423771E-01
        2   -1    0    0  501    0  0.00000000000E+00  0.00000000000E+00  0.19355133914E+04  0.19355133914E+04  0.25500000920E-02 0.  1.
       -2   -1    0    0    0  501  0.00000000000E+00  0.00000000000E+00 -0.10496081721E+03  0.10496081724E+03  0.25500000920E-02 0. -1.
    10030    2    1    2    0    0  0.00000000000E+00  0.00000000000E+00  0.18305525742E+04  0.20404742086E+04  0.90145009250E+03 0.  0.
        1    1    3    3  502    0 -0.32843705599E+03 -0.25572623180E+03  0.13065901387E+04  0.13712930379E+04  0.50400001928E-02 0.  1.
       -1    1    3    3    0  502  0.32843705599E+03  0.25572623180E+03  0.52396243550E+03  0.66918117070E+03  0.50400001928E-02 0. -1.
</event>
<event>
 5   0  0.1535906E-02  0.9012566E+03  0.7818609E-02  0.9424012E-01
        2   -1    0    0  501    0  0.00000000000E+00  0.00000000000E+00  0.29802649627E+03  0.29802649628E+03  0.25500000920E-02 0. -1.
       -2   -1    0    0    0  501  0.00000000000E+00  0.00000000000E+00 -0.68136854009E+03  0.68136854009E+03  0.25500000920E-02 0.  1.
    10030    2    1    2    0    0  0.00000000000E+00  0.00000000000E+00 -0.38334204382E+03  0.97939503637E+03  0.90125663088E+03 0.  0.
        2    1    3    3  502    0 -0.31047472823E+03 -0.72020796866E+02  0.15451450948E+03  0.35419808821E+03  0.25500000920E-02 0. -1.
       -2    1    3    3    0  502  0.31047472823E+03  0.72020796866E+02 -0.53785655330E+03  0.62519694816E+03  0.25500000920E-02 0.  1.
</event>
<event>
 5   0  0.8738044E-03  0.8997021E+03  0.7818609E-02  0.9425954E-01
       -1   -1    0    0    0  501  0.00000000000E+00  0.00000000000E+00  0.36648739340E+03  0.36648739344E+03  0.50400001928E-02 0.  1.
        1   -1    0    0  501    0  0.00000000000E+00  0.00000000000E+00 -0.55217721852E+03  0.55217721854E+03  0.50400001928E-02 0. -1.
    10030    2    1    2    0    0  0.00000000000E+00  0.00000000000E+00 -0.18568982512E+03  0.91866461198E+03  0.89970214969E+03 0.  0.
        3    1    3    3  502    0  0.14833235235E+03 -0.16629002854E+02  0.34046574722E+03  0.37174715295E+03  0.10100000352E+00 0.  1.
       -3    1    3    3    0  502 -0.14833235235E+03  0.16629002854E+02 -0.52615557234E+03  0.54691745903E+03  0.10100000352E+00 0. -1.
</event>
<event>
 5   0  0.5770125E-03  0.8981336E+03  0.7818609E-02  0.9427918E-01
       -3   -1    0    0    0  501  0.00000000000E+00  0.00000000000E+00  0.44223288600E+03  0.44223289753E+03  0.10100000352E+00 0.  1.
        3   -1    0    0  501    0  0.00000000000E+00  0.00000000000E+00 -0.45600627224E+03  0.45600628343E+03  0.10100000352E+00 0. -1.
    10030    2    1    2    0    0  0.00000000000E+00  0.00000000000E+00 -0.13773386245E+02  0.89823918096E+03  0.89813357583E+03 0.  0.
        4    1    3    3  502    0 -0.11064927814E+03  0.41352025700E+03  0.12883888565E+03  0.44703840669E+03  0.12699999809E+01 0.  1.
       -4    1    3    3    0  502  0.11064927814E+03 -0.41352025700E+03 -0.14261227189E+03  0.45120077426E+03  0.12699999809E+01 0. -1.
</event>
<event>
 5   0  0.8291252E-03  0.8286806E+03  0.7818609E-02  0.9519406E-01
        1   -1    0    0  501    0  0.00000000000E+00  0.00000000000E+00  0.24321460894E+03  0.24321460900E+03  0.50400001928E-02 0.  1.
       -1   -1    0    0    0  501  0.00000000000E+00  0.00000000000E+00 -0.70586990773E+03  0.70586990775E+03  0.50400001928E-02 0. -1.
    10030    2    1    2    0    0  0.00000000000E+00  0.00000000000E+00 -0.46265529879E+03  0.94908451675E+03  0.82868057442E+03 0.  0.
        1    1    3    3  502    0  0.11287944308E+03 -0.20734054626E+03 -0.62131059973E+03  0.66464933022E+03  0.50400001928E-02 0. -1.
       -1    1    3    3    0  502 -0.11287944308E+03  0.20734054626E+03  0.15865530094E+03  0.28443518653E+03  0.50400001928E-02 0.  1.
</event>
<event>
 5   0  0.8885324E-03  0.8667013E+03  0.7818609E-02  0.9468191E-01
       -1   -1    0    0    0  501  0.00000000000E+00  0.00000000000E+00  0.24335326811E+03  0.24335326817E+03  0.50400001928E-02 0. -1.
        1   -1    0    0  501    0  0.00000000000E+00  0.00000000000E+00 -0.77168802933E+03  0.77168802934E+03  0.50400001928E-02 0.  1.
    10030    2    1    2    0    0  0.00000000000E+00  0.00000000000E+00 -0.52833476121E+03  0.10150412975E+04  0.86670134172E+03 0.  0.
        2    1    3    3  502    0 -0.73339387766E+01  0.43101747982E+03 -0.31605560277E+03  0.53452876314E+03  0.25500000920E-02 0. -1.
       -2    1    3    3    0  502  0.73339387766E+01 -0.43101747982E+03 -0.21227915844E+03  0.48051253437E+03  0.25500000920E-02 0.  1.
</event>
<event>
 5   0  0.1535906E-02  0.8843703E+03  0.7818609E-02  0.9445333E-01
        2   -1    0    0  501    0  0.00000000000E+00  0.00000000000E+00  0.13435813891E+04  0.13435813891E+04  0.25500000920E-02 0. -1.
       -2   -1    0    0    0  501  0.00000000000E+00  0.00000000000E+00 -0.14552726669E+03  0.14552726671E+03  0.25500000920E-02 0.  1.
    10030    2    1    2    0    0  0.00000000000E+00  0.00000000000E+00  0.11980541224E+04  0.14891086558E+04  0.88437034584E+03 0.  0.
        2    1    3    3  502    0 -0.28739091979E+03 -0.33600643421E+03  0.60882538818E+03  0.75243751761E+03  0.25500000920E-02 0. -1.
       -2    1    3    3    0  502  0.28739091979E+03  0.33600643421E+03  0.58922873425E+03  0.73667113822E+03  0.25500000920E-02 0.  1.
</event>
<event>
 5   0  0.1441195E-02  0.9125994E+03  0.7818609E-02  0.9409967E-01
       -2   -1    0    0    0  501  0.00000000000E+00  0.00000000000E+00  0.17599120610E+03  0.17599120612E+03  0.25500000920E-02 0. -1.
        2   -1    0    0  501    0  0.00000000000E+00  0.00000000000E+00 -0.11830671718E+04  0.11830671718E+04  0.25500000920E-02 0.  1.
    10030    2    1    2    0    0  0.00000000000E+00  0.00000000000E+00 -0.10070759657E+04  0.13590583779E+04  0.91259940494E+03 0.  0.
        5    1    3    3  502    0 -0.22643184478E+03 -0.27238935955E+03 -0.75223110915E+02  0.36214354881E+03  0.46999998093E+01 0. -1.
       -5    1    3    3    0  502  0.22643184478E+03  0.27238935955E+03 -0.93185285479E+03  0.99691482912E+03  0.46999998093E+01 0.  1.
</event>
<event>
 5   0  0.8291252E-03  0.8929594E+03  0.7818609E-02  0.9434426E-01
        1   -1    0    0  501    0  0.00000000000E+00  0.00000000000E+00  0.26573038638E+03  0.26573038643E+03  0.50400001928E-02 0. -1.
       -1   -1    0    0    0  501  0.00000000000E+00  0.00000000000E+00 -0.75017441823E+03  0.75017441825E+03  0.50400001928E-02 0.  1.
    10030    2    1    2    0    0  0.00000000000E+00  0.00000000000E+00 -0.48444403185E+03  0.10159048047E+04  0.89295943479E+03 0.  0.
        1    1    3    3  502    0  0.33315020624E+03  0.29346764321E+03 -0.18847542612E+03  0.48232282116E+03  0.50400001928E-02 0. -1.
       -1    1    3    3    0  502 -0.33315020624E+03 -0.29346764321E+03 -0.29596860573E+03  0.53358198352E+03  0.50400001928E-02 0.  1.
</event>
<event>
 5   0  0.1483326E-02  0.9010613E+03  0.7818609E-02  0.9424256E-01
        2   -1    0    0  501    0  0.00000000000E+00  0.00000000000E+00  0.51107410531E+03  0.51107410532E+03  0.25500000920E-02 0.  1.
       -2   -1    0    0    0  501  0.00000000000E+00  0.00000000000E+00 -0.39715933058E+03  0.39715933058E+03  0.25500000920E-02 0. -1.
    10030    2    1    2    0    0  0.00000000000E+00  0.00000000000E+00  0.11391477474E+03  0.90823343590E+03  0.90106126217E+03 0.  0.
        1    1    3    3  502    0  0.14836379042E+03  0.17706909995E+03  0.44683402063E+03  0.50301682127E+03  0.50400001928E-02 0.  1.
       -1    1    3    3    0  502 -0.14836379042E+03 -0.17706909995E+03 -0.33291924589E+03  0.40521661463E+03  0.50400001928E-02 0. -1.
</event>
<event>
 5   0  0.8612969E-03  0.8997331E+03  0.7818609E-02  0.9425915E-01
       -1   -1    0    0    0  501  0.00000000000E+00  0.00000000000E+00  0.30981661060E+03  0.30981661064E+03  0.50400001928E-02 0.  1.
        1   -1    0    0  501    0  0.00000000000E+00  0.00000000000E+00 -0.65322482178E+03  0.65322482180E+03  0.50400001928E-02 0. -1.
    10030    2    1    2    0    0  0.00000000000E+00  0.00000000000E+00 -0.34340821119E+03  0.96304143244E+03  0.89973307213E+03 0.  0.
        4    1    3    3  502    0 -0.19489824106E+03  0.16747021612E+03 -0.56693745856E+03  0.62245585584E+03  0.12699999809E+01 0. -1.
       -4    1    3    3    0  502  0.19489824106E+03 -0.16747021612E+03  0.22352924737E+03  0.34058557660E+03  0.12699999809E+01 0.  1.
</event>
<event>
 5   0  0.1441195E-02  0.9018378E+03  0.7818609E-02  0.9423287E-01
       -2   -1    0    0    0  501  0.00000000000E+00  0.00000000000E+00  0.20779209677E+03  0.20779209678E+03  0.25500000920E-02 0. -1.
        2   -1    0    0  501    0  0.00000000000E+00  0.00000000000E+00 -0.97851571535E+03  0.97851571536E+03  0.25500000920E-02 0.  1.
    10030    2    1    2    0    0  0.00000000000E+00  0.00000000000E+00 -0.77072361859E+03  0.11863078121E+04  0.90183775087E+03 0.  0.
        5    1    3    3  502    0  0.25789456852E+03 -0.34323625786E+03 -0.56661027461E+03  0.71090789169E+03  0.46999998093E+01 0.  1.
       -5    1    3    3    0  502 -0.25789456852E+03  0.34323625786E+03 -0.20411334398E+03  0.47539992045E+03  0.46999998093E+01 0. -1.
</event>
<event>
 5   0  0.1483326E-02  0.8888032E+03  0.7818609E-02  0.9439687E-01
       -2   -1    0    0    0  501  0.00000000000E+00  0.00000000000E+00  0.13069174809E+04  0.13069174809E+04  0.25500000920E-02 0.  1.
        2   -1    0    0  501    0  0.00000000000E+00  0.00000000000E+00 -0.15111341874E+03  0.15111341876E+03  0.25500000920E-02 0. -1.
    10030    2    1    2    0    0  0.00000000000E+00  0.00000000000E+00  0.11558040622E+04  0.14580308997E+04  0.88880316960E+03 0.  0.
        1    1    3    3  502    0 -0.42831208466E+03  0.28425740866E+02  0.76661361454E+03  0.87861009477E+03  0.50400001928E-02 0.  1.
       -1    1    3    3    0  502  0.42831208466E+03 -0.28425740866E+02  0.38919044763E+03  0.57942080491E+03  0.50400001928E-02 0. -1.
</event>
<event>
 5   0  0.1441195E-02  0.8967362E+03  0.7818609E-02  0.9429671E-01
       -2   -1    0    0    0  501  0.00000000000E+00  0.00000000000E+00  0.35718698230E+03  0.35718698231E+03  0.25500000920E-02 0.  1.
        2   -1    0    0  501    0  0.00000000000E+00  0.00000000000E+00 -0.56282550498E+03  0.56282550499E+03  0.25500000920E-02 0. -1.
    10030    2    1    2    0    0  0.00000000000E+00  0.00000000000E+00 -0.20563852269E+03  0.92001248729E+03  0.89673617902E+03 0.  0.
        5    1    3    3  502    0 -0.11317687273E+03  0.25193510614E+03 -0.46516002257E+03  0.54099559964E+03  0.46999998093E+01 0. -1.
       -5    1    3    3    0  502  0.11317687273E+03 -0.25193510614E+03  0.25952149989E+03  0.37901688766E+03  0.46999998093E+01 0.  1.
</event>
<event>
 5   0  0.1441195E-02  0.9017495E+03  0.7818609E-02  0.9423397E-01
       -2   -1    0    0    0  501  0.00000000000E+00  0.00000000000E+00  0.10512912204E+04  0.10512912204E+04  0.25500000920E-02 0. -1.
        2   -1    0    0  501    0  0.00000000000E+00  0.00000000000E+00 -0.19336985327E+03  0.19336985329E+03  0.25500000920E-02 0.  1.
    10030    2    1    2    0    0  0.00000000000E+00  0.00000000000E+00  0.85792136709E+03  0.12446610736E+04  0.90174947526E+03 0.  0.
        5    1    3    3  502    0  0.73451682597E+02 -0.33665165661E+03  0.83027736833E+03  0.89895054699E+03  0.46999998093E+01 0. -1.
       -5    1    3    3    0  502 -0.73451682597E+02  0.33665165661E+03  0.27643998755E+02  0.34571052665E+03  0.46999998093E+01 0.  1.
</event>
<event>
 5   0  0.5770125E-03  0.9075041E+03  0.7818609E-02  0.9416249E-01
       -4   -1    0    0    0  501  0.00000000000E+00  0.00000000000E+00  0.11953931710E+04  0.11953938457E+04  0.12699999809E+01 0.  1.
        4   -1    0    0  501    0  0.00000000000E+00  0.00000000000E+00 -0.17223391646E+03  0.17223859869E+03  0.12699999809E+01 0. -1.
    10030    2    1    2    0    0  0.00000000000E+00  0.00000000000E+00  0.10231592546E+04  0.13676324444E+04  0.90750407306E+03 0.  0.
        4    1    3    3  502    0 -0.13399997625E+03 -0.53461115358E+02  0.11599078707E+04  0.11688464253E+04  0.12699999809E+01 0.  1.
       -4    1    3    3    0  502  0.13399997625E+03  0.53461115358E+02 -0.13674861609E+03  0.19878601910E+03  0.12699999809E+01 0. -1.
</event>
<event>
 5   0  0.1440615E-02  0.8971943E+03  0.7818609E-02  0.9429096E-01
       -2   -1    0    0    0  501  0.00000000000E+00  0.00000000000E+00  0.16321052818E+03  0.16321052820E+03  0.25500000920E-02 0.  1.
        2   -1    0    0  501    0  0.00000000000E+00  0.00000000000E+00 -0.12330050088E+04  0.12330050088E+04  0.25500000920E-02 0. -1.
    10030    2    1    2    0    0  0.00000000000E+00  0.00000000000E+00 -0.10697944806E+04  0.13962155370E+04  0.89719429054E+03 0.  0.
        3    1    3    3  502    0 -0.38154198866E+02 -0.30326839709E+03 -0.23922577779E+02  0.30659380864E+03  0.10100000352E+00 0.  1.
       -3    1    3    3    0  502  0.38154198866E+02  0.30326839709E+03 -0.10458719028E+04  0.10896217283E+04  0.10100000352E+00 0. -1.
</event>
<event>
 5   0  0.8885324E-03  0.8948614E+03  0.7818609E-02  0.9432028E-01
        1   -1    0    0  501    0  0.00000000000E+00  0.00000000000E+00  0.44208015593E+03  0.44208015596E+03  0.50400001928E-02 0. -1.
       -1   -1    0    0    0  501  0.00000000000E+00  0.00000000000E+00 -0.45284597290E+03  0.45284597293E+03  0.50400001928E-02 0.  1.
    10030    2    1    2    0    0  0.00000000000E+00  0.00000000000E+00 -0.10765816974E+02  0.89492612889E+03  0.89486137103E+03 0.  0.
        2    1    3    3  502    0  0.17328386089E+03 -0.15694857076E+03 -0.38689979190E+03  0.45205265101E+03  0.25500000920E-02 0.  1.
       -2    1    3    3    0  502 -0.17328386089E+03  0.15694857076E+03  0.37613397492E+03  0.44287347788E+03  0.25500000920E-02 0. -1.
</event>
<event>
 5   0  0.1454652E-02  0.8184866E+03  0.7818609E-02  0.9533637E-01
        2   -1    0    0  501    0  0.00000000000E+00  0.00000000000E+00  0.11181208115E+04  0.11181208115E+04  0.25500000920E-02 0. -1.
       -2   -1    0    0    0  501  0.00000000000E+00  0.00000000000E+00 -0.14978709961E+03  0.14978709964E+03  0.25500000920E-02 0.  1.
    10030    2    1    2    0    0  0.00000000000E+00  0.00000000000E+00  0.96833371187E+03  0.12679079111E+04  0.81848658727E+03 0.  0.
        4    1    3    3  502    0 -0.23957442356E+03  0.31755906457E+03  0.33527057617E+03  0.52023805711E+03  0.12699999809E+01 0.  1.
       -4    1    3    3    0  502  0.23957442356E+03 -0.31755906457E+03  0.63306313570E+03  0.74766985401E+03  0.12699999809E+01 0. -1.
</event>
<event>
 5   0  0.8738044E-03  0.9002988E+03  0.7818609E-02  0.9425208E-01
        1   -1    0    0  501    0  0.00000000000E+00  0.00000000000E+00  0.11504458178E+04  0.11504458178E+04  0.50400001928E-02 0.  1.
       -1   -1    0    0    0  501  0.00000000000E+00  0.00000000000E+00 -0.17613559756E+03  0.17613559763E+03  0.50400001928E-02 0. -1.
    10030    2    1    2    0    0  0.00000000000E+00  0.00000000000E+00  0.97431022028E+03  0.13265814155E+04  0.90029875406E+03 0.  0.
        3    1    3    3  502    0 -0.18122299418E+03  0.15251942388E+03 -0.76886677262E+02  0.24902915416E+03  0.10100000352E+00 0. -1.
       -3    1    3    3    0  502  0.18122299418E+03 -0.15251942388E+03  0.10511968975E+04  0.10775522613E+04  0.10100000352E+00 0.  1.
</event>
<event>
 5   0  0.1440615E-02  0.9110231E+03  0.7818609E-02  0.9411906E-01
       -2   -1    0    0    0  501  0.00000000000E+00  0.00000000000E+00  0.18468328148E+03  0.18468328150E+03  0.25500000920E-02 0. -1.
        2   -1    0    0  501    0  0.00000000000E+00  0.00000000000E+00 -0.11234952024E+04  0.11234952024E+04  0.25500000920E-02 0.  1.
    10030    2    1    2    0    0  0.00000000000E+00  0.00000000000E+00 -0.93881192087E+03  0.13081784839E+04  0.91102311873E+03 0.  0.
        3    1    3    3  502    0 -0.15270974253E+03 -0.11075693721E+03 -0.10647662234E+04  0.10813484569E+04  0.10100000352E+00 0.  1.
       -3    1    3    3    0  502  0.15270974253E+03  0.11075693721E+03  0.12595430251E+03  0.22683002695E+03  0.10100000352E+00 0. -1.
</event>
<event>
 5   0  0.8612969E-03  0.9010459E+03  0.7818609E-02  0.9424275E-01
       -1   -1    0    0    0  501  0.00000000000E+00  0.00000000000E+00  0.94212745157E+03  0.94212745158E+03  0.50400001928E-02 0. -1.
        1   -1    0    0  501    0  0.00000000000E+00  0.00000000000E+00 -0.21543893565E+03  0.21543893571E+03  0.50400001928E-02 0.  1.
    10030    2    1    2    0    0  0.00000000000E+00  0.00000000000E+00  0.72668851592E+03  0.11575663873E+04  0.90104591548E+03 0.  0.
        4    1    3    3  502    0  0.13774363967E+03  0.56147102295E+02  0.90966847910E+03  0.92175059649E+03  0.12699999809E+01 0. -1.
       -4    1    3    3    0  502 -0.13774363967E+03 -0.56147102295E+02 -0.18297996318E+03  0.23581579080E+03  0.12699999809E+01 0.  1.
</event>
<event>
 5   0  0.1483326E-02  0.9060902E+03  0.7818609E-02  0.9418000E-01
       -2   -1    0    0    0  501  0.00000000000E+00  0.00000000000E+00  0.11608969774E+03  0.11608969777E+03  0.25500000920E-02 0. -1.
        2   -1    0    0  501    0  0.00000000000E+00  0.00000000000E+00 -0.17680282925E+04  0.17680282925E+04  0.25500000920E-02 0.  1.
    10030    2    1    2    0    0  0.00000000000E+00  0.00000000000E+00 -0.16519385948E+04  0.18841179903E+04  0.90609021649E+03 0.  0.
        1    1    3    3  502    0 -0.43349924001E+03 -0.13033526298E+03 -0.78757093451E+03  0.90839245306E+03  0.50400001928E-02 0.  1.
       -1    1    3    3    0  502  0.43349924001E+03  0.13033526298E+03 -0.86436766027E+03  0.97572553723E+03  0.50400001928E-02 0. -1.
</event>
<event>
 5   0  0.8524692E-03  0.9051214E+03  0.7818609E-02  0.9419202E-01
       -1   -1    0    0    0  501  0.00000000000E+00  0.00000000000E+00  0.27928707365E+03  0.27928707370E+03  0.50400001928E-02 0. -1.
        1   -1    0    0  501    0  0.00000000000E+00  0.00000000000E+00 -0.73333574052E+03  0.73333574053E+03  0.50400001928E-02 0.  1.
    10030    2    1    2    0    0  0.00000000000E+00  0.00000000000E+00 -0.45404866686E+03  0.10126228142E+04  0.90512141286E+03 0.  0.
        5    1    3    3  502    0  0.41378945757E+03  0.99763298005E+02 -0.39894648158E+03  0.58339936235E+03  0.46999998093E+01 0.  1.
       -5    1    3    3    0  502 -0.41378945757E+03 -0.99763298005E+02 -0.55102185282E+02  0.42922345188E+03  0.46999998093E+01 0. -1.
</event>
<event>
 5   0  0.8612969E-03  0.8591299E+03  0.7818609E-02  0.9478164E-01
        1   -1    0    0  501    0  0.00000000000E+00  0.00000000000E+00  0.94711551079E+03  0.94711551080E+03  0.50400001928E-02 0.  1.
       -1   -1    0    0    0  501  0.00000000000E+00  0.00000000000E+00 -0.19482948469E+03  0.19482948476E+03  0.50400001928E-02 0. -1.
    10030    2    1    2    0    0  0.00000000000E+00  0.00000000000E+00  0.75228602610E+03  0.11419449956E+04  0.85912985505E+03 0.  0.
        4    1    3    3  502    0 -0.12380084606E+03  0.39013600781E+03  0.54940539430E+03  0.68511360683E+03  0.12699999809E+01 0. -1.
       -4    1    3    3    0  502  0.12380084606E+03 -0.39013600781E+03  0.20288063180E+03  0.45683138874E+03  0.12699999809E+01 0.  1.
</event>
<event>
 5   0  0.1440615E-02  0.9454268E+03  0.7818609E-02  0.9370512E-01
        2   -1    0    0  501    0  0.00000000000E+00  0.00000000000E+00  0.13707965878E+04  0.13707965878E+04  0.25500000920E-02 0. -1.
       -2   -1    0    0    0  501  0.00000000000E+00  0.00000000000E+00 -0.16301320023E+03  0.16301320025E+03  0.25500000920E-02 0.  1.
    10030    2    1    2    0    0  0.00000000000E+00  0.00000000000E+00  0.12077833876E+04  0.15338097880E+04  0.94542675795E+03 0.  0.
        3    1    3    3  502    0 -0.21175707043E+03 -0.21263363149E+03  0.11964454184E+04  0.12335054793E+04  0.10100000352E+00 0. -1.
       -3    1    3    3    0  502  0.21175707043E+03  0.21263363149E+03  0.11337969202E+02  0.30030430877E+03  0.10100000352E+00 0.  1.
</event>
<event>
 5   0  0.8524692E-03  0.8829906E+03  0.7818609E-02  0.9447097E-01
        1   -1    0    0  501    0  0.00000000000E+00  0.00000000000E+00  0.52534646282E+03  0.52534646285E+03  0.50400001928E-02 0. -1.
       -1   -1    0    0    0  501  0.00000000000E+00  0.00000000000E+00 -0.37102768467E+03  0.37102768470E+03  0.50400001928E-02 0.  1.
    10030    2    1    2    0    0  0.00000000000E+00  0.00000000000E+00  0.15431877816E+03  0.89637414755E+03  0.88299055890E+03 0.  0.
        5    1    3    3  502    0  0.47856206944E+02  0.41292286702E+03 -0.73756208123E+02  0.42220561210E+03  0.46999998093E+01 0.  1.
       -5    1    3    3    0  502 -0.47856206944E+02 -0.41292286702E+03  0.22807498628E+03  0.47416853545E+03  0.46999998093E+01 0. -1.
</event>
<event>
 5   0  0.8738044E-03  0.9035016E+03  0.7818609E-02  0.9421215E-01
       -1   -1    0    0    0  501  0.00000000000E+00  0.00000000000E+00  0.39203049843E+03  0.39203049847E+03  0.50400001928E-02 0.  1.
        1   -1    0    0  501    0  0.00000000000E+00  0.00000000000E+00 -0.52056864632E+03  0.52056864634E+03  0.50400001928E-02 0. -1.
    10030    2    1    2    0    0  0.00000000000E+00  0.00000000000E+00 -0.12853814788E+03  0.91259914481E+03  0.90350160135E+03 0.  0.
        3    1    3    3  502    0  0.41894428741E+03 -0.12328744987E+03 -0.18103877295E+03  0.47274640004E+03  0.10100000352E+00 0.  1.
       -3    1    3    3    0  502 -0.41894428741E+03  0.12328744987E+03  0.52500625061E+02  0.43985274476E+03  0.10100000352E+00 0. -1.
</event>
<event>
 5   0  0.8885324E-03  0.9679653E+03  0.7818609E-02  0.9344395E-01
        1   -1    0    0  501    0  0.00000000000E+00  0.00000000000E+00  0.16706092873E+04  0.16706092873E+04  0.50400001928E-02 0. -1.
       -1   -1    0    0    0  501  0.00000000000E+00  0.00000000000E+00 -0.14021184488E+03  0.14021184497E+03  0.50400001928E-02 0.  1.
    10030    2    1    2    0    0  0.00000000000E+00  0.00000000000E+00  0.15303974424E+04  0.18108211323E+04  0.96796531000E+03 0.  0.
        2    1    3    3  502    0  0.57589776598E+02 -0.15589121678E+03 -0.85160693237E+02  0.18673777743E+03  0.25500000920E-02 0.  1.
       -2    1    3    3    0  502 -0.57589776598E+02  0.15589121678E+03  0.16155581357E+04  0.16240833549E+04  0.25500000920E-02 0. -1.
</event>
<event>
 5   0  0.1535906E-02  0.8961407E+03  0.7818609E-02  0.9430419E-01
       -2   -1    0    0    0  501  0.00000000000E+00  0.00000000000E+00  0.50795960972E+03  0.50795960973E+03  0.25500000920E-02 0. -1.
        2   -1    0    0  501    0  0.00000000000E+00  0.00000000000E+00 -0.39524214422E+03  0.39524214423E+03  0.25500000920E-02 0.  1.
    10030    2    1    2    0    0  0.00000000000E+00  0.00000000000E+00  0.11271746550E+03  0.90320175396E+03  0.89614071513E+03 0.  0.
        2    1    3    3  502    0 -0.10179032632E+03 -0.22528651398E+03  0.43300335569E+03  0.49860524461E+03  0.25500000920E-02 0. -1.
       -2    1    3    3    0  502  0.10179032632E+03  0.22528651398E+03 -0.32028589018E+03  0.40459650934E+03  0.25500000920E-02 0.  1.
</event>
<event>
 5   0  0.8885324E-03  0.9237946E+03  0.7818609E-02  0.9396316E-01
        1   -1    0    0  501    0  0.00000000000E+00  0.00000000000E+00  0.40047965246E+03  0.40047965249E+03  0.50400001928E-02 0. -1.
       -1   -1    0    0    0  501  0.00000000000E+00  0.00000000000E+00 -0.53273393473E+03  0.53273393475E+03  0.50400001928E-02 0.  1.
    10030    2    1    2    0    0  0.00000000000E+00  0.00000000000E+00 -0.13225428227E+03  0.93321358724E+03  0.92379456820E+03 0.  0.
        2    1    3    3  502    0 -0.45087272085E+03  0.87060061584E+01 -0.16708154380E+03  0.48091397072E+03  0.25500000920E-02 0. -1.
       -2    1    3    3    0  502  0.45087272085E+03 -0.87060061584E+01  0.34827261530E+02  0.45229961652E+03  0.25500000920E-02 0.  1.
</event>
<event>
 5   0  0.8885324E-03  0.8899754E+03  0.7818609E-02  0.9438200E-01
        1   -1    0    0  501    0  0.00000000000E+00  0.00000000000E+00  0.26888821720E+03  0.26888821725E+03  0.50400001928E-02 0.  1.
       -1   -1    0    0    0  501  0.00000000000E+00  0.00000000000E+00 -0.73641778307E+03  0.73641778309E+03  0.50400001928E-02 0. -1.
    10030    2    1    2    0    0  0.00000000000E+00  0.00000000000E+00 -0.46752956587E+03  0.10053060003E+04  0.88997542626E+03 0.  0.
        2    1    3    3  502    0  0.83673875432E+02 -0.39703223607E+03 -0.44013707922E+03  0.59862890209E+03  0.25500000920E-02 0. -1.
       -2    1    3    3    0  502 -0.83673875432E+02  0.39703223607E+03 -0.27392486651E+02  0.40667709825E+03  0.25500000920E-02 0.  1.
</event>
<event>
 5   0  0.8738044E-03  0.9061029E+03  0.7818609E-02  0.9417985E-01
        1   -1    0    0  501    0  0.00000000000E+00  0.00000000000E+00  0.96840612083E+03  0.96840612084E+03  0.50400001928E-02 0. -1.
       -1   -1    0    0    0  501  0.00000000000E+00  0.00000000000E+00 -0.21195199737E+03  0.21195199743E+03  0.50400001928E-02 0.  1.
    10030    2    1    2    0    0  0.00000000000E+00  0.00000000000E+00  0.75645412347E+03  0.11803581183E+04  0.90610288956E+03 0.  0.
        3    1    3    3  502    0 -0.13593825857E+03  0.39617967903E+03  0.60317184126E+03  0.73433904193E+03  0.10100000352E+00 0. -1.
       -3    1    3    3    0  502  0.13593825857E+03 -0.39617967903E+03  0.15328228221E+03  0.44601907634E+03  0.10100000352E+00 0.  1.
</event>
<event>
 5   0  0.1483326E-02  0.9050081E+03  0.7818609E-02  0.9419343E-01
        2   -1    0    0  501    0  0.00000000000E+00  0.00000000000E+00  0.79886876621E+03  0.79886876622E+03  0.25500000920E-02 0. -1.
       -2   -1    0    0    0  501  0.00000000000E+00  0.00000000000E+00 -0.25631235392E+03  0.25631235393E+03  0.25500000920E-02 0.  1.
    10030    2    1    2    0    0  0.00000000000E+00  0.00000000000E+00  0.54255641229E+03  0.10551811202E+04  0.90500814129E+03 0.  0.
        1    1    3    3  502    0  0.13941021857E+03 -0.20383518271E+02  0.77264299425E+03  0.78538391468E+03  0.50400001928E-02 0. -1.
       -1    1    3    3    0  502 -0.13941021857E+03  0.20383518271E+02 -0.23008658196E+03  0.26979720547E+03  0.50400001928E-02 0.  1.
</event>
<event>
 5   0  0.5770125E-03  0.9125787E+03  0.7818609E-02  0.9409993E-01
        3   -1    0    0  501    0  0.00000000000E+00  0.00000000000E+00  0.21066991980E+03  0.21066994401E+03  0.10100000352E+00 0.  1.
       -3   -1    0    0    0  501  0.00000000000E+00  0.00000000000E+00 -0.98827558571E+03  0.98827559087E+03  0.10100000352E+00 0. -1.
    10030    2    1    2    0    0  0.00000000000E+00  0.00000000000E+00 -0.77760566591E+03  0.11989455349E+04  0.91257866728E+03 0.  0.
        3    1    3    3  502    0 -0.12999861614E+03  0.38224441516E+03 -0.10951760128E+03  0.41833544950E+03  0.10100000352E+00 0.  1.
       -3    1    3    3    0  502  0.12999861614E+03 -0.38224441516E+03 -0.66808806463E+03  0.78061008539E+03  0.10100000352E+00 0. -1.
</event>
<event>
 5   0  0.1454652E-02  0.9013789E+03  0.7818609E-02  0.9423859E-01
       -2   -1    0    0    0  501  0.00000000000E+00  0.00000000000E+00  0.17513153272E+03  0.17513153274E+03  0.25500000920E-02 0.  1.
        2   -1    0    0  501    0  0.00000000000E+00  0.00000000000E+00 -0.11598195471E+04  0.11598195471E+04  0.25500000920E-02 0. -1.
    10030    2    1    2    0    0  0.00000000000E+00  0.00000000000E+00 -0.98468801439E+03  0.13349510799E+04  0.90137888811E+03 0.  0.
        4    1    3    3  502    0 -0.73297688907E+02  0.30675267186E+03 -0.96915010790E+03  0.10191777556E+04  0.12699999809E+01 0. -1.
       -4    1    3    3    0  502  0.73297688907E+02 -0.30675267186E+03 -0.15537906486E+02  0.31577332429E+03  0.12699999809E+01 0.  1.
</event>
<event>
 5   0  0.8291252E-03  0.8830902E+03  0.7818609E-02  0.9446970E-01
       -1   -1    0    0    0  501  0.00000000000E+00  0.00000000000E+00  0.26591859409E+03  0.26591859413E+03  0.50400001928E-02 0. -1.
        1   -1    0    0  501    0  0.00000000000E+00  0.00000000000E+00 -0.73316445388E+03  0.73316445390E+03  0.50400001928E-02 0.  1.
    10030    2    1    2    0    0  0.00000000000E+00  0.00000000000E+00 -0.46724585979E+03  0.99908304803E+03  0.88309016718E+03 0.  0.
        1    1    3    3  502    0  0.29537769693E+03  0.32601304341E+03 -0.19084698282E+03  0.47953629601E+03  0.50400001928E-02 0.  1.
       -1    1    3    3    0  502 -0.29537769693E+03 -0.32601304341E+03 -0.27639887697E+03  0.51954675202E+03  0.50400001928E-02 0. -1.
</event>
<event>
 5   0  0.1483326E-02  0.9095298E+03  0.7818609E-02  0.9413746E-01
        2   -1    0    0  501    0  0.00000000000E+00  0.00000000000E+00  0.10908925686E+04  0.10908925686E+04  0.25500000920E-02 0.  1.
       -2   -1    0    0    0  501  0.00000000000E+00  0.00000000000E+00 -0.18957972870E+03  0.18957972872E+03  0.25500000920E-02 0. -1.
    10030    2    1    2    0    0  0.00000000000E+00  0.00000000000E+00  0.90131283991E+03  0.12804722973E+04  0.90952980648E+03 0.  0.
        1    1    3    3  502    0  0.95589178002E+02  0.44344134545E+03  0.49591796476E+03  0.67209533967E+03  0.50400001928E-02 0. -1.
       -1    1    3    3    0  502 -0.95589178002E+02 -0.44344134545E+03  0.40539487515E+03  0.60837695767E+03  0.50400001928E-02 0.  1.
</event>
<event>
 5   0  0.1454652E-02  0.8746740E+03  0.7818609E-02  0.9457806E-01
       -2   -1    0    0    0  501  0.00000000000E+00  0.00000000000E+00  0.89329870238E+03  0.89329870238E+03  0.25500000920E-02 0. -1.
        2   -1    0    0  501    0  0.00000000000E+00  0.00000000000E+00 -0.21410938865E+03  0.21410938867E+03  0.25500000920E-02 0.  1.
    10030    2    1    2    0    0  0.00000000000E+00  0.00000000000E+00  0.67918931372E+03  0.11074080910E+04  0.87467397139E+03 0.  0.
        4    1    3    3  502    0 -0.18896080381E+03  0.27770712527E+03  0.69417553723E+03  0.77117360055E+03  0.12699999809E+01 0. -1.
       -4    1    3    3    0  502  0.18896080381E+03 -0.27770712527E+03 -0.14986223504E+02  0.33623449049E+03  0.12699999809E+01 0.  1.
</event>
<event>
 5   0  0.1441195E-02  0.9442165E+03  0.7818609E-02  0.9371936E-01
       -2   -1    0    0    0  501  0.00000000000E+00  0.00000000000E+00  0.31762011817E+03  0.31762011818E+03  0.25500000920E-02 0. -1.
        2   -1    0    0  501    0  0.00000000000E+00  0.00000000000E+00 -0.70173824998E+03  0.70173824998E+03  0.25500000920E-02 0.  1.
    10030    2    1    2    0    0  0.00000000000E+00  0.00000000000E+00 -0.38411813180E+03  0.10193583682E+04  0.94421647071E+03 0.  0.
        5    1    3    3  502    0 -0.40253655173E+03 -0.29095688624E+02 -0.45646140309E+03  0.60931218360E+03  0.46999998093E+01 0.  1.
       -5    1    3    3    0  502  0.40253655173E+03  0.29095688624E+02  0.72343271289E+02  0.41004618456E+03  0.46999998093E+01 0. -1.
</event>
<event>
 5   0  0.1483326E-02  0.8945716E+03  0.7818609E-02  0.9432393E-01
       -2   -1    0    0    0  501  0.00000000000E+00  0.00000000000E+00  0.99941991436E+02  0.99941991468E+02  0.25500000920E-02 0. -1.
        2   -1    0    0  501    0  0.00000000000E+00  0.00000000000E+00 -0.20018070931E+04  0.20018070931E+04  0.25500000920E-02 0.  1.
    10030    2    1    2    0    0  0.00000000000E+00  0.00000000000E+00 -0.19018651017E+04  0.21017490846E+04  0.89457160115E+03 0.  0.
        1    1    3    3  502    0 -0.91607530592E+01  0.35287498683E+03 -0.15963250387E+04  0.16348878570E+04  0.50400001928E-02 0. -1.
       -1    1    3    3    0  502  0.91607530592E+01 -0.35287498683E+03 -0.30554006299E+03  0.46686122761E+03  0.50400001928E-02 0.  1.
</event>
<event>
 5   0  0.1441195E-02  0.9391331E+03  0.7818609E-02  0.9377943E-01
       -2   -1    0    0    0  501  0.00000000000E+00  0.00000000000E+00  0.57473448165E+03  0.57473448165E+03  0.25500000920E-02 0.  1.
        2   -1    0    0  501    0  0.00000000000E+00  0.00000000000E+00 -0.38364275761E+03  0.38364275762E+03  0.25500000920E-02 0. -1.
    10030    2    1    2    0    0  0.00000000000E+00  0.00000000000E+00  0.19109172404E+03  0.95837723927E+03  0.93913305008E+03 0.  0.
        5    1    3    3  502    0 -0.13554550894E+03  0.29487133189E+03  0.44183538039E+03  0.54823560695E+03  0.46999998093E+01 0.  1.
       -5    1    3    3    0  502  0.13554550894E+03 -0.29487133189E+03 -0.25074365635E+03  0.41014163232E+03  0.46999998093E+01 0. -1.
</event>
<event>
 5   0  0.1483326E-02  0.9057955E+03  0.7818609E-02  0.9418366E-01
        2   -1    0    0  501    0  0.00000000000E+00  0.00000000000E+00  0.36808200068E+03  0.36808200068E+03  0.25500000920E-02 0. -1.
       -2   -1    0    0    0  501  0.00000000000E+00  0.00000000000E+00 -0.55725731437E+03  0.55725731437E+03  0.25500000920E-02 0.  1.
    10030    2    1    2    0    0  0.00000000000E+00  0.00000000000E+00 -0.18917531369E+03  0.92533931506E+03  0.90579553360E+03 0.  0.
        1    1    3    3  502    0  0.20713079431E+03  0.52223887371E+02 -0.50256117006E+03  0.54607529704E+03  0.50400001928E-02 0.  1.
       -1    1    3    3    0  502 -0.20713079431E+03 -0.52223887371E+02  0.31338585637E+03  0.37926401801E+03  0.50400001928E-02 0. -1.
</event>
<event>
 5   0  0.8612969E-03  0.8996793E+03  0.7818609E-02  0.9425982E-01
       -1   -1    0    0    0  501  0.00000000000E+00  0.00000000000E+00  0.16710341824E+03  0.16710341831E+03  0.50400001928E-02 0. -1.
        1   -1    0    0  501    0  0.00000000000E+00  0.00000000000E+00 -0.12109608049E+04  0.12109608049E+04  0.50400001928E-02 0.  1.
    10030    2    1    2    0    0  0.00000000000E+00  0.00000000000E+00 -0.10438573867E+04  0.13780642233E+04  0.89967925376E+03 0.  0.
        4    1    3    3  502    0 -0.17203846983E+03  0.66045987761E+00 -0.11585758911E+04  0.11712802310E+04  0.12699999809E+01 0.  1.
       -4    1    3    3    0  502  0.17203846983E+03 -0.66045987761E+00  0.11471850436E+03  0.20678399225E+03  0.12699999809E+01 0. -1.
</event>
<event>
 5   0  0.8738044E-03  0.8976985E+03  0.7818609E-02  0.9428463E-01
        1   -1    0    0  501    0  0.00000000000E+00  0.00000000000E+00  0.13962738825E+04  0.13962738826E+04  0.50400001928E-02 0.  1.
       -1   -1    0    0    0  501  0.00000000000E+00  0.00000000000E+00 -0.14428807501E+03  0.14428807510E+03  0.50400001928E-02 0. -1.
    10030    2    1    2    0    0  0.00000000000E+00  0.00000000000E+00  0.12519858075E+04  0.15405619577E+04  0.89769854801E+03 0.  0.
        3    1    3    3  502    0  0.22449592865E+03  0.17979002204E+03  0.34632468655E+02  0.28969344502E+03  0.10100000352E+00 0. -1.
       -3    1    3    3    0  502 -0.22449592865E+03 -0.17979002204E+03  0.12173533389E+04  0.12508685126E+04  0.10100000352E+00 0.  1.
</event>
<event>
 5   0  0.1483326E-02  0.9053538E+03  0.7818609E-02  0.9418914E-01
       -2   -1    0    0    0  501  0.00000000000E+00  0.00000000000E+00  0.15900361001E+03  0.15900361003E+03  0.25500000920E-02 0. -1.
        2   -1    0    0  501    0  0.00000000000E+00  0.00000000000E+00 -0.12887528540E+04  0.12887528540E+04  0.25500000920E-02 0.  1.
    10030    2    1    2    0    0  0.00000000000E+00  0.00000000000E+00 -0.11297492440E+04  0.14477564641E+04  0.90535375676E+03 0.  0.
        1    1    3    3  502    0 -0.31685097180E+03  0.21786613570E+03 -0.94684395168E+03  0.10219460163E+04  0.50400001928E-02 0. -1.
       -1    1    3    3    0  502  0.31685097180E+03 -0.21786613570E+03 -0.18290529233E+03  0.42581044774E+03  0.50400001928E-02 0.  1.
</event>
<event>
 5   0  0.8885324E-03  0.8802721E+03  0.7818609E-02  0.9450584E-01
       -1   -1    0    0    0  501  0.00000000000E+00  0.00000000000E+00  0.16118298169E+03  0.16118298177E+03  0.50400001928E-02 0.  1.
        1   -1    0    0  501    0  0.00000000000E+00  0.00000000000E+00 -0.12018621908E+04  0.12018621909E+04  0.50400001928E-02 0. -1.
    10030    2    1    2    0    0  0.00000000000E+00  0.00000000000E+00 -0.10406792092E+04  0.13630451726E+04  0.88027207512E+03 0.  0.
        2    1    3    3  502    0  0.38577715416E+03  0.19790664884E+03 -0.63753768560E+03  0.77100282418E+03  0.25500000920E-02 0. -1.
       -2    1    3    3    0  502 -0.38577715416E+03 -0.19790664884E+03 -0.40314152355E+03  0.59204234844E+03  0.25500000920E-02 0.  1.
</event>
<event>
 5   0  0.1535906E-02  0.8277960E+03  0.7818609E-02  0.9520633E-01
        2   -1    0    0  501    0  0.00000000000E+00  0.00000000000E+00  0.15337031771E+04  0.15337031771E+04  0.25500000920E-02 0.  1.
       -2   -1    0    0    0  501  0.00000000000E+00  0.00000000000E+00 -0.11169797491E+03  0.11169797494E+03  0.25500000920E-02 0. -1.
    10030    2    1    2    0    0  0.00000000000E+00  0.00000000000E+00  0.14220052022E+04  0.16454011521E+04  0.82779596283E+03 0.  0.
        2    1    3    3  502    0 -0.83720390464E+02  0.39718735261E+03  0.87180460103E+03  0.96167050450E+03  0.25500000920E-02 0.  1.
       -2    1    3    3    0  502  0.83720390464E+02 -0.39718735261E+03  0.55020060118E+03  0.68373064755E+03  0.25500000920E-02 0. -1.
</event>
<event>
 5   0  0.8612969E-03  0.9105194E+03  0.7818609E-02  0.9412526E-01
        1   -1    0    0  501    0  0.00000000000E+00  0.00000000000E+00  0.41417939506E+03  0.41417939509E+03  0.50400001928E-02 0.  1.
       -1   -1    0    0    0  501  0.00000000000E+00  0.00000000000E+00 -0.50041457793E+03  0.50041457795E+03  0.50400001928E-02 0. -1.
    10030    2    1    2    0    0  0.00000000000E+00  0.00000000000E+00 -0.86235182870E+02  0.91459397304E+03  0.91051942800E+03 0.  0.
        4    1    3    3  502    0  0.19638995455E+03  0.39139015227E+03 -0.16819198434E+03  0.46908999354E+03  0.12699999809E+01 0. -1.
       -4    1    3    3    0  502 -0.19638995455E+03 -0.39139015227E+03  0.81956801470E+02  0.44550397950E+03  0.12699999809E+01 0.  1.
</event>
<event>
 5   0  0.1441195E-02  0.9046227E+03  0.7818609E-02  0.9419821E-01
       -2   -1    0    0    0  501  0.00000000000E+00  0.00000000000E+00  0.47446043825E+03  0.47446043826E+03  0.25500000920E-02 0.  1.
        2   -1    0    0  501    0  0.00000000000E+00  0.00000000000E+00 -0.43119623055E+03  0.43119623056E+03  0.25500000920E-02 0. -1.
    10030    2    1    2    0    0  0.00000000000E+00  0.00000000000E+00  0.43264207694E+02  0.90565666882E+03  0.90462268936E+03 0.  0.
        5    1    3    3  502    0 -0.12181420636E+03 -0.30643443128E+03  0.33153834122E+03  0.46763289367E+03  0.46999998093E+01 0. -1.
       -5    1    3    3    0  502  0.12181420636E+03  0.30643443128E+03 -0.28827413352E+03  0.43802377515E+03  0.46999998093E+01 0.  1.
</event>
<event>
 5   0  0.8612969E-03  0.8917755E+03  0.7818609E-02  0.9435921E-01
       -1   -1    0    0    0  501  0.00000000000E+00  0.00000000000E+00  0.18325514755E+03  0.18325514762E+03  0.50400001928E-02 0. -1.
        1   -1    0    0  501    0  0.00000000000E+00  0.00000000000E+00 -0.10849129827E+04  0.10849129828E+04  0.50400001928E-02 0.  1.
    10030    2    1    2    0    0  0.00000000000E+00  0.00000000000E+00 -0.90165783520E+03  0.12681681304E+04  0.89177550714E+03 0.  0.
        4    1    3    3  502    0  0.74635696256E+02 -0.52111389424E+01 -0.10759203543E+04  0.10785192928E+04  0.12699999809E+01 0.  1.
       -4    1    3    3    0  502 -0.74635696256E+02  0.52111389424E+01  0.17426251914E+03  0.18964883760E+03  0.12699999809E+01 0. -1.
</event>
<event>
 5   0  0.1483326E-02  0.8931523E+03  0.7818609E-02  0.9434182E-01
        2   -1    0    0  501    0  0.00000000000E+00  0.00000000000E+00  0.96729031399E+03  0.96729031400E+03  0.25500000920E-02 0. -1.
       -2   -1    0    0    0  501  0.00000000000E+00  0.00000000000E+00 -0.20617416670E+03  0.20617416671E+03  0.25500000920E-02 0.  1.
    10030    2    1    2    0    0  0.00000000000E+00  0.00000000000E+00  0.76111614730E+03  0.11734644807E+04  0.89315233740E+03 0.  0.
        1    1    3    3  502    0 -0.15885554984E+03 -0.39096990367E+03  0.57247728366E+03  0.71121219873E+03  0.50400001928E-02 0.  1.
       -1    1    3    3    0  502  0.15885554984E+03  0.39096990367E+03  0.18863886364E+03  0.46225228198E+03  0.50400001928E-02 0. -1.
</event>
<event>
 5   0  0.8885324E-03  0.9016745E+03  0.7818609E-02  0.9423491E-01
       -1   -1    0    0    0  501  0.00000000000E+00  0.00000000000E+00  0.22411523263E+03  0.22411523269E+03  0.50400001928E-02 0. -1.
        1   -1    0    0  501    0  0.00000000000E+00  0.00000000000E+00 -0.90691833909E+03  0.90691833911E+03  0.50400001928E-02 0.  1.
    10030    2    1    2    0    0  0.00000000000E+00  0.00000000000E+00 -0.68280310646E+03  0.11310335718E+04  0.90167447470E+03 0.  0.
        2    1    3    3  502    0  0.14473965261E+02  0.61237057203E+02  0.21857989662E+03  0.22745690593E+03  0.25500000920E-02 0. -1.
       -2    1    3    3    0  502 -0.14473965261E+02 -0.61237057203E+02 -0.90138300308E+03  0.90357666586E+03  0.25500000920E-02 0.  1.
</event>
<event>
 5   0  0.8885324E-03  0.8920238E+03  0.7818609E-02  0.9435607E-01
       -1   -1    0    0    0  501  0.00000000000E+00  0.00000000000E+00  0.37307052443E+03  0.37307052446E+03  0.50400001928E-02 0.  1.
        1   -1    0    0  501    0  0.00000000000E+00  0.00000000000E+00 -0.53321449101E+03  0.53321449103E+03  0.50400001928E-02 0. -1.
    10030    2    1    2    0    0  0.00000000000E+00  0.00000000000E+00 -0.16014396658E+03  0.90628501550E+03  0.89202378852E+03 0.  0.
        2    1    3    3  502    0 -0.24811873148E+03  0.30910319918E+03  0.12769414879E+03  0.41642945176E+03  0.25500000920E-02 0.  1.
       -2    1    3    3    0  502  0.24811873148E+03 -0.30910319918E+03 -0.28783811537E+03  0.48985556373E+03  0.25500000920E-02 0. -1.
</event>
<event>
 5   0  0.8738044E-03  0.8768052E+03  0.7818609E-02  0.9455050E-01
       -1   -1    0    0    0  501  0.00000000000E+00  0.00000000000E+00  0.14780251244E+03  0.14780251253E+03  0.50400001928E-02 0. -1.
        1   -1    0    0  501    0  0.00000000000E+00  0.00000000000E+00 -0.13003623254E+04  0.13003623254E+04  0.50400001928E-02 0.  1.
    10030    2    1    2    0    0  0.00000000000E+00  0.00000000000E+00 -0.11525598129E+04  0.14481648379E+04  0.87680515245E+03 0.  0.
        3    1    3    3  502    0  0.44977430274E+02 -0.19232381135E+03  0.70153184464E+02  0.20960175843E+03  0.10100000352E+00 0. -1.
       -3    1    3    3    0  502 -0.44977430274E+02  0.19232381135E+03 -0.12227129974E+04  0.12385630795E+04  0.10100000352E+00 0.  1.
</event>
<event>
 5   0  0.8524692E-03  0.8759000E+03  0.7818609E-02  0.9456219E-01
       -1   -1    0    0    0  501  0.00000000000E+00  0.00000000000E+00  0.27783576010E+03  0.27783576014E+03  0.50400001928E-02 0. -1.
        1   -1    0    0  501    0  0.00000000000E+00  0.00000000000E+00 -0.69033664962E+03  0.69033664964E+03  0.50400001928E-02 0.  1.
    10030    2    1    2    0    0  0.00000000000E+00  0.00000000000E+00 -0.41250088953E+03  0.96817240979E+03  0.87590001211E+03 0.  0.
        5    1    3    3  502    0  0.16379749061E+03  0.69871456375E+02  0.23597972384E+03  0.29566900143E+03  0.46999998093E+01 0. -1.
       -5    1    3    3    0  502 -0.16379749061E+03 -0.69871456375E+02 -0.64848061336E+03  0.67250340836E+03  0.46999998093E+01 0.  1.
</event>
<event>
 5   0  0.8612969E-03  0.8318129E+03  0.7818609E-02  0.9515077E-01
       -1   -1    0    0    0  501  0.00000000000E+00  0.00000000000E+00  0.20487204029E+03  0.20487204036E+03  0.50400001928E-02 0. -1.
        1   -1    0    0  501    0  0.00000000000E+00  0.00000000000E+00 -0.84432300891E+03  0.84432300892E+03  0.50400001928E-02 0.  1.
    10030    2    1    2    0    0  0.00000000000E+00  0.00000000000E+00 -0.63945096862E+03  0.10491950493E+04  0.83181290575E+03 0.  0.
        4    1    3    3  502    0 -0.25736155972E+03  0.29026733087E+03 -0.50886889199E+03  0.63987440794E+03  0.12699999809E+01 0. -1.
       -4    1    3    3    0  502  0.25736155972E+03 -0.29026733087E+03 -0.13058207662E+03  0.40932064134E+03  0.12699999809E+01 0.  1.
</event>
<event>
 5   0  0.1454652E-02  0.8892949E+03  0.7818609E-02  0.9439063E-01
       -2   -1    0    0    0  501  0.00000000000E+00  0.00000000000E+00  0.14728847158E+03  0.14728847160E+03  0.25500000920E-02 0.  1.
        2   -1    0    0  501    0  0.00000000000E+00  0.00000000000E+00 -0.13423408961E+04  0.13423408961E+04  0.25500000920E-02 0. -1.
    10030    2    1    2    0    0  0.00000000000E+00  0.00000000000E+00 -0.11950524245E+04  0.14896293677E+04  0.88929486435E+03 0.  0.
        4    1    3    3  502    0  0.21992859370E+03 -0.10085237447E+03 -0.12224184914E+04  0.12461333671E+04  0.12699999809E+01 0. -1.
       -4    1    3    3    0  502 -0.21992859370E+03  0.10085237447E+03  0.27366066875E+02  0.24349600054E+03  0.12699999809E+01 0.  1.
</event>
<event>
 5   0  0.1483326E-02  0.8922125E+03  0.7818609E-02  0.9435369E-01
        2   -1    0    0  501    0  0.00000000000E+00  0.00000000000E+00  0.71153825558E+03  0.71153825558E+03  0.25500000920E-02 0.  1.
       -2   -1    0    0    0  501  0.00000000000E+00  0.00000000000E+00 -0.27969092522E+03  0.27969092523E+03  0.25500000920E-02 0. -1.
    10030    2    1    2    0    0  0.00000000000E+00  0.00000000000E+00  0.43184733035E+03  0.99122918082E+03  0.89221251514E+03 0.  0.
        1    1    3    3  502    0  0.39293823811E+02 -0.35778374646E+03  0.50871996854E+03  0.62317671670E+03  0.50400001928E-02 0.  1.
       -1    1    3    3    0  502 -0.39293823811E+02  0.35778374646E+03 -0.76872638182E+02  0.36805246412E+03  0.50400001928E-02 0. -1.
</event>
<event>
 5   0  0.1441195E-02  0.9214446E+03  0.7818609E-02  0.9399165E-01
        2   -1    0    0  501    0  0.00000000000E+00  0.00000000000E+00  0.16744216134E+03  0.16744216136E+03  0.25500000920E-02 0. -1.
       -2   -1    0    0    0  501  0.00000000000E+00  0.00000000000E+00 -0.12676917757E+04  0.12676917757E+04  0.25500000920E-02 0.  1.
    10030    2    1    2    0    0  0.00000000000E+00  0.00000000000E+00 -0.11002496144E+04  0.14351339371E+04  0.92144462851E+03 0.  0.
        5    1    3    3  502    0 -0.43896968330E+03 -0.13964970127E+03 -0.53949974633E+03  0.70942123467E+03  0.46999998093E+01 0. -1.
       -5    1    3    3    0  502  0.43896968330E+03  0.13964970127E+03 -0.56074986804E+03  0.72571270239E+03  0.46999998093E+01 0.  1.
</event>
<event>
 5   0  0.1535906E-02  0.9191847E+03  0.7818609E-02  0.9401912E-01
       -2   -1    0    0    0  501  0.00000000000E+00  0.00000000000E+00  0.17226382358E+03  0.17226382359E+03  0.25500000920E-02 0. -1.
        2   -1    0    0  501    0  0.00000000000E+00  0.00000000000E+00 -0.12261722452E+04  0.12261722452E+04  0.25500000920E-02 0.  1.
    10030    2    1    2    0    0  0.00000000000E+00  0.00000000000E+00 -0.10539084217E+04  0.13984360688E+04  0.91918468078E+03 0.  0.
        2    1    3    3  502    0  0.28091106049E+03  0.13791974577E+03 -0.10390366931E+04  0.10851406037E+04  0.25500000920E-02 0.  1.
       -2    1    3    3    0  502 -0.28091106049E+03 -0.13791974577E+03 -0.14871728598E+02  0.31329546517E+03  0.25500000920E-02 0. -1.
</event>
<event>
 5   0  0.8885324E-03  0.8685706E+03  0.7818609E-02  0.9465746E-01
       -1   -1    0    0    0  501  0.00000000000E+00  0.00000000000E+00  0.11590721831E+03  0.11590721842E+03  0.50400001928E-02 0. -1.
        1   -1    0    0  501    0  0.00000000000E+00  0.00000000000E+00 -0.16271957367E+04  0.16271957367E+04  0.50400001928E-02 0.  1.
    10030    2    1    2    0    0  0.00000000000E+00  0.00000000000E+00 -0.15112885184E+04  0.17431029551E+04  0.86857062255E+03 0.  0.
        2    1    3    3  502    0  0.47846186978E+02  0.38354297764E+03 -0.11530299422E+04  0.12160890267E+04  0.25500000920E-02 0.  1.
       -2    1    3    3    0  502 -0.47846186978E+02 -0.38354297764E+03 -0.35825857618E+03  0.52701392839E+03  0.25500000920E-02 0. -1.
</event>
<event>
 5   0  0.8291252E-03  0.9029360E+03  0.7818609E-02  0.9421919E-01
       -1   -1    0    0    0  501  0.00000000000E+00  0.00000000000E+00  0.20201003968E+03  0.20201003974E+03  0.50400001928E-02 0.  1.
        1   -1    0    0  501    0  0.00000000000E+00  0.00000000000E+00 -0.10089763669E+04  0.10089763669E+04  0.50400001928E-02 0. -1.
    10030    2    1    2    0    0  0.00000000000E+00  0.00000000000E+00 -0.80696632720E+03  0.12109864066E+04  0.90293600206E+03 0.  0.
        1    1    3    3  502    0  0.15084561319E+03  0.42398719632E+03 -0.45191045325E+03  0.63776374892E+03  0.50400001928E-02 0.  1.
       -1    1    3    3    0  502 -0.15084561319E+03 -0.42398719632E+03 -0.35505587396E+03  0.57322265772E+03  0.50400001928E-02 0. -1.
</event>
<event>
 5   0  0.1441195E-02  0.8931337E+03  0.7818609E-02  0.9434206E-01
        2   -1    0    0  501    0  0.00000000000E+00  0.00000000000E+00  0.18431731664E+04  0.18431731664E+04  0.25500000920E-02 0.  1.
       -2   -1    0    0    0  501  0.00000000000E+00  0.00000000000E+00 -0.10819491433E+03  0.10819491437E+03  0.25500000920E-02 0. -1.
    10030    2    1    2    0    0  0.00000000000E+00  0.00000000000E+00  0.17349782520E+04  0.19513680807E+04  0.89313372542E+03 0.  0.
        5    1    3    3  502    0 -0.17175666821E+03  0.12938987725E+03  0.12437694528E+02  0.21545041113E+03  0.46999998093E+01 0. -1.
       -5    1    3    3    0  502  0.17175666821E+03 -0.12938987725E+03  0.17225405575E+04  0.17359176696E+04  0.46999998093E+01 0.  1.
</event>
<event>
 5   0  0.1483326E-02  0.9556800E+03  0.7818609E-02  0.9358536E-01
       -2   -1    0    0    0  501  0.00000000000E+00  0.00000000000E+00  0.30409763979E+03  0.30409763980E+03  0.25500000920E-02 0. -1.
        2   -1    0    0  501    0  0.00000000000E+00  0.00000000000E+00 -0.75084793172E+03  0.75084793173E+03  0.25500000920E-02 0.  1.
    10030    2    1    2    0    0  0.00000000000E+00  0.00000000000E+00 -0.44675029194E+03  0.10549455715E+04  0.95568003826E+03 0.  0.
        1    1    3    3  502    0 -0.24963181977E+03  0.26272481316E+03 -0.56715673132E+03  0.67305804415E+03  0.50400001928E-02 0.  1.
       -1    1    3    3    0  502  0.24963181977E+03 -0.26272481316E+03  0.12040643938E+03  0.38188752737E+03  0.50400001928E-02 0. -1.
</event>
<event>
 5   0  0.8524692E-03  0.8979476E+03  0.7818609E-02  0.9428151E-01
       -1   -1    0    0    0  501  0.00000000000E+00  0.00000000000E+00  0.10954312949E+04  0.10954312949E+04  0.50400001928E-02 0.  1.
        1   -1    0    0  501    0  0.00000000000E+00  0.00000000000E+00 -0.18401654475E+03  0.18401654482E+03  0.50400001928E-02 0. -1.
    10030    2    1    2    0    0  0.00000000000E+00  0.00000000000E+00  0.91141475013E+03  0.12794478397E+04  0.89794761975E+03 0.  0.
        5    1    3    3  502    0 -0.43096584373E+03 -0.26956243670E+02  0.28063416062E+03  0.51501050440E+03  0.46999998093E+01 0. -1.
       -5    1    3    3    0  502  0.43096584373E+03  0.26956243670E+02  0.63078058951E+03  0.76443733532E+03  0.46999998093E+01 0.  1.
</event>
<event>
 5   0  0.8738044E-03  0.9062901E+03  0.7818609E-02  0.9417752E-01
        1   -1    0    0  501    0  0.00000000000E+00  0.00000000000E+00  0.32343005330E+03  0.32343005334E+03  0.50400001928E-02 0.  1.
       -1   -1    0    0    0  501  0.00000000000E+00  0.00000000000E+00 -0.63488360169E+03  0.63488360171E+03  0.50400001928E-02 0. -1.
    10030    2    1    2    0    0  0.00000000000E+00  0.00000000000E+00 -0.31145354839E+03  0.95831365504E+03  0.90629010181E+03 0.  0.
        3    1    3    3  502    0  0.18439792884E+03  0.30807705944E+02 -0.59220326283E+03  0.62101241985E+03  0.10100000352E+00 0. -1.
       -3    1    3    3    0  502 -0.18439792884E+03 -0.30807705944E+02  0.28074971444E+03  0.33730123519E+03  0.10100000352E+00 0.  1.
</event>
<event>
 5   0  0.1441195E-02  0.9007009E+03  0.7818609E-02  0.9424706E-01
       -2   -1    0    0    0  501  0.00000000000E+00  0.00000000000E+00  0.47284206534E+03  0.47284206535E+03  0.25500000920E-02 0. -1.
        2   -1    0    0  501    0  0.00000000000E+00  0.00000000000E+00 -0.42892867231E+03  0.42892867232E+03  0.25500000920E-02 0.  1.
    10030    2    1    2    0    0  0.00000000000E+00  0.00000000000E+00  0.43913393034E+02  0.90177073767E+03  0.90070088110E+03 0.  0.
        5    1    3    3  502    0  0.40049906157E+03 -0.59092461565E+02 -0.17551351094E+03  0.44126919205E+03  0.46999998093E+01 0.  1.
       -5    1    3    3    0  502 -0.40049906157E+03  0.59092461565E+02  0.21942690398E+03  0.46050154562E+03  0.46999998093E+01 0. -1.
</event>
<event>
 5   0  0.8738044E-03  0.9150352E+03  0.7818609E-02  0.9406979E-01
       -1   -1    0    0    0  501  0.00000000000E+00  0.00000000000E+00  0.61336415267E+03  0.61336415269E+03  0.50400001928E-02 0. -1.
        1   -1    0    0  501    0  0.00000000000E+00  0.00000000000E+00 -0.34126928041E+03  0.34126928045E+03  0.50400001928E-02 0.  1.
    10030    2    1    2    0    0  0.00000000000E+00  0.00000000000E+00  0.27209487226E+03  0.95463343314E+03  0.91503517536E+03 0.  0.
        3    1    3    3  502    0  0.43599112372E+03  0.95908303760E+02  0.31534020827E+02  0.44752772804E+03  0.10100000352E+00 0.  1.
       -3    1    3    3    0  502 -0.43599112372E+03 -0.95908303760E+02  0.24056085143E+03  0.50710570509E+03  0.10100000352E+00 0. -1.
</event>
<event>
 5   0  0.1441195E-02  0.9026677E+03  0.7818609E-02  0.9422253E-01
        2   -1    0    0  501    0  0.00000000000E+00  0.00000000000E+00  0.87291911012E+03  0.87291911012E+03  0.25500000920E-02 0. -1.
       -2   -1    0    0    0  501  0.00000000000E+00  0.00000000000E+00 -0.23335751738E+03  0.23335751739E+03  0.25500000920E-02 0.  1.
    10030    2    1    2    0    0  0.00000000000E+00  0.00000000000E+00  0.63956159274E+03  0.11062766275E+04  0.90266768286E+03 0.  0.
        5    1    3    3  502    0  0.37531246819E+03 -0.16728813238E+03  0.54852289912E+03  0.68537889439E+03  0.46999998093E+01 0. -1.
       -5    1    3    3    0  502 -0.37531246819E+03  0.16728813238E+03  0.91038693619E+02  0.42089773313E+03  0.46999998093E+01 0.  1.
</event>
<event>
 5   0  0.8885324E-03  0.9047374E+03  0.7818609E-02  0.9419679E-01
        1   -1    0    0  501    0  0.00000000000E+00  0.00000000000E+00  0.25677945941E+03  0.25677945946E+03  0.50400001928E-02 0. -1.
       -1   -1    0    0    0  501  0.00000000000E+00  0.00000000000E+00 -0.79693850324E+03  0.79693850325E+03  0.50400001928E-02 0.  1.
    10030    2    1    2    0    0  0.00000000000E+00  0.00000000000E+00 -0.54015904383E+03  0.10537179627E+04  0.90473739411E+03 0.  0.
        2    1    3    3  502    0 -0.27259698303E+03  0.34009267724E+03 -0.12903792168E+03  0.45455794956E+03  0.25500000920E-02 0. -1.
       -2    1    3    3    0  502  0.27259698303E+03 -0.34009267724E+03 -0.41112112215E+03  0.59916001315E+03  0.25500000920E-02 0.  1.
</event>
<event>
 5   0  0.1483326E-02  0.9087695E+03  0.7818609E-02  0.9414685E-01
       -2   -1    0    0    0  501  0.00000000000E+00  0.00000000000E+00  0.11618152064E+03  0.11618152066E+03  0.25500000920E-02 0.  1.
        2   -1    0    0  501    0  0.00000000000E+00  0.00000000000E+00 -0.17770943049E+04  0.17770943049E+04  0.25500000920E-02 0. -1.
    10030    2    1    2    0    0  0.00000000000E+00  0.00000000000E+00 -0.16609127843E+04  0.18932758256E+04  0.90876953885E+03 0.  0.
        1    1    3    3  502    0 -0.32221243226E+03 -0.24229268547E+03 -0.12671580349E+04  0.13297428633E+04  0.50400001928E-02 0. -1.
       -1    1    3    3    0  502  0.32221243226E+03  0.24229268547E+03 -0.39375474934E+03  0.56353296229E+03  0.50400001928E-02 0.  1.
</event>
<event>
 5   0  0.8885324E-03  0.8960766E+03  0.7818609E-02  0.9430499E-01
        1   -1    0    0  501    0  0.00000000000E+00  0.00000000000E+00  0.64394454286E+03  0.64394454288E+03  0.50400001928E-02 0. -1.
       -1   -1    0    0    0  501  0.00000000000E+00  0.00000000000E+00 -0.31173233056E+03  0.31173233060E+03  0.50400001928E-02 0.  1.
    10030    2    1    2    0    0  0.00000000000E+00  0.00000000000E+00  0.33221221231E+03  0.95567687348E+03  0.89607663316E+03 0.  0.
        2    1    3    3  502    0 -0.18958995977E+03  0.17012569653E+03 -0.22698906404E+03  0.34119076872E+03  0.25500000920E-02 0.  1.
       -2    1    3    3    0  502  0.18958995977E+03 -0.17012569653E+03  0.55920127634E+03  0.61448610475E+03  0.25500000920E-02 0. -1.
</event>
<event>
 5   0  0.1454652E-02  0.9125285E+03  0.7818609E-02  0.9410054E-01
       -2   -1    0    0    0  501  0.00000000000E+00  0.00000000000E+00  0.27757137296E+03  0.27757137297E+03  0.25500000920E-02 0.  1.
        2   -1    0    0  501    0  0.00000000000E+00  0.00000000000E+00 -0.74999480343E+03  0.74999480344E+03  0.25500000920E-02 0. -1.
    10030    2    1    2    0    0  0.00000000000E+00  0.00000000000E+00 -0.47242343048E+03  0.10275661764E+04  0.91252854707E+03 0.  0.
        4    1    3    3  502    0  0.31218335840E+03  0.30612744638E+03 -0.38304559289E+03  0.58128994643E+03  0.12699999809E+01 0. -1.
       -4    1    3    3    0  502 -0.31218335840E+03 -0.30612744638E+03 -0.89377837589E+02  0.44627622998E+03  0.12699999809E+01 0.  1.
</event>
<event>
 5   0  0.8612969E-03  0.8773320E+03  0.7818609E-02  0.9454370E-01
        1   -1    0    0  501    0  0.00000000000E+00  0.00000000000E+00  0.91440171473E+03  0.91440171474E+03  0.50400001928E-02 0.  1.
       -1   -1    0    0    0  501  0.00000000000E+00  0.00000000000E+00 -0.21044127902E+03  0.21044127908E+03  0.50400001928E-02 0. -1.
    10030    2    1    2    0    0  0.00000000000E+00  0.00000000000E+00  0.70396043571E+03  0.11248429938E+04  0.87733201566E+03 0.  0.
        4    1    3    3  502    0 -0.17827543719E+03  0.58022161421E+02 -0.15648505686E+03  0.24420869895E+03  0.12699999809E+01 0. -1.
       -4    1    3    3    0  502  0.17827543719E+03 -0.58022161421E+02  0.86044549257E+03  0.88063429487E+03  0.12699999809E+01 0.  1.
</event>
<event>
 5   0  0.5770125E-03  0.8772340E+03  0.7818609E-02  0.9454496E-01
       -4   -1    0    0    0  501  0.00000000000E+00  0.00000000000E+00  0.44189959365E+03  0.44190141861E+03  0.12699999809E+01 0. -1.
        4   -1    0    0  501    0  0.00000000000E+00  0.00000000000E+00 -0.43535509286E+03  0.43535694525E+03  0.12699999809E+01 0.  1.
    10030    2    1    2    0    0  0.00000000000E+00  0.00000000000E+00  0.65445007983E+01  0.87725836386E+03  0.87723395196E+03 0.  0.
        4    1    3    3  502    0  0.16153639013E+03 -0.35768724251E+03  0.19910688557E+03  0.44009014255E+03  0.12699999809E+01 0. -1.
       -4    1    3    3    0  502 -0.16153639013E+03  0.35768724251E+03 -0.19256238478E+03  0.43716822131E+03  0.12699999809E+01 0.  1.
</event>
<event>
 5   0  0.8738044E-03  0.8981518E+03  0.7818609E-02  0.9427895E-01
        1   -1    0    0  501    0  0.00000000000E+00  0.00000000000E+00  0.15129283937E+04  0.15129283937E+04  0.50400001928E-02 0.  1.
       -1   -1    0    0    0  501  0.00000000000E+00  0.00000000000E+00 -0.13329723205E+03  0.13329723214E+03  0.50400001928E-02 0. -1.
    10030    2    1    2    0    0  0.00000000000E+00  0.00000000000E+00  0.13796311616E+04  0.16462256258E+04  0.89815180733E+03 0.  0.
        3    1    3    3  502    0 -0.13226718052E+03 -0.27484474519E+03  0.12939371283E+04  0.13294011972E+04  0.10100000352E+00 0.  1.
       -3    1    3    3    0  502  0.13226718052E+03  0.27484474519E+03  0.85694033323E+02  0.31682442859E+03  0.10100000352E+00 0. -1.
</event>
<event>
 5   0  0.8885324E-03  0.9009599E+03  0.7818609E-02  0.9424382E-01
        1   -1    0    0  501    0  0.00000000000E+00  0.00000000000E+00  0.12372160011E+04  0.12372160011E+04  0.50400001928E-02 0.  1.
       -1   -1    0    0    0  501  0.00000000000E+00  0.00000000000E+00 -0.16402325231E+03  0.16402325239E+03  0.50400001928E-02 0. -1.
    10030    2    1    2    0    0  0.00000000000E+00  0.00000000000E+00  0.10731927488E+04  0.14012392535E+04  0.90095991559E+03 0.  0.
        2    1    3    3  502    0 -0.52273418315E+02 -0.39656354433E+03  0.21432415990E+03  0.45379510848E+03  0.25500000920E-02 0. -1.
       -2    1    3    3    0  502  0.52273418315E+02  0.39656354433E+03  0.85886858889E+03  0.94744414503E+03  0.25500000920E-02 0.  1.
</event>
<event>
 5   0  0.8738044E-03  0.9127252E+03  0.7818609E-02  0.9409813E-01
       -1   -1    0    0    0  501  0.00000000000E+00  0.00000000000E+00  0.28972946437E+03  0.28972946441E+03  0.50400001928E-02 0. -1.
        1   -1    0    0  501    0  0.00000000000E+00  0.00000000000E+00 -0.71883202239E+03  0.71883202241E+03  0.50400001928E-02 0.  1.
    10030    2    1    2    0    0  0.00000000000E+00  0.00000000000E+00 -0.42910255802E+03  0.10085614868E+04  0.91272518722E+03 0.  0.
        3    1    3    3  502    0 -0.47288810209E+02 -0.16967609730E+03 -0.67975582170E+03  0.70220666253E+03  0.10100000352E+00 0.  1.
       -3    1    3    3    0  502  0.47288810209E+02  0.16967609730E+03  0.25065326368E+03  0.30635482428E+03  0.10100000352E+00 0. -1.
</event>
<event>
 5   0  0.8524692E-03  0.8985597E+03  0.7818609E-02  0.9427384E-01
        1   -1    0    0  501    0  0.00000000000E+00  0.00000000000E+00  0.50062067058E+03  0.50062067060E+03  0.50400001928E-02 0.  1.
       -1   -1    0    0    0  501  0.00000000000E+00  0.00000000000E+00 -0.40320429798E+03  0.40320429801E+03  0.50400001928E-02 0. -1.
    10030    2    1    2    0    0  0.00000000000E+00  0.00000000000E+00  0.97416372600E+02  0.90382496861E+03  0.89855974995E+03 0.  0.
        5    1    3    3  502    0  0.61359588008E+02 -0.40790815127E+02  0.49447701129E+03  0.49995849261E+03  0.46999998093E+01 0.  1.
       -5    1    3    3    0  502 -0.61359588008E+02  0.40790815127E+02 -0.39706063869E+03  0.40386647600E+03  0.46999998093E+01 0. -1.
</event>
<event>
 5   0  0.8524692E-03  0.9034618E+03  0.7818609E-02  0.9421264E-01
        1   -1    0    0  501    0  0.00000000000E+00  0.00000000000E+00  0.32156705672E+03  0.32156705676E+03  0.50400001928E-02 0.  1.
       -1   -1    0    0    0  501  0.00000000000E+00  0.00000000000E+00 -0.63458243648E+03  0.63458243650E+03  0.50400001928E-02 0. -1.
    10030    2    1    2    0    0  0.00000000000E+00  0.00000000000E+00 -0.31301537976E+03  0.95614949326E+03  0.90346180079E+03 0.  0.
        5    1    3    3  502    0 -0.66255109825E+02 -0.74244890958E+02  0.30979701307E+03  0.32542022481E+03  0.46999998093E+01 0.  1.
       -5    1    3    3    0  502  0.66255109825E+02  0.74244890958E+02 -0.62281239283E+03  0.63072926844E+03  0.46999998093E+01 0. -1.
</event>
<event>
 5   0  0.8524692E-03  0.8823550E+03  0.7818609E-02  0.9447911E-01
        1   -1    0    0  501    0  0.00000000000E+00  0.00000000000E+00  0.87561295600E+03  0.87561295601E+03  0.50400001928E-02 0. -1.
       -1   -1    0    0    0  501  0.00000000000E+00  0.00000000000E+00 -0.22228721711E+03  0.22228721716E+03  0.50400001928E-02 0.  1.
    10030    2    1    2    0    0  0.00000000000E+00  0.00000000000E+00  0.65332573889E+03  0.10979001732E+04  0.88235495644E+03 0.  0.
        5    1    3    3  502    0 -0.17543740101E+03 -0.39189460231E+03  0.45267276182E+03  0.62393459616E+03  0.46999998093E+01 0. -1.
       -5    1    3    3    0  502  0.17543740101E+03  0.39189460231E+03  0.20065297707E+03  0.47396557702E+03  0.46999998093E+01 0.  1.
</event>
<event>
 5   0  0.1454652E-02  0.8955275E+03  0.7818609E-02  0.9431190E-01
        2   -1    0    0  501    0  0.00000000000E+00  0.00000000000E+00  0.12342241498E+04  0.12342241498E+04  0.25500000920E-02 0. -1.
       -2   -1    0    0    0  501  0.00000000000E+00  0.00000000000E+00 -0.16244405140E+03  0.16244405142E+03  0.25500000920E-02 0.  1.
    10030    2    1    2    0    0  0.00000000000E+00  0.00000000000E+00  0.10717800984E+04  0.13966682013E+04  0.89552748981E+03 0.  0.
        4    1    3    3  502    0 -0.20673522541E+03  0.12747987135E+03 -0.50778532821E+02  0.24813432516E+03  0.12699999809E+01 0.  1.
       -4    1    3    3    0  502  0.20673522541E+03 -0.12747987135E+03  0.11225586313E+04  0.11485338761E+04  0.12699999809E+01 0. -1.
</event>
<event>
 5   0  0.8612969E-03  0.8798158E+03  0.7818609E-02  0.9451170E-01
       -1   -1    0    0    0  501  0.00000000000E+00  0.00000000000E+00  0.17948994852E+03  0.17948994859E+03  0.50400001928E-02 0.  1.
        1   -1    0    0  501    0  0.00000000000E+00  0.00000000000E+00 -0.10781605150E+04  0.10781605150E+04  0.50400001928E-02 0. -1.
    10030    2    1    2    0    0  0.00000000000E+00  0.00000000000E+00 -0.89867056643E+03  0.12576504636E+04  0.87981583386E+03 0.  0.
        4    1    3    3  502    0 -0.22555688586E+03  0.36822042358E+03 -0.32926873453E+03  0.54303011108E+03  0.12699999809E+01 0.  1.
       -4    1    3    3    0  502  0.22555688586E+03 -0.36822042358E+03 -0.56940183190E+03  0.71462035247E+03  0.12699999809E+01 0. -1.
</event>
<event>
 5   0  0.1440615E-02  0.9211801E+03  0.7818609E-02  0.9399486E-01
       -2   -1    0    0    0  501  0.00000000000E+00  0.00000000000E+00  0.30192853633E+03  0.30192853634E+03  0.25500000920E-02 0. -1.
        2   -1    0    0  501    0  0.00000000000E+00  0.00000000000E+00 -0.70262715537E+03  0.70262715538E+03  0.25500000920E-02 0.  1.
    10030    2    1    2    0    0  0.00000000000E+00  0.00000000000E+00 -0.40069861905E+03  0.10045556917E+04  0.92118008796E+03 0.  0.
        3    1    3    3  502    0  0.77133537222E+02  0.29827575774E+03  0.17302111121E+03  0.35334731546E+03  0.10100000352E+00 0. -1.
       -3    1    3    3    0  502 -0.77133537222E+02 -0.29827575774E+03 -0.57371973025E+03  0.65120837625E+03  0.10100000352E+00 0.  1.
</event>
<event>
 5   0  0.1483326E-02  0.8920541E+03  0.7818609E-02  0.9435569E-01
        2   -1    0    0  501    0  0.00000000000E+00  0.00000000000E+00  0.11204841664E+04  0.11204841664E+04  0.25500000920E-02 0.  1.
       -2   -1    0    0    0  501  0.00000000000E+00  0.00000000000E+00 -0.17754836502E+03  0.17754836504E+03  0.25500000920E-02 0. -1.
    10030    2    1    2    0    0  0.00000000000E+00  0.00000000000E+00  0.94293580139E+03  0.12980325315E+04  0.89205410553E+03 0.  0.
        1    1    3    3  502    0  0.78703570298E+02 -0.60027860091E+02  0.11043007058E+04  0.11087279399E+04  0.50400001928E-02 0.  1.
       -1    1    3    3    0  502 -0.78703570298E+02  0.60027860091E+02 -0.16136490441E+03  0.18930459151E+03  0.50400001928E-02 0. -1.
</event>
<event>
 5   0  0.8612969E-03  0.9027337E+03  0.7818609E-02  0.9422171E-01
       -1   -1    0    0    0  501  0.00000000000E+00  0.00000000000E+00  0.32324285717E+03  0.32324285721E+03  0.50400001928E-02 0. -1.
        1   -1    0    0  501    0  0.00000000000E+00  0.00000000000E+00 -0.63027542443E+03  0.63027542445E+03  0.50400001928E-02 0.  1.
    10030    2    1    2    0    0  0.00000000000E+00  0.00000000000E+00 -0.30703256726E+03  0.95351828166E+03  0.90273369057E+03 0.  0.
        4    1    3    3  502    0 -0.28427315308E+03 -0.33476871297E+03 -0.43497657614E+02  0.44133318011E+03  0.12699999809E+01 0.  1.
       -4    1    3    3    0  502  0.28427315308E+03  0.33476871297E+03 -0.26353490965E+03  0.51218510155E+03  0.12699999809E+01 0. -1.
</event>
<event>
 5   0  0.1483326E-02  0.8987541E+03  0.7818609E-02  0.9427140E-01
        2   -1    0    0  501    0  0.00000000000E+00  0.00000000000E+00  0.10692821120E+04  0.10692821120E+04  0.25500000920E-02 0. -1.
       -2   -1    0    0    0  501  0.00000000000E+00  0.00000000000E+00 -0.18885542019E+03  0.18885542020E+03  0.25500000920E-02 0.  1.
    10030    2    1    2    0    0  0.00000000000E+00  0.00000000000E+00  0.88042669179E+03  0.12581375322E+04  0.89875407664E+03 0.  0.
        1    1    3    3  502    0 -0.44704601440E+03  0.41808137466E+02  0.41433798931E+03  0.61096156079E+03  0.50400001928E-02 0.  1.
       -1    1    3    3    0  502  0.44704601440E+03 -0.41808137466E+02  0.46608870248E+03  0.64717597139E+03  0.50400001928E-02 0. -1.
</event>
<event>
 5   0  0.1440615E-02  0.9020545E+03  0.7818609E-02  0.9423017E-01
        2   -1    0    0  501    0  0.00000000000E+00  0.00000000000E+00  0.18052321542E+03  0.18052321544E+03  0.25500000920E-02 0. -1.
       -2   -1    0    0    0  501  0.00000000000E+00  0.00000000000E+00 -0.11268666981E+04  0.11268666981E+04  0.25500000920E-02 0.  1.
    10030    2    1    2    0    0  0.00000000000E+00  0.00000000000E+00 -0.94634348264E+03  0.13073899135E+04  0.90205454313E+03 0.  0.
        3    1    3    3  502    0 -0.33058208122E+03  0.33575598633E+02 -0.91519581582E+03  0.97365046333E+03  0.10100000352E+00 0.  1.
       -3    1    3    3    0  502  0.33058208122E+03 -0.33575598633E+02 -0.31147666814E+02  0.33373945016E+03  0.10100000352E+00 0. -1.
</event>
<event>
 5   0  0.8885324E-03  0.9759152E+03  0.7818609E-02  0.9335362E-01
       -1   -1    0    0    0  501  0.00000000000E+00  0.00000000000E+00  0.13429517926E+03  0.13429517935E+03  0.50400001928E-02 0. -1.
        1   -1    0    0  501    0  0.00000000000E+00  0.00000000000E+00 -0.17729797979E+04  0.17729797979E+04  0.50400001928E-02 0.  1.
    10030    2    1    2    0    0  0.00000000000E+00  0.00000000000E+00 -0.16386846186E+04  0.19072749772E+04  0.97591524196E+03 0.  0.
        2    1    3    3  502    0 -0.36191411447E+03  0.12928136403E+03 -0.14069704448E+04  0.14585133972E+04  0.25500000920E-02 0.  1.
       -2    1    3    3    0  502  0.36191411447E+03 -0.12928136403E+03 -0.23171417383E+03  0.44876158002E+03  0.25500000920E-02 0. -1.
</event>
<event>
 5   0  0.1440615E-02  0.8823273E+03  0.7818609E-02  0.9447947E-01
        2   -1    0    0  501    0  0.00000000000E+00  0.00000000000E+00  0.70501177210E+03  0.70501177210E+03  0.25500000920E-02 0. -1.
       -2   -1    0    0    0  501  0.00000000000E+00  0.00000000000E+00 -0.27605975054E+03  0.27605975055E+03  0.25500000920E-02 0.  1.
    10030    2    1    2    0    0  0.00000000000E+00  0.00000000000E+00  0.42895202156E+03  0.98107152265E+03  0.88232731781E+03 0.  0.
        3    1    3    3  502    0 -0.49413345982E+02  0.39926308532E+03  0.41576818039E+03  0.57854635085E+03  0.10100000352E+00 0. -1.
       -3    1    3    3    0  502  0.49413345982E+02 -0.39926308532E+03  0.13183841177E+02  0.40252517180E+03  0.10100000352E+00 0.  1.
</event>
<event>
 5   0  0.8612969E-03  0.9019092E+03  0.7818609E-02  0.9423198E-01
       -1   -1    0    0    0  501  0.00000000000E+00  0.00000000000E+00  0.32049567777E+03  0.32049567780E+03  0.50400001928E-02 0.  1.
        1   -1    0    0  501    0  0.00000000000E+00  0.00000000000E+00 -0.63451730815E+03  0.63451730817E+03  0.50400001928E-02 0. -1.
    10030    2    1    2    0    0  0.00000000000E+00  0.00000000000E+00 -0.31402163039E+03  0.95501298598E+03  0.90190920775E+03 0.  0.
        4    1    3    3  502    0  0.22650829225E+02 -0.44619808386E+03 -0.92145043627E+02  0.45617771983E+03  0.12699999809E+01 0. -1.
       -4    1    3    3    0  502 -0.22650829225E+02  0.44619808386E+03 -0.22187658676E+03  0.49883526615E+03  0.12699999809E+01 0.  1.
</event>
<event>
 5   0  0.5770125E-03  0.7767368E+03  0.7818609E-02  0.9594314E-01
       -4   -1    0    0    0  501  0.00000000000E+00  0.00000000000E+00  0.88042880856E+02  0.88052040121E+02  0.12699999809E+01 0. -1.
        4   -1    0    0  501    0  0.00000000000E+00  0.00000000000E+00 -0.17130440762E+04  0.17130445470E+04  0.12699999809E+01 0.  1.
    10030    2    1    2    0    0  0.00000000000E+00  0.00000000000E+00 -0.16250011954E+04  0.18010965871E+04  0.77673678371E+03 0.  0.
        3    1    3    3  502    0 -0.12714026287E+03 -0.28211025204E+03 -0.26830280916E+03  0.40955738102E+03  0.10100000352E+00 0. -1.
       -3    1    3    3    0  502  0.12714026287E+03  0.28211025204E+03 -0.13566983862E+04  0.13915392061E+04  0.10100000352E+00 0.  1.
</event>
<event>
 5   0  0.8612969E-03  0.8785998E+03  0.7818609E-02  0.9452735E-01
        1   -1    0    0  501    0  0.00000000000E+00  0.00000000000E+00  0.12320180182E+04  0.12320180182E+04  0.50400001928E-02 0. -1.
       -1   -1    0    0    0  501  0.00000000000E+00  0.00000000000E+00 -0.15664087757E+03  0.15664087765E+03  0.50400001928E-02 0.  1.
    10030    2    1    2    0    0  0.00000000000E+00  0.00000000000E+00  0.10753771406E+04  0.13886588959E+04  0.87859975783E+03 0.  0.
        4    1    3    3  502    0 -0.10003330008E+03  0.36881134292E+02  0.12112565369E+04  0.12159403317E+04  0.12699999809E+01 0. -1.
       -4    1    3    3    0  502  0.10003330008E+03 -0.36881134292E+02 -0.13587939624E+03  0.17271856418E+03  0.12699999809E+01 0.  1.
</event>
<event>
 5   0  0.1483326E-02  0.8401523E+03  0.7818609E-02  0.9503650E-01
        2   -1    0    0  501    0  0.00000000000E+00  0.00000000000E+00  0.72083156167E+03  0.72083156167E+03  0.25500000920E-02 0. -1.
       -2   -1    0    0    0  501  0.00000000000E+00  0.00000000000E+00 -0.24480610754E+03  0.24480610755E+03  0.25500000920E-02 0.  1.
    10030    2    1    2    0    0  0.00000000000E+00  0.00000000000E+00  0.47602545413E+03  0.96563766922E+03  0.84015229288E+03 0.  0.
        1    1    3    3  502    0  0.12071861303E+03 -0.37317909277E+03  0.41090780337E+03  0.56805003451E+03  0.50400001928E-02 0. -1.
       -1    1    3    3    0  502 -0.12071861303E+03  0.37317909277E+03  0.65117650764E+02  0.39758763471E+03  0.50400001928E-02 0.  1.
</event>
<event>
 5   0  0.8291252E-03  0.9047402E+03  0.7818609E-02  0.9419675E-01
       -1   -1    0    0    0  501  0.00000000000E+00  0.00000000000E+00  0.38002104242E+03  0.38002104245E+03  0.50400001928E-02 0. -1.
        1   -1    0    0  501    0  0.00000000000E+00  0.00000000000E+00 -0.53849312519E+03  0.53849312521E+03  0.50400001928E-02 0.  1.
    10030    2    1    2    0    0  0.00000000000E+00  0.00000000000E+00 -0.15847208277E+03  0.91851416767E+03  0.90474022525E+03 0.  0.
        1    1    3    3  502    0 -0.41052431352E+03 -0.18414917172E+03 -0.31643901822E+02  0.45104596881E+03  0.50400001928E-02 0. -1.
       -1    1    3    3    0  502  0.41052431352E+03  0.18414917172E+03 -0.12682818095E+03  0.46746819885E+03  0.50400001928E-02 0.  1.
</event>
<event>
 5   0  0.8885324E-03  0.8905089E+03  0.7818609E-02  0.9437524E-01
        1   -1    0    0  501    0  0.00000000000E+00  0.00000000000E+00  0.32349976729E+03  0.32349976733E+03  0.50400001928E-02 0.  1.
       -1   -1    0    0    0  501  0.00000000000E+00  0.00000000000E+00 -0.61283365686E+03  0.61283365688E+03  0.50400001928E-02 0. -1.
    10030    2    1    2    0    0  0.00000000000E+00  0.00000000000E+00 -0.28933388958E+03  0.93633342421E+03  0.89050894529E+03 0.  0.
        2    1    3    3  502    0 -0.20517856902E+03 -0.21927323202E+03 -0.49032759264E+03  0.57497838531E+03  0.25500000920E-02 0. -1.
       -2    1    3    3    0  502  0.20517856902E+03  0.21927323202E+03  0.20099370306E+03  0.36135503890E+03  0.25500000920E-02 0.  1.
</event>
<event>
 5   0  0.1535906E-02  0.8635942E+03  0.7818609E-02  0.9472271E-01
        2   -1    0    0  501    0  0.00000000000E+00  0.00000000000E+00  0.11689633012E+04  0.11689633012E+04  0.25500000920E-02 0. -1.
       -2   -1    0    0    0  501  0.00000000000E+00  0.00000000000E+00 -0.15949923489E+03  0.15949923491E+03  0.25500000920E-02 0.  1.
    10030    2    1    2    0    0  0.00000000000E+00  0.00000000000E+00  0.10094640663E+04  0.13284625361E+04  0.86359423844E+03 0.  0.
        2    1    3    3  502    0  0.25780746868E+02 -0.24169809160E+03  0.10537247272E+04  0.10813965115E+04  0.25500000920E-02 0. -1.
       -2    1    3    3    0  502 -0.25780746868E+02  0.24169809160E+03 -0.44260660908E+02  0.24706602458E+03  0.25500000920E-02 0.  1.
</event>
<event>
 5   0  0.1535906E-02  0.8992686E+03  0.7818609E-02  0.9426496E-01
       -2   -1    0    0    0  501  0.00000000000E+00  0.00000000000E+00  0.82894661895E+02  0.82894661934E+02  0.25500000920E-02 0. -1.
        2   -1    0    0  501    0  0.00000000000E+00  0.00000000000E+00 -0.24388904473E+04  0.24388904473E+04  0.25500000920E-02 0.  1.
    10030    2    1    2    0    0  0.00000000000E+00  0.00000000000E+00 -0.23559957854E+04  0.25217851092E+04  0.89926858964E+03 0.  0.
        2    1    3    3  502    0  0.82060644236E+02  0.37852527297E+02 -0.24131608479E+04  0.24148523849E+04  0.25500000920E-02 0.  1.
       -2    1    3    3    0  502 -0.82060644236E+02 -0.37852527297E+02  0.57165062482E+02  0.10693272432E+03  0.25500000920E-02 0. -1.
</event>
<event>
 5   0  0.1441195E-02  0.9064569E+03  0.7818609E-02  0.9417546E-01
       -2   -1    0    0    0  501  0.00000000000E+00  0.00000000000E+00  0.13692322922E+03  0.13692322924E+03  0.25500000920E-02 0.  1.
        2   -1    0    0  501    0  0.00000000000E+00  0.00000000000E+00 -0.15002278137E+04  0.15002278137E+04  0.25500000920E-02 0. -1.
    10030    2    1    2    0    0  0.00000000000E+00  0.00000000000E+00 -0.13633045844E+04  0.16371510429E+04  0.90645691972E+03 0.  0.
        5    1    3    3  502    0 -0.11114939433E+03  0.30968187529E+03 -0.11874912900E+03  0.34982924031E+03  0.46999998093E+01 0.  1.
       -5    1    3    3    0  502  0.11114939433E+03 -0.30968187529E+03 -0.12445554554E+04  0.12873218026E+04  0.46999998093E+01 0. -1.
</event>
<event>
 5   0  0.1483326E-02  0.8854635E+03  0.7818609E-02  0.9443937E-01
       -2   -1    0    0    0  501  0.00000000000E+00  0.00000000000E+00  0.75800238007E+02  0.75800238050E+02  0.25500000920E-02 0. -1.
        2   -1    0    0  501    0  0.00000000000E+00  0.00000000000E+00 -0.25858943673E+04  0.25858943673E+04  0.25500000920E-02 0.  1.
    10030    2    1    2    0    0  0.00000000000E+00  0.00000000000E+00 -0.25100941293E+04  0.26616946054E+04  0.88546351379E+03 0.  0.
        1    1    3    3  502    0  0.37729995056E+03  0.31982497689E+02 -0.19446796181E+04  0.19812008858E+04  0.50400001928E-02 0.  1.
       -1    1    3    3    0  502 -0.37729995056E+03 -0.31982497689E+02 -0.56541451124E+03  0.68049371959E+03  0.50400001928E-02 0. -1.
</event>
<event>
 5   0  0.8738044E-03  0.9042405E+03  0.7818609E-02  0.9420296E-01
       -1   -1    0    0    0  501  0.00000000000E+00  0.00000000000E+00  0.17931230158E+03  0.17931230165E+03  0.50400001928E-02 0. -1.
        1   -1    0    0  501    0  0.00000000000E+00  0.00000000000E+00 -0.11399815508E+04  0.11399815508E+04  0.50400001928E-02 0.  1.
    10030    2    1    2    0    0  0.00000000000E+00  0.00000000000E+00 -0.96066924924E+03  0.13192938525E+04  0.90424048945E+03 0.  0.
        3    1    3    3  502    0  0.39956570614E+02 -0.22133173137E+03  0.91902343114E+02  0.24296154781E+03  0.10100000352E+00 0. -1.
       -3    1    3    3    0  502 -0.39956570614E+02  0.22133173137E+03 -0.10525715924E+04  0.10763323047E+04  0.10100000352E+00 0.  1.
</event>
<event>
 5   0  0.1454652E-02  0.9306361E+03  0.7818609E-02  0.9388075E-01
        2   -1    0    0  501    0  0.00000000000E+00  0.00000000000E+00  0.12257386593E+04  0.12257386593E+04  0.25500000920E-02 0. -1.
       -2   -1    0    0    0  501  0.00000000000E+00  0.00000000000E+00 -0.17664521487E+03  0.17664521489E+03  0.25500000920E-02 0.  1.
    10030    2    1    2    0    0  0.00000000000E+00  0.00000000000E+00  0.10490934445E+04  0.14023838742E+04  0.93063605962E+03 0.  0.
        4    1    3    3  502    0 -0.12089817643E+03  0.21833840487E+03 -0.67250866119E+02  0.25848079232E+03  0.12699999809E+01 0.  1.
       -4    1    3    3    0  502  0.12089817643E+03 -0.21833840487E+03  0.11163443106E+04  0.11439030819E+04  0.12699999809E+01 0. -1.
</event>
<event>
 5   0  0.1441195E-02  0.8839845E+03  0.7818609E-02  0.9445826E-01
       -2   -1    0    0    0  501  0.00000000000E+00  0.00000000000E+00  0.37224983727E+03  0.37224983728E+03  0.25500000920E-02 0. -1.
        2   -1    0    0  501    0  0.00000000000E+00  0.00000000000E+00 -0.52480113655E+03  0.52480113656E+03  0.25500000920E-02 0.  1.
    10030    2    1    2    0    0  0.00000000000E+00  0.00000000000E+00 -0.15255129928E+03  0.89705097384E+03  0.88398447427E+03 0.  0.
        5    1    3    3  502    0 -0.41392568378E+03 -0.54832728579E+02 -0.22331024877E+03  0.47352999590E+03  0.46999998093E+01 0.  1.
       -5    1    3    3    0  502  0.41392568378E+03  0.54832728579E+02  0.70758949492E+02  0.42352097793E+03  0.46999998093E+01 0. -1.
</event>
<event>
 5   0  0.1440615E-02  0.8934880E+03  0.7818609E-02  0.9433759E-01
        2   -1    0    0  501    0  0.00000000000E+00  0.00000000000E+00  0.14345391501E+04  0.14345391501E+04  0.25500000920E-02 0. -1.
       -2   -1    0    0    0  501  0.00000000000E+00  0.00000000000E+00 -0.13912496726E+03  0.13912496728E+03  0.25500000920E-02 0.  1.
    10030    2    1    2    0    0  0.00000000000E+00  0.00000000000E+00  0.12954141828E+04  0.15736641174E+04  0.89348802410E+03 0.  0.
        3    1    3    3  502    0 -0.17281226803E+03  0.32718658875E+03  0.20681122185E+03  0.42389389655E+03  0.10100000352E+00 0.  1.
       -3    1    3    3    0  502  0.17281226803E+03 -0.32718658875E+03  0.10886029610E+04  0.11497702208E+04  0.10100000352E+00 0. -1.
</event>
<event>
 5   0  0.8291252E-03  0.9072055E+03  0.7818609E-02  0.9416619E-01
        1   -1    0    0  501    0  0.00000000000E+00  0.00000000000E+00  0.52603040692E+03  0.52603040694E+03  0.50400001928E-02 0. -1.
       -1   -1    0    0    0  501  0.00000000000E+00  0.00000000000E+00 -0.39114746062E+03  0.39114746066E+03  0.50400001928E-02 0.  1.
    10030    2    1    2    0    0  0.00000000000E+00  0.00000000000E+00  0.13488294630E+03  0.91717786760E+03  0.90720550683E+03 0.  0.
        1    1    3    3  502    0 -0.73993070653E+01  0.36611222553E+02  0.52447302410E+03  0.52580137352E+03  0.50400001928E-02 0. -1.
       -1    1    3    3    0  502  0.73993070653E+01 -0.36611222553E+02 -0.38959007781E+03  0.39137649408E+03  0.50400001928E-02 0.  1.
</event>
<event>
 5   0  0.5770125E-03  0.8968091E+03  0.7818609E-02  0.9429579E-01
       -4   -1    0    0    0  501  0.00000000000E+00  0.00000000000E+00  0.72114243853E+03  0.72114355682E+03  0.12699999809E+01 0. -1.
        4   -1    0    0  501    0  0.00000000000E+00  0.00000000000E+00 -0.27881401262E+03  0.27881690503E+03  0.12699999809E+01 0.  1.
    10030    2    1    2    0    0  0.00000000000E+00  0.00000000000E+00  0.44232842591E+03  0.99996046186E+03  0.89680905934E+03 0.  0.
        4    1    3    3  502    0 -0.18855159534E+03  0.40660174701E+03  0.23646579423E+03  0.50674882291E+03  0.12699999809E+01 0.  1.
       -4    1    3    3    0  502  0.18855159534E+03 -0.40660174701E+03  0.20586263168E+03  0.49321163895E+03  0.12699999809E+01 0. -1.
</event>
<event>
 5   0  0.8885324E-03  0.9096901E+03  0.7818609E-02  0.9413549E-01
        1   -1    0    0  501    0  0.00000000000E+00  0.00000000000E+00  0.89113756754E+03  0.89113756755E+03  0.50400001928E-02 0.  1.
       -1   -1    0    0    0  501  0.00000000000E+00  0.00000000000E+00 -0.23215723271E+03  0.23215723277E+03  0.50400001928E-02 0. -1.
    10030    2    1    2    0    0  0.00000000000E+00  0.00000000000E+00  0.65898033483E+03  0.11232948003E+04  0.90969012676E+03 0.  0.
        2    1    3    3  502    0  0.17998604318E+03  0.76419366042E+02 -0.17760833533E+03  0.26415831623E+03  0.25500000920E-02 0. -1.
       -2    1    3    3    0  502 -0.17998604318E+03 -0.76419366042E+02  0.83658867016E+03  0.85913648409E+03  0.25500000920E-02 0.  1.
</event>
<event>
 5   0  0.1535906E-02  0.7544873E+03  0.7818609E-02  0.9628337E-01
        2   -1    0    0  501    0  0.00000000000E+00  0.00000000000E+00  0.57689863828E+03  0.57689863828E+03  0.25500000920E-02 0. -1.
       -2   -1    0    0    0  501  0.00000000000E+00  0.00000000000E+00 -0.24668590667E+03  0.24668590669E+03  0.25500000920E-02 0.  1.
    10030    2    1    2    0    0  0.00000000000E+00  0.00000000000E+00  0.33021273160E+03  0.82358454497E+03  0.75448727928E+03 0.  0.
        2    1    3    3  502    0  0.32615618631E+03 -0.96528018761E+02  0.34319566982E+03  0.48319642390E+03  0.25500000920E-02 0.  1.
       -2    1    3    3    0  502 -0.32615618631E+03  0.96528018761E+02 -0.12982938216E+02  0.34038812107E+03  0.25500000920E-02 0. -1.
</event>
<event>
 5   0  0.1454652E-02  0.8985117E+03  0.7818609E-02  0.9427444E-01
       -2   -1    0    0    0  501  0.00000000000E+00  0.00000000000E+00  0.19324154049E+03  0.19324154051E+03  0.25500000920E-02 0. -1.
        2   -1    0    0  501    0  0.00000000000E+00  0.00000000000E+00 -0.10444484516E+04  0.10444484516E+04  0.25500000920E-02 0.  1.
    10030    2    1    2    0    0  0.00000000000E+00  0.00000000000E+00 -0.85120691115E+03  0.12376899921E+04  0.89851172005E+03 0.  0.
        4    1    3    3  502    0 -0.12895627896E+03 -0.16934770918E+03  0.11936859141E+03  0.24404680289E+03  0.12699999809E+01 0. -1.
       -4    1    3    3    0  502  0.12895627896E+03  0.16934770918E+03 -0.97057550256E+03  0.99364318925E+03  0.12699999809E+01 0.  1.
</event>
<event>
 5   0  0.1441195E-02  0.8980781E+03  0.7818609E-02  0.9427987E-01
       -2   -1    0    0    0  501  0.00000000000E+00  0.00000000000E+00  0.16492836422E+03  0.16492836424E+03  0.25500000920E-02 0.  1.
        2   -1    0    0  501    0  0.00000000000E+00  0.00000000000E+00 -0.12225674710E+04  0.12225674710E+04  0.25500000920E-02 0. -1.
    10030    2    1    2    0    0  0.00000000000E+00  0.00000000000E+00 -0.10576391068E+04  0.13874958352E+04  0.89807806601E+03 0.  0.
        5    1    3    3  502    0  0.31049239077E+03  0.30782788832E+03 -0.37088226743E+03  0.57335789857E+03  0.46999998093E+01 0.  1.
       -5    1    3    3    0  502 -0.31049239077E+03 -0.30782788832E+03 -0.68675683934E+03  0.81413793668E+03  0.46999998093E+01 0. -1.
</event>
<event>
 5   0  0.8612969E-03  0.8801948E+03  0.7818609E-02  0.9450683E-01
       -1   -1    0    0    0  501  0.00000000000E+00  0.00000000000E+00  0.19909974182E+03  0.19909974188E+03  0.50400001928E-02 0. -1.
        1   -1    0    0  501    0  0.00000000000E+00  0.00000000000E+00 -0.97280740901E+03  0.97280740903E+03  0.50400001928E-02 0.  1.
    10030    2    1    2    0    0  0.00000000000E+00  0.00000000000E+00 -0.77370766719E+03  0.11719071509E+04  0.88019476031E+03 0.  0.
        4    1    3    3  502    0 -0.21145241268E+03 -0.19979329880E+02 -0.90005078952E+03  0.92477258451E+03  0.12699999809E+01 0.  1.
       -4    1    3    3    0  502  0.21145241268E+03  0.19979329880E+02  0.12634312232E+03  0.24713456640E+03  0.12699999809E+01 0. -1.
</event>
<event>
 5   0  0.8612969E-03  0.8718545E+03  0.7818609E-02  0.9461465E-01
        1   -1    0    0  501    0  0.00000000000E+00  0.00000000000E+00  0.80744737051E+03  0.80744737052E+03  0.50400001928E-02 0. -1.
       -1   -1    0    0    0  501  0.00000000000E+00  0.00000000000E+00 -0.23534976741E+03  0.23534976747E+03  0.50400001928E-02 0.  1.
    10030    2    1    2    0    0  0.00000000000E+00  0.00000000000E+00  0.57209760309E+03  0.10427971380E+04  0.87185446236E+03 0.  0.
        4    1    3    3  502    0 -0.96405720223E+02 -0.16293732646E+03  0.75570661274E+03  0.77906144346E+03  0.12699999809E+01 0. -1.
       -4    1    3    3    0  502  0.96405720223E+02  0.16293732646E+03 -0.18360900965E+03  0.26373569453E+03  0.12699999809E+01 0.  1.
</event>
<event>
 5   0  0.1535906E-02  0.9179566E+03  0.7818609E-02  0.9403409E-01
        2   -1    0    0  501    0  0.00000000000E+00  0.00000000000E+00  0.67857151598E+03  0.67857151598E+03  0.25500000920E-02 0. -1.
       -2   -1    0    0    0  501  0.00000000000E+00  0.00000000000E+00 -0.31044787316E+03  0.31044787317E+03  0.25500000920E-02 0.  1.
    10030    2    1    2    0    0  0.00000000000E+00  0.00000000000E+00  0.36812364281E+03  0.98901938915E+03  0.91795660885E+03 0.  0.
        2    1    3    3  502    0  0.43510878766E+03 -0.14524108967E+03  0.16714770000E+03  0.48821407686E+03  0.25500000920E-02 0.  1.
       -2    1    3    3    0  502 -0.43510878766E+03  0.14524108967E+03  0.20097594281E+03  0.50080531229E+03  0.25500000920E-02 0. -1.
</event>
<event>
 5   0  0.1483326E-02  0.8919834E+03  0.7818609E-02  0.9435658E-01
       -2   -1    0    0    0  501  0.00000000000E+00  0.00000000000E+00  0.21407133321E+03  0.21407133322E+03  0.25500000920E-02 0.  1.
        2   -1    0    0  501    0  0.00000000000E+00  0.00000000000E+00 -0.92916978699E+03  0.92916978699E+03  0.25500000920E-02 0. -1.
    10030    2    1    2    0    0  0.00000000000E+00  0.00000000000E+00 -0.71509845378E+03  0.11432411202E+04  0.89198344175E+03 0.  0.
        1    1    3    3  502    0  0.89256318608E+02 -0.40717753377E+03 -0.15429665161E+03  0.44448587282E+03  0.50400001928E-02 0.  1.
       -1    1    3    3    0  502 -0.89256318608E+02  0.40717753377E+03 -0.56080180217E+03  0.69875524739E+03  0.50400001928E-02 0. -1.
</event>
<event>
 5   0  0.1483326E-02  0.8993000E+03  0.7818609E-02  0.9426457E-01
       -2   -1    0    0    0  501  0.00000000000E+00  0.00000000000E+00  0.46442853387E+03  0.46442853388E+03  0.25500000920E-02 0.  1.
        2   -1    0    0  501    0  0.00000000000E+00  0.00000000000E+00 -0.43534172083E+03  0.43534172084E+03  0.25500000920E-02 0. -1.
    10030    2    1    2    0    0  0.00000000000E+00  0.00000000000E+00  0.29086813045E+02  0.89977025472E+03  0.89929998809E+03 0.  0.
        1    1    3    3  502    0 -0.33880302952E+03  0.12281702695E+03 -0.25450909985E+03  0.44118748492E+03  0.50400001928E-02 0.  1.
       -1    1    3    3    0  502  0.33880302952E+03 -0.12281702695E+03  0.28359591289E+03  0.45858276980E+03  0.50400001928E-02 0. -1.
</event>
<event>
 5   0  0.8885324E-03  0.8927631E+03  0.7818609E-02  0.9434673E-01
        1   -1    0    0  501    0  0.00000000000E+00  0.00000000000E+00  0.14377114931E+03  0.14377114940E+03  0.50400001928E-02 0. -1.
       -1   -1    0    0    0  501  0.00000000000E+00  0.00000000000E+00 -0.13859282829E+04  0.13859282829E+04  0.50400001928E-02 0.  1.
    10030    2    1    2    0    0  0.00000000000E+00  0.00000000000E+00 -0.12421571336E+04  0.15296994323E+04  0.89276313135E+03 0.  0.
        2    1    3    3  502    0 -0.18061796397E+03 -0.13824613919E+03  0.37030314147E+02  0.23044758207E+03  0.25500000920E-02 0. -1.
       -2    1    3    3    0  502  0.18061796397E+03  0.13824613919E+03 -0.12791874477E+04  0.12992518502E+04  0.25500000920E-02 0.  1.
</event>
<event>
 5   0  0.1441195E-02  0.9760130E+03  0.7818609E-02  0.9335252E-01
        2   -1    0    0  501    0  0.00000000000E+00  0.00000000000E+00  0.19141248790E+04  0.19141248790E+04  0.25500000920E-02 0.  1.
       -2   -1    0    0    0  501  0.00000000000E+00  0.00000000000E+00 -0.12441734710E+03  0.12441734713E+03  0.25500000920E-02 0. -1.
    10030    2    1    2    0    0  0.00000000000E+00  0.00000000000E+00  0.17897075319E+04  0.20385422261E+04  0.97601299067E+03 0.  0.
        5    1    3    3  502    0 -0.20586496727E+03  0.12178106205E+03  0.17832446381E+04  0.17992205371E+04  0.46999998093E+01 0.  1.
       -5    1    3    3    0  502  0.20586496727E+03 -0.12178106205E+03  0.64628937609E+01  0.23932168898E+03  0.46999998093E+01 0. -1.
</event>
<event>
 5   0  0.8612969E-03  0.8897316E+03  0.7818609E-02  0.9438509E-01
        1   -1    0    0  501    0  0.00000000000E+00  0.00000000000E+00  0.95514424292E+03  0.95514424294E+03  0.50400001928E-02 0.  1.
       -1   -1    0    0    0  501  0.00000000000E+00  0.00000000000E+00 -0.20719965523E+03  0.20719965529E+03  0.50400001928E-02 0. -1.
    10030    2    1    2    0    0  0.00000000000E+00  0.00000000000E+00  0.74794458769E+03  0.11623438982E+04  0.88973155024E+03 0.  0.
        4    1    3    3  502    0 -0.40796916420E+03 -0.31834940290E+01  0.14227535480E+03  0.43207969526E+03  0.12699999809E+01 0. -1.
       -4    1    3    3    0  502  0.40796916420E+03  0.31834940290E+01  0.60566923289E+03  0.73026420297E+03  0.12699999809E+01 0.  1.
</event>
<event>
 5   0  0.8291252E-03  0.8957341E+03  0.7818609E-02  0.9430930E-01
       -1   -1    0    0    0  501  0.00000000000E+00  0.00000000000E+00  0.36857984846E+03  0.36857984850E+03  0.50400001928E-02 0. -1.
        1   -1    0    0  501    0  0.00000000000E+00  0.00000000000E+00 -0.54421015891E+03  0.54421015894E+03  0.50400001928E-02 0.  1.
    10030    2    1    2    0    0  0.00000000000E+00  0.00000000000E+00 -0.17563031045E+03  0.91279000743E+03  0.89573410771E+03 0.  0.
        1    1    3    3  502    0 -0.25418935575E+03  0.32935794302E+02 -0.46207933779E+03  0.52840733299E+03  0.50400001928E-02 0.  1.
       -1    1    3    3    0  502  0.25418935575E+03 -0.32935794302E+02  0.28644902734E+03  0.38438267444E+03  0.50400001928E-02 0. -1.
</event>
<event>
 5   0  0.8291252E-03  0.9046707E+03  0.7818609E-02  0.9419762E-01
       -1   -1    0    0    0  501  0.00000000000E+00  0.00000000000E+00  0.25086928775E+03  0.25086928780E+03  0.50400001928E-02 0. -1.
        1   -1    0    0  501    0  0.00000000000E+00  0.00000000000E+00 -0.81559314702E+03  0.81559314704E+03  0.50400001928E-02 0.  1.
    10030    2    1    2    0    0  0.00000000000E+00  0.00000000000E+00 -0.56472385927E+03  0.10664624348E+04  0.90467070677E+03 0.  0.
        1    1    3    3  502    0 -0.17478934378E+03 -0.18165829215E+03 -0.72510437385E+03  0.76767662646E+03  0.50400001928E-02 0.  1.
       -1    1    3    3    0  502  0.17478934378E+03  0.18165829215E+03  0.16038051458E+03  0.29878580838E+03  0.50400001928E-02 0. -1.
</event>
<event>
 5   0  0.5770125E-03  0.9018389E+03  0.7818609E-02  0.9423286E-01
       -4   -1    0    0    0  501  0.00000000000E+00  0.00000000000E+00  0.98479877030E+03  0.98479958920E+03  0.12699999809E+01 0.  1.
        4   -1    0    0  501    0  0.00000000000E+00  0.00000000000E+00 -0.20646402186E+03  0.20646792783E+03  0.12699999809E+01 0. -1.
    10030    2    1    2    0    0  0.00000000000E+00  0.00000000000E+00  0.77833474844E+03  0.11912675170E+04  0.90183885283E+03 0.  0.
        5    1    3    3  502    0 -0.36354656132E+03  0.26568333698E+03  0.35811841680E+03  0.57534739788E+03  0.46999998093E+01 0.  1.
       -5    1    3    3    0  502  0.36354656132E+03 -0.26568333698E+03  0.42021633164E+03  0.61592011915E+03  0.46999998093E+01 0. -1.
</event>
<event>
 5   0  0.5770125E-03  0.7851901E+03  0.7818609E-02  0.9581705E-01
       -3   -1    0    0    0  501  0.00000000000E+00  0.00000000000E+00  0.89441854024E+02  0.89441911049E+02  0.10100000352E+00 0.  1.
        3   -1    0    0  501    0  0.00000000000E+00  0.00000000000E+00 -0.17232518226E+04  0.17232518256E+04  0.10100000352E+00 0. -1.
    10030    2    1    2    0    0  0.00000000000E+00  0.00000000000E+00 -0.16338099686E+04  0.18126937366E+04  0.78519014851E+03 0.  0.
        3    1    3    3  502    0  0.20694537263E+03  0.33353930668E+03 -0.83418497580E+03  0.92192160209E+03  0.10100000352E+00 0. -1.
       -3    1    3    3    0  502 -0.20694537263E+03 -0.33353930668E+03 -0.79962499277E+03  0.89077213451E+03  0.10100000352E+00 0.  1.
</event>
<event>
 5   0  0.8291252E-03  0.9058562E+03  0.7818609E-02  0.9418290E-01
       -1   -1    0    0    0  501  0.00000000000E+00  0.00000000000E+00  0.14155766403E+03  0.14155766412E+03  0.50400001928E-02 0.  1.
        1   -1    0    0  501    0  0.00000000000E+00  0.00000000000E+00 -0.14491893162E+04  0.14491893162E+04  0.50400001928E-02 0. -1.
    10030    2    1    2    0    0  0.00000000000E+00  0.00000000000E+00 -0.13076316521E+04  0.15907469803E+04  0.90585617934E+03 0.  0.
        1    1    3    3  502    0 -0.34276042537E+03 -0.14876914299E+03 -0.20429312842E+03  0.42585519775E+03  0.50400001928E-02 0.  1.
       -1    1    3    3    0  502  0.34276042537E+03  0.14876914299E+03 -0.11033385237E+04  0.11648917825E+04  0.50400001928E-02 0. -1.
</event>
<event>
 5   0  0.1440615E-02  0.9010963E+03  0.7818609E-02  0.9424212E-01
       -2   -1    0    0    0  501  0.00000000000E+00  0.00000000000E+00  0.22829413999E+03  0.22829414001E+03  0.25500000920E-02 0. -1.
        2   -1    0    0  501    0  0.00000000000E+00  0.00000000000E+00 -0.88917591862E+03  0.88917591862E+03  0.25500000920E-02 0.  1.
    10030    2    1    2    0    0  0.00000000000E+00  0.00000000000E+00 -0.66088177863E+03  0.11174700586E+04  0.90109633592E+03 0.  0.
        3    1    3    3  502    0 -0.26162444791E+03 -0.17771201140E+03 -0.72837293615E+03  0.79407559782E+03  0.10100000352E+00 0.  1.
       -3    1    3    3    0  502  0.26162444791E+03  0.17771201140E+03  0.67491157525E+02  0.32339446081E+03  0.10100000352E+00 0. -1.
</event>
<event>
 5   0  0.8291252E-03  0.8976274E+03  0.7818609E-02  0.9428552E-01
       -1   -1    0    0    0  501  0.00000000000E+00  0.00000000000E+00  0.17222548037E+03  0.17222548044E+03  0.50400001928E-02 0. -1.
        1   -1    0    0  501    0  0.00000000000E+00  0.00000000000E+00 -0.11695931291E+04  0.11695931291E+04  0.50400001928E-02 0.  1.
    10030    2    1    2    0    0  0.00000000000E+00  0.00000000000E+00 -0.99736764875E+03  0.13418186096E+04  0.89762740277E+03 0.  0.
        1    1    3    3  502    0 -0.28334238006E+02  0.27160888874E+03 -0.10311098084E+04  0.10666591088E+04  0.50400001928E-02 0.  1.
       -1    1    3    3    0  502  0.28334238006E+02 -0.27160888874E+03  0.33742159624E+02  0.27515950074E+03  0.50400001928E-02 0. -1.
</event>
<event>
 5   0  0.1454652E-02  0.9020673E+03  0.7818609E-02  0.9423001E-01
        2   -1    0    0  501    0  0.00000000000E+00  0.00000000000E+00  0.10308117330E+04  0.10308117330E+04  0.25500000920E-02 0. -1.
       -2   -1    0    0    0  501  0.00000000000E+00  0.00000000000E+00 -0.19735065789E+03  0.19735065791E+03  0.25500000920E-02 0.  1.
    10030    2    1    2    0    0  0.00000000000E+00  0.00000000000E+00  0.83346107514E+03  0.12281623909E+04  0.90206734492E+03 0.  0.
        4    1    3    3  502    0  0.26232766275E+03  0.36305483230E+02  0.91380926692E+03  0.95141099424E+03  0.12699999809E+01 0. -1.
       -4    1    3    3    0  502 -0.26232766275E+03 -0.36305483230E+02 -0.80348191779E+02  0.27675139671E+03  0.12699999809E+01 0.  1.
</event>
<event>
 5   0  0.1440615E-02  0.9240760E+03  0.7818609E-02  0.9395976E-01
       -2   -1    0    0    0  501  0.00000000000E+00  0.00000000000E+00  0.16506772234E+03  0.16506772236E+03  0.25500000920E-02 0. -1.
        2   -1    0    0  501    0  0.00000000000E+00  0.00000000000E+00 -0.12932821261E+04  0.12932821261E+04  0.25500000920E-02 0.  1.
    10030    2    1    2    0    0  0.00000000000E+00  0.00000000000E+00 -0.11282144038E+04  0.14583498484E+04  0.92407604646E+03 0.  0.
        3    1    3    3  502    0 -0.35921902098E+03 -0.24954613589E+03 -0.32913698666E+03  0.54739633280E+03  0.10100000352E+00 0.  1.
       -3    1    3    3    0  502  0.35921902098E+03  0.24954613589E+03 -0.79907741709E+03  0.91095351565E+03  0.10100000352E+00 0. -1.
</event>
<event>
 5   0  0.1535906E-02  0.9140755E+03  0.7818609E-02  0.9408155E-01
        2   -1    0    0  501    0  0.00000000000E+00  0.00000000000E+00  0.83773365287E+03  0.83773365288E+03  0.25500000920E-02 0. -1.
       -2   -1    0    0    0  501  0.00000000000E+00  0.00000000000E+00 -0.24934355941E+03  0.24934355942E+03  0.25500000920E-02 0.  1.
    10030    2    1    2    0    0  0.00000000000E+00  0.00000000000E+00  0.58839009347E+03  0.10870772123E+04  0.91407546921E+03 0.  0.
        2    1    3    3  502    0 -0.30515593784E+03  0.22221599413E+01 -0.11043171912E+03  0.32453081362E+03  0.25500000920E-02 0.  1.
       -2    1    3    3    0  502  0.30515593784E+03 -0.22221599413E+01  0.69882181258E+03  0.76254639868E+03  0.25500000920E-02 0. -1.
</event>
<event>
 5   0  0.8524692E-03  0.8987702E+03  0.7818609E-02  0.9427120E-01
        1   -1    0    0  501    0  0.00000000000E+00  0.00000000000E+00  0.49374186726E+03  0.49374186728E+03  0.50400001928E-02 0.  1.
       -1   -1    0    0    0  501  0.00000000000E+00  0.00000000000E+00 -0.40901323495E+03  0.40901323498E+03  0.50400001928E-02 0. -1.
    10030    2    1    2    0    0  0.00000000000E+00  0.00000000000E+00  0.84728632305E+02  0.90275510227E+03  0.89877017838E+03 0.  0.
        5    1    3    3  502    0 -0.24046358243E+03  0.11842086538E+03  0.40462756629E+03  0.48537799006E+03  0.46999998093E+01 0.  1.
       -5    1    3    3    0  502  0.24046358243E+03 -0.11842086538E+03 -0.31989893399E+03  0.41737711221E+03  0.46999998093E+01 0. -1.
</event>
<event>
 5   0  0.8291252E-03  0.9046377E+03  0.7818609E-02  0.9419803E-01
       -1   -1    0    0    0  501  0.00000000000E+00  0.00000000000E+00  0.71328755689E+02  0.71328755867E+02  0.50400001928E-02 0. -1.
        1   -1    0    0  501    0  0.00000000000E+00  0.00000000000E+00 -0.28683008018E+04  0.28683008018E+04  0.50400001928E-02 0.  1.
    10030    2    1    2    0    0  0.00000000000E+00  0.00000000000E+00 -0.27969720461E+04  0.29396295577E+04  0.90463766758E+03 0.  0.
        1    1    3    3  502    0  0.16790383851E+03 -0.49317561141E+02 -0.43130807756E+02  0.18023370225E+03  0.50400001928E-02 0. -1.
       -1    1    3    3    0  502 -0.16790383851E+03  0.49317561141E+02 -0.27538412384E+04  0.27593958555E+04  0.50400001928E-02 0.  1.
</event>
<event>
 5   0  0.1483326E-02  0.8886361E+03  0.7818609E-02  0.9439899E-01
       -2   -1    0    0    0  501  0.00000000000E+00  0.00000000000E+00  0.22388974222E+03  0.22388974223E+03  0.25500000920E-02 0.  1.
        2   -1    0    0  501    0  0.00000000000E+00  0.00000000000E+00 -0.88176671587E+03  0.88176671587E+03  0.25500000920E-02 0. -1.
    10030    2    1    2    0    0  0.00000000000E+00  0.00000000000E+00 -0.65787697365E+03  0.11056564581E+04  0.88863608462E+03 0.  0.
        1    1    3    3  502    0 -0.40741701596E+03 -0.32202647701E+02 -0.11202715438E+03  0.42376375347E+03  0.50400001928E-02 0.  1.
       -1    1    3    3    0  502  0.40741701596E+03  0.32202647701E+02 -0.54584981927E+03  0.68189270463E+03  0.50400001928E-02 0. -1.
</event>
<event>
 5   0  0.1454652E-02  0.8914641E+03  0.7818609E-02  0.9436315E-01
        2   -1    0    0  501    0  0.00000000000E+00  0.00000000000E+00  0.15210011055E+03  0.15210011057E+03  0.25500000920E-02 0.  1.
       -2   -1    0    0    0  501  0.00000000000E+00  0.00000000000E+00 -0.13062257486E+04  0.13062257486E+04  0.25500000920E-02 0. -1.
    10030    2    1    2    0    0  0.00000000000E+00  0.00000000000E+00 -0.11541256381E+04  0.14583258592E+04  0.89146414574E+03 0.  0.
        4    1    3    3  502    0  0.40546223704E+03  0.54276647562E+02 -0.28750845454E+03  0.50000830440E+03  0.12699999809E+01 0.  1.
       -4    1    3    3    0  502 -0.40546223704E+03 -0.54276647562E+02 -0.86661718354E+03  0.95831755480E+03  0.12699999809E+01 0. -1.
</event>
<event>
 5   0  0.1441195E-02  0.9044207E+03  0.7818609E-02  0.9420072E-01
        2   -1    0    0  501    0  0.00000000000E+00  0.00000000000E+00  0.53431076694E+03  0.53431076695E+03  0.25500000920E-02 0.  1.
       -2   -1    0    0    0  501  0.00000000000E+00  0.00000000000E+00 -0.38272520892E+03  0.38272520892E+03  0.25500000920E-02 0. -1.
    10030    2    1    2    0    0  0.00000000000E+00  0.00000000000E+00  0.15158555803E+03  0.91703597587E+03  0.90442069837E+03 0.  0.
        5    1    3    3  502    0 -0.98653821637E+02  0.42609913803E+03 -0.40608583711E+02  0.43927690472E+03  0.46999998093E+01 0. -1.
       -5    1    3    3    0  502  0.98653821637E+02 -0.42609913803E+03  0.19219414174E+03  0.47775907115E+03  0.46999998093E+01 0.  1.
</event>
<event>
 5   0  0.1440615E-02  0.9232239E+03  0.7818609E-02  0.9397007E-01
       -2   -1    0    0    0  501  0.00000000000E+00  0.00000000000E+00  0.21781687777E+03  0.21781687778E+03  0.25500000920E-02 0. -1.
        2   -1    0    0  501    0  0.00000000000E+00  0.00000000000E+00 -0.97827866276E+03  0.97827866277E+03  0.25500000920E-02 0.  1.
    10030    2    1    2    0    0  0.00000000000E+00  0.00000000000E+00 -0.76046178499E+03  0.11960955406E+04  0.92322392500E+03 0.  0.
        3    1    3    3  502    0  0.31437560348E+03 -0.21207429734E+02  0.56825259743E+02  0.32017322731E+03  0.10100000352E+00 0. -1.
       -3    1    3    3    0  502 -0.31437560348E+03  0.21207429734E+02 -0.81728704474E+03  0.87592231324E+03  0.10100000352E+00 0.  1.
</event>
<event>
 5   0  0.1454652E-02  0.8983249E+03  0.7818609E-02  0.9427678E-01
        2   -1    0    0  501    0  0.00000000000E+00  0.00000000000E+00  0.71341692381E+03  0.71341692382E+03  0.25500000920E-02 0.  1.
       -2   -1    0    0    0  501  0.00000000000E+00  0.00000000000E+00 -0.28278963030E+03  0.28278963032E+03  0.25500000920E-02 0. -1.
    10030    2    1    2    0    0  0.00000000000E+00  0.00000000000E+00  0.43062729351E+03  0.99620655413E+03  0.89832490369E+03 0.  0.
        4    1    3    3  502    0  0.13071249558E+03 -0.29448487461E+03  0.56236361441E+03  0.64812155155E+03  0.12699999809E+01 0.  1.
       -4    1    3    3    0  502 -0.13071249558E+03  0.29448487461E+03 -0.13173632090E+03  0.34808500258E+03  0.12699999809E+01 0. -1.
</event>
<event>
 5   0  0.5770125E-03  0.8807694E+03  0.7818609E-02  0.9449945E-01
       -3   -1    0    0    0  501  0.00000000000E+00  0.00000000000E+00  0.29316130029E+03  0.29316131768E+03  0.10100000352E+00 0.  1.
        3   -1    0    0  501    0  0.00000000000E+00  0.00000000000E+00 -0.66154255017E+03  0.66154255788E+03  0.10100000352E+00 0. -1.
    10030    2    1    2    0    0  0.00000000000E+00  0.00000000000E+00 -0.36838124988E+03  0.95470387557E+03  0.88076940498E+03 0.  0.
        3    1    3    3  502    0 -0.45473843288E+02  0.43527034282E+03 -0.23740918463E+03  0.49788680732E+03  0.10100000352E+00 0. -1.
       -3    1    3    3    0  502  0.45473843288E+02 -0.43527034282E+03 -0.13097206525E+03  0.45681706824E+03  0.10100000352E+00 0.  1.
</event>
<event>
 5   0  0.8524692E-03  0.8968995E+03  0.7818609E-02  0.9429466E-01
        1   -1    0    0  501    0  0.00000000000E+00  0.00000000000E+00  0.53519003263E+03  0.53519003266E+03  0.50400001928E-02 0.  1.
       -1   -1    0    0    0  501  0.00000000000E+00  0.00000000000E+00 -0.37576775601E+03  0.37576775604E+03  0.50400001928E-02 0. -1.
    10030    2    1    2    0    0  0.00000000000E+00  0.00000000000E+00  0.15942227662E+03  0.91095778870E+03  0.89689945396E+03 0.  0.
        5    1    3    3  502    0 -0.28716913449E+03  0.28201266417E+03  0.28051644243E+03  0.49062085058E+03  0.46999998093E+01 0.  1.
       -5    1    3    3    0  502  0.28716913449E+03 -0.28201266417E+03 -0.12109416581E+03  0.42033693812E+03  0.46999998093E+01 0. -1.
</event>
<event>
 5   0  0.8885324E-03  0.9098873E+03  0.7818609E-02  0.9413306E-01
       -1   -1    0    0    0  501  0.00000000000E+00  0.00000000000E+00  0.38335682417E+03  0.38335682420E+03  0.50400001928E-02 0.  1.
        1   -1    0    0  501    0  0.00000000000E+00  0.00000000000E+00 -0.53989837274E+03  0.53989837276E+03  0.50400001928E-02 0. -1.
    10030    2    1    2    0    0  0.00000000000E+00  0.00000000000E+00 -0.15654154857E+03  0.92325519696E+03  0.90988730197E+03 0.  0.
        2    1    3    3  502    0  0.24955375342E+03  0.37705920722E+03 -0.27303298702E+02  0.45298586261E+03  0.25500000920E-02 0. -1.
       -2    1    3    3    0  502 -0.24955375342E+03 -0.37705920722E+03 -0.12923824987E+03  0.47026933435E+03  0.25500000920E-02 0.  1.
</event>
<event>
 5   0  0.5770125E-03  0.9002554E+03  0.7818609E-02  0.9425262E-01
        3   -1    0    0  501    0  0.00000000000E+00  0.00000000000E+00  0.25394495481E+03  0.25394497489E+03  0.10100000352E+00 0.  1.
       -3   -1    0    0    0  501  0.00000000000E+00  0.00000000000E+00 -0.79786956512E+03  0.79786957151E+03  0.10100000352E+00 0. -1.
    10030    2    1    2    0    0  0.00000000000E+00  0.00000000000E+00 -0.54392461031E+03  0.10518145464E+04  0.90025544060E+03 0.  0.
        1    1    3    3  502    0  0.24420282895E+03 -0.17285863791E+03 -0.66488254655E+03  0.72909802571E+03  0.50400001928E-02 0. -1.
       -1    1    3    3    0  502 -0.24420282895E+03  0.17285863791E+03  0.12095793624E+03  0.32271652069E+03  0.50400001928E-02 0.  1.
</event>
<event>
 5   0  0.1454652E-02  0.7121663E+03  0.7818609E-02  0.9696649E-01
       -2   -1    0    0    0  501  0.00000000000E+00  0.00000000000E+00  0.52206356005E+02  0.52206356068E+02  0.25500000920E-02 0. -1.
        2   -1    0    0  501    0  0.00000000000E+00  0.00000000000E+00 -0.24287314582E+04  0.24287314582E+04  0.25500000920E-02 0.  1.
    10030    2    1    2    0    0  0.00000000000E+00  0.00000000000E+00 -0.23765251022E+04  0.24809378142E+04  0.71216632671E+03 0.  0.
        4    1    3    3  502    0  0.99979459220E+02  0.51659636277E+02 -0.23651432543E+04  0.23678194265E+04  0.12699999809E+01 0.  1.
       -4    1    3    3    0  502 -0.99979459220E+02 -0.51659636277E+02 -0.11381847884E+02  0.11311838775E+03  0.12699999809E+01 0. -1.
</event>
<event>
 5   0  0.1440615E-02  0.8700031E+03  0.7818609E-02  0.9463876E-01
        2   -1    0    0  501    0  0.00000000000E+00  0.00000000000E+00  0.91531040609E+03  0.91531040610E+03  0.25500000920E-02 0.  1.
       -2   -1    0    0    0  501  0.00000000000E+00  0.00000000000E+00 -0.20673461333E+03  0.20673461334E+03  0.25500000920E-02 0. -1.
    10030    2    1    2    0    0  0.00000000000E+00  0.00000000000E+00  0.70857579277E+03  0.11220450194E+04  0.87000308709E+03 0.  0.
        3    1    3    3  502    0  0.20527808692E+03  0.15081166003E+03  0.80906679349E+03  0.84821715162E+03  0.10100000352E+00 0.  1.
       -3    1    3    3    0  502 -0.20527808692E+03 -0.15081166003E+03 -0.10049100072E+03  0.27382786782E+03  0.10100000352E+00 0. -1.
</event>
<event>
 5   0  0.8524692E-03  0.8879469E+03  0.7818609E-02  0.9440775E-01
        1   -1    0    0  501    0  0.00000000000E+00  0.00000000000E+00  0.28262928163E+03  0.28262928167E+03  0.50400001928E-02 0. -1.
       -1   -1    0    0    0  501  0.00000000000E+00  0.00000000000E+00 -0.69742398410E+03  0.69742398412E+03  0.50400001928E-02 0.  1.
    10030    2    1    2    0    0  0.00000000000E+00  0.00000000000E+00 -0.41479470247E+03  0.98005326579E+03  0.88794693456E+03 0.  0.
        5    1    3    3  502    0  0.20843563823E+03  0.31700224066E+03 -0.46186509718E+03  0.59772677191E+03  0.46999998093E+01 0.  1.
       -5    1    3    3    0  502 -0.20843563823E+03 -0.31700224066E+03  0.47070394711E+02  0.38232649388E+03  0.46999998093E+01 0. -1.
</event>
<event>
 5   0  0.1535906E-02  0.8893496E+03  0.7818609E-02  0.9438994E-01
        2   -1    0    0  501    0  0.00000000000E+00  0.00000000000E+00  0.76297465663E+03  0.76297465663E+03  0.25500000920E-02 0.  1.
       -2   -1    0    0    0  501  0.00000000000E+00  0.00000000000E+00 -0.25916413150E+03  0.25916413151E+03  0.25500000920E-02 0. -1.
    10030    2    1    2    0    0  0.00000000000E+00  0.00000000000E+00  0.50381052512E+03  0.10221387881E+04  0.88934956963E+03 0.  0.
        2    1    3    3  502    0  0.12984755089E+03  0.40419362623E+03  0.99853655528E+02  0.43612340741E+03  0.25500000920E-02 0. -1.
       -2    1    3    3    0  502 -0.12984755089E+03 -0.40419362623E+03  0.40395686960E+03  0.58601538074E+03  0.25500000920E-02 0.  1.
</event>
<event>
 5   0  0.5770125E-03  0.8041007E+03  0.7818609E-02  0.9554100E-01
        3   -1    0    0  501    0  0.00000000000E+00  0.00000000000E+00  0.47021432155E+03  0.47021433240E+03  0.10100000352E+00 0. -1.
       -3   -1    0    0    0  501  0.00000000000E+00  0.00000000000E+00 -0.34376766627E+03  0.34376768110E+03  0.10100000352E+00 0.  1.
    10030    2    1    2    0    0  0.00000000000E+00  0.00000000000E+00  0.12644665528E+03  0.81398201350E+03  0.80410071612E+03 0.  0.
        5    1    3    3  502    0  0.29079917485E+03  0.80015748627E+02 -0.20585456865E+03  0.36519155734E+03  0.46999998093E+01 0.  1.
       -5    1    3    3    0  502 -0.29079917485E+03 -0.80015748627E+02  0.33230122393E+03  0.44879045616E+03  0.46999998093E+01 0. -1.
</event>
<event>
 5   0  0.1454652E-02  0.9020178E+03  0.7818609E-02  0.9423063E-01
       -2   -1    0    0    0  501  0.00000000000E+00  0.00000000000E+00  0.24453002892E+03  0.24453002893E+03  0.25500000920E-02 0. -1.
        2   -1    0    0  501    0  0.00000000000E+00  0.00000000000E+00 -0.83183651330E+03  0.83183651331E+03  0.25500000920E-02 0.  1.
    10030    2    1    2    0    0  0.00000000000E+00  0.00000000000E+00 -0.58730648439E+03  0.10763665422E+04  0.90201775295E+03 0.  0.
        4    1    3    3  502    0 -0.38615624317E+03 -0.14765997732E+01 -0.57168813521E+03  0.68988967331E+03  0.12699999809E+01 0.  1.
       -4    1    3    3    0  502  0.38615624317E+03  0.14765997732E+01 -0.15618349174E+02  0.38647686893E+03  0.12699999809E+01 0. -1.
</event>
<event>
 5   0  0.8291252E-03  0.9426868E+03  0.7818609E-02  0.9373740E-01
       -1   -1    0    0    0  501  0.00000000000E+00  0.00000000000E+00  0.26386907980E+03  0.26386907984E+03  0.50400001928E-02 0. -1.
        1   -1    0    0  501    0  0.00000000000E+00  0.00000000000E+00 -0.84195009053E+03  0.84195009055E+03  0.50400001928E-02 0.  1.
    10030    2    1    2    0    0  0.00000000000E+00  0.00000000000E+00 -0.57808101074E+03  0.11058191704E+04  0.94268678925E+03 0.  0.
        1    1    3    3  502    0  0.30830143458E+03  0.33280887594E+03 -0.43904918329E+03  0.63132852608E+03  0.50400001928E-02 0.  1.
       -1    1    3    3    0  502 -0.30830143458E+03 -0.33280887594E+03 -0.13903182745E+03  0.47449064431E+03  0.50400001928E-02 0. -1.
</event>
<event>
 5   0  0.1535906E-02  0.8988602E+03  0.7818609E-02  0.9427007E-01
        2   -1    0    0  501    0  0.00000000000E+00  0.00000000000E+00  0.35819708147E+03  0.35819708148E+03  0.25500000920E-02 0. -1.
       -2   -1    0    0    0  501  0.00000000000E+00  0.00000000000E+00 -0.56390021814E+03  0.56390021814E+03  0.25500000920E-02 0.  1.
    10030    2    1    2    0    0  0.00000000000E+00  0.00000000000E+00 -0.20570313667E+03  0.92209729962E+03  0.89886019466E+03 0.  0.
        2    1    3    3  502    0 -0.47984530047E+02  0.44366416299E+03 -0.48114828757E+02  0.44883787875E+03  0.25500000920E-02 0. -1.
       -2    1    3    3    0  502  0.47984530047E+02 -0.44366416299E+03 -0.15758830791E+03  0.47325942087E+03  0.25500000920E-02 0.  1.
</event>
<event>
 5   0  0.8524692E-03  0.8935048E+03  0.7818609E-02  0.9433737E-01
       -1   -1    0    0    0  501  0.00000000000E+00  0.00000000000E+00  0.51947596017E+03  0.51947596020E+03  0.50400001928E-02 0. -1.
        1   -1    0    0  501    0  0.00000000000E+00  0.00000000000E+00 -0.38420973066E+03  0.38420973069E+03  0.50400001928E-02 0.  1.
    10030    2    1    2    0    0  0.00000000000E+00  0.00000000000E+00  0.13526622951E+03  0.90368569089E+03  0.89350482655E+03 0.  0.
        5    1    3    3  502    0  0.15697570435E+03  0.41039329097E+03  0.14918438895E+03  0.46404967076E+03  0.46999998093E+01 0. -1.
       -5    1    3    3    0  502 -0.15697570435E+03 -0.41039329097E+03 -0.13918159441E+02  0.43963602012E+03  0.46999998093E+01 0.  1.
</event>
<event>
 5   0  0.5770125E-03  0.8989976E+03  0.7818609E-02  0.9426835E-01
       -3   -1    0    0    0  501  0.00000000000E+00  0.00000000000E+00  0.91032094280E+03  0.91032094840E+03  0.10100000352E+00 0. -1.
        3   -1    0    0  501    0  0.00000000000E+00  0.00000000000E+00 -0.22195377951E+03  0.22195380249E+03  0.10100000352E+00 0.  1.
    10030    2    1    2    0    0  0.00000000000E+00  0.00000000000E+00  0.68836716329E+03  0.11322747509E+04  0.89899764182E+03 0.  0.
        4    1    3    3  502    0  0.24103012167E+01 -0.12554159402E+03 -0.19941415393E+03  0.23565678236E+03  0.12699999809E+01 0.  1.
       -4    1    3    3    0  502 -0.24103012167E+01  0.12554159402E+03  0.88778131722E+03  0.89661796853E+03  0.12699999809E+01 0. -1.
</event>
<event>
 5   0  0.8291252E-03  0.8998416E+03  0.7818609E-02  0.9425780E-01
        1   -1    0    0  501    0  0.00000000000E+00  0.00000000000E+00  0.13415176204E+04  0.13415176204E+04  0.50400001928E-02 0.  1.
       -1   -1    0    0    0  501  0.00000000000E+00  0.00000000000E+00 -0.15089530371E+03  0.15089530380E+03  0.50400001928E-02 0. -1.
    10030    2    1    2    0    0  0.00000000000E+00  0.00000000000E+00  0.11906223166E+04  0.14924129242E+04  0.89984156123E+03 0.  0.
        1    1    3    3  502    0 -0.43135882477E+03  0.12111591625E+03  0.66347664014E+03  0.80058775466E+03  0.50400001928E-02 0. -1.
       -1    1    3    3    0  502  0.43135882477E+03 -0.12111591625E+03  0.52714567650E+03  0.69182516950E+03  0.50400001928E-02 0.  1.
</event>
<event>
 5   0  0.1441195E-02  0.9125100E+03  0.7818609E-02  0.9410077E-01
        2   -1    0    0  501    0  0.00000000000E+00  0.00000000000E+00  0.71235467831E+03  0.71235467831E+03  0.25500000920E-02 0. -1.
       -2   -1    0    0    0  501  0.00000000000E+00  0.00000000000E+00 -0.29222609703E+03  0.29222609704E+03  0.25500000920E-02 0.  1.
    10030    2    1    2    0    0  0.00000000000E+00  0.00000000000E+00  0.42012858128E+03  0.10045807754E+04  0.91251000510E+03 0.  0.
        5    1    3    3  502    0  0.12208607520E+03  0.36541408444E+03  0.47908491771E+03  0.61479826874E+03  0.46999998093E+01 0.  1.
       -5    1    3    3    0  502 -0.12208607520E+03 -0.36541408444E+03 -0.58956336437E+02  0.38978250662E+03  0.46999998093E+01 0. -1.
</event>
<event>
 5   0  0.8524692E-03  0.9147751E+03  0.7818609E-02  0.9407298E-01
       -1   -1    0    0    0  501  0.00000000000E+00  0.00000000000E+00  0.88192227008E+03  0.88192227010E+03  0.50400001928E-02 0.  1.
        1   -1    0    0  501    0  0.00000000000E+00  0.00000000000E+00 -0.23721296087E+03  0.23721296093E+03  0.50400001928E-02 0. -1.
    10030    2    1    2    0    0  0.00000000000E+00  0.00000000000E+00  0.64470930921E+03  0.11191352310E+04  0.91477514829E+03 0.  0.
        5    1    3    3  502    0 -0.40170187254E+03  0.21827450209E+03  0.30625636044E+03  0.55029374063E+03  0.46999998093E+01 0. -1.
       -5    1    3    3    0  502  0.40170187254E+03 -0.21827450209E+03  0.33845294877E+03  0.56884149040E+03  0.46999998093E+01 0.  1.
</event>
<event>
 5   0  0.1440615E-02  0.9000628E+03  0.7818609E-02  0.9425503E-01
        2   -1    0    0  501    0  0.00000000000E+00  0.00000000000E+00  0.33842725841E+03  0.33842725842E+03  0.25500000920E-02 0.  1.
       -2   -1    0    0    0  501  0.00000000000E+00  0.00000000000E+00 -0.59843951630E+03  0.59843951630E+03  0.25500000920E-02 0. -1.
    10030    2    1    2    0    0  0.00000000000E+00  0.00000000000E+00 -0.26001225788E+03  0.93686677473E+03  0.90006276411E+03 0.  0.
        3    1    3    3  502    0  0.18300672630E+03 -0.19876915802E+03  0.24460975895E+03  0.36446479174E+03  0.10100000352E+00 0.  1.
       -3    1    3    3    0  502 -0.18300672630E+03  0.19876915802E+03 -0.50462201683E+03  0.57240198298E+03  0.10100000352E+00 0. -1.
</event>
<event>
 5   0  0.8291252E-03  0.9025051E+03  0.7818609E-02  0.9422455E-01
       -1   -1    0    0    0  501  0.00000000000E+00  0.00000000000E+00  0.23008733209E+03  0.23008733214E+03  0.50400001928E-02 0.  1.
        1   -1    0    0  501    0  0.00000000000E+00  0.00000000000E+00 -0.88500686138E+03  0.88500686139E+03  0.50400001928E-02 0. -1.
    10030    2    1    2    0    0  0.00000000000E+00  0.00000000000E+00 -0.65491952929E+03  0.11150941935E+04  0.90250510836E+03 0.  0.
        1    1    3    3  502    0 -0.39219483657E+03 -0.21064464151E+03 -0.23632212673E+03  0.50401994250E+03  0.50400001928E-02 0.  1.
       -1    1    3    3    0  502  0.39219483657E+03  0.21064464151E+03 -0.41859740256E+03  0.61107425104E+03  0.50400001928E-02 0. -1.
</event>
<event>
 5   0  0.8738044E-03  0.9021149E+03  0.7818609E-02  0.9422942E-01
       -1   -1    0    0    0  501  0.00000000000E+00  0.00000000000E+00  0.19034367227E+03  0.19034367234E+03  0.50400001928E-02 0.  1.
        1   -1    0    0  501    0  0.00000000000E+00  0.00000000000E+00 -0.10688709560E+04  0.10688709560E+04  0.50400001928E-02 0. -1.
    10030    2    1    2    0    0  0.00000000000E+00  0.00000000000E+00 -0.87852728371E+03  0.12592146283E+04  0.90211489954E+03 0.  0.
        3    1    3    3  502    0  0.29945531450E+03 -0.18645092014E+03 -0.83163177296E+03  0.90335422012E+03  0.10100000352E+00 0. -1.
       -3    1    3    3    0  502 -0.29945531450E+03  0.18645092014E+03 -0.46895510750E+02  0.35586040821E+03  0.10100000352E+00 0.  1.
</event>
<event>
 5   0  0.1440615E-02  0.9112663E+03  0.7818609E-02  0.9411607E-01
        2   -1    0    0  501    0  0.00000000000E+00  0.00000000000E+00  0.90855717288E+03  0.90855717288E+03  0.25500000920E-02 0. -1.
       -2   -1    0    0    0  501  0.00000000000E+00  0.00000000000E+00 -0.22849585142E+03  0.22849585143E+03  0.25500000920E-02 0.  1.
    10030    2    1    2    0    0  0.00000000000E+00  0.00000000000E+00  0.68006132146E+03  0.11370530243E+04  0.91126625042E+03 0.  0.
        3    1    3    3  502    0 -0.19593735712E+03  0.52053324164E-01 -0.17324249604E+03  0.26154239286E+03  0.10100000352E+00 0.  1.
       -3    1    3    3    0  502  0.19593735712E+03 -0.52053324164E-01  0.85330381750E+03  0.87551063145E+03  0.10100000352E+00 0. -1.
</event>
<event>
 5   0  0.1441195E-02  0.8935946E+03  0.7818609E-02  0.9433624E-01
        2   -1    0    0  501    0  0.00000000000E+00  0.00000000000E+00  0.19940566964E+04  0.19940566964E+04  0.25500000920E-02 0. -1.
       -2   -1    0    0    0  501  0.00000000000E+00  0.00000000000E+00 -0.10011141259E+03  0.10011141263E+03  0.25500000920E-02 0.  1.
    10030    2    1    2    0    0  0.00000000000E+00  0.00000000000E+00  0.18939452838E+04  0.20941681091E+04  0.89359461214E+03 0.  0.
        5    1    3    3  502    0  0.16008503990E+03 -0.36495871708E+03  0.14202482104E+04  0.14751098787E+04  0.46999998093E+01 0.  1.
       -5    1    3    3    0  502 -0.16008503990E+03  0.36495871708E+03  0.47369707350E+03  0.61905823039E+03  0.46999998093E+01 0. -1.
</event>
<event>
 5   0  0.1441195E-02  0.8984907E+03  0.7818609E-02  0.9427470E-01
        2   -1    0    0  501    0  0.00000000000E+00  0.00000000000E+00  0.28227342407E+03  0.28227342408E+03  0.25500000920E-02 0.  1.
       -2   -1    0    0    0  501  0.00000000000E+00  0.00000000000E+00 -0.71498542158E+03  0.71498542159E+03  0.25500000920E-02 0. -1.
    10030    2    1    2    0    0  0.00000000000E+00  0.00000000000E+00 -0.43271199751E+03  0.99725884567E+03  0.89849069693E+03 0.  0.
        5    1    3    3  502    0 -0.44160608773E+03  0.81156458018E+02 -0.23193399814E+03  0.50538873839E+03  0.46999998093E+01 0.  1.
       -5    1    3    3    0  502  0.44160608773E+03 -0.81156458018E+02 -0.20077799937E+03  0.49187010728E+03  0.46999998093E+01 0. -1.
</event>
<event>
 5   0  0.8612969E-03  0.8993119E+03  0.7818609E-02  0.9426442E-01
       -1   -1    0    0    0  501  0.00000000000E+00  0.00000000000E+00  0.38956524364E+03  0.38956524367E+03  0.50400001928E-02 0. -1.
        1   -1    0    0  501    0  0.00000000000E+00  0.00000000000E+00 -0.51901564466E+03  0.51901564468E+03  0.50400001928E-02 0.  1.
    10030    2    1    2    0    0  0.00000000000E+00  0.00000000000E+00 -0.12945040102E+03  0.90858088835E+03  0.89931186157E+03 0.  0.
        4    1    3    3  502    0 -0.23143832634E+03 -0.24526757821E+03  0.23577774629E+03  0.41147617473E+03  0.12699999809E+01 0. -1.
       -4    1    3    3    0  502  0.23143832634E+03  0.24526757821E+03 -0.36522814731E+03  0.49710471362E+03  0.12699999809E+01 0.  1.
</event>
<event>
 5   0  0.8524692E-03  0.9211091E+03  0.7818609E-02  0.9399572E-01
        1   -1    0    0  501    0  0.00000000000E+00  0.00000000000E+00  0.88191070571E+03  0.88191070572E+03  0.50400001928E-02 0.  1.
       -1   -1    0    0    0  501  0.00000000000E+00  0.00000000000E+00 -0.24051243674E+03  0.24051243679E+03  0.50400001928E-02 0. -1.
    10030    2    1    2    0    0  0.00000000000E+00  0.00000000000E+00  0.64139826896E+03  0.11224231425E+04  0.92110909854E+03 0.  0.
        5    1    3    3  502    0 -0.44807942135E+03  0.87853451554E+02  0.24763649556E+03  0.51946060555E+03  0.46999998093E+01 0. -1.
       -5    1    3    3    0  502  0.44807942135E+03 -0.87853451554E+02  0.39376177341E+03  0.60296253696E+03  0.46999998093E+01 0.  1.
</event>
<event>
 5   0  0.8885324E-03  0.8959696E+03  0.7818609E-02  0.9430634E-01
       -1   -1    0    0    0  501  0.00000000000E+00  0.00000000000E+00  0.14971188969E+03  0.14971188978E+03  0.50400001928E-02 0. -1.
        1   -1    0    0  501    0  0.00000000000E+00  0.00000000000E+00 -0.13405106157E+04  0.13405106157E+04  0.50400001928E-02 0.  1.
    10030    2    1    2    0    0  0.00000000000E+00  0.00000000000E+00 -0.11907987260E+04  0.14902225055E+04  0.89596959212E+03 0.  0.
        2    1    3    3  502    0 -0.19319787432E+03 -0.39375986207E+03 -0.74709416371E+03  0.86632669189E+03  0.25500000920E-02 0. -1.
       -2    1    3    3    0  502  0.19319787432E+03  0.39375986207E+03 -0.44370456232E+03  0.62389581362E+03  0.25500000920E-02 0.  1.
</event>
<event>
 5   0  0.8291252E-03  0.8979772E+03  0.7818609E-02  0.9428114E-01
       -1   -1    0    0    0  501  0.00000000000E+00  0.00000000000E+00  0.94923097085E+02  0.94923097219E+02  0.50400001928E-02 0.  1.
        1   -1    0    0  501    0  0.00000000000E+00  0.00000000000E+00 -0.21237270328E+04  0.21237270328E+04  0.50400001928E-02 0. -1.
    10030    2    1    2    0    0  0.00000000000E+00  0.00000000000E+00 -0.20288039357E+04  0.22186501300E+04  0.89797716557E+03 0.  0.
        1    1    3    3  502    0  0.34786464246E+03 -0.22873998070E+03 -0.59906402310E+03  0.72952689604E+03  0.50400001928E-02 0.  1.
       -1    1    3    3    0  502 -0.34786464246E+03  0.22873998070E+03 -0.14297399126E+04  0.14891232340E+04  0.50400001928E-02 0. -1.
</event>
<event>
 5   0  0.5770125E-03  0.1021503E+04  0.7818609E-02  0.9285271E-01
       -3   -1    0    0    0  501  0.00000000000E+00  0.00000000000E+00  0.49597288605E+03  0.49597289633E+03  0.10100000352E+00 0.  1.
        3   -1    0    0  501    0  0.00000000000E+00  0.00000000000E+00 -0.52596997907E+03  0.52596998876E+03  0.10100000352E+00 0. -1.
    10030    2    1    2    0    0  0.00000000000E+00  0.00000000000E+00 -0.29997093017E+02  0.10219428851E+04  0.10215025378E+04 0.  0.
        1    1    3    3  502    0 -0.46931124446E+02  0.49245639135E+03  0.11214294384E+03  0.50723945795E+03  0.50400001928E-02 0. -1.
       -1    1    3    3    0  502  0.46931124446E+02 -0.49245639135E+03 -0.14214003685E+03  0.51470342715E+03  0.50400001928E-02 0.  1.
</event>
<event>
 5   0  0.8612969E-03  0.8963883E+03  0.7818609E-02  0.9430108E-01
        1   -1    0    0  501    0  0.00000000000E+00  0.00000000000E+00  0.32109446277E+03  0.32109446281E+03  0.50400001928E-02 0. -1.
       -1   -1    0    0    0  501  0.00000000000E+00  0.00000000000E+00 -0.62560403974E+03  0.62560403976E+03  0.50400001928E-02 0.  1.
    10030    2    1    2    0    0  0.00000000000E+00  0.00000000000E+00 -0.30450957697E+03  0.94669850258E+03  0.89638829327E+03 0.  0.
        4    1    3    3  502    0 -0.17385735648E+03  0.81144966986E+02 -0.58003839693E+03  0.61094765806E+03  0.12699999809E+01 0.  1.
       -4    1    3    3    0  502  0.17385735648E+03 -0.81144966986E+02  0.27552881996E+03  0.33575084452E+03  0.12699999809E+01 0. -1.
</event>
<event>
 5   0  0.1440615E-02  0.8996689E+03  0.7818609E-02  0.9425995E-01
        2   -1    0    0  501    0  0.00000000000E+00  0.00000000000E+00  0.12213510286E+04  0.12213510286E+04  0.25500000920E-02 0.  1.
       -2   -1    0    0    0  501  0.00000000000E+00  0.00000000000E+00 -0.16567803421E+03  0.16567803423E+03  0.25500000920E-02 0. -1.
    10030    2    1    2    0    0  0.00000000000E+00  0.00000000000E+00  0.10556729944E+04  0.13870290629E+04  0.89966891137E+03 0.  0.
        3    1    3    3  502    0 -0.15990616240E+03  0.45680108159E+01  0.11760156593E+04  0.11868461099E+04  0.10100000352E+00 0.  1.
       -3    1    3    3    0  502  0.15990616240E+03 -0.45680108159E+01 -0.12034266482E+03  0.20018295301E+03  0.10100000352E+00 0. -1.
</event>
<event>
 5   0  0.1441195E-02  0.9037727E+03  0.7818609E-02  0.9420878E-01
        2   -1    0    0  501    0  0.00000000000E+00  0.00000000000E+00  0.41283841689E+03  0.41283841690E+03  0.25500000920E-02 0.  1.
       -2   -1    0    0    0  501  0.00000000000E+00  0.00000000000E+00 -0.49462763237E+03  0.49462763238E+03  0.25500000920E-02 0. -1.
    10030    2    1    2    0    0  0.00000000000E+00  0.00000000000E+00 -0.81789215481E+02  0.90746604928E+03  0.90377273406E+03 0.  0.
        5    1    3    3  502    0 -0.90306148198E+02 -0.38482947321E+03 -0.26071911617E+03  0.47354563813E+03  0.46999998093E+01 0. -1.
       -5    1    3    3    0  502  0.90306148198E+02  0.38482947321E+03  0.17892990069E+03  0.43392041115E+03  0.46999998093E+01 0.  1.
</event>
<event>
 5   0  0.1441195E-02  0.8978991E+03  0.7818609E-02  0.9428211E-01
        2   -1    0    0  501    0  0.00000000000E+00  0.00000000000E+00  0.10613198929E+04  0.10613198929E+04  0.25500000920E-02 0.  1.
       -2   -1    0    0    0  501  0.00000000000E+00  0.00000000000E+00 -0.18991042141E+03  0.18991042143E+03  0.25500000920E-02 0. -1.
    10030    2    1    2    0    0  0.00000000000E+00  0.00000000000E+00  0.87140947144E+03  0.12512303143E+04  0.89789912154E+03 0.  0.
        5    1    3    3  502    0  0.17924316318E+03  0.94199736557E+02  0.99403401848E+03  0.10144591770E+04  0.46999998093E+01 0.  1.
       -5    1    3    3    0  502 -0.17924316318E+03 -0.94199736557E+02 -0.12262454704E+03  0.23677113728E+03  0.46999998093E+01 0. -1.
</event>
<event>
 5   0  0.8291252E-03  0.9109451E+03  0.7818609E-02  0.9412002E-01
       -1   -1    0    0    0  501  0.00000000000E+00  0.00000000000E+00  0.27157844663E+03  0.27157844668E+03  0.50400001928E-02 0. -1.
        1   -1    0    0  501    0  0.00000000000E+00  0.00000000000E+00 -0.76388697084E+03  0.76388697085E+03  0.50400001928E-02 0.  1.
    10030    2    1    2    0    0  0.00000000000E+00  0.00000000000E+00 -0.49230852421E+03  0.10354654175E+04  0.91094508501E+03 0.  0.
        1    1    3    3  502    0  0.44090185597E+03  0.72288045171E+02 -0.14553775294E+03  0.46989493041E+03  0.50400001928E-02 0.  1.
       -1    1    3    3    0  502 -0.44090185597E+03 -0.72288045171E+02 -0.34677077127E+03  0.56557048712E+03  0.50400001928E-02 0. -1.
</event>
<event>
 5   0  0.1483326E-02  0.9055634E+03  0.7818609E-02  0.9418653E-01
       -2   -1    0    0    0  501  0.00000000000E+00  0.00000000000E+00  0.14022382765E+03  0.14022382767E+03  0.25500000920E-02 0. -1.
        2   -1    0    0  501    0  0.00000000000E+00  0.00000000000E+00 -0.14620288847E+04  0.14620288847E+04  0.25500000920E-02 0.  1.
    10030    2    1    2    0    0  0.00000000000E+00  0.00000000000E+00 -0.13218050570E+04  0.16022527123E+04  0.90556344086E+03 0.  0.
        1    1    3    3  502    0  0.15295996698E+03  0.42563889583E+03 -0.62353354354E+03  0.77029818972E+03  0.50400001928E-02 0.  1.
       -1    1    3    3    0  502 -0.15295996698E+03 -0.42563889583E+03 -0.69827151347E+03  0.83195452261E+03  0.50400001928E-02 0. -1.
</event>
<event>
 5   0  0.1483326E-02  0.9087762E+03  0.7818609E-02  0.9414677E-01
       -2   -1    0    0    0  501  0.00000000000E+00  0.00000000000E+00  0.26058082446E+03  0.26058082447E+03  0.25500000920E-02 0.  1.
        2   -1    0    0  501    0  0.00000000000E+00  0.00000000000E+00 -0.79233983114E+03  0.79233983114E+03  0.25500000920E-02 0. -1.
    10030    2    1    2    0    0  0.00000000000E+00  0.00000000000E+00 -0.53175900668E+03  0.10529206556E+04  0.90877624630E+03 0.  0.
        1    1    3    3  502    0  0.22366724305E+03 -0.37014741022E+03 -0.10436847412E+03  0.44489203108E+03  0.50400001928E-02 0.  1.
       -1    1    3    3    0  502 -0.22366724305E+03  0.37014741022E+03 -0.42739053256E+03  0.60802862453E+03  0.50400001928E-02 0. -1.
</event>
<event>
 5   0  0.8291252E-03  0.9004881E+03  0.7818609E-02  0.9424971E-01
       -1   -1    0    0    0  501  0.00000000000E+00  0.00000000000E+00  0.35163600332E+03  0.35163600336E+03  0.50400001928E-02 0.  1.
        1   -1    0    0  501    0  0.00000000000E+00  0.00000000000E+00 -0.57650443031E+03  0.57650443033E+03  0.50400001928E-02 0. -1.
    10030    2    1    2    0    0  0.00000000000E+00  0.00000000000E+00 -0.22486842699E+03  0.92814043370E+03  0.90048812052E+03 0.  0.
        1    1    3    3  502    0  0.54560551660E+02  0.20066093580E+03 -0.52404444507E+03  0.56379450635E+03  0.50400001928E-02 0. -1.
       -1    1    3    3    0  502 -0.54560551660E+02 -0.20066093580E+03  0.29917601808E+03  0.36434592735E+03  0.50400001928E-02 0.  1.
</event>
<event>
 5   0  0.1454652E-02  0.8971838E+03  0.7818609E-02  0.9429109E-01
        2   -1    0    0  501    0  0.00000000000E+00  0.00000000000E+00  0.99348624724E+03  0.99348624724E+03  0.25500000920E-02 0. -1.
       -2   -1    0    0    0  501  0.00000000000E+00  0.00000000000E+00 -0.20255406816E+03  0.20255406818E+03  0.25500000920E-02 0.  1.
    10030    2    1    2    0    0  0.00000000000E+00  0.00000000000E+00  0.79093217908E+03  0.11960403154E+04  0.89718377393E+03 0.  0.
        4    1    3    3  502    0 -0.10726617709E+03 -0.14070260107E+03 -0.15407377031E+03  0.23461371293E+03  0.12699999809E+01 0.  1.
       -4    1    3    3    0  502  0.10726617709E+03  0.14070260107E+03  0.94500594939E+03  0.96142660249E+03  0.12699999809E+01 0. -1.
</event>
<event>
 5   0  0.8885324E-03  0.1004301E+04  0.7818609E-02  0.9303840E-01
        1   -1    0    0  501    0  0.00000000000E+00  0.00000000000E+00  0.86524068864E+03  0.86524068865E+03  0.50400001928E-02 0. -1.
       -1   -1    0    0    0  501  0.00000000000E+00  0.00000000000E+00 -0.29142759530E+03  0.29142759535E+03  0.50400001928E-02 0.  1.
    10030    2    1    2    0    0  0.00000000000E+00  0.00000000000E+00  0.57381309333E+03  0.11566682840E+04  0.10043007782E+04 0.  0.
        2    1    3    3  502    0 -0.46514469602E+02  0.25761820782E+03  0.78043259171E+03  0.82316812808E+03  0.25500000920E-02 0. -1.
       -2    1    3    3    0  502  0.46514469602E+02 -0.25761820782E+03 -0.20661949837E+03  0.33350015592E+03  0.25500000920E-02 0.  1.
</event>
<event>
 5   0  0.1535906E-02  0.9086600E+03  0.7818609E-02  0.9414820E-01
        2   -1    0    0  501    0  0.00000000000E+00  0.00000000000E+00  0.10053152065E+04  0.10053152066E+04  0.25500000920E-02 0. -1.
       -2   -1    0    0    0  501  0.00000000000E+00  0.00000000000E+00 -0.20532442691E+03  0.20532442693E+03  0.25500000920E-02 0.  1.
    10030    2    1    2    0    0  0.00000000000E+00  0.00000000000E+00  0.79999077964E+03  0.12106396335E+04  0.90866004350E+03 0.  0.
        2    1    3    3  502    0 -0.10348755075E+03  0.30977063561E+03 -0.20795274804E+02  0.32726130738E+03  0.25500000920E-02 0.  1.
       -2    1    3    3    0  502  0.10348755075E+03 -0.30977063561E+03  0.82078605444E+03  0.88337832610E+03  0.25500000920E-02 0. -1.
</event>
<event>
 5   0  0.8291252E-03  0.8910222E+03  0.7818609E-02  0.9436874E-01
       -1   -1    0    0    0  501  0.00000000000E+00  0.00000000000E+00  0.51832599879E+03  0.51832599882E+03  0.50400001928E-02 0.  1.
        1   -1    0    0  501    0  0.00000000000E+00  0.00000000000E+00 -0.38292534044E+03  0.38292534048E+03  0.50400001928E-02 0. -1.
    10030    2    1    2    0    0  0.00000000000E+00  0.00000000000E+00  0.13540065835E+03  0.90125133929E+03  0.89102224343E+03 0.  0.
        1    1    3    3  502    0  0.12066056414E+01  0.39055048159E+03  0.28451842570E+03  0.48319961626E+03  0.50400001928E-02 0.  1.
       -1    1    3    3    0  502 -0.12066056414E+01 -0.39055048159E+03 -0.14911776735E+03  0.41805172303E+03  0.50400001928E-02 0. -1.
</event>
<event>
 5   0  0.1535906E-02  0.8898922E+03  0.7818609E-02  0.9438306E-01
       -2   -1    0    0    0  501  0.00000000000E+00  0.00000000000E+00  0.15002382890E+04  0.15002382890E+04  0.25500000920E-02 0.  1.
        2   -1    0    0  501    0  0.00000000000E+00  0.00000000000E+00 -0.13196372027E+03  0.13196372030E+03  0.25500000920E-02 0. -1.
    10030    2    1    2    0    0  0.00000000000E+00  0.00000000000E+00  0.13682745687E+04  0.16322020093E+04  0.88989218658E+03 0.  0.
        2    1    3    3  502    0  0.17327017436E+03  0.29850372090E+03  0.16910154492E+03  0.38434666282E+03  0.25500000920E-02 0. -1.
       -2    1    3    3    0  502 -0.17327017436E+03 -0.29850372090E+03  0.11991730238E+04  0.12478553465E+04  0.25500000920E-02 0.  1.
</event>
<event>
 5   0  0.1441195E-02  0.8897799E+03  0.7818609E-02  0.9438448E-01
       -2   -1    0    0    0  501  0.00000000000E+00  0.00000000000E+00  0.32684980871E+03  0.32684980872E+03  0.25500000920E-02 0. -1.
        2   -1    0    0  501    0  0.00000000000E+00  0.00000000000E+00 -0.60555962182E+03  0.60555962182E+03  0.25500000920E-02 0.  1.
    10030    2    1    2    0    0  0.00000000000E+00  0.00000000000E+00 -0.27870981311E+03  0.93240943054E+03  0.88977985268E+03 0.  0.
        5    1    3    3  502    0  0.18359539055E+02  0.31592395235E+01 -0.60512467182E+03  0.60542960937E+03  0.46999998093E+01 0.  1.
       -5    1    3    3    0  502 -0.18359539055E+02 -0.31592395235E+01  0.32641485870E+03  0.32697982116E+03  0.46999998093E+01 0. -1.
</event>
<event>
 5   0  0.1441195E-02  0.9087764E+03  0.7818609E-02  0.9414677E-01
        2   -1    0    0  501    0  0.00000000000E+00  0.00000000000E+00  0.18761180015E+04  0.18761180015E+04  0.25500000920E-02 0.  1.
       -2   -1    0    0    0  501  0.00000000000E+00  0.00000000000E+00 -0.11005097490E+03  0.11005097493E+03  0.25500000920E-02 0. -1.
    10030    2    1    2    0    0  0.00000000000E+00  0.00000000000E+00  0.17660670266E+04  0.19861689764E+04  0.90877635338E+03 0.  0.
        5    1    3    3  502    0  0.11349051518E+03 -0.21319480055E+03  0.17241532529E+04  0.17409935811E+04  0.46999998093E+01 0.  1.
       -5    1    3    3    0  502 -0.11349051518E+03  0.21319480055E+03  0.41913773650E+02  0.24517539526E+03  0.46999998093E+01 0. -1.
</event>
<event>
 5   0  0.1441195E-02  0.9044300E+03  0.7818609E-02  0.9420061E-01
        2   -1    0    0  501    0  0.00000000000E+00  0.00000000000E+00  0.89448643187E+03  0.89448643188E+03  0.25500000920E-02 0.  1.
       -2   -1    0    0    0  501  0.00000000000E+00  0.00000000000E+00 -0.22862100484E+03  0.22862100486E+03  0.25500000920E-02 0. -1.
    10030    2    1    2    0    0  0.00000000000E+00  0.00000000000E+00  0.66586542703E+03  0.11231074367E+04  0.90442995723E+03 0.  0.
        5    1    3    3  502    0  0.36183513184E+03 -0.19077161552E+03  0.57230369819E+03  0.70347145279E+03  0.46999998093E+01 0.  1.
       -5    1    3    3    0  502 -0.36183513184E+03  0.19077161552E+03  0.93561728836E+02  0.41963598395E+03  0.46999998093E+01 0. -1.
</event>
<event>
 5   0  0.8291252E-03  0.8994778E+03  0.7818609E-02  0.9426234E-01
        1   -1    0    0  501    0  0.00000000000E+00  0.00000000000E+00  0.94568408215E+03  0.94568408216E+03  0.50400001928E-02 0.  1.
       -1   -1    0    0    0  501  0.00000000000E+00  0.00000000000E+00 -0.21388231244E+03  0.21388231250E+03  0.50400001928E-02 0. -1.
    10030    2    1    2    0    0  0.00000000000E+00  0.00000000000E+00  0.73180176971E+03  0.11595663947E+04  0.89947784491E+03 0.  0.
        1    1    3    3  502    0 -0.35659267017E+03 -0.17712270777E+03  0.63549865817E+03  0.74992621676E+03  0.50400001928E-02 0.  1.
       -1    1    3    3    0  502  0.35659267017E+03  0.17712270777E+03  0.96303111542E+02  0.40964017790E+03  0.50400001928E-02 0. -1.
</event>
<event>
 5   0  0.8291252E-03  0.9670951E+03  0.7818609E-02  0.9345389E-01
        1   -1    0    0  501    0  0.00000000000E+00  0.00000000000E+00  0.37864094669E+03  0.37864094673E+03  0.50400001928E-02 0. -1.
       -1   -1    0    0    0  501  0.00000000000E+00  0.00000000000E+00 -0.61751971671E+03  0.61751971673E+03  0.50400001928E-02 0.  1.
    10030    2    1    2    0    0  0.00000000000E+00  0.00000000000E+00 -0.23887877001E+03  0.99616066345E+03  0.96709513526E+03 0.  0.
        1    1    3    3  502    0  0.13245978836E+03  0.38307465354E+03 -0.39104282243E+03  0.56321068413E+03  0.50400001928E-02 0.  1.
       -1    1    3    3    0  502 -0.13245978836E+03 -0.38307465354E+03  0.15216405242E+03  0.43294997932E+03  0.50400001928E-02 0. -1.
</event>
<event>
 5   0  0.8738044E-03  0.9266352E+03  0.7818609E-02  0.9392885E-01
        1   -1    0    0  501    0  0.00000000000E+00  0.00000000000E+00  0.11652936646E+04  0.11652936647E+04  0.50400001928E-02 0. -1.
       -1   -1    0    0    0  501  0.00000000000E+00  0.00000000000E+00 -0.18421381720E+03  0.18421381726E+03  0.50400001928E-02 0.  1.
    10030    2    1    2    0    0  0.00000000000E+00  0.00000000000E+00  0.98107984745E+03  0.13495074819E+04  0.92663519072E+03 0.  0.
        3    1    3    3  502    0 -0.66380222849E+02 -0.11376819685E+03 -0.15637187141E+03  0.20445466238E+03  0.10100000352E+00 0.  1.
       -3    1    3    3    0  502  0.66380222849E+02  0.11376819685E+03  0.11374517189E+04  0.11450528195E+04  0.10100000352E+00 0. -1.
</event>
<event>
 5   0  0.1483326E-02  0.8634955E+03  0.7818609E-02  0.9472401E-01
       -2   -1    0    0    0  501  0.00000000000E+00  0.00000000000E+00  0.16034060464E+03  0.16034060466E+03  0.25500000920E-02 0.  1.
        2   -1    0    0  501    0  0.00000000000E+00  0.00000000000E+00 -0.11625635414E+04  0.11625635414E+04  0.25500000920E-02 0. -1.
    10030    2    1    2    0    0  0.00000000000E+00  0.00000000000E+00 -0.10022229368E+04  0.13229041461E+04  0.86349554992E+03 0.  0.
        1    1    3    3  502    0  0.29243366031E+03 -0.29518404243E+03 -0.68079148536E+03  0.79757639832E+03  0.50400001928E-02 0. -1.
       -1    1    3    3    0  502 -0.29243366031E+03  0.29518404243E+03 -0.32143145144E+03  0.52532774779E+03  0.50400001928E-02 0.  1.
</event>
<event>
 5   0  0.8524692E-03  0.9020217E+03  0.7818609E-02  0.9423058E-01
        1   -1    0    0  501    0  0.00000000000E+00  0.00000000000E+00  0.14377289578E+04  0.14377289579E+04  0.50400001928E-02 0.  1.
       -1   -1    0    0    0  501  0.00000000000E+00  0.00000000000E+00 -0.14148060633E+03  0.14148060642E+03  0.50400001928E-02 0. -1.
    10030    2    1    2    0    0  0.00000000000E+00  0.00000000000E+00  0.12962483515E+04  0.15792095643E+04  0.90202165111E+03 0.  0.
        5    1    3    3  502    0 -0.31014023098E+03 -0.18575684605E+03  0.11201637151E+04  0.11770647422E+04  0.46999998093E+01 0.  1.
       -5    1    3    3    0  502  0.31014023098E+03  0.18575684605E+03  0.17608463641E+03  0.40214482206E+03  0.46999998093E+01 0. -1.
</event>
<event>
 5   0  0.1483326E-02  0.8851035E+03  0.7818609E-02  0.9444397E-01
       -2   -1    0    0    0  501  0.00000000000E+00  0.00000000000E+00  0.26302101150E+03  0.26302101151E+03  0.25500000920E-02 0.  1.
        2   -1    0    0  501    0  0.00000000000E+00  0.00000000000E+00 -0.74462512451E+03  0.74462512452E+03  0.25500000920E-02 0. -1.
    10030    2    1    2    0    0  0.00000000000E+00  0.00000000000E+00 -0.48160411302E+03  0.10076461360E+04  0.88510350456E+03 0.  0.
        1    1    3    3  502    0 -0.36569449428E+03  0.94734388163E+02 -0.50325118315E+03  0.62926053493E+03  0.50400001928E-02 0. -1.
       -1    1    3    3    0  502  0.36569449428E+03 -0.94734388163E+02  0.21647070134E+02  0.37838560110E+03  0.50400001928E-02 0.  1.
</event>
<event>
 5   0  0.1440615E-02  0.9000228E+03  0.7818609E-02  0.9425553E-01
        2   -1    0    0  501    0  0.00000000000E+00  0.00000000000E+00  0.10473166469E+04  0.10473166469E+04  0.25500000920E-02 0.  1.
       -2   -1    0    0    0  501  0.00000000000E+00  0.00000000000E+00 -0.19336108201E+03  0.19336108202E+03  0.25500000920E-02 0. -1.
    10030    2    1    2    0    0  0.00000000000E+00  0.00000000000E+00  0.85395556489E+03  0.12406777289E+04  0.90002284428E+03 0.  0.
        3    1    3    3  502    0  0.16096240528E+03  0.17062574870E+03  0.95637802049E+03  0.98472380407E+03  0.10100000352E+00 0.  1.
       -3    1    3    3    0  502 -0.16096240528E+03 -0.17062574870E+03 -0.10242245560E+03  0.25595392485E+03  0.10100000352E+00 0. -1.
</event>
<event>
 5   0  0.1535906E-02  0.1081205E+04  0.7818609E-02  0.9223706E-01
       -2   -1    0    0    0  501  0.00000000000E+00  0.00000000000E+00  0.61429766445E+03  0.61429766445E+03  0.25500000920E-02 0.  1.
        2   -1    0    0  501    0  0.00000000000E+00  0.00000000000E+00 -0.47574865032E+03  0.47574865033E+03  0.25500000920E-02 0. -1.
    10030    2    1    2    0    0  0.00000000000E+00  0.00000000000E+00  0.13854901413E+03  0.10900463148E+04  0.10812054102E+04 0.  0.
        2    1    3    3  502    0 -0.26703860989E+03 -0.20242103634E+03 -0.35841997727E+03  0.49066156894E+03  0.25500000920E-02 0. -1.
       -2    1    3    3    0  502  0.26703860989E+03  0.20242103634E+03  0.49696899140E+03  0.59938474584E+03  0.25500000920E-02 0.  1.
</event>
<event>
 5   0  0.8885324E-03  0.8989979E+03  0.7818609E-02  0.9426835E-01
       -1   -1    0    0    0  501  0.00000000000E+00  0.00000000000E+00  0.37996243877E+03  0.37996243880E+03  0.50400001928E-02 0.  1.
        1   -1    0    0  501    0  0.00000000000E+00  0.00000000000E+00 -0.53176131349E+03  0.53176131352E+03  0.50400001928E-02 0. -1.
    10030    2    1    2    0    0  0.00000000000E+00  0.00000000000E+00 -0.15179887472E+03  0.91172375232E+03  0.89899794337E+03 0.  0.
        2    1    3    3  502    0  0.82463315162E+02  0.40605216866E+03 -0.25263845068E+03  0.48528831511E+03  0.25500000920E-02 0. -1.
       -2    1    3    3    0  502 -0.82463315162E+02 -0.40605216866E+03  0.10083957595E+03  0.42643543721E+03  0.25500000920E-02 0.  1.
</event>
<event>
 5   0  0.1441195E-02  0.9015835E+03  0.7818609E-02  0.9423604E-01
       -2   -1    0    0    0  501  0.00000000000E+00  0.00000000000E+00  0.13769665007E+03  0.13769665009E+03  0.25500000920E-02 0. -1.
        2   -1    0    0  501    0  0.00000000000E+00  0.00000000000E+00 -0.14758035846E+04  0.14758035846E+04  0.25500000920E-02 0.  1.
    10030    2    1    2    0    0  0.00000000000E+00  0.00000000000E+00 -0.13381069345E+04  0.16135002347E+04  0.90158351753E+03 0.  0.
        5    1    3    3  502    0  0.35586201095E+03  0.13704280275E+03 -0.23889933637E+03  0.45001498146E+03  0.46999998093E+01 0. -1.
       -5    1    3    3    0  502 -0.35586201095E+03 -0.13704280275E+03 -0.10992075981E+04  0.11634852532E+04  0.46999998093E+01 0.  1.
</event>
<event>
 5   0  0.8524692E-03  0.9003311E+03  0.7818609E-02  0.9425168E-01
        1   -1    0    0  501    0  0.00000000000E+00  0.00000000000E+00  0.91013190399E+03  0.91013190400E+03  0.50400001928E-02 0. -1.
       -1   -1    0    0    0  501  0.00000000000E+00  0.00000000000E+00 -0.22265896384E+03  0.22265896390E+03  0.50400001928E-02 0.  1.
    10030    2    1    2    0    0  0.00000000000E+00  0.00000000000E+00  0.68747294015E+03  0.11327908679E+04  0.90033110963E+03 0.  0.
        5    1    3    3  502    0 -0.40962864031E+02  0.43903685417E+03  0.45764032461E+03  0.63552188968E+03  0.46999998093E+01 0.  1.
       -5    1    3    3    0  502  0.40962864031E+02 -0.43903685417E+03  0.22983261553E+03  0.49726897823E+03  0.46999998093E+01 0. -1.
</event>
<event>
 5   0  0.1441195E-02  0.9197551E+03  0.7818609E-02  0.9401218E-01
        2   -1    0    0  501    0  0.00000000000E+00  0.00000000000E+00  0.25866579266E+04  0.25866579266E+04  0.25500000920E-02 0. -1.
       -2   -1    0    0    0  501  0.00000000000E+00  0.00000000000E+00 -0.81760856108E+02  0.81760856148E+02  0.25500000920E-02 0.  1.
    10030    2    1    2    0    0  0.00000000000E+00  0.00000000000E+00  0.25048970705E+04  0.26684187828E+04  0.91975511218E+03 0.  0.
        5    1    3    3  502    0 -0.36386328096E+03  0.13128417827E+03  0.53102080915E+03  0.65699102919E+03  0.46999998093E+01 0.  1.
       -5    1    3    3    0  502  0.36386328096E+03 -0.13128417827E+03  0.19738762614E+04  0.20114277536E+04  0.46999998093E+01 0. -1.
</event>
<event>
 5   0  0.1483326E-02  0.9022817E+03  0.7818609E-02  0.9422734E-01
       -2   -1    0    0    0  501  0.00000000000E+00  0.00000000000E+00  0.19669173175E+03  0.19669173176E+03  0.25500000920E-02 0. -1.
        2   -1    0    0  501    0  0.00000000000E+00  0.00000000000E+00 -0.10347565199E+04  0.10347565199E+04  0.25500000920E-02 0.  1.
    10030    2    1    2    0    0  0.00000000000E+00  0.00000000000E+00 -0.83806478817E+03  0.12314482517E+04  0.90228166744E+03 0.  0.
        1    1    3    3  502    0 -0.11283726451E+03  0.31058194468E+03  0.15641065590E+00  0.33044427233E+03  0.50400001928E-02 0. -1.
       -1    1    3    3    0  502  0.11283726451E+03 -0.31058194468E+03 -0.83822119883E+03  0.90100397936E+03  0.50400001928E-02 0.  1.
</event>
<event>
 5   0  0.1454652E-02  0.9002800E+03  0.7818609E-02  0.9425231E-01
        2   -1    0    0  501    0  0.00000000000E+00  0.00000000000E+00  0.24038119348E+04  0.24038119348E+04  0.25500000920E-02 0. -1.
       -2   -1    0    0    0  501  0.00000000000E+00  0.00000000000E+00 -0.84293622260E+02  0.84293622298E+02  0.25500000920E-02 0.  1.
    10030    2    1    2    0    0  0.00000000000E+00  0.00000000000E+00  0.23195183126E+04  0.24881055571E+04  0.90027999038E+03 0.  0.
        4    1    3    3  502    0  0.17826413536E+03 -0.40904971015E+02  0.22964878861E+04  0.23037598709E+04  0.12699999809E+01 0. -1.
       -4    1    3    3    0  502 -0.17826413536E+03  0.40904971015E+02  0.23030426473E+02  0.18434568629E+03  0.12699999809E+01 0.  1.
</event>
<event>
 5   0  0.8885324E-03  0.9019592E+03  0.7818609E-02  0.9423136E-01
        1   -1    0    0  501    0  0.00000000000E+00  0.00000000000E+00  0.12097989460E+04  0.12097989460E+04  0.50400001928E-02 0. -1.
       -1   -1    0    0    0  501  0.00000000000E+00  0.00000000000E+00 -0.16811271650E+03  0.16811271658E+03  0.50400001928E-02 0.  1.
    10030    2    1    2    0    0  0.00000000000E+00  0.00000000000E+00  0.10416862295E+04  0.13779116626E+04  0.90195917267E+03 0.  0.
        2    1    3    3  502    0 -0.21533110031E+03  0.22771250091E+03  0.10162524269E+04  0.10634798828E+04  0.25500000920E-02 0. -1.
       -2    1    3    3    0  502  0.21533110031E+03 -0.22771250091E+03  0.25433802565E+02  0.31443177981E+03  0.25500000920E-02 0.  1.
</event>
<event>
 5   0  0.8885324E-03  0.8990445E+03  0.7818609E-02  0.9426777E-01
       -1   -1    0    0    0  501  0.00000000000E+00  0.00000000000E+00  0.41120865221E+03  0.41120865224E+03  0.50400001928E-02 0. -1.
        1   -1    0    0  501    0  0.00000000000E+00  0.00000000000E+00 -0.49140567918E+03  0.49140567921E+03  0.50400001928E-02 0.  1.
    10030    2    1    2    0    0  0.00000000000E+00  0.00000000000E+00 -0.80197026969E+02  0.90261433145E+03  0.89904453071E+03 0.  0.
        2    1    3    3  502    0 -0.44996055701E+01 -0.27092204298E+03  0.32000557786E+03  0.41931201949E+03  0.25500000920E-02 0. -1.
       -2    1    3    3    0  502  0.44996055701E+01  0.27092204298E+03 -0.40020260483E+03  0.48330231195E+03  0.25500000920E-02 0.  1.
</event>
<event>
 5   0  0.1441195E-02  0.9011132E+03  0.7818609E-02  0.9424191E-01
       -2   -1    0    0    0  501  0.00000000000E+00  0.00000000000E+00  0.12657504295E+03  0.12657504297E+03  0.25500000920E-02 0. -1.
        2   -1    0    0  501    0  0.00000000000E+00  0.00000000000E+00 -0.16038014852E+04  0.16038014852E+04  0.25500000920E-02 0.  1.
    10030    2    1    2    0    0  0.00000000000E+00  0.00000000000E+00 -0.14772264423E+04  0.17303765282E+04  0.90111318244E+03 0.  0.
        5    1    3    3  502    0  0.37512244759E+03 -0.21872472849E+03 -0.50800705180E+03  0.66831924423E+03  0.46999998093E+01 0. -1.
       -5    1    3    3    0  502 -0.37512244759E+03  0.21872472849E+03 -0.96921939046E+03  0.10620572839E+04  0.46999998093E+01 0.  1.
</event>
<event>
 5   0  0.1440615E-02  0.9638563E+03  0.7818609E-02  0.9349100E-01
       -2   -1    0    0    0  501  0.00000000000E+00  0.00000000000E+00  0.29583093116E+03  0.29583093117E+03  0.25500000920E-02 0.  1.
        2   -1    0    0  501    0  0.00000000000E+00  0.00000000000E+00 -0.78509288698E+03  0.78509288698E+03  0.25500000920E-02 0. -1.
    10030    2    1    2    0    0  0.00000000000E+00  0.00000000000E+00 -0.48926195582E+03  0.10809238182E+04  0.96385633745E+03 0.  0.
        3    1    3    3  502    0 -0.15516804569E+03  0.29521086669E+02  0.26597847931E+03  0.30934314057E+03  0.10100000352E+00 0.  1.
       -3    1    3    3    0  502  0.15516804569E+03 -0.29521086669E+02 -0.75524043513E+03  0.77158067758E+03  0.10100000352E+00 0. -1.
</event>
<event>
 5   0  0.8885324E-03  0.9229575E+03  0.7818609E-02  0.9397330E-01
       -1   -1    0    0    0  501  0.00000000000E+00  0.00000000000E+00  0.27533944421E+03  0.27533944426E+03  0.50400001928E-02 0.  1.
        1   -1    0    0  501    0  0.00000000000E+00  0.00000000000E+00 -0.77345492135E+03  0.77345492137E+03  0.50400001928E-02 0. -1.
    10030    2    1    2    0    0  0.00000000000E+00  0.00000000000E+00 -0.49811547714E+03  0.10487943656E+04  0.92295752492E+03 0.  0.
        2    1    3    3  502    0 -0.44358983179E+03  0.66300736102E+02 -0.37246938947E+03  0.58301043951E+03  0.25500000920E-02 0. -1.
       -2    1    3    3    0  502  0.44358983179E+03 -0.66300736102E+02 -0.12564608767E+03  0.46578392612E+03  0.25500000920E-02 0.  1.
</event>
<event>
 5   0  0.1454652E-02  0.9325060E+03  0.7818609E-02  0.9385835E-01
       -2   -1    0    0    0  501  0.00000000000E+00  0.00000000000E+00  0.35637222913E+03  0.35637222914E+03  0.25500000920E-02 0. -1.
        2   -1    0    0  501    0  0.00000000000E+00  0.00000000000E+00 -0.61001344786E+03  0.61001344787E+03  0.25500000920E-02 0.  1.
    10030    2    1    2    0    0  0.00000000000E+00  0.00000000000E+00 -0.25364121873E+03  0.96638567700E+03  0.93250598330E+03 0.  0.
        4    1    3    3  502    0  0.20719964783E+03 -0.40966719641E+03 -0.42428995798E+02  0.46104309826E+03  0.12699999809E+01 0. -1.
       -4    1    3    3    0  502 -0.20719964783E+03  0.40966719641E+03 -0.21121222293E+03  0.50534257874E+03  0.12699999809E+01 0.  1.
</event>
<event>
 5   0  0.8885324E-03  0.9027890E+03  0.7818609E-02  0.9422102E-01
        1   -1    0    0  501    0  0.00000000000E+00  0.00000000000E+00  0.46869690752E+03  0.46869690755E+03  0.50400001928E-02 0.  1.
       -1   -1    0    0    0  501  0.00000000000E+00  0.00000000000E+00 -0.43473082496E+03  0.43473082499E+03  0.50400001928E-02 0. -1.
    10030    2    1    2    0    0  0.00000000000E+00  0.00000000000E+00  0.33966082555E+02  0.90342773254E+03  0.90278899703E+03 0.  0.
        2    1    3    3  502    0  0.27595861267E+03 -0.30269874168E+03  0.20679409482E+03  0.45885017356E+03  0.25500000920E-02 0.  1.
       -2    1    3    3    0  502 -0.27595861267E+03  0.30269874168E+03 -0.17282801226E+03  0.44457755898E+03  0.25500000920E-02 0. -1.
</event>
<event>
 5   0  0.5770125E-03  0.9861217E+03  0.7818609E-02  0.9323899E-01
       -3   -1    0    0    0  501  0.00000000000E+00  0.00000000000E+00  0.67503744115E+03  0.67503744870E+03  0.10100000352E+00 0. -1.
        3   -1    0    0  501    0  0.00000000000E+00  0.00000000000E+00 -0.36014150009E+03  0.36014151425E+03  0.10100000352E+00 0.  1.
    10030    2    1    2    0    0  0.00000000000E+00  0.00000000000E+00  0.31489594106E+03  0.10351789630E+04  0.98612171239E+03 0.  0.
        5    1    3    3  502    0 -0.73508479108E+02  0.25333199701E+02  0.66853781042E+03  0.67306029557E+03  0.46999998093E+01 0. -1.
       -5    1    3    3    0  502  0.73508479108E+02 -0.25333199701E+02 -0.35364186936E+03  0.36211866739E+03  0.46999998093E+01 0.  1.
</event>
<event>
 5   0  0.8738044E-03  0.8943175E+03  0.7818609E-02  0.9432713E-01
       -1   -1    0    0    0  501  0.00000000000E+00  0.00000000000E+00  0.23355011045E+03  0.23355011051E+03  0.50400001928E-02 0. -1.
        1   -1    0    0  501    0  0.00000000000E+00  0.00000000000E+00 -0.85613717606E+03  0.85613717607E+03  0.50400001928E-02 0.  1.
    10030    2    1    2    0    0  0.00000000000E+00  0.00000000000E+00 -0.62258706560E+03  0.10896872866E+04  0.89431746504E+03 0.  0.
        3    1    3    3  502    0 -0.37549947177E+03 -0.20742663523E+03 -0.46505709503E+03  0.63269564100E+03  0.10100000352E+00 0.  1.
       -3    1    3    3    0  502  0.37549947177E+03  0.20742663523E+03 -0.15752997057E+03  0.45699164558E+03  0.10100000352E+00 0. -1.
</event>
<event>
 5   0  0.1483326E-02  0.9060717E+03  0.7818609E-02  0.9418023E-01
       -2   -1    0    0    0  501  0.00000000000E+00  0.00000000000E+00  0.30858097697E+03  0.30858097698E+03  0.25500000920E-02 0. -1.
        2   -1    0    0  501    0  0.00000000000E+00  0.00000000000E+00 -0.66511391907E+03  0.66511391908E+03  0.25500000920E-02 0.  1.
    10030    2    1    2    0    0  0.00000000000E+00  0.00000000000E+00 -0.35653294210E+03  0.97369489606E+03  0.90607174761E+03 0.  0.
        1    1    3    3  502    0 -0.41882547113E+02  0.44024814518E+03 -0.72597027779E+02  0.44815500171E+03  0.50400001928E-02 0. -1.
       -1    1    3    3    0  502  0.41882547113E+02 -0.44024814518E+03 -0.28393591432E+03  0.52553989435E+03  0.50400001928E-02 0.  1.
</event>
<event>
 5   0  0.8885324E-03  0.9102432E+03  0.7818609E-02  0.9412867E-01
       -1   -1    0    0    0  501  0.00000000000E+00  0.00000000000E+00  0.17812326681E+03  0.17812326688E+03  0.50400001928E-02 0.  1.
        1   -1    0    0  501    0  0.00000000000E+00  0.00000000000E+00 -0.11628783001E+04  0.11628783001E+04  0.50400001928E-02 0. -1.
    10030    2    1    2    0    0  0.00000000000E+00  0.00000000000E+00 -0.98475503329E+03  0.13410015670E+04  0.91024322414E+03 0.  0.
        2    1    3    3  502    0 -0.25235186164E+03  0.33444856378E+03 -0.75425865788E+03  0.86281135069E+03  0.25500000920E-02 0. -1.
       -2    1    3    3    0  502  0.25235186164E+03 -0.33444856378E+03 -0.23049637541E+03  0.47819021630E+03  0.25500000920E-02 0.  1.
</event>
<event>
 5   0  0.1483326E-02  0.8842018E+03  0.7818609E-02  0.9445548E-01
       -2   -1    0    0    0  501  0.00000000000E+00  0.00000000000E+00  0.16949957730E+03  0.16949957732E+03  0.25500000920E-02 0.  1.
        2   -1    0    0  501    0  0.00000000000E+00  0.00000000000E+00 -0.11531191611E+04  0.11531191611E+04  0.25500000920E-02 0. -1.
    10030    2    1    2    0    0  0.00000000000E+00  0.00000000000E+00 -0.98361958380E+03  0.13226187384E+04  0.88420181044E+03 0.  0.
        1    1    3    3  502    0 -0.30074167150E+03  0.11318897397E+02 -0.73824378265E+01  0.30104513088E+03  0.50400001928E-02 0.  1.
       -1    1    3    3    0  502  0.30074167150E+03 -0.11318897397E+02 -0.97623714597E+03  0.10215736075E+04  0.50400001928E-02 0. -1.
</event>
<event>
 5   0  0.1440615E-02  0.8996037E+03  0.7818609E-02  0.9426077E-01
       -2   -1    0    0    0  501  0.00000000000E+00  0.00000000000E+00  0.19074345921E+03  0.19074345923E+03  0.25500000920E-02 0. -1.
        2   -1    0    0  501    0  0.00000000000E+00  0.00000000000E+00 -0.10607005420E+04  0.10607005420E+04  0.25500000920E-02 0.  1.
    10030    2    1    2    0    0  0.00000000000E+00  0.00000000000E+00 -0.86995708277E+03  0.12514440012E+04  0.89960366958E+03 0.  0.
        3    1    3    3  502    0  0.33546344136E+03 -0.14838909949E+01 -0.85180866016E+03  0.91548671544E+03  0.10100000352E+00 0.  1.
       -3    1    3    3    0  502 -0.33546344136E+03  0.14838909949E+01 -0.18148422611E+02  0.33595728578E+03  0.10100000352E+00 0. -1.
</event>
<event>
 5   0  0.8291252E-03  0.9150240E+03  0.7818609E-02  0.9406993E-01
       -1   -1    0    0    0  501  0.00000000000E+00  0.00000000000E+00  0.32888309125E+03  0.32888309129E+03  0.50400001928E-02 0.  1.
        1   -1    0    0  501    0  0.00000000000E+00  0.00000000000E+00 -0.63644871156E+03  0.63644871158E+03  0.50400001928E-02 0. -1.
    10030    2    1    2    0    0  0.00000000000E+00  0.00000000000E+00 -0.30756562031E+03  0.96533180287E+03  0.91502397720E+03 0.  0.
        1    1    3    3  502    0 -0.87627903515E+02 -0.29429246389E+03 -0.51159132689E+03  0.59666773798E+03  0.50400001928E-02 0. -1.
       -1    1    3    3    0  502  0.87627903515E+02  0.29429246389E+03  0.20402570658E+03  0.36866406489E+03  0.50400001928E-02 0.  1.
</event>
<event>
 5   0  0.8291252E-03  0.8920791E+03  0.7818609E-02  0.9435537E-01
       -1   -1    0    0    0  501  0.00000000000E+00  0.00000000000E+00  0.63279397775E+03  0.63279397777E+03  0.50400001928E-02 0. -1.
        1   -1    0    0  501    0  0.00000000000E+00  0.00000000000E+00 -0.31440132573E+03  0.31440132578E+03  0.50400001928E-02 0.  1.
    10030    2    1    2    0    0  0.00000000000E+00  0.00000000000E+00  0.31839265201E+03  0.94719530354E+03  0.89207906723E+03 0.  0.
        1    1    3    3  502    0 -0.12195858359E+03 -0.24522811761E+03 -0.21460675692E+03  0.34794652738E+03  0.50400001928E-02 0.  1.
       -1    1    3    3    0  502  0.12195858359E+03  0.24522811761E+03  0.53299940893E+03  0.59924877616E+03  0.50400001928E-02 0. -1.
</event>
<event>
 5   0  0.1483326E-02  0.8974282E+03  0.7818609E-02  0.9428802E-01
        2   -1    0    0  501    0  0.00000000000E+00  0.00000000000E+00  0.51611692411E+03  0.51611692411E+03  0.25500000920E-02 0.  1.
       -2   -1    0    0    0  501  0.00000000000E+00  0.00000000000E+00 -0.39011379014E+03  0.39011379015E+03  0.25500000920E-02 0. -1.
    10030    2    1    2    0    0  0.00000000000E+00  0.00000000000E+00  0.12600313397E+03  0.90623071426E+03  0.89742816855E+03 0.  0.
        1    1    3    3  502    0  0.10190109283E+03 -0.38718349833E+03 -0.14159232962E+03  0.42466843765E+03  0.50400001928E-02 0. -1.
       -1    1    3    3    0  502 -0.10190109283E+03  0.38718349833E+03  0.26759546359E+03  0.48156227661E+03  0.50400001928E-02 0.  1.
</event>
<event>
 5   0  0.8885324E-03  0.9026949E+03  0.7818609E-02  0.9422219E-01
       -1   -1    0    0    0  501  0.00000000000E+00  0.00000000000E+00  0.13336155772E+03  0.13336155782E+03  0.50400001928E-02 0.  1.
        1   -1    0    0  501    0  0.00000000000E+00  0.00000000000E+00 -0.15275354696E+04  0.15275354696E+04  0.50400001928E-02 0. -1.
    10030    2    1    2    0    0  0.00000000000E+00  0.00000000000E+00 -0.13941739119E+04  0.16608970275E+04  0.90269487601E+03 0.  0.
        2    1    3    3  502    0 -0.24090341015E+03 -0.10840677769E+03 -0.23742224205E+02  0.26523607539E+03  0.25500000920E-02 0.  1.
       -2    1    3    3    0  502  0.24090341015E+03  0.10840677769E+03 -0.13704316877E+04  0.13956609521E+04  0.25500000920E-02 0. -1.
</event>
<event>
 5   0  0.8291252E-03  0.8964146E+03  0.7818609E-02  0.9430074E-01
        1   -1    0    0  501    0  0.00000000000E+00  0.00000000000E+00  0.70329276275E+03  0.70329276277E+03  0.50400001928E-02 0.  1.
       -1   -1    0    0    0  501  0.00000000000E+00  0.00000000000E+00 -0.28564176830E+03  0.28564176835E+03  0.50400001928E-02 0. -1.
    10030    2    1    2    0    0  0.00000000000E+00  0.00000000000E+00  0.41765099445E+03  0.98893453112E+03  0.89641461036E+03 0.  0.
        1    1    3    3  502    0  0.96852812838E+02 -0.34880115841E+03  0.50038870571E+03  0.61760146720E+03  0.50400001928E-02 0.  1.
       -1    1    3    3    0  502 -0.96852812838E+02  0.34880115841E+03 -0.82737711259E+02  0.37133306391E+03  0.50400001928E-02 0. -1.
</event>
<event>
 5   0  0.1440615E-02  0.8835867E+03  0.7818609E-02  0.9446335E-01
        2   -1    0    0  501    0  0.00000000000E+00  0.00000000000E+00  0.10944461290E+04  0.10944461290E+04  0.25500000920E-02 0.  1.
       -2   -1    0    0    0  501  0.00000000000E+00  0.00000000000E+00 -0.17833801784E+03  0.17833801786E+03  0.25500000920E-02 0. -1.
    10030    2    1    2    0    0  0.00000000000E+00  0.00000000000E+00  0.91610811120E+03  0.12727841469E+04  0.88358667555E+03 0.  0.
        3    1    3    3  502    0 -0.11800160244E+03 -0.34332648253E+03  0.82071020697E+03  0.89742002753E+03  0.10100000352E+00 0.  1.
       -3    1    3    3    0  502  0.11800160244E+03  0.34332648253E+03  0.95397904229E+02  0.37536411938E+03  0.10100000352E+00 0. -1.
</event>
<event>
 5   0  0.8612969E-03  0.9017224E+03  0.7818609E-02  0.9423431E-01
        1   -1    0    0  501    0  0.00000000000E+00  0.00000000000E+00  0.48937119553E+03  0.48937119556E+03  0.50400001928E-02 0.  1.
       -1   -1    0    0    0  501  0.00000000000E+00  0.00000000000E+00 -0.41538165555E+03  0.41538165558E+03  0.50400001928E-02 0. -1.
    10030    2    1    2    0    0  0.00000000000E+00  0.00000000000E+00  0.73989539980E+02  0.90475285114E+03  0.90172239055E+03 0.  0.
        4    1    3    3  502    0 -0.23670525383E+02  0.15241420718E+03 -0.38808433643E+03  0.41761399570E+03  0.12699999809E+01 0. -1.
       -4    1    3    3    0  502  0.23670525383E+02 -0.15241420718E+03  0.46207387641E+03  0.48713885544E+03  0.12699999809E+01 0.  1.
</event>
<event>
 5   0  0.8612969E-03  0.8978204E+03  0.7818609E-02  0.9428310E-01
       -1   -1    0    0    0  501  0.00000000000E+00  0.00000000000E+00  0.27425814913E+03  0.27425814917E+03  0.50400001928E-02 0. -1.
        1   -1    0    0  501    0  0.00000000000E+00  0.00000000000E+00 -0.73478345500E+03  0.73478345502E+03  0.50400001928E-02 0.  1.
    10030    2    1    2    0    0  0.00000000000E+00  0.00000000000E+00 -0.46052530587E+03  0.10090416042E+04  0.89782036156E+03 0.  0.
        4    1    3    3  502    0  0.24881866222E+03 -0.24813975598E+03 -0.54421477889E+03  0.64780815341E+03  0.12699999809E+01 0.  1.
       -4    1    3    3    0  502 -0.24881866222E+03  0.24813975598E+03  0.83689473023E+02  0.36123345077E+03  0.12699999809E+01 0. -1.
</event>
<event>
 5   0  0.8612969E-03  0.8807695E+03  0.7818609E-02  0.9449945E-01
        1   -1    0    0  501    0  0.00000000000E+00  0.00000000000E+00  0.10833785900E+04  0.10833785900E+04  0.50400001928E-02 0.  1.
       -1   -1    0    0    0  501  0.00000000000E+00  0.00000000000E+00 -0.17901289782E+03  0.17901289789E+03  0.50400001928E-02 0. -1.
    10030    2    1    2    0    0  0.00000000000E+00  0.00000000000E+00  0.90436569213E+03  0.12623914879E+04  0.88076952917E+03 0.  0.
        4    1    3    3  502    0  0.41662191040E+03 -0.10973698169E+03  0.32143868011E+03  0.53753182171E+03  0.12699999809E+01 0. -1.
       -4    1    3    3    0  502 -0.41662191040E+03  0.10973698169E+03  0.58292701202E+03  0.72485966615E+03  0.12699999809E+01 0.  1.
</event>
<event>
 5   0  0.1535906E-02  0.9025064E+03  0.7818609E-02  0.9422454E-01
        2   -1    0    0  501    0  0.00000000000E+00  0.00000000000E+00  0.69074072045E+03  0.69074072045E+03  0.25500000920E-02 0.  1.
       -2   -1    0    0    0  501  0.00000000000E+00  0.00000000000E+00 -0.29479864789E+03  0.29479864790E+03  0.25500000920E-02 0. -1.
    10030    2    1    2    0    0  0.00000000000E+00  0.00000000000E+00  0.39594207256E+03  0.98553936835E+03  0.90250635552E+03 0.  0.
        2    1    3    3  502    0 -0.35617413322E+03  0.24021841870E+03  0.47193464915E+02  0.43219454531E+03  0.25500000920E-02 0. -1.
       -2    1    3    3    0  502  0.35617413322E+03 -0.24021841870E+03  0.34874860764E+03  0.55334482305E+03  0.25500000920E-02 0.  1.
</event>
<event>
 5   0  0.1454652E-02  0.9542989E+03  0.7818609E-02  0.9360140E-01
        2   -1    0    0  501    0  0.00000000000E+00  0.00000000000E+00  0.15328391714E+04  0.15328391714E+04  0.25500000920E-02 0. -1.
       -2   -1    0    0    0  501  0.00000000000E+00  0.00000000000E+00 -0.14852935114E+03  0.14852935116E+03  0.25500000920E-02 0.  1.
    10030    2    1    2    0    0  0.00000000000E+00  0.00000000000E+00  0.13843098203E+04  0.16813685226E+04  0.95429892077E+03 0.  0.
        4    1    3    3  502    0  0.34755837934E+03 -0.75220674892E+02  0.12526876156E+04  0.13021838781E+04  0.12699999809E+01 0. -1.
       -4    1    3    3    0  502 -0.34755837934E+03  0.75220674892E+02  0.13162220462E+03  0.37918464451E+03  0.12699999809E+01 0.  1.
</event>
<event>
 5   0  0.1440615E-02  0.8531849E+03  0.7818609E-02  0.9486072E-01
        2   -1    0    0  501    0  0.00000000000E+00  0.00000000000E+00  0.11089642787E+04  0.11089642787E+04  0.25500000920E-02 0. -1.
       -2   -1    0    0    0  501  0.00000000000E+00  0.00000000000E+00 -0.16410006836E+03  0.16410006838E+03  0.25500000920E-02 0.  1.
    10030    2    1    2    0    0  0.00000000000E+00  0.00000000000E+00  0.94486421031E+03  0.12730643471E+04  0.85318488959E+03 0.  0.
        3    1    3    3  502    0 -0.23991044039E+03 -0.35069264137E+03  0.52903005749E+03  0.67853898933E+03  0.10100000352E+00 0. -1.
       -3    1    3    3    0  502  0.23991044039E+03  0.35069264137E+03  0.41583415282E+03  0.59452535772E+03  0.10100000352E+00 0.  1.
</event>
<event>
 5   0  0.8738044E-03  0.9068809E+03  0.7818609E-02  0.9417021E-01
       -1   -1    0    0    0  501  0.00000000000E+00  0.00000000000E+00  0.12258236871E+03  0.12258236882E+03  0.50400001928E-02 0.  1.
        1   -1    0    0  501    0  0.00000000000E+00  0.00000000000E+00 -0.16773067153E+04  0.16773067153E+04  0.50400001928E-02 0. -1.
    10030    2    1    2    0    0  0.00000000000E+00  0.00000000000E+00 -0.15547243466E+04  0.17998890842E+04  0.90688087493E+03 0.  0.
        3    1    3    3  502    0  0.50432135183E+02  0.36842147772E+03 -0.26236931226E+03  0.45509938664E+03  0.10100000352E+00 0.  1.
       -3    1    3    3    0  502 -0.50432135183E+02 -0.36842147772E+03 -0.12923550344E+04  0.13447896975E+04  0.10100000352E+00 0. -1.
</event>
<event>
 5   0  0.1441195E-02  0.9012590E+03  0.7818609E-02  0.9424009E-01
       -2   -1    0    0    0  501  0.00000000000E+00  0.00000000000E+00  0.58352643273E+03  0.58352643274E+03  0.25500000920E-02 0. -1.
        2   -1    0    0  501    0  0.00000000000E+00  0.00000000000E+00 -0.34799959164E+03  0.34799959165E+03  0.25500000920E-02 0.  1.
    10030    2    1    2    0    0  0.00000000000E+00  0.00000000000E+00  0.23552684109E+03  0.93152602439E+03  0.90125903116E+03 0.  0.
        5    1    3    3  502    0 -0.11162007379E+03 -0.37558541883E+03  0.34777087889E+03  0.52391804885E+03  0.46999998093E+01 0. -1.
       -5    1    3    3    0  502  0.11162007379E+03  0.37558541883E+03 -0.11224403780E+03  0.40760797555E+03  0.46999998093E+01 0.  1.
</event>
<event>
 5   0  0.5770125E-03  0.9238007E+03  0.7818609E-02  0.9396309E-01
       -3   -1    0    0    0  501  0.00000000000E+00  0.00000000000E+00  0.11810733118E+04  0.11810733161E+04  0.10100000352E+00 0.  1.
        3   -1    0    0  501    0  0.00000000000E+00  0.00000000000E+00 -0.18064241062E+03  0.18064243886E+03  0.10100000352E+00 0. -1.
    10030    2    1    2    0    0  0.00000000000E+00  0.00000000000E+00  0.10004309012E+04  0.13617157550E+04  0.92380074114E+03 0.  0.
        3    1    3    3  502    0 -0.26078261161E+02  0.14250163858E+03  0.11467196542E+04  0.11558342304E+04  0.10100000352E+00 0.  1.
       -3    1    3    3    0  502  0.26078261161E+02 -0.14250163858E+03 -0.14628875300E+03  0.20588152457E+03  0.10100000352E+00 0. -1.
</event>
<event>
 5   0  0.1535906E-02  0.8898306E+03  0.7818609E-02  0.9438384E-01
        2   -1    0    0  501    0  0.00000000000E+00  0.00000000000E+00  0.12942885758E+04  0.12942885758E+04  0.25500000920E-02 0. -1.
       -2   -1    0    0    0  501  0.00000000000E+00  0.00000000000E+00 -0.15294086212E+03  0.15294086214E+03  0.25500000920E-02 0.  1.
    10030    2    1    2    0    0  0.00000000000E+00  0.00000000000E+00  0.11413477137E+04  0.14472294379E+04  0.88983056954E+03 0.  0.
        2    1    3    3  502    0 -0.10565458740E+03  0.14872983037E+02 -0.13182520697E+03  0.16959358084E+03  0.25500000920E-02 0.  1.
       -2    1    3    3    0  502  0.10565458740E+03 -0.14872983037E+02  0.12731729206E+04  0.12776358571E+04  0.25500000920E-02 0. -1.
</event>
<event>
 5   0  0.8738044E-03  0.8840537E+03  0.7818609E-02  0.9445738E-01
        1   -1    0    0  501    0  0.00000000000E+00  0.00000000000E+00  0.42707830908E+03  0.42707830911E+03  0.50400001928E-02 0.  1.
       -1   -1    0    0    0  501  0.00000000000E+00  0.00000000000E+00 -0.45749857604E+03  0.45749857607E+03  0.50400001928E-02 0. -1.
    10030    2    1    2    0    0  0.00000000000E+00  0.00000000000E+00 -0.30420266966E+02  0.88457688518E+03  0.88405365966E+03 0.  0.
        3    1    3    3  502    0  0.42306347960E+03  0.80536641250E+02  0.84442232836E+02  0.43886143513E+03  0.10100000352E+00 0.  1.
       -3    1    3    3    0  502 -0.42306347960E+03 -0.80536641250E+02 -0.11486249980E+03  0.44571545005E+03  0.10100000352E+00 0. -1.
</event>
<event>
 5   0  0.1441195E-02  0.8663618E+03  0.7818609E-02  0.9468636E-01
        2   -1    0    0  501    0  0.00000000000E+00  0.00000000000E+00  0.69714026692E+03  0.69714026692E+03  0.25500000920E-02 0. -1.
       -2   -1    0    0    0  501  0.00000000000E+00  0.00000000000E+00 -0.26916490088E+03  0.26916490089E+03  0.25500000920E-02 0.  1.
    10030    2    1    2    0    0  0.00000000000E+00  0.00000000000E+00  0.42797536603E+03  0.96630516782E+03  0.86636179707E+03 0.  0.
        5    1    3    3  502    0 -0.26670514316E+03 -0.19973796529E+03  0.52267591573E+03  0.61987022114E+03  0.46999998093E+01 0. -1.
       -5    1    3    3    0  502  0.26670514316E+03  0.19973796529E+03 -0.94700549696E+02  0.34643494668E+03  0.46999998093E+01 0.  1.
</event>
<event>
 5   0  0.8524692E-03  0.9292215E+03  0.7818609E-02  0.9389773E-01
        1   -1    0    0  501    0  0.00000000000E+00  0.00000000000E+00  0.63519305183E+03  0.63519305185E+03  0.50400001928E-02 0. -1.
       -1   -1    0    0    0  501  0.00000000000E+00  0.00000000000E+00 -0.33983863269E+03  0.33983863273E+03  0.50400001928E-02 0.  1.
    10030    2    1    2    0    0  0.00000000000E+00  0.00000000000E+00  0.29535441914E+03  0.97503168457E+03  0.92922147684E+03 0.  0.
        5    1    3    3  502    0 -0.46050774604E+03  0.54313812815E+02  0.11756260783E+03  0.47839359442E+03  0.46999998093E+01 0.  1.
       -5    1    3    3    0  502  0.46050774604E+03 -0.54313812815E+02  0.17779181131E+03  0.49663809015E+03  0.46999998093E+01 0. -1.
</event>
<event>
 5   0  0.1441195E-02  0.8821246E+03  0.7818609E-02  0.9448207E-01
        2   -1    0    0  501    0  0.00000000000E+00  0.00000000000E+00  0.47698642139E+03  0.47698642140E+03  0.25500000920E-02 0.  1.
       -2   -1    0    0    0  501  0.00000000000E+00  0.00000000000E+00 -0.40784381156E+03  0.40784381157E+03  0.25500000920E-02 0. -1.
    10030    2    1    2    0    0  0.00000000000E+00  0.00000000000E+00  0.69142609835E+02  0.88483023297E+03  0.88212461743E+03 0.  0.
        5    1    3    3  502    0 -0.38490567095E+02  0.36899274729E+03  0.27379114851E+03  0.46110828913E+03  0.46999998093E+01 0.  1.
       -5    1    3    3    0  502  0.38490567095E+02 -0.36899274729E+03 -0.20464853867E+03  0.42372194383E+03  0.46999998093E+01 0. -1.
</event>
<event>
 5   0  0.1483326E-02  0.8938121E+03  0.7818609E-02  0.9433350E-01
        2   -1    0    0  501    0  0.00000000000E+00  0.00000000000E+00  0.12607087694E+04  0.12607087694E+04  0.25500000920E-02 0.  1.
       -2   -1    0    0    0  501  0.00000000000E+00  0.00000000000E+00 -0.15842280496E+03  0.15842280498E+03  0.25500000920E-02 0. -1.
    10030    2    1    2    0    0  0.00000000000E+00  0.00000000000E+00  0.11022859644E+04  0.14191315744E+04  0.89381210441E+03 0.  0.
        1    1    3    3  502    0  0.28655897495E+03 -0.29154018333E+03  0.83787340128E+03  0.93227869289E+03  0.50400001928E-02 0.  1.
       -1    1    3    3    0  502 -0.28655897495E+03  0.29154018333E+03  0.26441256314E+03  0.48685288147E+03  0.50400001928E-02 0. -1.
</event>
<event>
 5   0  0.1454652E-02  0.8847237E+03  0.7818609E-02  0.9444882E-01
        2   -1    0    0  501    0  0.00000000000E+00  0.00000000000E+00  0.14031975613E+04  0.14031975613E+04  0.25500000920E-02 0.  1.
       -2   -1    0    0    0  501  0.00000000000E+00  0.00000000000E+00 -0.13945578329E+03  0.13945578331E+03  0.25500000920E-02 0. -1.
    10030    2    1    2    0    0  0.00000000000E+00  0.00000000000E+00  0.12637417780E+04  0.15426533447E+04  0.88472371970E+03 0.  0.
        4    1    3    3  502    0 -0.72517001900E+02 -0.43621095950E+03  0.61096989284E+03  0.75420457412E+03  0.12699999809E+01 0. -1.
       -4    1    3    3    0  502  0.72517001900E+02  0.43621095950E+03  0.65277188520E+03  0.78844877054E+03  0.12699999809E+01 0.  1.
</event>
<event>
 5   0  0.8738044E-03  0.8980308E+03  0.7818609E-02  0.9428046E-01
       -1   -1    0    0    0  501  0.00000000000E+00  0.00000000000E+00  0.12696135304E+03  0.12696135314E+03  0.50400001928E-02 0. -1.
        1   -1    0    0  501    0  0.00000000000E+00  0.00000000000E+00 -0.15880015008E+04  0.15880015008E+04  0.50400001928E-02 0.  1.
    10030    2    1    2    0    0  0.00000000000E+00  0.00000000000E+00 -0.14610401478E+04  0.17149628539E+04  0.89803077733E+03 0.  0.
        3    1    3    3  502    0 -0.20306423605E+03  0.39703897470E+03 -0.83047890223E+03  0.94264004193E+03  0.10100000352E+00 0. -1.
       -3    1    3    3    0  502  0.20306423605E+03 -0.39703897470E+03 -0.63056124553E+03  0.77232281201E+03  0.10100000352E+00 0.  1.
</event>
<event>
 5   0  0.8612969E-03  0.9181685E+03  0.7818609E-02  0.9403151E-01
       -1   -1    0    0    0  501  0.00000000000E+00  0.00000000000E+00  0.69346922069E+03  0.69346922071E+03  0.50400001928E-02 0. -1.
        1   -1    0    0  501    0  0.00000000000E+00  0.00000000000E+00 -0.30391884114E+03  0.30391884118E+03  0.50400001928E-02 0.  1.
    10030    2    1    2    0    0  0.00000000000E+00  0.00000000000E+00  0.38955037956E+03  0.99738806189E+03  0.91816852908E+03 0.  0.
        4    1    3    3  502    0 -0.19900770847E+03 -0.39620218686E+03  0.32411326652E+03  0.54920967156E+03  0.12699999809E+01 0.  1.
       -4    1    3    3    0  502  0.19900770847E+03  0.39620218686E+03  0.65437113037E+02  0.44817839033E+03  0.12699999809E+01 0. -1.
</event>
<event>
 5   0  0.1483326E-02  0.8897368E+03  0.7818609E-02  0.9438503E-01
        2   -1    0    0  501    0  0.00000000000E+00  0.00000000000E+00  0.15351937984E+04  0.15351937984E+04  0.25500000920E-02 0.  1.
       -2   -1    0    0    0  501  0.00000000000E+00  0.00000000000E+00 -0.12891393973E+03  0.12891393976E+03  0.25500000920E-02 0. -1.
    10030    2    1    2    0    0  0.00000000000E+00  0.00000000000E+00  0.14062798586E+04  0.16641077381E+04  0.88973677191E+03 0.  0.
        1    1    3    3  502    0 -0.10707872627E+03  0.35760250201E+03  0.25052422162E+03  0.44956399845E+03  0.50400001928E-02 0. -1.
       -1    1    3    3    0  502  0.10707872627E+03 -0.35760250201E+03  0.11557556370E+04  0.12145437397E+04  0.50400001928E-02 0.  1.
</event>
<event>
 5   0  0.8612969E-03  0.8920428E+03  0.7818609E-02  0.9435583E-01
       -1   -1    0    0    0  501  0.00000000000E+00  0.00000000000E+00  0.90408759763E+03  0.90408759765E+03  0.50400001928E-02 0.  1.
        1   -1    0    0  501    0  0.00000000000E+00  0.00000000000E+00 -0.22003962823E+03  0.22003962828E+03  0.50400001928E-02 0. -1.
    10030    2    1    2    0    0  0.00000000000E+00  0.00000000000E+00  0.68404796941E+03  0.11241272259E+04  0.89204282164E+03 0.  0.
        4    1    3    3  502    0 -0.33831673652E+03 -0.19940744248E+03  0.75558146836E+02  0.39991522700E+03  0.12699999809E+01 0. -1.
       -4    1    3    3    0  502  0.33831673652E+03  0.19940744248E+03  0.60848982257E+03  0.72421199894E+03  0.12699999809E+01 0.  1.
</event>
<event>
 5   0  0.1454652E-02  0.8904284E+03  0.7818609E-02  0.9437626E-01
        2   -1    0    0  501    0  0.00000000000E+00  0.00000000000E+00  0.15749561486E+04  0.15749561486E+04  0.25500000920E-02 0. -1.
       -2   -1    0    0    0  501  0.00000000000E+00  0.00000000000E+00 -0.12585473708E+03  0.12585473710E+03  0.25500000920E-02 0.  1.
    10030    2    1    2    0    0  0.00000000000E+00  0.00000000000E+00  0.14491014115E+04  0.17008108857E+04  0.89042841825E+03 0.  0.
        4    1    3    3  502    0  0.19856319525E+02 -0.32083313597E+03  0.13617075486E+03  0.34910207954E+03  0.12699999809E+01 0.  1.
       -4    1    3    3    0  502 -0.19856319525E+02  0.32083313597E+03  0.13129306566E+04  0.13517088061E+04  0.12699999809E+01 0. -1.
</event>
<event>
 5   0  0.1441195E-02  0.9243438E+03  0.7818609E-02  0.9395652E-01
       -2   -1    0    0    0  501  0.00000000000E+00  0.00000000000E+00  0.21215968270E+03  0.21215968271E+03  0.25500000920E-02 0.  1.
        2   -1    0    0  501    0  0.00000000000E+00  0.00000000000E+00 -0.10068023416E+04  0.10068023416E+04  0.25500000920E-02 0. -1.
    10030    2    1    2    0    0  0.00000000000E+00  0.00000000000E+00 -0.79464265886E+03  0.12189620243E+04  0.92434380040E+03 0.  0.
        5    1    3    3  502    0  0.75854932385E+02 -0.11822597564E+03 -0.97793719592E+03  0.98798512197E+03  0.46999998093E+01 0. -1.
       -5    1    3    3    0  502 -0.75854932385E+02  0.11822597564E+03  0.18329453706E+03  0.23097690230E+03  0.46999998093E+01 0.  1.
</event>
<event>
 5   0  0.1441195E-02  0.6683414E+03  0.7818609E-02  0.9772959E-01
       -2   -1    0    0    0  501  0.00000000000E+00  0.00000000000E+00  0.12386772933E+03  0.12386772935E+03  0.25500000920E-02 0.  1.
        2   -1    0    0  501    0  0.00000000000E+00  0.00000000000E+00 -0.90152655589E+03  0.90152655589E+03  0.25500000920E-02 0. -1.
    10030    2    1    2    0    0  0.00000000000E+00  0.00000000000E+00 -0.77765882656E+03  0.10253942852E+04  0.66834137212E+03 0.  0.
        5    1    3    3  502    0  0.39834095594E+02 -0.85111932006E+02  0.10312555545E+03  0.13959858999E+03  0.46999998093E+01 0.  1.
       -5    1    3    3    0  502 -0.39834095594E+02  0.85111932006E+02 -0.88078438201E+03  0.88579569526E+03  0.46999998093E+01 0. -1.
</event>
<event>
 5   0  0.8612969E-03  0.9001468E+03  0.7818609E-02  0.9425398E-01
       -1   -1    0    0    0  501  0.00000000000E+00  0.00000000000E+00  0.67948017369E+03  0.67948017371E+03  0.50400001928E-02 0.  1.
        1   -1    0    0  501    0  0.00000000000E+00  0.00000000000E+00 -0.29811918819E+03  0.29811918823E+03  0.50400001928E-02 0. -1.
    10030    2    1    2    0    0  0.00000000000E+00  0.00000000000E+00  0.38136098550E+03  0.97759936194E+03  0.90014682758E+03 0.  0.
        4    1    3    3  502    0 -0.39856867386E+03  0.37171151117E+02  0.41411490043E+03  0.57596132328E+03  0.12699999809E+01 0.  1.
       -4    1    3    3    0  502  0.39856867386E+03 -0.37171151117E+02 -0.32753914932E+02  0.40163803866E+03  0.12699999809E+01 0. -1.
</event>
<event>
 5   0  0.8612969E-03  0.8997000E+03  0.7818609E-02  0.9425957E-01
        1   -1    0    0  501    0  0.00000000000E+00  0.00000000000E+00  0.30328026134E+03  0.30328026138E+03  0.50400001928E-02 0.  1.
       -1   -1    0    0    0  501  0.00000000000E+00  0.00000000000E+00 -0.66725416552E+03  0.66725416554E+03  0.50400001928E-02 0. -1.
    10030    2    1    2    0    0  0.00000000000E+00  0.00000000000E+00 -0.36397390418E+03  0.97053442693E+03  0.89969998940E+03 0.  0.
        4    1    3    3  502    0 -0.15609465627E+03  0.15845473722E+03  0.23980929626E+03  0.32708340975E+03  0.12699999809E+01 0.  1.
       -4    1    3    3    0  502  0.15609465627E+03 -0.15845473722E+03 -0.60378320044E+03  0.64345101717E+03  0.12699999809E+01 0. -1.
</event>
<event>
 5   0  0.5770125E-03  0.9042179E+03  0.7818609E-02  0.9420324E-01
       -3   -1    0    0    0  501  0.00000000000E+00  0.00000000000E+00  0.31385174286E+03  0.31385175912E+03  0.10100000352E+00 0.  1.
        3   -1    0    0  501    0  0.00000000000E+00  0.00000000000E+00 -0.65127089598E+03  0.65127090381E+03  0.10100000352E+00 0. -1.
    10030    2    1    2    0    0  0.00000000000E+00  0.00000000000E+00 -0.33741915312E+03  0.96512266293E+03  0.90421793258E+03 0.  0.
        1    1    3    3  502    0 -0.11905777683E+03 -0.42357105928E+03 -0.27971114178E+03  0.52136888989E+03  0.50400001928E-02 0. -1.
       -1    1    3    3    0  502  0.11905777683E+03  0.42357105928E+03 -0.57708011332E+02  0.44375377303E+03  0.50400001928E-02 0.  1.
</event>
<event>
 5   0  0.8291252E-03  0.8961149E+03  0.7818609E-02  0.9430451E-01
       -1   -1    0    0    0  501  0.00000000000E+00  0.00000000000E+00  0.72581374125E+03  0.72581374127E+03  0.50400001928E-02 0.  1.
        1   -1    0    0  501    0  0.00000000000E+00  0.00000000000E+00 -0.27659368812E+03  0.27659368817E+03  0.50400001928E-02 0. -1.
    10030    2    1    2    0    0  0.00000000000E+00  0.00000000000E+00  0.44922005313E+03  0.10024074294E+04  0.89611494712E+03 0.  0.
        1    1    3    3  502    0 -0.39937151374E+03  0.94415842086E+02  0.42578518275E+03  0.59135858757E+03  0.50400001928E-02 0.  1.
       -1    1    3    3    0  502  0.39937151374E+03 -0.94415842086E+02  0.23434870377E+02  0.41104884186E+03  0.50400001928E-02 0. -1.
</event>
<event>
 5   0  0.1441195E-02  0.9078935E+03  0.7818609E-02  0.9415768E-01
        2   -1    0    0  501    0  0.00000000000E+00  0.00000000000E+00  0.85962093833E+03  0.85962093834E+03  0.25500000920E-02 0. -1.
       -2   -1    0    0    0  501  0.00000000000E+00  0.00000000000E+00 -0.23971923511E+03  0.23971923512E+03  0.25500000920E-02 0.  1.
    10030    2    1    2    0    0  0.00000000000E+00  0.00000000000E+00  0.61990170322E+03  0.10993401735E+04  0.90789354845E+03 0.  0.
        5    1    3    3  502    0 -0.88271498632E+02  0.27476275911E+03  0.73420305807E+03  0.78889964617E+03  0.46999998093E+01 0. -1.
       -5    1    3    3    0  502  0.88271498632E+02 -0.27476275911E+03 -0.11430135484E+03  0.31044052729E+03  0.46999998093E+01 0.  1.
</event>
<event>
 5   0  0.1483326E-02  0.8895590E+03  0.7818609E-02  0.9438728E-01
        2   -1    0    0  501    0  0.00000000000E+00  0.00000000000E+00  0.88253377205E+03  0.88253377206E+03  0.25500000920E-02 0.  1.
       -2   -1    0    0    0  501  0.00000000000E+00  0.00000000000E+00 -0.22416001701E+03  0.22416001702E+03  0.25500000920E-02 0. -1.
    10030    2    1    2    0    0  0.00000000000E+00  0.00000000000E+00  0.65837375505E+03  0.11066937891E+04  0.88955895895E+03 0.  0.
        1    1    3    3  502    0 -0.34756232889E+03 -0.10183600559E+03  0.79828650585E+01  0.36226215736E+03  0.50400001928E-02 0. -1.
       -1    1    3    3    0  502  0.34756232889E+03  0.10183600559E+03  0.65039088999E+03  0.74443163172E+03  0.50400001928E-02 0.  1.
</event>
<event>
 5   0  0.1483326E-02  0.8801027E+03  0.7818609E-02  0.9450802E-01
       -2   -1    0    0    0  501  0.00000000000E+00  0.00000000000E+00  0.25843609638E+03  0.25843609640E+03  0.25500000920E-02 0.  1.
        2   -1    0    0  501    0  0.00000000000E+00  0.00000000000E+00 -0.74929614204E+03  0.74929614204E+03  0.25500000920E-02 0. -1.
    10030    2    1    2    0    0  0.00000000000E+00  0.00000000000E+00 -0.49086004565E+03  0.10077322384E+04  0.88010265308E+03 0.  0.
        1    1    3    3  502    0  0.11007753640E+03 -0.41894608346E+03 -0.33421338868E+03  0.54711193924E+03  0.50400001928E-02 0.  1.
       -1    1    3    3    0  502 -0.11007753640E+03  0.41894608346E+03 -0.15664665697E+03  0.46062029919E+03  0.50400001928E-02 0. -1.
</event>
<event>
 5   0  0.1483326E-02  0.9137492E+03  0.7818609E-02  0.9408556E-01
        2   -1    0    0  501    0  0.00000000000E+00  0.00000000000E+00  0.49229672676E+03  0.49229672677E+03  0.25500000920E-02 0.  1.
       -2   -1    0    0    0  501  0.00000000000E+00  0.00000000000E+00 -0.42400115853E+03  0.42400115854E+03  0.25500000920E-02 0. -1.
    10030    2    1    2    0    0  0.00000000000E+00  0.00000000000E+00  0.68295568232E+02  0.91629788531E+03  0.91374916141E+03 0.  0.
        1    1    3    3  502    0  0.20186372374E+03  0.36359234911E+03 -0.15555181464E+03  0.44400982687E+03  0.50400001928E-02 0. -1.
       -1    1    3    3    0  502 -0.20186372374E+03 -0.36359234911E+03  0.22384738287E+03  0.47228805843E+03  0.50400001928E-02 0.  1.
</event>
<event>
 5   0  0.8885324E-03  0.1011612E+04  0.7818609E-02  0.9295900E-01
        1   -1    0    0  501    0  0.00000000000E+00  0.00000000000E+00  0.14181783204E+04  0.14181783204E+04  0.50400001928E-02 0.  1.
       -1   -1    0    0    0  501  0.00000000000E+00  0.00000000000E+00 -0.18040031776E+03  0.18040031783E+03  0.50400001928E-02 0. -1.
    10030    2    1    2    0    0  0.00000000000E+00  0.00000000000E+00  0.12377780027E+04  0.15985786383E+04  0.10116122176E+04 0.  0.
        2    1    3    3  502    0 -0.23906271169E+03  0.44374291997E+03  0.55219922154E+03  0.74765148259E+03  0.25500000920E-02 0. -1.
       -2    1    3    3    0  502  0.23906271169E+03 -0.44374291997E+03  0.68557878113E+03  0.85092715569E+03  0.25500000920E-02 0.  1.
</event>
<event>
 5   0  0.8524692E-03  0.8781771E+03  0.7818609E-02  0.9453280E-01
       -1   -1    0    0    0  501  0.00000000000E+00  0.00000000000E+00  0.70532422582E+03  0.70532422584E+03  0.50400001928E-02 0.  1.
        1   -1    0    0  501    0  0.00000000000E+00  0.00000000000E+00 -0.27334772069E+03  0.27334772074E+03  0.50400001928E-02 0. -1.
    10030    2    1    2    0    0  0.00000000000E+00  0.00000000000E+00  0.43197650513E+03  0.97867194657E+03  0.87817713363E+03 0.  0.
        5    1    3    3  502    0 -0.15288137448E+03  0.10603809661E+03  0.65919175918E+03  0.68496179307E+03  0.46999998093E+01 0.  1.
       -5    1    3    3    0  502  0.15288137448E+03 -0.10603809661E+03 -0.22721525405E+03  0.29371015350E+03  0.46999998093E+01 0. -1.
</event>
<event>
 5   0  0.1441195E-02  0.8376227E+03  0.7818609E-02  0.9507102E-01
       -2   -1    0    0    0  501  0.00000000000E+00  0.00000000000E+00  0.37386382979E+03  0.37386382980E+03  0.25500000920E-02 0. -1.
        2   -1    0    0  501    0  0.00000000000E+00  0.00000000000E+00 -0.46916269145E+03  0.46916269145E+03  0.25500000920E-02 0.  1.
    10030    2    1    2    0    0  0.00000000000E+00  0.00000000000E+00 -0.95298861657E+02  0.84302652125E+03  0.83762273280E+03 0.  0.
        5    1    3    3  502    0 -0.22262501385E+03 -0.24909501535E+03 -0.30180708554E+03  0.45024418968E+03  0.46999998093E+01 0.  1.
       -5    1    3    3    0  502  0.22262501385E+03  0.24909501535E+03  0.20650822388E+03  0.39278233157E+03  0.46999998093E+01 0. -1.
</event>
<event>
 5   0  0.8612969E-03  0.9030663E+03  0.7818609E-02  0.9421756E-01
        1   -1    0    0  501    0  0.00000000000E+00  0.00000000000E+00  0.13849331787E+04  0.13849331787E+04  0.50400001928E-02 0.  1.
       -1   -1    0    0    0  501  0.00000000000E+00  0.00000000000E+00 -0.14721446215E+03  0.14721446224E+03  0.50400001928E-02 0. -1.
    10030    2    1    2    0    0  0.00000000000E+00  0.00000000000E+00  0.12377187165E+04  0.15321476409E+04  0.90306631670E+03 0.  0.
        4    1    3    3  502    0 -0.72871674953E+02 -0.44328468511E+03  0.69603137815E+03  0.82841588911E+03  0.12699999809E+01 0.  1.
       -4    1    3    3    0  502  0.72871674953E+02  0.44328468511E+03  0.54168733839E+03  0.70373175183E+03  0.12699999809E+01 0. -1.
</event>
<event>
 5   0  0.1535906E-02  0.7286588E+03  0.7818609E-02  0.9669439E-01
       -2   -1    0    0    0  501  0.00000000000E+00  0.00000000000E+00  0.28858734821E+03  0.28858734822E+03  0.25500000920E-02 0.  1.
        2   -1    0    0  501    0  0.00000000000E+00  0.00000000000E+00 -0.45995057780E+03  0.45995057780E+03  0.25500000920E-02 0. -1.
    10030    2    1    2    0    0  0.00000000000E+00  0.00000000000E+00 -0.17136322958E+03  0.74853792602E+03  0.72865881608E+03 0.  0.
        2    1    3    3  502    0 -0.35022685499E+03 -0.80346176101E+02 -0.14750281083E+03  0.38842172594E+03  0.25500000920E-02 0. -1.
       -2    1    3    3    0  502  0.35022685499E+03  0.80346176101E+02 -0.23860418750E+02  0.36011620008E+03  0.25500000920E-02 0.  1.
</event>
<event>
 5   0  0.8291252E-03  0.9021661E+03  0.7818609E-02  0.9422878E-01
       -1   -1    0    0    0  501  0.00000000000E+00  0.00000000000E+00  0.27434986785E+03  0.27434986789E+03  0.50400001928E-02 0. -1.
        1   -1    0    0  501    0  0.00000000000E+00  0.00000000000E+00 -0.74166574777E+03  0.74166574779E+03  0.50400001928E-02 0.  1.
    10030    2    1    2    0    0  0.00000000000E+00  0.00000000000E+00 -0.46731587993E+03  0.10160156157E+04  0.90216605992E+03 0.  0.
        1    1    3    3  502    0  0.80813812514E+02 -0.12054565889E+03 -0.71465531899E+03  0.72924231443E+03  0.50400001928E-02 0.  1.
       -1    1    3    3    0  502 -0.80813812514E+02  0.12054565889E+03  0.24733943906E+03  0.28677330125E+03  0.50400001928E-02 0. -1.
</event>
<event>
 5   0  0.1440615E-02  0.8885119E+03  0.7818609E-02  0.9440057E-01
        2   -1    0    0  501    0  0.00000000000E+00  0.00000000000E+00  0.10414013157E+04  0.10414013157E+04  0.25500000920E-02 0.  1.
       -2   -1    0    0    0  501  0.00000000000E+00  0.00000000000E+00 -0.18951707546E+03  0.18951707547E+03  0.25500000920E-02 0. -1.
    10030    2    1    2    0    0  0.00000000000E+00  0.00000000000E+00  0.85188424020E+03  0.12309183911E+04  0.88851186088E+03 0.  0.
        3    1    3    3  502    0 -0.39377350844E+03 -0.12280543730E+03  0.19735774199E+03  0.45726233161E+03  0.10100000352E+00 0.  1.
       -3    1    3    3    0  502  0.39377350844E+03  0.12280543730E+03  0.65452649821E+03  0.77365605953E+03  0.10100000352E+00 0. -1.
</event>
<event>
 5   0  0.1441195E-02  0.9065972E+03  0.7818609E-02  0.9417372E-01
        2   -1    0    0  501    0  0.00000000000E+00  0.00000000000E+00  0.60862402098E+03  0.60862402099E+03  0.25500000920E-02 0. -1.
       -2   -1    0    0    0  501  0.00000000000E+00  0.00000000000E+00 -0.33761339508E+03  0.33761339509E+03  0.25500000920E-02 0.  1.
    10030    2    1    2    0    0  0.00000000000E+00  0.00000000000E+00  0.27101062590E+03  0.94623741608E+03  0.90659720286E+03 0.  0.
        5    1    3    3  502    0 -0.17816226830E+03 -0.18406056640E+03 -0.25479372787E+03  0.36133366811E+03  0.46999998093E+01 0.  1.
       -5    1    3    3    0  502  0.17816226830E+03  0.18406056640E+03  0.52580435377E+03  0.58490374797E+03  0.46999998093E+01 0. -1.
</event>
<event>
 5   0  0.8291252E-03  0.9139392E+03  0.7818609E-02  0.9408323E-01
       -1   -1    0    0    0  501  0.00000000000E+00  0.00000000000E+00  0.88150931947E+03  0.88150931949E+03  0.50400001928E-02 0. -1.
        1   -1    0    0  501    0  0.00000000000E+00  0.00000000000E+00 -0.23689054386E+03  0.23689054392E+03  0.50400001928E-02 0.  1.
    10030    2    1    2    0    0  0.00000000000E+00  0.00000000000E+00  0.64461877561E+03  0.11183998634E+04  0.91393921494E+03 0.  0.
        1    1    3    3  502    0 -0.42194965419E+03 -0.80078341781E+02  0.51333092928E+03  0.66930015275E+03  0.50400001928E-02 0. -1.
       -1    1    3    3    0  502  0.42194965419E+03  0.80078341781E+02  0.13128784633E+03  0.44909971065E+03  0.50400001928E-02 0.  1.
</event>
<event>
 5   0  0.8612969E-03  0.9018871E+03  0.7818609E-02  0.9423225E-01
        1   -1    0    0  501    0  0.00000000000E+00  0.00000000000E+00  0.79178030674E+03  0.79178030675E+03  0.50400001928E-02 0. -1.
       -1   -1    0    0    0  501  0.00000000000E+00  0.00000000000E+00 -0.25682642164E+03  0.25682642169E+03  0.50400001928E-02 0.  1.
    10030    2    1    2    0    0  0.00000000000E+00  0.00000000000E+00  0.53495388510E+03  0.10486067284E+04  0.90188713914E+03 0.  0.
        4    1    3    3  502    0 -0.10065226392E+03  0.36994576849E+03  0.54349483240E+03  0.66511577609E+03  0.12699999809E+01 0.  1.
       -4    1    3    3    0  502  0.10065226392E+03 -0.36994576849E+03 -0.85409473069E+01  0.38349095235E+03  0.12699999809E+01 0. -1.
</event>
<event>
 5   0  0.8524692E-03  0.9093908E+03  0.7818609E-02  0.9413918E-01
       -1   -1    0    0    0  501  0.00000000000E+00  0.00000000000E+00  0.22525606109E+03  0.22525606115E+03  0.50400001928E-02 0. -1.
        1   -1    0    0  501    0  0.00000000000E+00  0.00000000000E+00 -0.91783504298E+03  0.91783504299E+03  0.50400001928E-02 0.  1.
    10030    2    1    2    0    0  0.00000000000E+00  0.00000000000E+00 -0.69257898189E+03  0.11430911041E+04  0.90939079950E+03 0.  0.
        5    1    3    3  502    0  0.94806687003E+02  0.41934132232E+03 -0.16031354299E+03  0.45886596580E+03  0.46999998093E+01 0. -1.
       -5    1    3    3    0  502 -0.94806687003E+02 -0.41934132232E+03 -0.53226543889E+03  0.68422513834E+03  0.46999998093E+01 0.  1.
</event>
<event>
 5   0  0.8524692E-03  0.1037503E+04  0.7818609E-02  0.9268343E-01
       -1   -1    0    0    0  501  0.00000000000E+00  0.00000000000E+00  0.12306492583E+04  0.12306492583E+04  0.50400001928E-02 0.  1.
        1   -1    0    0  501    0  0.00000000000E+00  0.00000000000E+00 -0.21866747537E+03  0.21866747543E+03  0.50400001928E-02 0. -1.
    10030    2    1    2    0    0  0.00000000000E+00  0.00000000000E+00  0.10119817829E+04  0.14493167337E+04  0.10375027064E+04 0.  0.
        5    1    3    3  502    0  0.29423643006E+03 -0.42489246662E+03  0.44395420316E+03  0.68134140449E+03  0.46999998093E+01 0. -1.
       -5    1    3    3    0  502 -0.29423643006E+03  0.42489246662E+03  0.56802757975E+03  0.76797532924E+03  0.46999998093E+01 0.  1.
</event>
<event>
 5   0  0.1441195E-02  0.8593676E+03  0.7818609E-02  0.9477850E-01
        2   -1    0    0  501    0  0.00000000000E+00  0.00000000000E+00  0.75596736239E+03  0.75596736239E+03  0.25500000920E-02 0. -1.
       -2   -1    0    0    0  501  0.00000000000E+00  0.00000000000E+00 -0.24422768394E+03  0.24422768396E+03  0.25500000920E-02 0.  1.
    10030    2    1    2    0    0  0.00000000000E+00  0.00000000000E+00  0.51173967844E+03  0.10001950463E+04  0.85936757691E+03 0.  0.
        5    1    3    3  502    0  0.33946494094E+03  0.24690089860E+03  0.14913834639E+03  0.44548943446E+03  0.46999998093E+01 0. -1.
       -5    1    3    3    0  502 -0.33946494094E+03 -0.24690089860E+03  0.36260133205E+03  0.55470561189E+03  0.46999998093E+01 0.  1.
</event>
<event>
 5   0  0.1441195E-02  0.9221839E+03  0.7818609E-02  0.9398268E-01
        2   -1    0    0  501    0  0.00000000000E+00  0.00000000000E+00  0.88677365800E+03  0.88677365800E+03  0.25500000920E-02 0. -1.
       -2   -1    0    0    0  501  0.00000000000E+00  0.00000000000E+00 -0.23975204593E+03  0.23975204595E+03  0.25500000920E-02 0.  1.
    10030    2    1    2    0    0  0.00000000000E+00  0.00000000000E+00  0.64702161207E+03  0.11265257039E+04  0.92218392698E+03 0.  0.
        5    1    3    3  502    0  0.21368740606E+03 -0.27719011869E+03  0.69016335981E+03  0.77385025853E+03  0.46999998093E+01 0. -1.
       -5    1    3    3    0  502 -0.21368740606E+03  0.27719011869E+03 -0.43141747741E+02  0.35267544542E+03  0.46999998093E+01 0.  1.
</event>
<event>
 5   0  0.1440615E-02  0.9129120E+03  0.7818609E-02  0.9409583E-01
       -2   -1    0    0    0  501  0.00000000000E+00  0.00000000000E+00  0.10045637227E+03  0.10045637230E+03  0.25500000920E-02 0.  1.
        2   -1    0    0  501    0  0.00000000000E+00  0.00000000000E+00 -0.20740554064E+04  0.20740554064E+04  0.25500000920E-02 0. -1.
    10030    2    1    2    0    0  0.00000000000E+00  0.00000000000E+00 -0.19735990342E+04  0.21745117787E+04  0.91291200463E+03 0.  0.
        3    1    3    3  502    0 -0.90472433126E+02  0.15939082861E+03  0.89625366802E+01  0.18349668843E+03  0.10100000352E+00 0.  1.
       -3    1    3    3    0  502  0.90472433126E+02 -0.15939082861E+03 -0.19825615708E+04  0.19910150903E+04  0.10100000352E+00 0. -1.
</event>
<event>
 5   0  0.1441195E-02  0.8983073E+03  0.7818609E-02  0.9427700E-01
        2   -1    0    0  501    0  0.00000000000E+00  0.00000000000E+00  0.96193996417E+03  0.96193996417E+03  0.25500000920E-02 0. -1.
       -2   -1    0    0    0  501  0.00000000000E+00  0.00000000000E+00 -0.20972099041E+03  0.20972099043E+03  0.25500000920E-02 0.  1.
    10030    2    1    2    0    0  0.00000000000E+00  0.00000000000E+00  0.75221897376E+03  0.11716609546E+04  0.89830730157E+03 0.  0.
        5    1    3    3  502    0 -0.20693138090E+03  0.19545027442E+03 -0.77020263946E+02  0.29491628851E+03  0.46999998093E+01 0.  1.
       -5    1    3    3    0  502  0.20693138090E+03 -0.19545027442E+03  0.82923923770E+03  0.87674466609E+03  0.46999998093E+01 0. -1.
</event>
<event>
 5   0  0.8885324E-03  0.9027635E+03  0.7818609E-02  0.9422133E-01
        1   -1    0    0  501    0  0.00000000000E+00  0.00000000000E+00  0.49835213273E+03  0.49835213276E+03  0.50400001928E-02 0. -1.
       -1   -1    0    0    0  501  0.00000000000E+00  0.00000000000E+00 -0.40883843045E+03  0.40883843048E+03  0.50400001928E-02 0.  1.
    10030    2    1    2    0    0  0.00000000000E+00  0.00000000000E+00  0.89513702283E+02  0.90719056324E+03  0.90276354331E+03 0.  0.
        2    1    3    3  502    0 -0.44388437204E+03  0.29384260442E+02  0.12160889459E+03  0.46117837520E+03  0.25500000920E-02 0.  1.
       -2    1    3    3    0  502  0.44388437204E+03 -0.29384260442E+02 -0.32095192306E+02  0.44601218804E+03  0.25500000920E-02 0. -1.
</event>
<event>
 5   0  0.1440615E-02  0.8790237E+03  0.7818609E-02  0.9452190E-01
        2   -1    0    0  501    0  0.00000000000E+00  0.00000000000E+00  0.27903713680E+04  0.27903713680E+04  0.25500000920E-02 0. -1.
       -2   -1    0    0    0  501  0.00000000000E+00  0.00000000000E+00 -0.69227577101E+02  0.69227577148E+02  0.25500000920E-02 0.  1.
    10030    2    1    2    0    0  0.00000000000E+00  0.00000000000E+00  0.27211437909E+04  0.28595989452E+04  0.87902366086E+03 0.  0.
        3    1    3    3  502    0 -0.31363366122E+02  0.36241136009E+03  0.55812379300E+03  0.66620404770E+03  0.10100000352E+00 0.  1.
       -3    1    3    3    0  502  0.31363366122E+02 -0.36241136009E+03  0.21630199979E+04  0.21933948975E+04  0.10100000352E+00 0. -1.
</event>
<event>
 5   0  0.1454652E-02  0.8784304E+03  0.7818609E-02  0.9452953E-01
       -2   -1    0    0    0  501  0.00000000000E+00  0.00000000000E+00  0.14936476378E+04  0.14936476378E+04  0.25500000920E-02 0. -1.
        2   -1    0    0  501    0  0.00000000000E+00  0.00000000000E+00 -0.12915362807E+03  0.12915362809E+03  0.25500000920E-02 0.  1.
    10030    2    1    2    0    0  0.00000000000E+00  0.00000000000E+00  0.13644940098E+04  0.16228012659E+04  0.87843044460E+03 0.  0.
        4    1    3    3  502    0 -0.20476155652E+03  0.38363784558E+03  0.79617415440E+03  0.90719357837E+03  0.12699999809E+01 0. -1.
       -4    1    3    3    0  502  0.20476155652E+03 -0.38363784558E+03  0.56831985537E+03  0.71560768757E+03  0.12699999809E+01 0.  1.
</event>
<event>
 5   0  0.1440615E-02  0.8964865E+03  0.7818609E-02  0.9429984E-01
        2   -1    0    0  501    0  0.00000000000E+00  0.00000000000E+00  0.11095250306E+04  0.11095250306E+04  0.25500000920E-02 0.  1.
       -2   -1    0    0    0  501  0.00000000000E+00  0.00000000000E+00 -0.18108832649E+03  0.18108832651E+03  0.25500000920E-02 0. -1.
    10030    2    1    2    0    0  0.00000000000E+00  0.00000000000E+00  0.92843670410E+03  0.12906133571E+04  0.89648654425E+03 0.  0.
        3    1    3    3  502    0  0.22037637639E+03 -0.24833440097E+03  0.89775240793E+03  0.95718081789E+03  0.10100000352E+00 0.  1.
       -3    1    3    3    0  502 -0.22037637639E+03  0.24833440097E+03  0.30684296169E+02  0.33343253922E+03  0.10100000352E+00 0. -1.
</event>
<event>
 5   0  0.5770125E-03  0.8730206E+03  0.7818609E-02  0.9459950E-01
       -4   -1    0    0    0  501  0.00000000000E+00  0.00000000000E+00  0.67871112295E+03  0.67871231116E+03  0.12699999809E+01 0.  1.
        4   -1    0    0  501    0  0.00000000000E+00  0.00000000000E+00 -0.28073692577E+03  0.28073979838E+03  0.12699999809E+01 0. -1.
    10030    2    1    2    0    0  0.00000000000E+00  0.00000000000E+00  0.39797419718E+03  0.95945210954E+03  0.87302055467E+03 0.  0.
        5    1    3    3  502    0  0.12355096702E+03  0.26498085330E+03 -0.15719741099E+03  0.33198314729E+03  0.46999998093E+01 0. -1.
       -5    1    3    3    0  502 -0.12355096702E+03 -0.26498085330E+03  0.55517160817E+03  0.62746896224E+03  0.46999998093E+01 0.  1.
</event>
<event>
 5   0  0.1535906E-02  0.9110783E+03  0.7818609E-02  0.9411838E-01
        2   -1    0    0  501    0  0.00000000000E+00  0.00000000000E+00  0.12806352884E+04  0.12806352884E+04  0.25500000920E-02 0.  1.
       -2   -1    0    0    0  501  0.00000000000E+00  0.00000000000E+00 -0.16204139577E+03  0.16204139579E+03  0.25500000920E-02 0. -1.
    10030    2    1    2    0    0  0.00000000000E+00  0.00000000000E+00  0.11185938926E+04  0.14426766842E+04  0.91107832730E+03 0.  0.
        2    1    3    3  502    0 -0.36852497202E+02  0.42738394191E+03  0.80204430952E+03  0.90955495425E+03  0.25500000920E-02 0.  1.
       -2    1    3    3    0  502  0.36852497202E+02 -0.42738394191E+03  0.31654958309E+03  0.53312172993E+03  0.25500000920E-02 0. -1.
</event>
<event>
 5   0  0.8612969E-03  0.9007132E+03  0.7818609E-02  0.9424690E-01
       -1   -1    0    0    0  501  0.00000000000E+00  0.00000000000E+00  0.37381193636E+03  0.37381193640E+03  0.50400001928E-02 0. -1.
        1   -1    0    0  501    0  0.00000000000E+00  0.00000000000E+00 -0.54257510922E+03  0.54257510924E+03  0.50400001928E-02 0.  1.
    10030    2    1    2    0    0  0.00000000000E+00  0.00000000000E+00 -0.16876317285E+03  0.91638704564E+03  0.90071316683E+03 0.  0.
        4    1    3    3  502    0  0.27196421575E+03 -0.18258033795E+03 -0.39882177781E+03  0.51610128638E+03  0.12699999809E+01 0.  1.
       -4    1    3    3    0  502 -0.27196421575E+03  0.18258033795E+03  0.23005860495E+03  0.40028575926E+03  0.12699999809E+01 0. -1.
</event>
<event>
 5   0  0.8612969E-03  0.1010068E+04  0.7818609E-02  0.9297571E-01
       -1   -1    0    0    0  501  0.00000000000E+00  0.00000000000E+00  0.36168096018E+03  0.36168096022E+03  0.50400001928E-02 0. -1.
        1   -1    0    0  501    0  0.00000000000E+00  0.00000000000E+00 -0.70520481489E+03  0.70520481491E+03  0.50400001928E-02 0.  1.
    10030    2    1    2    0    0  0.00000000000E+00  0.00000000000E+00 -0.34352385471E+03  0.10668857751E+04  0.10100676306E+04 0.  0.
        4    1    3    3  502    0  0.87744815468E+02  0.10071586525E+03  0.34268227065E+03  0.36779830025E+03  0.12699999809E+01 0. -1.
       -4    1    3    3    0  502 -0.87744815468E+02 -0.10071586525E+03 -0.68620612535E+03  0.69908747487E+03  0.12699999809E+01 0.  1.
</event>
<event>
 5   0  0.1454652E-02  0.9208126E+03  0.7818609E-02  0.9399932E-01
       -2   -1    0    0    0  501  0.00000000000E+00  0.00000000000E+00  0.11204324007E+04  0.11204324007E+04  0.25500000920E-02 0. -1.
        2   -1    0    0  501    0  0.00000000000E+00  0.00000000000E+00 -0.18918942193E+03  0.18918942195E+03  0.25500000920E-02 0.  1.
    10030    2    1    2    0    0  0.00000000000E+00  0.00000000000E+00  0.93124297879E+03  0.13096218227E+04  0.92081259379E+03 0.  0.
        4    1    3    3  502    0  0.59063606798E+02 -0.38996340865E+03  0.80342320212E+03  0.89501420343E+03  0.12699999809E+01 0. -1.
       -4    1    3    3    0  502 -0.59063606798E+02  0.38996340865E+03  0.12781977667E+03  0.41460761925E+03  0.12699999809E+01 0.  1.
</event>
<event>
 5   0  0.8738044E-03  0.9771766E+03  0.7818609E-02  0.9333937E-01
       -1   -1    0    0    0  501  0.00000000000E+00  0.00000000000E+00  0.96257402465E+03  0.96257402467E+03  0.50400001928E-02 0. -1.
        1   -1    0    0  501    0  0.00000000000E+00  0.00000000000E+00 -0.24800017029E+03  0.24800017034E+03  0.50400001928E-02 0.  1.
    10030    2    1    2    0    0  0.00000000000E+00  0.00000000000E+00  0.71457385436E+03  0.12105741950E+04  0.97717659013E+03 0.  0.
        3    1    3    3  502    0  0.44074600608E+03 -0.15586840406E+03  0.53321442972E+03  0.70913301963E+03  0.10100000352E+00 0.  1.
       -3    1    3    3    0  502 -0.44074600608E+03  0.15586840406E+03  0.18135942464E+03  0.50144117538E+03  0.10100000352E+00 0. -1.
</event>
<event>
 5   0  0.5770125E-03  0.9023170E+03  0.7818609E-02  0.9422690E-01
       -4   -1    0    0    0  501  0.00000000000E+00  0.00000000000E+00  0.68688180930E+03  0.68688298338E+03  0.12699999809E+01 0. -1.
        4   -1    0    0  501    0  0.00000000000E+00  0.00000000000E+00 -0.29632767854E+03  0.29633040001E+03  0.12699999809E+01 0.  1.
    10030    2    1    2    0    0  0.00000000000E+00  0.00000000000E+00  0.39055413076E+03  0.98321338339E+03  0.90231703310E+03 0.  0.
        1    1    3    3  502    0  0.48811806867E+02  0.43304464845E+03  0.32250903223E+03  0.54214604669E+03  0.50400001928E-02 0.  1.
       -1    1    3    3    0  502 -0.48811806867E+02 -0.43304464845E+03  0.68045098528E+02  0.44106733670E+03  0.50400001928E-02 0. -1.
</event>
<event>
 5   0  0.1440615E-02  0.8906968E+03  0.7818609E-02  0.9437286E-01
        2   -1    0    0  501    0  0.00000000000E+00  0.00000000000E+00  0.14036650071E+04  0.14036650071E+04  0.25500000920E-02 0.  1.
       -2   -1    0    0    0  501  0.00000000000E+00  0.00000000000E+00 -0.14129811372E+03  0.14129811375E+03  0.25500000920E-02 0. -1.
    10030    2    1    2    0    0  0.00000000000E+00  0.00000000000E+00  0.12623668934E+04  0.15449631209E+04  0.89069684591E+03 0.  0.
        3    1    3    3  502    0 -0.12949062562E+03 -0.23593986588E+02  0.13691562173E+04  0.13754683769E+04  0.10100000352E+00 0.  1.
       -3    1    3    3    0  502  0.12949062562E+03  0.23593986588E+02 -0.10678932390E+03  0.16949474395E+03  0.10100000352E+00 0. -1.
</event>
<event>
 5   0  0.1440615E-02  0.9047220E+03  0.7818609E-02  0.9419698E-01
       -2   -1    0    0    0  501  0.00000000000E+00  0.00000000000E+00  0.18389356571E+03  0.18389356572E+03  0.25500000920E-02 0. -1.
        2   -1    0    0  501    0  0.00000000000E+00  0.00000000000E+00 -0.11127657938E+04  0.11127657938E+04  0.25500000920E-02 0.  1.
    10030    2    1    2    0    0  0.00000000000E+00  0.00000000000E+00 -0.92887222810E+03  0.12966593595E+04  0.90472198964E+03 0.  0.
        3    1    3    3  502    0 -0.38739722137E+03  0.12573060427E+03 -0.18232361607E+03  0.44623615177E+03  0.10100000352E+00 0. -1.
       -3    1    3    3    0  502  0.38739722137E+03 -0.12573060427E+03 -0.74654861203E+03  0.85042320776E+03  0.10100000352E+00 0.  1.
</event>
<event>
 5   0  0.1454652E-02  0.8826638E+03  0.7818609E-02  0.9447516E-01
        2   -1    0    0  501    0  0.00000000000E+00  0.00000000000E+00  0.26587458824E+03  0.26587458825E+03  0.25500000920E-02 0.  1.
       -2   -1    0    0    0  501  0.00000000000E+00  0.00000000000E+00 -0.73257792165E+03  0.73257792165E+03  0.25500000920E-02 0. -1.
    10030    2    1    2    0    0  0.00000000000E+00  0.00000000000E+00 -0.46670333341E+03  0.99845250990E+03  0.88266381659E+03 0.  0.
        4    1    3    3  502    0 -0.77059466380E+02 -0.10114218440E+03 -0.71140691480E+03  0.72268202839E+03  0.12699999809E+01 0. -1.
       -4    1    3    3    0  502  0.77059466380E+02  0.10114218440E+03  0.24470358140E+03  0.27577048151E+03  0.12699999809E+01 0.  1.
</event>
<event>
 5   0  0.8291252E-03  0.9027853E+03  0.7818609E-02  0.9422106E-01
        1   -1    0    0  501    0  0.00000000000E+00  0.00000000000E+00  0.16121813111E+04  0.16121813111E+04  0.50400001928E-02 0. -1.
       -1   -1    0    0    0  501  0.00000000000E+00  0.00000000000E+00 -0.12638487981E+03  0.12638487991E+03  0.50400001928E-02 0.  1.
    10030    2    1    2    0    0  0.00000000000E+00  0.00000000000E+00  0.14857964313E+04  0.17385661910E+04  0.90278533733E+03 0.  0.
        1    1    3    3  502    0 -0.19389261830E+03  0.29203951250E+03  0.19523827873E+03  0.40124731751E+03  0.50400001928E-02 0.  1.
       -1    1    3    3    0  502  0.19389261830E+03 -0.29203951250E+03  0.12905581525E+04  0.13373188735E+04  0.50400001928E-02 0. -1.
</event>
<event>
 5   0  0.1454652E-02  0.9025423E+03  0.7818609E-02  0.9422409E-01
        2   -1    0    0  501    0  0.00000000000E+00  0.00000000000E+00  0.12381316469E+04  0.12381316469E+04  0.25500000920E-02 0. -1.
       -2   -1    0    0    0  501  0.00000000000E+00  0.00000000000E+00 -0.16447819962E+03  0.16447819964E+03  0.25500000920E-02 0.  1.
    10030    2    1    2    0    0  0.00000000000E+00  0.00000000000E+00  0.10736534473E+04  0.14026098465E+04  0.90254232963E+03 0.  0.
        4    1    3    3  502    0 -0.27016725567E+03 -0.14536828370E+03  0.10511302776E+04  0.10949880170E+04  0.12699999809E+01 0. -1.
       -4    1    3    3    0  502  0.27016725567E+03  0.14536828370E+03  0.22523169658E+02  0.30762182954E+03  0.12699999809E+01 0.  1.
</event>
<event>
 5   0  0.8738044E-03  0.9576163E+03  0.7818609E-02  0.9356292E-01
        1   -1    0    0  501    0  0.00000000000E+00  0.00000000000E+00  0.26097468337E+03  0.26097468342E+03  0.50400001928E-02 0. -1.
       -1   -1    0    0    0  501  0.00000000000E+00  0.00000000000E+00 -0.87846537197E+03  0.87846537199E+03  0.50400001928E-02 0.  1.
    10030    2    1    2    0    0  0.00000000000E+00  0.00000000000E+00 -0.61749068861E+03  0.11394400554E+04  0.95761625370E+03 0.  0.
        3    1    3    3  502    0 -0.99234329747E+02 -0.23307901689E+03  0.17470555853E+03  0.30772605138E+03  0.10100000352E+00 0. -1.
       -3    1    3    3    0  502  0.99234329747E+02  0.23307901689E+03 -0.79219624714E+03  0.83171400403E+03  0.10100000352E+00 0.  1.
</event>
<event>
 5   0  0.1440615E-02  0.8954184E+03  0.7818609E-02  0.9431327E-01
       -2   -1    0    0    0  501  0.00000000000E+00  0.00000000000E+00  0.24243379560E+03  0.24243379561E+03  0.25500000920E-02 0.  1.
        2   -1    0    0  501    0  0.00000000000E+00  0.00000000000E+00 -0.82679692417E+03  0.82679692418E+03  0.25500000920E-02 0. -1.
    10030    2    1    2    0    0  0.00000000000E+00  0.00000000000E+00 -0.58436312857E+03  0.10692307198E+04  0.89541837490E+03 0.  0.
        3    1    3    3  502    0  0.55778349732E+02  0.31200281333E+03 -0.66976781030E+03  0.74097632198E+03  0.10100000352E+00 0. -1.
       -3    1    3    3    0  502 -0.55778349732E+02 -0.31200281333E+03  0.85404681724E+02  0.32825439781E+03  0.10100000352E+00 0.  1.
</event>
<event>
 5   0  0.1440615E-02  0.8959533E+03  0.7818609E-02  0.9430654E-01
        2   -1    0    0  501    0  0.00000000000E+00  0.00000000000E+00  0.37085635079E+03  0.37085635080E+03  0.25500000920E-02 0. -1.
       -2   -1    0    0    0  501  0.00000000000E+00  0.00000000000E+00 -0.54113424528E+03  0.54113424528E+03  0.25500000920E-02 0.  1.
    10030    2    1    2    0    0  0.00000000000E+00  0.00000000000E+00 -0.17027789449E+03  0.91199059608E+03  0.89595328337E+03 0.  0.
        3    1    3    3  502    0  0.12143597044E+03 -0.34341777368E+03  0.18029799409E+03  0.40643552880E+03  0.10100000352E+00 0. -1.
       -3    1    3    3    0  502 -0.12143597044E+03  0.34341777368E+03 -0.35057588858E+03  0.50555506728E+03  0.10100000352E+00 0.  1.
</event>
<event>
 5   0  0.8612969E-03  0.8885723E+03  0.7818609E-02  0.9439980E-01
        1   -1    0    0  501    0  0.00000000000E+00  0.00000000000E+00  0.18039174677E+03  0.18039174684E+03  0.50400001928E-02 0.  1.
       -1   -1    0    0    0  501  0.00000000000E+00  0.00000000000E+00 -0.10942306192E+04  0.10942306192E+04  0.50400001928E-02 0. -1.
    10030    2    1    2    0    0  0.00000000000E+00  0.00000000000E+00 -0.91383887241E+03  0.12746223660E+04  0.88857227690E+03 0.  0.
        4    1    3    3  502    0  0.25931640848E+03  0.35575944858E+03 -0.37110586603E+03  0.57578725382E+03  0.12699999809E+01 0.  1.
       -4    1    3    3    0  502 -0.25931640848E+03 -0.35575944858E+03 -0.54273300638E+03  0.69883511222E+03  0.12699999809E+01 0. -1.
</event>
<event>
 5   0  0.8291252E-03  0.8983622E+03  0.7818609E-02  0.9427631E-01
        1   -1    0    0  501    0  0.00000000000E+00  0.00000000000E+00  0.16064979168E+03  0.16064979176E+03  0.50400001928E-02 0. -1.
       -1   -1    0    0    0  501  0.00000000000E+00  0.00000000000E+00 -0.12559223374E+04  0.12559223374E+04  0.50400001928E-02 0.  1.
    10030    2    1    2    0    0  0.00000000000E+00  0.00000000000E+00 -0.10952725457E+04  0.14165721292E+04  0.89836220297E+03 0.  0.
        1    1    3    3  502    0 -0.21113848893E+03 -0.23239053671E+03 -0.10541398763E+04  0.10999071333E+04  0.50400001928E-02 0.  1.
       -1    1    3    3    0  502  0.21113848893E+03  0.23239053671E+03 -0.41132669367E+02  0.31666499581E+03  0.50400001928E-02 0. -1.
</event>
<event>
 5   0  0.1483326E-02  0.9149649E+03  0.7818609E-02  0.9407065E-01
        2   -1    0    0  501    0  0.00000000000E+00  0.00000000000E+00  0.49928365495E+03  0.49928365495E+03  0.25500000920E-02 0.  1.
       -2   -1    0    0    0  501  0.00000000000E+00  0.00000000000E+00 -0.41918096608E+03  0.41918096609E+03  0.25500000920E-02 0. -1.
    10030    2    1    2    0    0  0.00000000000E+00  0.00000000000E+00  0.80102688864E+02  0.91846462104E+03  0.91496492793E+03 0.  0.
        1    1    3    3  502    0 -0.39429069167E+03  0.91857880048E+02 -0.17380621658E+03  0.44058100346E+03  0.50400001928E-02 0.  1.
       -1    1    3    3    0  502  0.39429069167E+03 -0.91857880048E+02  0.25390890544E+03  0.47788361758E+03  0.50400001928E-02 0. -1.
</event>
<event>
 5   0  0.8612969E-03  0.8848443E+03  0.7818609E-02  0.9444728E-01
       -1   -1    0    0    0  501  0.00000000000E+00  0.00000000000E+00  0.36845577958E+03  0.36845577961E+03  0.50400001928E-02 0. -1.
        1   -1    0    0  501    0  0.00000000000E+00  0.00000000000E+00 -0.53123699376E+03  0.53123699378E+03  0.50400001928E-02 0.  1.
    10030    2    1    2    0    0  0.00000000000E+00  0.00000000000E+00 -0.16278121418E+03  0.89969277340E+03  0.88484425907E+03 0.  0.
        4    1    3    3  502    0 -0.36903953032E+02  0.30792884285E+03  0.23942537590E+03  0.39180122197E+03  0.12699999809E+01 0. -1.
       -4    1    3    3    0  502  0.36903953032E+02 -0.30792884285E+03 -0.40220659008E+03  0.50789155143E+03  0.12699999809E+01 0.  1.
</event>
<event>
 5   0  0.1441195E-02  0.8977744E+03  0.7818609E-02  0.9428368E-01
        2   -1    0    0  501    0  0.00000000000E+00  0.00000000000E+00  0.95957853479E+03  0.95957853479E+03  0.25500000920E-02 0. -1.
       -2   -1    0    0    0  501  0.00000000000E+00  0.00000000000E+00 -0.20998773878E+03  0.20998773879E+03  0.25500000920E-02 0.  1.
    10030    2    1    2    0    0  0.00000000000E+00  0.00000000000E+00  0.74959079601E+03  0.11695662736E+04  0.89777441869E+03 0.  0.
        5    1    3    3  502    0  0.17998647319E+03 -0.28185121957E+03 -0.15249263644E+02  0.33479825350E+03  0.46999998093E+01 0.  1.
       -5    1    3    3    0  502 -0.17998647319E+03  0.28185121957E+03  0.76484005966E+03  0.83476802009E+03  0.46999998093E+01 0. -1.
</event>
<event>
 5   0  0.8885324E-03  0.9016178E+03  0.7818609E-02  0.9423561E-01
       -1   -1    0    0    0  501  0.00000000000E+00  0.00000000000E+00  0.27007075388E+03  0.27007075393E+03  0.50400001928E-02 0. -1.
        1   -1    0    0  501    0  0.00000000000E+00  0.00000000000E+00 -0.75250148010E+03  0.75250148012E+03  0.50400001928E-02 0.  1.
    10030    2    1    2    0    0  0.00000000000E+00  0.00000000000E+00 -0.48243072622E+03  0.10225722340E+04  0.90161775063E+03 0.  0.
        2    1    3    3  502    0  0.20583453679E+03 -0.13697850013E+03  0.18631309688E+03  0.30958607221E+03  0.25500000920E-02 0. -1.
       -2    1    3    3    0  502 -0.20583453679E+03  0.13697850013E+03 -0.66874382310E+03  0.71298616184E+03  0.25500000920E-02 0.  1.
</event>
<event>
 5   0  0.8524692E-03  0.8899053E+03  0.7818609E-02  0.9438289E-01
       -1   -1    0    0    0  501  0.00000000000E+00  0.00000000000E+00  0.42793321376E+03  0.42793321379E+03  0.50400001928E-02 0.  1.
        1   -1    0    0  501    0  0.00000000000E+00  0.00000000000E+00 -0.46264898131E+03  0.46264898134E+03  0.50400001928E-02 0. -1.
    10030    2    1    2    0    0  0.00000000000E+00  0.00000000000E+00 -0.34715767551E+02  0.89058219512E+03  0.88990531055E+03 0.  0.
        5    1    3    3  502    0  0.34842368397E+03  0.13582984850E+03 -0.25860547575E+03  0.45469516534E+03  0.46999998093E+01 0. -1.
       -5    1    3    3    0  502 -0.34842368397E+03 -0.13582984850E+03  0.22388970820E+03  0.43588702978E+03  0.46999998093E+01 0.  1.
</event>
<event>
 5   0  0.8291252E-03  0.9234472E+03  0.7818609E-02  0.9396737E-01
        1   -1    0    0  501    0  0.00000000000E+00  0.00000000000E+00  0.75635413118E+03  0.75635413120E+03  0.50400001928E-02 0. -1.
       -1   -1    0    0    0  501  0.00000000000E+00  0.00000000000E+00 -0.28186360302E+03  0.28186360307E+03  0.50400001928E-02 0.  1.
    10030    2    1    2    0    0  0.00000000000E+00  0.00000000000E+00  0.47449052816E+03  0.10382177343E+04  0.92344723857E+03 0.  0.
        1    1    3    3  502    0 -0.18991699528E+02  0.30277419954E+03  0.62858005599E+03  0.69795829917E+03  0.50400001928E-02 0. -1.
       -1    1    3    3    0  502  0.18991699528E+02 -0.30277419954E+03 -0.15408952784E+03  0.34025943510E+03  0.50400001928E-02 0.  1.
</event>
<event>
 5   0  0.1441195E-02  0.9242650E+03  0.7818609E-02  0.9395747E-01
        2   -1    0    0  501    0  0.00000000000E+00  0.00000000000E+00  0.74369740113E+03  0.74369740114E+03  0.25500000920E-02 0. -1.
       -2   -1    0    0    0  501  0.00000000000E+00  0.00000000000E+00 -0.28716845049E+03  0.28716845050E+03  0.25500000920E-02 0.  1.
    10030    2    1    2    0    0  0.00000000000E+00  0.00000000000E+00  0.45652895064E+03  0.10308658516E+04  0.92426496271E+03 0.  0.
        5    1    3    3  502    0  0.30199279530E+03  0.17030529820E+03 -0.11248988093E+03  0.36452655091E+03  0.46999998093E+01 0.  1.
       -5    1    3    3    0  502 -0.30199279530E+03 -0.17030529820E+03  0.56901883158E+03  0.66633930073E+03  0.46999998093E+01 0. -1.
</event>
<event>
 5   0  0.8885324E-03  0.9074405E+03  0.7818609E-02  0.9416328E-01
        1   -1    0    0  501    0  0.00000000000E+00  0.00000000000E+00  0.54680485967E+03  0.54680485970E+03  0.50400001928E-02 0. -1.
       -1   -1    0    0    0  501  0.00000000000E+00  0.00000000000E+00 -0.37648177614E+03  0.37648177618E+03  0.50400001928E-02 0.  1.
    10030    2    1    2    0    0  0.00000000000E+00  0.00000000000E+00  0.17032308353E+03  0.92328663587E+03  0.90744049899E+03 0.  0.
        2    1    3    3  502    0  0.22106794863E+03 -0.36232862404E+03 -0.77978640103E+02  0.43154807152E+03  0.25500000920E-02 0.  1.
       -2    1    3    3    0  502 -0.22106794863E+03  0.36232862404E+03  0.24830172363E+03  0.49173856436E+03  0.25500000920E-02 0. -1.
</event>
<event>
 5   0  0.8738044E-03  0.9272100E+03  0.7818609E-02  0.9392193E-01
       -1   -1    0    0    0  501  0.00000000000E+00  0.00000000000E+00  0.47259172388E+03  0.47259172391E+03  0.50400001928E-02 0.  1.
        1   -1    0    0  501    0  0.00000000000E+00  0.00000000000E+00 -0.45478919204E+03  0.45478919207E+03  0.50400001928E-02 0. -1.
    10030    2    1    2    0    0  0.00000000000E+00  0.00000000000E+00  0.17802531838E+02  0.92738091598E+03  0.92721002647E+03 0.  0.
        3    1    3    3  502    0  0.73896014853E+02  0.37064499320E+03  0.27744891927E+03  0.46884565158E+03  0.10100000352E+00 0.  1.
       -3    1    3    3    0  502 -0.73896014853E+02 -0.37064499320E+03 -0.25964638743E+03  0.45853526441E+03  0.10100000352E+00 0. -1.
</event>
<event>
 5   0  0.1440615E-02  0.9137566E+03  0.7818609E-02  0.9408547E-01
       -2   -1    0    0    0  501  0.00000000000E+00  0.00000000000E+00  0.20376477162E+03  0.20376477164E+03  0.25500000920E-02 0. -1.
        2   -1    0    0  501    0  0.00000000000E+00  0.00000000000E+00 -0.10244055684E+04  0.10244055684E+04  0.25500000920E-02 0.  1.
    10030    2    1    2    0    0  0.00000000000E+00  0.00000000000E+00 -0.82064079678E+03  0.12281703400E+04  0.91375656868E+03 0.  0.
        3    1    3    3  502    0 -0.18799640489E+03 -0.40680453629E+03 -0.52982480125E+03  0.69393581059E+03  0.10100000352E+00 0. -1.
       -3    1    3    3    0  502  0.18799640489E+03  0.40680453629E+03 -0.29081599554E+03  0.53423452945E+03  0.10100000352E+00 0.  1.
</event>
<event>
 5   0  0.1441195E-02  0.9055326E+03  0.7818609E-02  0.9418692E-01
        2   -1    0    0  501    0  0.00000000000E+00  0.00000000000E+00  0.54233207031E+03  0.54233207032E+03  0.25500000920E-02 0.  1.
       -2   -1    0    0    0  501  0.00000000000E+00  0.00000000000E+00 -0.37799227473E+03  0.37799227474E+03  0.25500000920E-02 0. -1.
    10030    2    1    2    0    0  0.00000000000E+00  0.00000000000E+00  0.16433979558E+03  0.92032434505E+03  0.90553262320E+03 0.  0.
        5    1    3    3  502    0 -0.31914005993E+03  0.26100427372E+03  0.27231317288E+03  0.49411553596E+03  0.46999998093E+01 0.  1.
       -5    1    3    3    0  502  0.31914005993E+03 -0.26100427372E+03 -0.10797337730E+03  0.42620880910E+03  0.46999998093E+01 0. -1.
</event>
<event>
 5   0  0.1483326E-02  0.8662351E+03  0.7818609E-02  0.9468802E-01
       -2   -1    0    0    0  501  0.00000000000E+00  0.00000000000E+00  0.54440777201E+03  0.54440777202E+03  0.25500000920E-02 0. -1.
        2   -1    0    0  501    0  0.00000000000E+00  0.00000000000E+00 -0.34457778685E+03  0.34457778686E+03  0.25500000920E-02 0.  1.
    10030    2    1    2    0    0  0.00000000000E+00  0.00000000000E+00  0.19982998516E+03  0.88898555888E+03  0.86623513028E+03 0.  0.
        1    1    3    3  502    0  0.32271074282E+03  0.13236790882E+03  0.36342170637E+03  0.50372494826E+03  0.50400001928E-02 0. -1.
       -1    1    3    3    0  502 -0.32271074282E+03 -0.13236790882E+03 -0.16359172121E+03  0.38526061062E+03  0.50400001928E-02 0.  1.
</event>
<event>
 5   0  0.8612969E-03  0.9213314E+03  0.7818609E-02  0.9399302E-01
       -1   -1    0    0    0  501  0.00000000000E+00  0.00000000000E+00  0.65051443785E+03  0.65051443787E+03  0.50400001928E-02 0. -1.
        1   -1    0    0  501    0  0.00000000000E+00  0.00000000000E+00 -0.32622317882E+03  0.32622317886E+03  0.50400001928E-02 0.  1.
    10030    2    1    2    0    0  0.00000000000E+00  0.00000000000E+00  0.32429125903E+03  0.97673761672E+03  0.92133140142E+03 0.  0.
        4    1    3    3  502    0  0.10182066640E+03  0.44179945778E+03  0.24864311228E+03  0.51708724524E+03  0.12699999809E+01 0.  1.
       -4    1    3    3    0  502 -0.10182066640E+03 -0.44179945778E+03  0.75648146748E+02  0.45965037149E+03  0.12699999809E+01 0. -1.
</event>
<event>
 5   0  0.8738044E-03  0.9078280E+03  0.7818609E-02  0.9415849E-01
        1   -1    0    0  501    0  0.00000000000E+00  0.00000000000E+00  0.37809351590E+03  0.37809351593E+03  0.50400001928E-02 0. -1.
       -1   -1    0    0    0  501  0.00000000000E+00  0.00000000000E+00 -0.54493908280E+03  0.54493908282E+03  0.50400001928E-02 0.  1.
    10030    2    1    2    0    0  0.00000000000E+00  0.00000000000E+00 -0.16684556690E+03  0.92303259875E+03  0.90782803171E+03 0.  0.
        3    1    3    3  502    0 -0.31559151757E+03  0.22308511887E+03 -0.32547070086E+03  0.50526840743E+03  0.10100000352E+00 0.  1.
       -3    1    3    3    0  502  0.31559151757E+03 -0.22308511887E+03  0.15862513396E+03  0.41776419132E+03  0.10100000352E+00 0. -1.
</event>
<event>
 5   0  0.8291252E-03  0.8668809E+03  0.7818609E-02  0.9467956E-01
        1   -1    0    0  501    0  0.00000000000E+00  0.00000000000E+00  0.16478299594E+03  0.16478299601E+03  0.50400001928E-02 0. -1.
       -1   -1    0    0    0  501  0.00000000000E+00  0.00000000000E+00 -0.11401093022E+04  0.11401093022E+04  0.50400001928E-02 0.  1.
    10030    2    1    2    0    0  0.00000000000E+00  0.00000000000E+00 -0.97532630626E+03  0.13048922982E+04  0.86688090663E+03 0.  0.
        1    1    3    3  502    0  0.26765023460E+03  0.29916025738E+03 -0.24152862944E+03  0.46847581213E+03  0.50400001928E-02 0. -1.
       -1    1    3    3    0  502 -0.26765023460E+03 -0.29916025738E+03 -0.73379767682E+03  0.83641648610E+03  0.50400001928E-02 0.  1.
</event>
<event>
 5   0  0.1535906E-02  0.8829805E+03  0.7818609E-02  0.9447110E-01
        2   -1    0    0  501    0  0.00000000000E+00  0.00000000000E+00  0.27251373862E+03  0.27251373863E+03  0.25500000920E-02 0. -1.
       -2   -1    0    0    0  501  0.00000000000E+00  0.00000000000E+00 -0.71524338143E+03  0.71524338143E+03  0.25500000920E-02 0.  1.
    10030    2    1    2    0    0  0.00000000000E+00  0.00000000000E+00 -0.44272964281E+03  0.98775712006E+03  0.88298051599E+03 0.  0.
        2    1    3    3  502    0 -0.13666818177E+03 -0.33431364141E+03 -0.50540342049E+03  0.62118952035E+03  0.25500000920E-02 0.  1.
       -2    1    3    3    0  502  0.13666818177E+03  0.33431364141E+03  0.62673777683E+02  0.36656759971E+03  0.25500000920E-02 0. -1.
</event>
<event>
 5   0  0.8291252E-03  0.9033818E+03  0.7818609E-02  0.9421364E-01
       -1   -1    0    0    0  501  0.00000000000E+00  0.00000000000E+00  0.95806354180E+03  0.95806354182E+03  0.50400001928E-02 0. -1.
        1   -1    0    0  501    0  0.00000000000E+00  0.00000000000E+00 -0.21295523886E+03  0.21295523892E+03  0.50400001928E-02 0.  1.
    10030    2    1    2    0    0  0.00000000000E+00  0.00000000000E+00  0.74510830294E+03  0.11710187807E+04  0.90338175857E+03 0.  0.
        1    1    3    3  502    0  0.38173509757E+03 -0.65369989037E+02  0.71247344619E+02  0.39379068592E+03  0.50400001928E-02 0.  1.
       -1    1    3    3    0  502 -0.38173509757E+03  0.65369989037E+02  0.67386095833E+03  0.77722809481E+03  0.50400001928E-02 0. -1.
</event>
<event>
 5   0  0.5770125E-03  0.8935858E+03  0.7818609E-02  0.9433635E-01
       -4   -1    0    0    0  501  0.00000000000E+00  0.00000000000E+00  0.11051274123E+04  0.11051281421E+04  0.12699999809E+01 0.  1.
        4   -1    0    0  501    0  0.00000000000E+00  0.00000000000E+00 -0.18063125644E+03  0.18063572100E+03  0.12699999809E+01 0. -1.
    10030    2    1    2    0    0  0.00000000000E+00  0.00000000000E+00  0.92449615589E+03  0.12857638631E+04  0.89358579292E+03 0.  0.
        4    1    3    3  502    0 -0.13613492482E+03  0.34424247614E+03  0.10227840376E+03  0.38405479415E+03  0.12699999809E+01 0. -1.
       -4    1    3    3    0  502  0.13613492482E+03 -0.34424247614E+03  0.82221775213E+03  0.90170906891E+03  0.12699999809E+01 0.  1.
</event>
<event>
 5   0  0.8612969E-03  0.9082302E+03  0.7818609E-02  0.9415351E-01
        1   -1    0    0  501    0  0.00000000000E+00  0.00000000000E+00  0.50369811004E+03  0.50369811006E+03  0.50400001928E-02 0.  1.
       -1   -1    0    0    0  501  0.00000000000E+00  0.00000000000E+00 -0.40941298304E+03  0.40941298307E+03  0.50400001928E-02 0. -1.
    10030    2    1    2    0    0  0.00000000000E+00  0.00000000000E+00  0.94285126995E+02  0.91311109313E+03  0.90823024792E+03 0.  0.
        4    1    3    3  502    0  0.36801418219E+03 -0.24135154451E+03  0.15969923205E+03  0.46817781232E+03  0.12699999809E+01 0. -1.
       -4    1    3    3    0  502 -0.36801418219E+03  0.24135154451E+03 -0.65414105058E+02  0.44493328081E+03  0.12699999809E+01 0.  1.
</event>
<event>
 5   0  0.1440615E-02  0.8535876E+03  0.7818609E-02  0.9485534E-01
       -2   -1    0    0    0  501  0.00000000000E+00  0.00000000000E+00  0.15498940424E+03  0.15498940426E+03  0.25500000920E-02 0.  1.
        2   -1    0    0  501    0  0.00000000000E+00  0.00000000000E+00 -0.11752605382E+04  0.11752605382E+04  0.25500000920E-02 0. -1.
    10030    2    1    2    0    0  0.00000000000E+00  0.00000000000E+00 -0.10202711339E+04  0.13302499424E+04  0.85358756001E+03 0.  0.
        3    1    3    3  502    0 -0.74356079301E+02 -0.39708764669E+03 -0.72464092632E+03  0.82964565206E+03  0.10100000352E+00 0.  1.
       -3    1    3    3    0  502  0.74356079301E+02  0.39708764669E+03 -0.29563020759E+03  0.50060429036E+03  0.10100000352E+00 0. -1.
</event>
<event>
 5   0  0.1440615E-02  0.7738096E+03  0.7818609E-02  0.9598720E-01
        2   -1    0    0  501    0  0.00000000000E+00  0.00000000000E+00  0.97777661178E+03  0.97777661178E+03  0.25500000920E-02 0.  1.
       -2   -1    0    0    0  501  0.00000000000E+00  0.00000000000E+00 -0.15309766691E+03  0.15309766694E+03  0.25500000920E-02 0. -1.
    10030    2    1    2    0    0  0.00000000000E+00  0.00000000000E+00  0.82467894486E+03  0.11308742787E+04  0.77380958392E+03 0.  0.
        3    1    3    3  502    0  0.30743600940E+03  0.81566303493E+02  0.90407179514E+02  0.33067118116E+03  0.10100000352E+00 0. -1.
       -3    1    3    3    0  502 -0.30743600940E+03 -0.81566303493E+02  0.73427176535E+03  0.80020309755E+03  0.10100000352E+00 0.  1.
</event>
<event>
 5   0  0.8885324E-03  0.8984549E+03  0.7818609E-02  0.9427515E-01
       -1   -1    0    0    0  501  0.00000000000E+00  0.00000000000E+00  0.44066559755E+03  0.44066559758E+03  0.50400001928E-02 0. -1.
        1   -1    0    0  501    0  0.00000000000E+00  0.00000000000E+00 -0.45795564823E+03  0.45795564826E+03  0.50400001928E-02 0.  1.
    10030    2    1    2    0    0  0.00000000000E+00  0.00000000000E+00 -0.17290050680E+02  0.89862124584E+03  0.89845489459E+03 0.  0.
        2    1    3    3  502    0  0.11644167734E+03  0.14739624350E+03  0.39950035546E+03  0.44145764331E+03  0.25500000920E-02 0. -1.
       -2    1    3    3    0  502 -0.11644167734E+03 -0.14739624350E+03 -0.41679040614E+03  0.45716360253E+03  0.25500000920E-02 0.  1.
</event>
<event>
 5   0  0.5770125E-03  0.8906308E+03  0.7818609E-02  0.9437370E-01
        3   -1    0    0  501    0  0.00000000000E+00  0.00000000000E+00  0.22855127805E+03  0.22855130036E+03  0.10100000352E+00 0. -1.
       -3   -1    0    0    0  501  0.00000000000E+00  0.00000000000E+00 -0.86766430283E+03  0.86766430871E+03  0.10100000352E+00 0.  1.
    10030    2    1    2    0    0  0.00000000000E+00  0.00000000000E+00 -0.63911302478E+03  0.10962156091E+04  0.89063078946E+03 0.  0.
        2    1    3    3  502    0  0.30828392009E+02 -0.34875119924E+03  0.19152345991E+02  0.35063456915E+03  0.25500000920E-02 0. -1.
       -2    1    3    3    0  502 -0.30828392009E+02  0.34875119924E+03 -0.65826537077E+03  0.74558103992E+03  0.25500000920E-02 0.  1.
</event>
<event>
 5   0  0.8524692E-03  0.8978494E+03  0.7818609E-02  0.9428274E-01
       -1   -1    0    0    0  501  0.00000000000E+00  0.00000000000E+00  0.25510386160E+03  0.25510386165E+03  0.50400001928E-02 0. -1.
        1   -1    0    0  501    0  0.00000000000E+00  0.00000000000E+00 -0.79000527388E+03  0.79000527390E+03  0.50400001928E-02 0.  1.
    10030    2    1    2    0    0  0.00000000000E+00  0.00000000000E+00 -0.53490141229E+03  0.10451091355E+04  0.89784942186E+03 0.  0.
        5    1    3    3  502    0 -0.42853749518E+03 -0.43480048679E+02 -0.41457950524E+03  0.59785713642E+03  0.46999998093E+01 0.  1.
       -5    1    3    3    0  502  0.42853749518E+03  0.43480048679E+02 -0.12032190704E+03  0.44725199912E+03  0.46999998093E+01 0. -1.
</event>
<event>
 5   0  0.1441195E-02  0.8884074E+03  0.7818609E-02  0.9440190E-01
        2   -1    0    0  501    0  0.00000000000E+00  0.00000000000E+00  0.67785064597E+03  0.67785064597E+03  0.25500000920E-02 0.  1.
       -2   -1    0    0    0  501  0.00000000000E+00  0.00000000000E+00 -0.29109202324E+03  0.29109202325E+03  0.25500000920E-02 0. -1.
    10030    2    1    2    0    0  0.00000000000E+00  0.00000000000E+00  0.38675862273E+03  0.96894266922E+03  0.88840737502E+03 0.  0.
        5    1    3    3  502    0  0.12976798464E+03 -0.28725139709E+03  0.53470565925E+03  0.62071356277E+03  0.46999998093E+01 0.  1.
       -5    1    3    3    0  502 -0.12976798464E+03  0.28725139709E+03 -0.14794703652E+03  0.34822910645E+03  0.46999998093E+01 0. -1.
</event>
<event>
 5   0  0.1483326E-02  0.8882785E+03  0.7818609E-02  0.9440354E-01
        2   -1    0    0  501    0  0.00000000000E+00  0.00000000000E+00  0.13325525601E+04  0.13325525601E+04  0.25500000920E-02 0. -1.
       -2   -1    0    0    0  501  0.00000000000E+00  0.00000000000E+00 -0.14803142854E+03  0.14803142857E+03  0.25500000920E-02 0.  1.
    10030    2    1    2    0    0  0.00000000000E+00  0.00000000000E+00  0.11845211315E+04  0.14805839887E+04  0.88827846782E+03 0.  0.
        1    1    3    3  502    0  0.33747469373E+02  0.40397900983E+03  0.28983032283E+03  0.49833678184E+03  0.50400001928E-02 0.  1.
       -1    1    3    3    0  502 -0.33747469373E+02 -0.40397900983E+03  0.89469080871E+03  0.98224720682E+03  0.50400001928E-02 0. -1.
</event>
<event>
 5   0  0.8524692E-03  0.8956023E+03  0.7818609E-02  0.9431095E-01
       -1   -1    0    0    0  501  0.00000000000E+00  0.00000000000E+00  0.49089784657E+03  0.49089784660E+03  0.50400001928E-02 0. -1.
        1   -1    0    0  501    0  0.00000000000E+00  0.00000000000E+00 -0.40848800050E+03  0.40848800053E+03  0.50400001928E-02 0.  1.
    10030    2    1    2    0    0  0.00000000000E+00  0.00000000000E+00  0.82409846068E+02  0.89938584713E+03  0.89560232207E+03 0.  0.
        5    1    3    3  502    0 -0.14936397382E+03  0.34966414616E+02  0.46366196810E+03  0.48840224967E+03  0.46999998093E+01 0. -1.
       -5    1    3    3    0  502  0.14936397382E+03 -0.34966414616E+02 -0.38125212203E+03  0.41098359746E+03  0.46999998093E+01 0.  1.
</event>
<event>
 5   0  0.8885324E-03  0.8906612E+03  0.7818609E-02  0.9437331E-01
        1   -1    0    0  501    0  0.00000000000E+00  0.00000000000E+00  0.46033097615E+03  0.46033097617E+03  0.50400001928E-02 0.  1.
       -1   -1    0    0    0  501  0.00000000000E+00  0.00000000000E+00 -0.43081905464E+03  0.43081905467E+03  0.50400001928E-02 0. -1.
    10030    2    1    2    0    0  0.00000000000E+00  0.00000000000E+00  0.29511921504E+02  0.89115003085E+03  0.89066122851E+03 0.  0.
        2    1    3    3  502    0 -0.38962004959E+03 -0.85327501366E+02  0.21294240587E+03  0.45213829053E+03  0.25500000920E-02 0.  1.
       -2    1    3    3    0  502  0.38962004959E+03  0.85327501366E+02 -0.18343048437E+03  0.43901174032E+03  0.25500000920E-02 0. -1.
</event>
<event>
 5   0  0.1454652E-02  0.8854610E+03  0.7818609E-02  0.9443941E-01
       -2   -1    0    0    0  501  0.00000000000E+00  0.00000000000E+00  0.32450373385E+03  0.32450373386E+03  0.25500000920E-02 0.  1.
        2   -1    0    0  501    0  0.00000000000E+00  0.00000000000E+00 -0.60403090005E+03  0.60403090006E+03  0.25500000920E-02 0. -1.
    10030    2    1    2    0    0  0.00000000000E+00  0.00000000000E+00 -0.27952716620E+03  0.92853463392E+03  0.88546097020E+03 0.  0.
        4    1    3    3  502    0 -0.14687339974E+03 -0.38017394552E+03  0.41578253980E+02  0.40967595549E+03  0.12699999809E+01 0.  1.
       -4    1    3    3    0  502  0.14687339974E+03  0.38017394552E+03 -0.32110542018E+03  0.51885867842E+03  0.12699999809E+01 0. -1.
</event>
<event>
 5   0  0.1440615E-02  0.9067583E+03  0.7818609E-02  0.9417172E-01
        2   -1    0    0  501    0  0.00000000000E+00  0.00000000000E+00  0.17148146173E+04  0.17148146173E+04  0.25500000920E-02 0. -1.
       -2   -1    0    0    0  501  0.00000000000E+00  0.00000000000E+00 -0.11986872501E+03  0.11986872504E+03  0.25500000920E-02 0.  1.
    10030    2    1    2    0    0  0.00000000000E+00  0.00000000000E+00  0.15949458923E+04  0.18346833424E+04  0.90675827394E+03 0.  0.
        3    1    3    3  502    0 -0.34280644610E+03  0.64902577564E+02  0.21166689593E+03  0.40808269884E+03  0.10100000352E+00 0.  1.
       -3    1    3    3    0  502  0.34280644610E+03 -0.64902577564E+02  0.13832789964E+04  0.14266006435E+04  0.10100000352E+00 0. -1.
</event>
<event>
 5   0  0.1441195E-02  0.9090434E+03  0.7818609E-02  0.9414347E-01
       -2   -1    0    0    0  501  0.00000000000E+00  0.00000000000E+00  0.17523259605E+03  0.17523259607E+03  0.25500000920E-02 0.  1.
        2   -1    0    0  501    0  0.00000000000E+00  0.00000000000E+00 -0.11789470718E+04  0.11789470718E+04  0.25500000920E-02 0. -1.
    10030    2    1    2    0    0  0.00000000000E+00  0.00000000000E+00 -0.10037144757E+04  0.13541796679E+04  0.90904335653E+03 0.  0.
        5    1    3    3  502    0  0.71183378524E+02  0.59332789170E+02  0.16097375071E+03  0.18580121545E+03  0.46999998093E+01 0.  1.
       -5    1    3    3    0  502 -0.71183378524E+02 -0.59332789170E+02 -0.11646882264E+04  0.11683784524E+04  0.46999998093E+01 0. -1.
</event>
<event>
 5   0  0.1441195E-02  0.8885311E+03  0.7818609E-02  0.9440033E-01
       -2   -1    0    0    0  501  0.00000000000E+00  0.00000000000E+00  0.19570286237E+03  0.19570286238E+03  0.25500000920E-02 0.  1.
        2   -1    0    0  501    0  0.00000000000E+00  0.00000000000E+00 -0.10085283487E+04  0.10085283487E+04  0.25500000920E-02 0. -1.
    10030    2    1    2    0    0  0.00000000000E+00  0.00000000000E+00 -0.81282548628E+03  0.12042312110E+04  0.88853111284E+03 0.  0.
        5    1    3    3  502    0 -0.20356568662E+02  0.13913706825E+03 -0.97753583149E+03  0.98760918662E+03  0.46999998093E+01 0. -1.
       -5    1    3    3    0  502  0.20356568662E+02 -0.13913706825E+03  0.16471034521E+03  0.21662202442E+03  0.46999998093E+01 0.  1.
</event>
<event>
 5   0  0.1441195E-02  0.8709535E+03  0.7818609E-02  0.9462637E-01
        2   -1    0    0  501    0  0.00000000000E+00  0.00000000000E+00  0.54035107415E+03  0.54035107416E+03  0.25500000920E-02 0. -1.
       -2   -1    0    0    0  501  0.00000000000E+00  0.00000000000E+00 -0.35095703684E+03  0.35095703685E+03  0.25500000920E-02 0.  1.
    10030    2    1    2    0    0  0.00000000000E+00  0.00000000000E+00  0.18939403731E+03  0.89130811101E+03  0.87095352768E+03 0.  0.
        5    1    3    3  502    0  0.27960444032E+03 -0.12038492218E+03 -0.22394240060E+03  0.37794637360E+03  0.46999998093E+01 0.  1.
       -5    1    3    3    0  502 -0.27960444032E+03  0.12038492218E+03  0.41333643791E+03  0.51336173741E+03  0.46999998093E+01 0. -1.
</event>
<event>
 5   0  0.8524692E-03  0.8806889E+03  0.7818609E-02  0.9450048E-01
        1   -1    0    0  501    0  0.00000000000E+00  0.00000000000E+00  0.69682630334E+03  0.69682630335E+03  0.50400001928E-02 0.  1.
       -1   -1    0    0    0  501  0.00000000000E+00  0.00000000000E+00 -0.27826625924E+03  0.27826625929E+03  0.50400001928E-02 0. -1.
    10030    2    1    2    0    0  0.00000000000E+00  0.00000000000E+00  0.41856004409E+03  0.97509256264E+03  0.88068893215E+03 0.  0.
        5    1    3    3  502    0  0.30571576217E+02  0.38356064600E+03  0.44630147724E+03  0.58928812054E+03  0.46999998093E+01 0. -1.
       -5    1    3    3    0  502 -0.30571576217E+02 -0.38356064600E+03 -0.27741433147E+02  0.38580444210E+03  0.46999998093E+01 0.  1.
</event>
<event>
 5   0  0.1483326E-02  0.8911446E+03  0.7818609E-02  0.9436719E-01
        2   -1    0    0  501    0  0.00000000000E+00  0.00000000000E+00  0.16934454428E+04  0.16934454428E+04  0.25500000920E-02 0. -1.
       -2   -1    0    0    0  501  0.00000000000E+00  0.00000000000E+00 -0.11723711209E+03  0.11723711212E+03  0.25500000920E-02 0.  1.
    10030    2    1    2    0    0  0.00000000000E+00  0.00000000000E+00  0.15762083307E+04  0.18106825549E+04  0.89114455220E+03 0.  0.
        1    1    3    3  502    0  0.71296132342E+02  0.20188835519E+03 -0.58641391857E+01  0.21418784887E+03  0.50400001928E-02 0.  1.
       -1    1    3    3    0  502 -0.71296132342E+02 -0.20188835519E+03  0.15820724699E+04  0.15964947061E+04  0.50400001928E-02 0. -1.
</event>
<event>
 5   0  0.8885324E-03  0.9131303E+03  0.7818609E-02  0.9409315E-01
        1   -1    0    0  501    0  0.00000000000E+00  0.00000000000E+00  0.15107336642E+04  0.15107336642E+04  0.50400001928E-02 0. -1.
       -1   -1    0    0    0  501  0.00000000000E+00  0.00000000000E+00 -0.13798047548E+03  0.13798047557E+03  0.50400001928E-02 0.  1.
    10030    2    1    2    0    0  0.00000000000E+00  0.00000000000E+00  0.13727531888E+04  0.16487141398E+04  0.91313032892E+03 0.  0.
        2    1    3    3  502    0  0.38373228847E+03 -0.16738557410E+02  0.24072397229E+03  0.45329756161E+03  0.25500000920E-02 0.  1.
       -2    1    3    3    0  502 -0.38373228847E+03  0.16738557410E+02  0.11320292165E+04  0.11954165782E+04  0.25500000920E-02 0. -1.
</event>
<event>
 5   0  0.8885324E-03  0.8771031E+03  0.7818609E-02  0.9454665E-01
        1   -1    0    0  501    0  0.00000000000E+00  0.00000000000E+00  0.88564300201E+03  0.88564300203E+03  0.50400001928E-02 0.  1.
       -1   -1    0    0    0  501  0.00000000000E+00  0.00000000000E+00 -0.21716136261E+03  0.21716136267E+03  0.50400001928E-02 0. -1.
    10030    2    1    2    0    0  0.00000000000E+00  0.00000000000E+00  0.66848163940E+03  0.11028043647E+04  0.87710305243E+03 0.  0.
        2    1    3    3  502    0  0.11142064937E+03  0.13775560540E+03  0.83864052479E+03  0.85715173555E+03  0.25500000920E-02 0.  1.
       -2    1    3    3    0  502 -0.11142064937E+03 -0.13775560540E+03 -0.17015888539E+03  0.24565262915E+03  0.25500000920E-02 0. -1.
</event>
<event>
 5   0  0.8738044E-03  0.9099511E+03  0.7818609E-02  0.9413227E-01
       -1   -1    0    0    0  501  0.00000000000E+00  0.00000000000E+00  0.15038761281E+03  0.15038761289E+03  0.50400001928E-02 0. -1.
        1   -1    0    0  501    0  0.00000000000E+00  0.00000000000E+00 -0.13764612954E+04  0.13764612954E+04  0.50400001928E-02 0.  1.
    10030    2    1    2    0    0  0.00000000000E+00  0.00000000000E+00 -0.12260736826E+04  0.15268489083E+04  0.90995105013E+03 0.  0.
        3    1    3    3  502    0  0.33988277429E+03  0.75508927885E+02 -0.11044798130E+04  0.11580576696E+04  0.10100000352E+00 0.  1.
       -3    1    3    3    0  502 -0.33988277429E+03 -0.75508927885E+02 -0.12159386956E+03  0.36879123873E+03  0.10100000352E+00 0. -1.
</event>
<event>
 5   0  0.1483326E-02  0.9378883E+03  0.7818609E-02  0.9379420E-01
       -2   -1    0    0    0  501  0.00000000000E+00  0.00000000000E+00  0.12919404370E+03  0.12919404372E+03  0.25500000920E-02 0. -1.
        2   -1    0    0  501    0  0.00000000000E+00  0.00000000000E+00 -0.17021575974E+04  0.17021575974E+04  0.25500000920E-02 0.  1.
    10030    2    1    2    0    0  0.00000000000E+00  0.00000000000E+00 -0.15729635537E+04  0.18313516411E+04  0.93788831540E+03 0.  0.
        1    1    3    3  502    0 -0.29051957215E+03  0.58769278056E+02 -0.76912116933E+02  0.30622038404E+03  0.50400001928E-02 0. -1.
       -1    1    3    3    0  502  0.29051957215E+03 -0.58769278056E+02 -0.14960514367E+04  0.15251312570E+04  0.50400001928E-02 0.  1.
</event>
<event>
 5   0  0.8612969E-03  0.1053962E+04  0.7818609E-02  0.9251263E-01
        1   -1    0    0  501    0  0.00000000000E+00  0.00000000000E+00  0.16992813376E+03  0.16992813383E+03  0.50400001928E-02 0. -1.
       -1   -1    0    0    0  501  0.00000000000E+00  0.00000000000E+00 -0.16342733471E+04  0.16342733471E+04  0.50400001928E-02 0.  1.
    10030    2    1    2    0    0  0.00000000000E+00  0.00000000000E+00 -0.14643452133E+04  0.18042014809E+04  0.10539620866E+04 0.  0.
        4    1    3    3  502    0  0.46044079212E+00  0.32770075530E+03 -0.25705219100E+02  0.32871015838E+03  0.12699999809E+01 0. -1.
       -4    1    3    3    0  502 -0.46044079212E+00 -0.32770075530E+03 -0.14386399942E+04  0.14754913225E+04  0.12699999809E+01 0.  1.
</event>
<event>
 5   0  0.8612969E-03  0.9115959E+03  0.7818609E-02  0.9411201E-01
       -1   -1    0    0    0  501  0.00000000000E+00  0.00000000000E+00  0.10652792258E+03  0.10652792270E+03  0.50400001928E-02 0. -1.
        1   -1    0    0  501    0  0.00000000000E+00  0.00000000000E+00 -0.19502094911E+04  0.19502094912E+04  0.50400001928E-02 0.  1.
    10030    2    1    2    0    0  0.00000000000E+00  0.00000000000E+00 -0.18436815686E+04  0.20567374139E+04  0.91159588813E+03 0.  0.
        4    1    3    3  502    0 -0.41370838939E+02 -0.27075609741E+03 -0.17438195839E+04  0.17651993555E+04  0.12699999809E+01 0.  1.
       -4    1    3    3    0  502  0.41370838939E+02  0.27075609741E+03 -0.99861984716E+02  0.29153805839E+03  0.12699999809E+01 0. -1.
</event>
<event>
 5   0  0.8524692E-03  0.8898670E+03  0.7818609E-02  0.9438338E-01
        1   -1    0    0  501    0  0.00000000000E+00  0.00000000000E+00  0.83024538229E+03  0.83024538231E+03  0.50400001928E-02 0.  1.
       -1   -1    0    0    0  501  0.00000000000E+00  0.00000000000E+00 -0.23844254708E+03  0.23844254714E+03  0.50400001928E-02 0. -1.
    10030    2    1    2    0    0  0.00000000000E+00  0.00000000000E+00  0.59180283521E+03  0.10686879294E+04  0.88986700960E+03 0.  0.
        5    1    3    3  502    0 -0.21684845220E+03 -0.25138702142E+03  0.65160448061E+03  0.73132015897E+03  0.46999998093E+01 0.  1.
       -5    1    3    3    0  502  0.21684845220E+03  0.25138702142E+03 -0.59801645404E+02  0.33736777047E+03  0.46999998093E+01 0. -1.
</event>
<event>
 5   0  0.1535906E-02  0.8623088E+03  0.7818609E-02  0.9473964E-01
       -2   -1    0    0    0  501  0.00000000000E+00  0.00000000000E+00  0.68881166648E+03  0.68881166649E+03  0.25500000920E-02 0.  1.
        2   -1    0    0  501    0  0.00000000000E+00  0.00000000000E+00 -0.26987656333E+03  0.26987656334E+03  0.25500000920E-02 0. -1.
    10030    2    1    2    0    0  0.00000000000E+00  0.00000000000E+00  0.41893510315E+03  0.95868822983E+03  0.86230882018E+03 0.  0.
        2    1    3    3  502    0  0.40189731045E+03 -0.11994264600E+03  0.98366059703E+02  0.43079411346E+03  0.25500000920E-02 0. -1.
       -2    1    3    3    0  502 -0.40189731045E+03  0.11994264600E+03  0.32056904345E+03  0.52789411638E+03  0.25500000920E-02 0.  1.
</event>
<event>
 5   0  0.1454652E-02  0.8859152E+03  0.7818609E-02  0.9443361E-01
        2   -1    0    0  501    0  0.00000000000E+00  0.00000000000E+00  0.14738978918E+04  0.14738978919E+04  0.25500000920E-02 0.  1.
       -2   -1    0    0    0  501  0.00000000000E+00  0.00000000000E+00 -0.13312415782E+03  0.13312415784E+03  0.25500000920E-02 0. -1.
    10030    2    1    2    0    0  0.00000000000E+00  0.00000000000E+00  0.13407737340E+04  0.16070220497E+04  0.88591515526E+03 0.  0.
        4    1    3    3  502    0  0.10067655399E+01 -0.19583527833E+03 -0.50325683397E+02  0.20220474061E+03  0.12699999809E+01 0. -1.
       -4    1    3    3    0  502 -0.10067655399E+01  0.19583527833E+03  0.13910994174E+04  0.14048173091E+04  0.12699999809E+01 0.  1.
</event>
<event>
 5   0  0.1441195E-02  0.8881769E+03  0.7818609E-02  0.9440483E-01
        2   -1    0    0  501    0  0.00000000000E+00  0.00000000000E+00  0.65025714336E+03  0.65025714337E+03  0.25500000920E-02 0.  1.
       -2   -1    0    0    0  501  0.00000000000E+00  0.00000000000E+00 -0.30328701368E+03  0.30328701369E+03  0.25500000920E-02 0. -1.
    10030    2    1    2    0    0  0.00000000000E+00  0.00000000000E+00  0.34697012969E+03  0.95354415705E+03  0.88817689035E+03 0.  0.
        5    1    3    3  502    0  0.34667623580E+03  0.15699276530E+03 -0.72181819645E+02  0.38738023428E+03  0.46999998093E+01 0. -1.
       -5    1    3    3    0  502 -0.34667623580E+03 -0.15699276530E+03  0.41915194933E+03  0.56616392277E+03  0.46999998093E+01 0.  1.
</event>
<event>
 5   0  0.1440615E-02  0.9012465E+03  0.7818609E-02  0.9424025E-01
       -2   -1    0    0    0  501  0.00000000000E+00  0.00000000000E+00  0.35778068405E+03  0.35778068406E+03  0.25500000920E-02 0. -1.
        2   -1    0    0  501    0  0.00000000000E+00  0.00000000000E+00 -0.56755808197E+03  0.56755808198E+03  0.25500000920E-02 0.  1.
    10030    2    1    2    0    0  0.00000000000E+00  0.00000000000E+00 -0.20977739792E+03  0.92533876604E+03  0.90124651192E+03 0.  0.
        3    1    3    3  502    0 -0.38504587970E+03  0.22909148263E+03 -0.15432211173E+03  0.47387610328E+03  0.10100000352E+00 0. -1.
       -3    1    3    3    0  502  0.38504587970E+03 -0.22909148263E+03 -0.55455286186E+02  0.45146266275E+03  0.10100000352E+00 0.  1.
</event>
<event>
 5   0  0.1441195E-02  0.9084165E+03  0.7818609E-02  0.9415121E-01
        2   -1    0    0  501    0  0.00000000000E+00  0.00000000000E+00  0.63562809408E+03  0.63562809408E+03  0.25500000920E-02 0.  1.
       -2   -1    0    0    0  501  0.00000000000E+00  0.00000000000E+00 -0.32456890886E+03  0.32456890887E+03  0.25500000920E-02 0. -1.
    10030    2    1    2    0    0  0.00000000000E+00  0.00000000000E+00  0.31105918522E+03  0.96019700295E+03  0.90841646164E+03 0.  0.
        5    1    3    3  502    0  0.22703397337E+02 -0.21852000436E+03 -0.26464200672E+03  0.34398243890E+03  0.46999998093E+01 0. -1.
       -5    1    3    3    0  502 -0.22703397337E+02  0.21852000436E+03  0.57570119193E+03  0.61621456405E+03  0.46999998093E+01 0.  1.
</event>
<event>
 5   0  0.1535906E-02  0.9027578E+03  0.7818609E-02  0.9422141E-01
       -2   -1    0    0    0  501  0.00000000000E+00  0.00000000000E+00  0.12449929453E+03  0.12449929456E+03  0.25500000920E-02 0.  1.
        2   -1    0    0  501    0  0.00000000000E+00  0.00000000000E+00 -0.16364986071E+04  0.16364986071E+04  0.25500000920E-02 0. -1.
    10030    2    1    2    0    0  0.00000000000E+00  0.00000000000E+00 -0.15119993126E+04  0.17609979017E+04  0.90275782382E+03 0.  0.
        2    1    3    3  502    0 -0.37905909152E+03 -0.32513582669E+02 -0.12298198456E+04  0.12873227182E+04  0.25500000920E-02 0.  1.
       -2    1    3    3    0  502  0.37905909152E+03  0.32513582669E+02 -0.28217946693E+03  0.47367518352E+03  0.25500000920E-02 0. -1.
</event>
<event>
 5   0  0.8291252E-03  0.8847918E+03  0.7818609E-02  0.9444795E-01
       -1   -1    0    0    0  501  0.00000000000E+00  0.00000000000E+00  0.18029215089E+03  0.18029215096E+03  0.50400001928E-02 0.  1.
        1   -1    0    0  501    0  0.00000000000E+00  0.00000000000E+00 -0.10855389283E+04  0.10855389283E+04  0.50400001928E-02 0. -1.
    10030    2    1    2    0    0  0.00000000000E+00  0.00000000000E+00 -0.90524677742E+03  0.12658310793E+04  0.88479183611E+03 0.  0.
        1    1    3    3  502    0  0.11044461205E+03 -0.71667559296E+01 -0.10654124332E+04  0.10711456612E+04  0.50400001928E-02 0. -1.
       -1    1    3    3    0  502 -0.11044461205E+03  0.71667559296E+01  0.16016565573E+03  0.19468541811E+03  0.50400001928E-02 0.  1.
</event>
<event>
 5   0  0.8612969E-03  0.8850588E+03  0.7818609E-02  0.9444454E-01
       -1   -1    0    0    0  501  0.00000000000E+00  0.00000000000E+00  0.44634295342E+03  0.44634295345E+03  0.50400001928E-02 0. -1.
        1   -1    0    0  501    0  0.00000000000E+00  0.00000000000E+00 -0.43874841035E+03  0.43874841038E+03  0.50400001928E-02 0.  1.
    10030    2    1    2    0    0  0.00000000000E+00  0.00000000000E+00  0.75945430699E+01  0.88509136382E+03  0.88505878066E+03 0.  0.
        4    1    3    3  502    0  0.26511729760E+03  0.55003185019E+02  0.35383603747E+03  0.44554919612E+03  0.12699999809E+01 0. -1.
       -4    1    3    3    0  502 -0.26511729760E+03 -0.55003185019E+02 -0.34624149440E+03  0.43954216771E+03  0.12699999809E+01 0.  1.
</event>
<event>
 5   0  0.1454652E-02  0.9074397E+03  0.7818609E-02  0.9416329E-01
       -2   -1    0    0    0  501  0.00000000000E+00  0.00000000000E+00  0.33159144170E+03  0.33159144171E+03  0.25500000920E-02 0. -1.
        2   -1    0    0  501    0  0.00000000000E+00  0.00000000000E+00 -0.62082942505E+03  0.62082942505E+03  0.25500000920E-02 0.  1.
    10030    2    1    2    0    0  0.00000000000E+00  0.00000000000E+00 -0.28923798335E+03  0.95242086676E+03  0.90743974810E+03 0.  0.
        4    1    3    3  502    0 -0.33843402456E+03 -0.12635279368E+03  0.14350161892E+03  0.38871190486E+03  0.12699999809E+01 0.  1.
       -4    1    3    3    0  502  0.33843402456E+03  0.12635279368E+03 -0.43273960228E+03  0.56370896190E+03  0.12699999809E+01 0. -1.
</event>
<event>
 5   0  0.1454652E-02  0.8344301E+03  0.7818609E-02  0.9511476E-01
       -2   -1    0    0    0  501  0.00000000000E+00  0.00000000000E+00  0.65223942942E+02  0.65223942992E+02  0.25500000920E-02 0. -1.
        2   -1    0    0  501    0  0.00000000000E+00  0.00000000000E+00 -0.26687805661E+04  0.26687805661E+04  0.25500000920E-02 0.  1.
    10030    2    1    2    0    0  0.00000000000E+00  0.00000000000E+00 -0.26035566232E+04  0.27340045091E+04  0.83443008440E+03 0.  0.
        4    1    3    3  502    0 -0.28693881800E+03 -0.47118625871E+02 -0.22820617607E+04  0.23005133215E+04  0.12699999809E+01 0.  1.
       -4    1    3    3    0  502  0.28693881800E+03  0.47118625871E+02 -0.32149486249E+03  0.43349118756E+03  0.12699999809E+01 0. -1.
</event>
<event>
 5   0  0.8885324E-03  0.8975449E+03  0.7818609E-02  0.9428656E-01
       -1   -1    0    0    0  501  0.00000000000E+00  0.00000000000E+00  0.28335624413E+03  0.28335624417E+03  0.50400001928E-02 0. -1.
        1   -1    0    0  501    0  0.00000000000E+00  0.00000000000E+00 -0.71075451444E+03  0.71075451446E+03  0.50400001928E-02 0.  1.
    10030    2    1    2    0    0  0.00000000000E+00  0.00000000000E+00 -0.42739827032E+03  0.99411075863E+03  0.89754493980E+03 0.  0.
        2    1    3    3  502    0 -0.10990153532E+03 -0.34463921508E+03 -0.50787229920E+03  0.62352931634E+03  0.25500000920E-02 0.  1.
       -2    1    3    3    0  502  0.10990153532E+03  0.34463921508E+03  0.80474028886E+02  0.37058144229E+03  0.25500000920E-02 0. -1.
</event>
<event>
 5   0  0.5770125E-03  0.8951224E+03  0.7818609E-02  0.9431699E-01
        4   -1    0    0  501    0  0.00000000000E+00  0.00000000000E+00  0.35582483668E+03  0.35582710310E+03  0.12699999809E+01 0.  1.
       -4   -1    0    0    0  501  0.00000000000E+00  0.00000000000E+00 -0.56294358390E+03  0.56294501646E+03  0.12699999809E+01 0. -1.
    10030    2    1    2    0    0  0.00000000000E+00  0.00000000000E+00 -0.20711874722E+03  0.91877211956E+03  0.89512235602E+03 0.  0.
        3    1    3    3  502    0  0.26164654648E+03  0.27501281906E+03  0.13981281515E+03  0.40452268096E+03  0.10100000352E+00 0.  1.
       -3    1    3    3    0  502 -0.26164654648E+03 -0.27501281906E+03 -0.34693156237E+03  0.51424943860E+03  0.10100000352E+00 0. -1.
</event>
<event>
 5   0  0.1535906E-02  0.8907805E+03  0.7818609E-02  0.9437180E-01
        2   -1    0    0  501    0  0.00000000000E+00  0.00000000000E+00  0.19165128384E+03  0.19165128385E+03  0.25500000920E-02 0. -1.
       -2   -1    0    0    0  501  0.00000000000E+00  0.00000000000E+00 -0.10350699460E+04  0.10350699460E+04  0.25500000920E-02 0.  1.
    10030    2    1    2    0    0  0.00000000000E+00  0.00000000000E+00 -0.84341866216E+03  0.12267212299E+04  0.89078052072E+03 0.  0.
        2    1    3    3  502    0 -0.37643884186E+03  0.34360216720E+02 -0.74609789843E+03  0.83639039939E+03  0.25500000920E-02 0.  1.
       -2    1    3    3    0  502  0.37643884186E+03 -0.34360216720E+02 -0.97320763735E+02  0.39033083047E+03  0.25500000920E-02 0. -1.
</event>
<event>
 5   0  0.1440615E-02  0.9317317E+03  0.7818609E-02  0.9386762E-01
       -2   -1    0    0    0  501  0.00000000000E+00  0.00000000000E+00  0.16024321220E+03  0.16024321222E+03  0.25500000920E-02 0.  1.
        2   -1    0    0  501    0  0.00000000000E+00  0.00000000000E+00 -0.13543848982E+04  0.13543848982E+04  0.25500000920E-02 0. -1.
    10030    2    1    2    0    0  0.00000000000E+00  0.00000000000E+00 -0.11941416860E+04  0.15146281104E+04  0.93173169239E+03 0.  0.
        3    1    3    3  502    0  0.10350846372E+03 -0.32842718835E+03 -0.11071395067E+04  0.11594551814E+04  0.10100000352E+00 0. -1.
       -3    1    3    3    0  502 -0.10350846372E+03  0.32842718835E+03 -0.87002179273E+02  0.35517292902E+03  0.10100000352E+00 0.  1.
</event>
<event>
 5   0  0.5770125E-03  0.8976261E+03  0.7818609E-02  0.9428554E-01
        3   -1    0    0  501    0  0.00000000000E+00  0.00000000000E+00  0.47830335871E+03  0.47830336937E+03  0.10100000352E+00 0.  1.
       -3   -1    0    0    0  501  0.00000000000E+00  0.00000000000E+00 -0.42114099066E+03  0.42114100277E+03  0.10100000352E+00 0. -1.
    10030    2    1    2    0    0  0.00000000000E+00  0.00000000000E+00  0.57162368048E+02  0.89944437214E+03  0.89762611496E+03 0.  0.
        3    1    3    3  502    0  0.39815511348E+02  0.38445472846E+03 -0.20000903455E+03  0.43519459703E+03  0.10100000352E+00 0. -1.
       -3    1    3    3    0  502 -0.39815511348E+02 -0.38445472846E+03  0.25717140260E+03  0.46424977512E+03  0.10100000352E+00 0.  1.
</event>
<event>
 5   0  0.1535906E-02  0.8767187E+03  0.7818609E-02  0.9455161E-01
        2   -1    0    0  501    0  0.00000000000E+00  0.00000000000E+00  0.14081047938E+04  0.14081047938E+04  0.25500000920E-02 0. -1.
       -2   -1    0    0    0  501  0.00000000000E+00  0.00000000000E+00 -0.13646635191E+03  0.13646635193E+03  0.25500000920E-02 0.  1.
    10030    2    1    2    0    0  0.00000000000E+00  0.00000000000E+00  0.12716384419E+04  0.15445711457E+04  0.87671871051E+03 0.  0.
        2    1    3    3  502    0  0.60679102447E+02  0.20327848838E+03 -0.40006783573E+02  0.21588107849E+03  0.25500000920E-02 0.  1.
       -2    1    3    3    0  502 -0.60679102447E+02 -0.20327848838E+03  0.13116452255E+04  0.13286900672E+04  0.25500000920E-02 0. -1.
</event>
<event>
 5   0  0.1483326E-02  0.8880956E+03  0.7818609E-02  0.9440586E-01
        2   -1    0    0  501    0  0.00000000000E+00  0.00000000000E+00  0.60541634094E+03  0.60541634094E+03  0.25500000920E-02 0.  1.
       -2   -1    0    0    0  501  0.00000000000E+00  0.00000000000E+00 -0.32569069726E+03  0.32569069727E+03  0.25500000920E-02 0. -1.
    10030    2    1    2    0    0  0.00000000000E+00  0.00000000000E+00  0.27972564368E+03  0.93110703821E+03  0.88809564850E+03 0.  0.
        1    1    3    3  502    0 -0.29465561637E+03  0.15135870639E+03 -0.17017346246E+03  0.37241159704E+03  0.50400001928E-02 0.  1.
       -1    1    3    3    0  502  0.29465561637E+03 -0.15135870639E+03  0.44989910614E+03  0.55869544117E+03  0.50400001928E-02 0. -1.
</event>
<event>
 5   0  0.8738044E-03  0.9008688E+03  0.7818609E-02  0.9424496E-01
        1   -1    0    0  501    0  0.00000000000E+00  0.00000000000E+00  0.84180457848E+03  0.84180457850E+03  0.50400001928E-02 0. -1.
       -1   -1    0    0    0  501  0.00000000000E+00  0.00000000000E+00 -0.24101927621E+03  0.24101927627E+03  0.50400001928E-02 0.  1.
    10030    2    1    2    0    0  0.00000000000E+00  0.00000000000E+00  0.60078530227E+03  0.10828238548E+04  0.90086875904E+03 0.  0.
        3    1    3    3  502    0  0.30878731441E+03 -0.30730850576E+03  0.43798098319E+03  0.61775033395E+03  0.10100000352E+00 0.  1.
       -3    1    3    3    0  502 -0.30878731441E+03  0.30730850576E+03  0.16280431908E+03  0.46507352082E+03  0.10100000352E+00 0. -1.
</event>
<event>
 5   0  0.1441195E-02  0.8959160E+03  0.7818609E-02  0.9430701E-01
        2   -1    0    0  501    0  0.00000000000E+00  0.00000000000E+00  0.23791535779E+03  0.23791535780E+03  0.25500000920E-02 0. -1.
       -2   -1    0    0    0  501  0.00000000000E+00  0.00000000000E+00 -0.84343589324E+03  0.84343589325E+03  0.25500000920E-02 0.  1.
    10030    2    1    2    0    0  0.00000000000E+00  0.00000000000E+00 -0.60552053546E+03  0.10813512511E+04  0.89591596106E+03 0.  0.
        5    1    3    3  502    0  0.44687454829E+03  0.96236004336E+01 -0.26747215772E+03  0.52091546411E+03  0.46999998093E+01 0. -1.
       -5    1    3    3    0  502 -0.44687454829E+03 -0.96236004336E+01 -0.33804837774E+03  0.56043578694E+03  0.46999998093E+01 0.  1.
</event>
<event>
 5   0  0.1454652E-02  0.8973358E+03  0.7818609E-02  0.9428918E-01
        2   -1    0    0  501    0  0.00000000000E+00  0.00000000000E+00  0.11138505768E+04  0.11138505768E+04  0.25500000920E-02 0.  1.
       -2   -1    0    0    0  501  0.00000000000E+00  0.00000000000E+00 -0.18072699115E+03  0.18072699117E+03  0.25500000920E-02 0. -1.
    10030    2    1    2    0    0  0.00000000000E+00  0.00000000000E+00  0.93312358560E+03  0.12945775679E+04  0.89733575287E+03 0.  0.
        4    1    3    3  502    0 -0.25024247536E+03 -0.33133571370E+03  0.71180470784E+03  0.82405837576E+03  0.12699999809E+01 0.  1.
       -4    1    3    3    0  502  0.25024247536E+03  0.33133571370E+03  0.22131887776E+03  0.47051919217E+03  0.12699999809E+01 0. -1.
</event>
<event>
 5   0  0.1535906E-02  0.9010936E+03  0.7818609E-02  0.9424215E-01
       -2   -1    0    0    0  501  0.00000000000E+00  0.00000000000E+00  0.35685492281E+03  0.35685492281E+03  0.25500000920E-02 0.  1.
        2   -1    0    0  501    0  0.00000000000E+00  0.00000000000E+00 -0.56883743543E+03  0.56883743544E+03  0.25500000920E-02 0. -1.
    10030    2    1    2    0    0  0.00000000000E+00  0.00000000000E+00 -0.21198251262E+03  0.92569235825E+03  0.90109364467E+03 0.  0.
        2    1    3    3  502    0 -0.27847955696E+02  0.21548148103E+02 -0.56742179129E+03  0.56851325451E+03  0.25500000920E-02 0. -1.
       -2    1    3    3    0  502  0.27847955696E+02 -0.21548148103E+02  0.35543927866E+03  0.35717910374E+03  0.25500000920E-02 0.  1.
</event>
<event>
 5   0  0.8738044E-03  0.8571699E+03  0.7818609E-02  0.9480764E-01
        1   -1    0    0  501    0  0.00000000000E+00  0.00000000000E+00  0.82027000584E+03  0.82027000586E+03  0.50400001928E-02 0.  1.
       -1   -1    0    0    0  501  0.00000000000E+00  0.00000000000E+00 -0.22393241351E+03  0.22393241357E+03  0.50400001928E-02 0. -1.
    10030    2    1    2    0    0  0.00000000000E+00  0.00000000000E+00  0.59633759233E+03  0.10442024194E+04  0.85716985989E+03 0.  0.
        3    1    3    3  502    0  0.28201694717E+03  0.46272156884E+02 -0.90912134041E+02  0.29989947868E+03  0.10100000352E+00 0. -1.
       -3    1    3    3    0  502 -0.28201694717E+03 -0.46272156884E+02  0.68724972637E+03  0.74430294074E+03  0.10100000352E+00 0.  1.
</event>
<event>
 5   0  0.8524692E-03  0.9039452E+03  0.7818609E-02  0.9420663E-01
       -1   -1    0    0    0  501  0.00000000000E+00  0.00000000000E+00  0.55858385813E+03  0.55858385816E+03  0.50400001928E-02 0.  1.
        1   -1    0    0  501    0  0.00000000000E+00  0.00000000000E+00 -0.36570919245E+03  0.36570919249E+03  0.50400001928E-02 0. -1.
    10030    2    1    2    0    0  0.00000000000E+00  0.00000000000E+00  0.19287466568E+03  0.92429305065E+03  0.90394524547E+03 0.  0.
        5    1    3    3  502    0  0.29410028392E+03  0.31214402223E+03 -0.49349409126E+02  0.43172482184E+03  0.46999998093E+01 0. -1.
       -5    1    3    3    0  502 -0.29410028392E+03 -0.31214402223E+03  0.24222407481E+03  0.49256822881E+03  0.46999998093E+01 0.  1.
</event>
<event>
 5   0  0.1483326E-02  0.8994701E+03  0.7818609E-02  0.9426244E-01
        2   -1    0    0  501    0  0.00000000000E+00  0.00000000000E+00  0.54111335592E+03  0.54111335593E+03  0.25500000920E-02 0.  1.
       -2   -1    0    0    0  501  0.00000000000E+00  0.00000000000E+00 -0.37378788259E+03  0.37378788260E+03  0.25500000920E-02 0. -1.
    10030    2    1    2    0    0  0.00000000000E+00  0.00000000000E+00  0.16732547333E+03  0.91490123853E+03  0.89947010080E+03 0.  0.
        1    1    3    3  502    0 -0.42486953043E+03  0.12480553513E+03  0.16356662857E+03  0.47206417095E+03  0.50400001928E-02 0. -1.
       -1    1    3    3    0  502  0.42486953043E+03 -0.12480553513E+03  0.37588447567E+01  0.44283706758E+03  0.50400001928E-02 0.  1.
</event>
<event>
 5   0  0.1441195E-02  0.9023027E+03  0.7818609E-02  0.9422708E-01
       -2   -1    0    0    0  501  0.00000000000E+00  0.00000000000E+00  0.11246019664E+03  0.11246019667E+03  0.25500000920E-02 0. -1.
        2   -1    0    0  501    0  0.00000000000E+00  0.00000000000E+00 -0.18098628745E+04  0.18098628745E+04  0.25500000920E-02 0.  1.
    10030    2    1    2    0    0  0.00000000000E+00  0.00000000000E+00 -0.16974026779E+04  0.19223230712E+04  0.90230268711E+03 0.  0.
        5    1    3    3  502    0 -0.13018082982E+03  0.10861711194E+02 -0.17686335167E+04  0.17734575359E+04  0.46999998093E+01 0.  1.
       -5    1    3    3    0  502  0.13018082982E+03 -0.10861711194E+02  0.71230838773E+02  0.14886553534E+03  0.46999998093E+01 0. -1.
</event>
<event>
 5   0  0.1441195E-02  0.7965408E+03  0.7818609E-02  0.9565038E-01
        2   -1    0    0  501    0  0.00000000000E+00  0.00000000000E+00  0.11000997273E+04  0.11000997273E+04  0.25500000920E-02 0. -1.
       -2   -1    0    0    0  501  0.00000000000E+00  0.00000000000E+00 -0.14418629307E+03  0.14418629309E+03  0.25500000920E-02 0.  1.
    10030    2    1    2    0    0  0.00000000000E+00  0.00000000000E+00  0.95591343419E+03  0.12442860204E+04  0.79654077533E+03 0.  0.
        5    1    3    3  502    0 -0.34493388651E+03 -0.19107213019E+03  0.56506133840E+03  0.68906048439E+03  0.46999998093E+01 0. -1.
       -5    1    3    3    0  502  0.34493388651E+03  0.19107213019E+03  0.39085209580E+03  0.55522553596E+03  0.46999998093E+01 0.  1.
</event>
<event>
 5   0  0.8612969E-03  0.8960944E+03  0.7818609E-02  0.9430477E-01
        1   -1    0    0  501    0  0.00000000000E+00  0.00000000000E+00  0.53535159180E+03  0.53535159183E+03  0.50400001928E-02 0.  1.
       -1   -1    0    0    0  501  0.00000000000E+00  0.00000000000E+00 -0.37498026447E+03  0.37498026451E+03  0.50400001928E-02 0. -1.
    10030    2    1    2    0    0  0.00000000000E+00  0.00000000000E+00  0.16037132733E+03  0.91033185633E+03  0.89609437339E+03 0.  0.
        4    1    3    3  502    0 -0.37918980252E+02 -0.17493722261E+03 -0.33707592484E+03  0.38165779558E+03  0.12699999809E+01 0. -1.
       -4    1    3    3    0  502  0.37918980252E+02  0.17493722261E+03  0.49744725217E+03  0.52867406075E+03  0.12699999809E+01 0.  1.
</event>
<event>
 5   0  0.8612969E-03  0.8959885E+03  0.7818609E-02  0.9430610E-01
       -1   -1    0    0    0  501  0.00000000000E+00  0.00000000000E+00  0.73072763416E+03  0.73072763418E+03  0.50400001928E-02 0. -1.
        1   -1    0    0  501    0  0.00000000000E+00  0.00000000000E+00 -0.27465617645E+03  0.27465617650E+03  0.50400001928E-02 0.  1.
    10030    2    1    2    0    0  0.00000000000E+00  0.00000000000E+00  0.45607145771E+03  0.10053838107E+04  0.89598852238E+03 0.  0.
        4    1    3    3  502    0 -0.30442590029E+03 -0.32863265704E+03  0.23338108352E+03  0.50511671432E+03  0.12699999809E+01 0.  1.
       -4    1    3    3    0  502  0.30442590029E+03  0.32863265704E+03  0.22269037419E+03  0.50026709636E+03  0.12699999809E+01 0. -1.
</event>
<event>
 5   0  0.8885324E-03  0.8786726E+03  0.7818609E-02  0.9452642E-01
        1   -1    0    0  501    0  0.00000000000E+00  0.00000000000E+00  0.18618564072E+04  0.18618564072E+04  0.50400001928E-02 0.  1.
       -1   -1    0    0    0  501  0.00000000000E+00  0.00000000000E+00 -0.10366877330E+03  0.10366877342E+03  0.50400001928E-02 0. -1.
    10030    2    1    2    0    0  0.00000000000E+00  0.00000000000E+00  0.17581876339E+04  0.19655251806E+04  0.87867256682E+03 0.  0.
        2    1    3    3  502    0  0.25249570883E+03  0.21954863388E+03  0.15159724479E+04  0.15524587429E+04  0.25500000920E-02 0.  1.
       -2    1    3    3    0  502 -0.25249570883E+03 -0.21954863388E+03  0.24221518594E+03  0.41306643766E+03  0.25500000920E-02 0. -1.
</event>
<event>
 5   0  0.1483326E-02  0.8997703E+03  0.7818609E-02  0.9425869E-01
        2   -1    0    0  501    0  0.00000000000E+00  0.00000000000E+00  0.77712502513E+03  0.77712502513E+03  0.25500000920E-02 0. -1.
       -2   -1    0    0    0  501  0.00000000000E+00  0.00000000000E+00 -0.26044281695E+03  0.26044281697E+03  0.25500000920E-02 0.  1.
    10030    2    1    2    0    0  0.00000000000E+00  0.00000000000E+00  0.51668220818E+03  0.10375678421E+04  0.89977026107E+03 0.  0.
        1    1    3    3  502    0 -0.19832249393E+03 -0.79940910514E+02 -0.19809890760E+03  0.29148848689E+03  0.50400001928E-02 0.  1.
       -1    1    3    3    0  502  0.19832249393E+03  0.79940910514E+02  0.71478111578E+03  0.74607935521E+03  0.50400001928E-02 0. -1.
</event>
<event>
 5   0  0.1441195E-02  0.8867411E+03  0.7818609E-02  0.9442309E-01
        2   -1    0    0  501    0  0.00000000000E+00  0.00000000000E+00  0.17451277247E+04  0.17451277247E+04  0.25500000920E-02 0.  1.
       -2   -1    0    0    0  501  0.00000000000E+00  0.00000000000E+00 -0.11264358964E+03  0.11264358967E+03  0.25500000920E-02 0. -1.
    10030    2    1    2    0    0  0.00000000000E+00  0.00000000000E+00  0.16324841351E+04  0.18577713144E+04  0.88674111515E+03 0.  0.
        5    1    3    3  502    0  0.29540492049E+03  0.18236073523E+03  0.23853906028E+03  0.42123921717E+03  0.46999998093E+01 0. -1.
       -5    1    3    3    0  502 -0.29540492049E+03 -0.18236073523E+03  0.13939450748E+04  0.14365320972E+04  0.46999998093E+01 0.  1.
</event>
<event>
 5   0  0.1440615E-02  0.9089678E+03  0.7818609E-02  0.9414440E-01
       -2   -1    0    0    0  501  0.00000000000E+00  0.00000000000E+00  0.32871868259E+03  0.32871868260E+03  0.25500000920E-02 0.  1.
        2   -1    0    0  501    0  0.00000000000E+00  0.00000000000E+00 -0.62836595085E+03  0.62836595086E+03  0.25500000920E-02 0. -1.
    10030    2    1    2    0    0  0.00000000000E+00  0.00000000000E+00 -0.29964726827E+03  0.95708463345E+03  0.90896782683E+03 0.  0.
        3    1    3    3  502    0 -0.32133973123E+03 -0.10969120018E+03  0.16826792220E+03  0.37895314500E+03  0.10100000352E+00 0.  1.
       -3    1    3    3    0  502  0.32133973123E+03  0.10969120018E+03 -0.46791519047E+03  0.57813148845E+03  0.10100000352E+00 0. -1.
</event>
<event>
 5   0  0.8612969E-03  0.9504731E+03  0.7818609E-02  0.9364598E-01
       -1   -1    0    0    0  501  0.00000000000E+00  0.00000000000E+00  0.20641483605E+03  0.20641483612E+03  0.50400001928E-02 0. -1.
        1   -1    0    0  501    0  0.00000000000E+00  0.00000000000E+00 -0.10941548164E+04  0.10941548164E+04  0.50400001928E-02 0.  1.
    10030    2    1    2    0    0  0.00000000000E+00  0.00000000000E+00 -0.88773998035E+03  0.13005696525E+04  0.95047311818E+03 0.  0.
        4    1    3    3  502    0 -0.27562989423E+03  0.21487490625E+03 -0.32199070795E+01  0.34950685921E+03  0.12699999809E+01 0. -1.
       -4    1    3    3    0  502  0.27562989423E+03 -0.21487490625E+03 -0.88452007327E+03  0.95106279333E+03  0.12699999809E+01 0.  1.
</event>
<event>
 5   0  0.1483326E-02  0.8917226E+03  0.7818609E-02  0.9435988E-01
        2   -1    0    0  501    0  0.00000000000E+00  0.00000000000E+00  0.16819904020E+04  0.16819904020E+04  0.25500000920E-02 0. -1.
       -2   -1    0    0    0  501  0.00000000000E+00  0.00000000000E+00 -0.11818872193E+03  0.11818872196E+03  0.25500000920E-02 0.  1.
    10030    2    1    2    0    0  0.00000000000E+00  0.00000000000E+00  0.15638016800E+04  0.18001791239E+04  0.89172259348E+03 0.  0.
        1    1    3    3  502    0 -0.17877596374E+03 -0.40663964079E+03  0.70435149990E+03  0.83272305006E+03  0.50400001928E-02 0.  1.
       -1    1    3    3    0  502  0.17877596374E+03  0.40663964079E+03  0.85945018013E+03  0.96745607385E+03  0.50400001928E-02 0. -1.
</event>
<event>
 5   0  0.8612969E-03  0.9020428E+03  0.7818609E-02  0.9423031E-01
       -1   -1    0    0    0  501  0.00000000000E+00  0.00000000000E+00  0.19263093502E+03  0.19263093509E+03  0.50400001928E-02 0. -1.
        1   -1    0    0  501    0  0.00000000000E+00  0.00000000000E+00 -0.10560105573E+04  0.10560105573E+04  0.50400001928E-02 0.  1.
    10030    2    1    2    0    0  0.00000000000E+00  0.00000000000E+00 -0.86337962226E+03  0.12486414924E+04  0.90204279520E+03 0.  0.
        4    1    3    3  502    0 -0.12379948014E+03 -0.28850272326E+03  0.16552197828E+02  0.31438148922E+03  0.12699999809E+01 0. -1.
       -4    1    3    3    0  502  0.12379948014E+03  0.28850272326E+03 -0.87993182009E+03  0.93426000317E+03  0.12699999809E+01 0.  1.
</event>
<event>
 5   0  0.1440615E-02  0.9189048E+03  0.7818609E-02  0.9402253E-01
       -2   -1    0    0    0  501  0.00000000000E+00  0.00000000000E+00  0.20649261558E+03  0.20649261559E+03  0.25500000920E-02 0. -1.
        2   -1    0    0  501    0  0.00000000000E+00  0.00000000000E+00 -0.10222957717E+04  0.10222957717E+04  0.25500000920E-02 0.  1.
    10030    2    1    2    0    0  0.00000000000E+00  0.00000000000E+00 -0.81580315611E+03  0.12287883873E+04  0.91890484339E+03 0.  0.
        3    1    3    3  502    0 -0.20611272318E+03  0.28177841923E+03 -0.80731758181E+03  0.87956990643E+03  0.10100000352E+00 0.  1.
       -3    1    3    3    0  502  0.20611272318E+03 -0.28177841923E+03 -0.84855743069E+01  0.34921848086E+03  0.10100000352E+00 0. -1.
</event>
<event>
 5   0  0.1454652E-02  0.9046973E+03  0.7818609E-02  0.9419729E-01
        2   -1    0    0  501    0  0.00000000000E+00  0.00000000000E+00  0.49674518466E+03  0.49674518467E+03  0.25500000920E-02 0. -1.
       -2   -1    0    0    0  501  0.00000000000E+00  0.00000000000E+00 -0.41192001282E+03  0.41192001283E+03  0.25500000920E-02 0.  1.
    10030    2    1    2    0    0  0.00000000000E+00  0.00000000000E+00  0.84825171844E+02  0.90866519749E+03  0.90469725951E+03 0.  0.
        4    1    3    3  502    0 -0.26612238475E+03 -0.32160142195E+03  0.21744415179E+03  0.47067204114E+03  0.12699999809E+01 0. -1.
       -4    1    3    3    0  502  0.26612238475E+03  0.32160142195E+03 -0.13261897995E+03  0.43799315635E+03  0.12699999809E+01 0.  1.
</event>
<event>
 5   0  0.8291252E-03  0.9030356E+03  0.7818609E-02  0.9421795E-01
        1   -1    0    0  501    0  0.00000000000E+00  0.00000000000E+00  0.67272563121E+03  0.67272563123E+03  0.50400001928E-02 0. -1.
       -1   -1    0    0    0  501  0.00000000000E+00  0.00000000000E+00 -0.30304823971E+03  0.30304823975E+03  0.50400001928E-02 0.  1.
    10030    2    1    2    0    0  0.00000000000E+00  0.00000000000E+00  0.36967739150E+03  0.97577387098E+03  0.90303558817E+03 0.  0.
        1    1    3    3  502    0 -0.31157524155E+03 -0.31980119645E+03  0.11222147053E+03  0.46037549334E+03  0.50400001928E-02 0.  1.
       -1    1    3    3    0  502  0.31157524155E+03  0.31980119645E+03  0.25745592097E+03  0.51539837763E+03  0.50400001928E-02 0. -1.
</event>
<event>
 5   0  0.1483326E-02  0.8894685E+03  0.7818609E-02  0.9438843E-01
       -2   -1    0    0    0  501  0.00000000000E+00  0.00000000000E+00  0.13672612349E+03  0.13672612351E+03  0.25500000920E-02 0.  1.
        2   -1    0    0  501    0  0.00000000000E+00  0.00000000000E+00 -0.14466038474E+04  0.14466038474E+04  0.25500000920E-02 0. -1.
    10030    2    1    2    0    0  0.00000000000E+00  0.00000000000E+00 -0.13098777239E+04  0.15833299709E+04  0.88946846217E+03 0.  0.
        1    1    3    3  502    0  0.49064512444E+02  0.37357936005E+02 -0.14389561130E+04  0.14402769307E+04  0.50400001928E-02 0. -1.
       -1    1    3    3    0  502 -0.49064512444E+02 -0.37357936005E+02  0.12907838911E+03  0.14305304025E+03  0.50400001928E-02 0.  1.
</event>
<event>
 5   0  0.8738044E-03  0.8101035E+03  0.7818609E-02  0.9545507E-01
       -1   -1    0    0    0  501  0.00000000000E+00  0.00000000000E+00  0.22239234506E+03  0.22239234512E+03  0.50400001928E-02 0.  1.
        1   -1    0    0  501    0  0.00000000000E+00  0.00000000000E+00 -0.73773630383E+03  0.73773630385E+03  0.50400001928E-02 0. -1.
    10030    2    1    2    0    0  0.00000000000E+00  0.00000000000E+00 -0.51534395877E+03  0.96012864897E+03  0.81010346668E+03 0.  0.
        3    1    3    3  502    0  0.28602164488E+03  0.22351405669E+03 -0.44666843292E+02  0.36573494770E+03  0.10100000352E+00 0.  1.
       -3    1    3    3    0  502 -0.28602164488E+03 -0.22351405669E+03 -0.47067711548E+03  0.59439370127E+03  0.10100000352E+00 0. -1.
</event>
<event>
 5   0  0.8524692E-03  0.8805802E+03  0.7818609E-02  0.9450188E-01
        1   -1    0    0  501    0  0.00000000000E+00  0.00000000000E+00  0.98274679393E+03  0.98274679394E+03  0.50400001928E-02 0. -1.
       -1   -1    0    0    0  501  0.00000000000E+00  0.00000000000E+00 -0.19725870122E+03  0.19725870128E+03  0.50400001928E-02 0.  1.
    10030    2    1    2    0    0  0.00000000000E+00  0.00000000000E+00  0.78548809271E+03  0.11800054952E+04  0.88058016385E+03 0.  0.
        5    1    3    3  502    0  0.26656313701E+03  0.34633788864E+03  0.46399830752E+03  0.63743419935E+03  0.46999998093E+01 0. -1.
       -5    1    3    3    0  502 -0.26656313701E+03 -0.34633788864E+03  0.32148978519E+03  0.54257129587E+03  0.46999998093E+01 0.  1.
</event>
<event>
 5   0  0.8612969E-03  0.8947969E+03  0.7818609E-02  0.9432109E-01
        1   -1    0    0  501    0  0.00000000000E+00  0.00000000000E+00  0.11626582225E+04  0.11626582225E+04  0.50400001928E-02 0. -1.
       -1   -1    0    0    0  501  0.00000000000E+00  0.00000000000E+00 -0.17216183701E+03  0.17216183709E+03  0.50400001928E-02 0.  1.
    10030    2    1    2    0    0  0.00000000000E+00  0.00000000000E+00  0.99049638547E+03  0.13348200596E+04  0.89479690535E+03 0.  0.
        4    1    3    3  502    0 -0.35521018897E+03 -0.17368074524E+03  0.18295921822E+03  0.43567759645E+03  0.12699999809E+01 0.  1.
       -4    1    3    3    0  502  0.35521018897E+03  0.17368074524E+03  0.80753716725E+03  0.89914246313E+03  0.12699999809E+01 0. -1.
</event>
<event>
 5   0  0.8738044E-03  0.8999254E+03  0.7818609E-02  0.9425675E-01
       -1   -1    0    0    0  501  0.00000000000E+00  0.00000000000E+00  0.70284491166E+03  0.70284491168E+03  0.50400001928E-02 0. -1.
        1   -1    0    0  501    0  0.00000000000E+00  0.00000000000E+00 -0.28806702465E+03  0.28806702469E+03  0.50400001928E-02 0.  1.
    10030    2    1    2    0    0  0.00000000000E+00  0.00000000000E+00  0.41477788701E+03  0.99091193637E+03  0.89992542474E+03 0.  0.
        3    1    3    3  502    0 -0.28189697242E+03  0.18046994736E+03  0.53851054256E+03  0.63405750497E+03  0.10100000352E+00 0. -1.
       -3    1    3    3    0  502  0.28189697242E+03 -0.18046994736E+03 -0.12373265555E+03  0.35685443140E+03  0.10100000352E+00 0.  1.
</event>
<event>
 5   0  0.8738044E-03  0.9002793E+03  0.7818609E-02  0.9425232E-01
       -1   -1    0    0    0  501  0.00000000000E+00  0.00000000000E+00  0.24060167014E+03  0.24060167019E+03  0.50400001928E-02 0.  1.
        1   -1    0    0  501    0  0.00000000000E+00  0.00000000000E+00 -0.84216259217E+03  0.84216259218E+03  0.50400001928E-02 0. -1.
    10030    2    1    2    0    0  0.00000000000E+00  0.00000000000E+00 -0.60156092203E+03  0.10827642624E+04  0.90027934829E+03 0.  0.
        3    1    3    3  502    0  0.48260519087E+02  0.53787978234E+02  0.23357966099E+03  0.24450294995E+03  0.10100000352E+00 0.  1.
       -3    1    3    3    0  502 -0.48260519087E+02 -0.53787978234E+02 -0.83514058302E+03  0.83826131242E+03  0.10100000352E+00 0. -1.
</event>
<event>
 5   0  0.8612969E-03  0.8921788E+03  0.7818609E-02  0.9435412E-01
        1   -1    0    0  501    0  0.00000000000E+00  0.00000000000E+00  0.65123358622E+03  0.65123358624E+03  0.50400001928E-02 0. -1.
       -1   -1    0    0    0  501  0.00000000000E+00  0.00000000000E+00 -0.30556737008E+03  0.30556737012E+03  0.50400001928E-02 0.  1.
    10030    2    1    2    0    0  0.00000000000E+00  0.00000000000E+00  0.34566621615E+03  0.95680095636E+03  0.89217875849E+03 0.  0.
        4    1    3    3  502    0 -0.44425877811E+03  0.37414876285E+02  0.18904019352E+03  0.48425565826E+03  0.12699999809E+01 0. -1.
       -4    1    3    3    0  502  0.44425877811E+03 -0.37414876285E+02  0.15662602263E+03  0.47254529810E+03  0.12699999809E+01 0.  1.
</event>
<event>
 5   0  0.8738044E-03  0.9056557E+03  0.7818609E-02  0.9418539E-01
        1   -1    0    0  501    0  0.00000000000E+00  0.00000000000E+00  0.50886830945E+03  0.50886830948E+03  0.50400001928E-02 0. -1.
       -1   -1    0    0    0  501  0.00000000000E+00  0.00000000000E+00 -0.40295897157E+03  0.40295897160E+03  0.50400001928E-02 0.  1.
    10030    2    1    2    0    0  0.00000000000E+00  0.00000000000E+00  0.10590933788E+03  0.91182728108E+03  0.90565567556E+03 0.  0.
        3    1    3    3  502    0 -0.23729258084E+03  0.19854543501E+03  0.38585112785E+03  0.49457978300E+03  0.10100000352E+00 0. -1.
       -3    1    3    3    0  502  0.23729258084E+03 -0.19854543501E+03 -0.27994178997E+03  0.41724749808E+03  0.10100000352E+00 0.  1.
</event>
<event>
 5   0  0.8291252E-03  0.8915569E+03  0.7818609E-02  0.9436198E-01
        1   -1    0    0  501    0  0.00000000000E+00  0.00000000000E+00  0.74716376724E+03  0.74716376726E+03  0.50400001928E-02 0. -1.
       -1   -1    0    0    0  501  0.00000000000E+00  0.00000000000E+00 -0.26596368340E+03  0.26596368345E+03  0.50400001928E-02 0.  1.
    10030    2    1    2    0    0  0.00000000000E+00  0.00000000000E+00  0.48120008384E+03  0.10131274507E+04  0.89155690266E+03 0.  0.
        1    1    3    3  502    0  0.17926852321E+03 -0.40126464148E+03  0.15580681045E+03  0.46628990781E+03  0.50400001928E-02 0.  1.
       -1    1    3    3    0  502 -0.17926852321E+03  0.40126464148E+03  0.32539327339E+03  0.54683754289E+03  0.50400001928E-02 0. -1.
</event>
<event>
 5   0  0.8524692E-03  0.9076402E+03  0.7818609E-02  0.9416081E-01
       -1   -1    0    0    0  501  0.00000000000E+00  0.00000000000E+00  0.17072421279E+03  0.17072421286E+03  0.50400001928E-02 0. -1.
        1   -1    0    0  501    0  0.00000000000E+00  0.00000000000E+00 -0.12063472765E+04  0.12063472765E+04  0.50400001928E-02 0.  1.
    10030    2    1    2    0    0  0.00000000000E+00  0.00000000000E+00 -0.10356230637E+04  0.13770714894E+04  0.90764021327E+03 0.  0.
        5    1    3    3  502    0  0.37976080646E+03 -0.13418278161E+03 -0.83500175886E+03  0.92707783724E+03  0.46999998093E+01 0.  1.
       -5    1    3    3    0  502 -0.37976080646E+03  0.13418278161E+03 -0.20062130487E+03  0.44999365215E+03  0.46999998093E+01 0. -1.
</event>
<event>
 5   0  0.1440615E-02  0.8964933E+03  0.7818609E-02  0.9429976E-01
        2   -1    0    0  501    0  0.00000000000E+00  0.00000000000E+00  0.10334212265E+04  0.10334212265E+04  0.25500000920E-02 0. -1.
       -2   -1    0    0    0  501  0.00000000000E+00  0.00000000000E+00 -0.19442704652E+03  0.19442704653E+03  0.25500000920E-02 0.  1.
    10030    2    1    2    0    0  0.00000000000E+00  0.00000000000E+00  0.83899417997E+03  0.12278482730E+04  0.89649325014E+03 0.  0.
        3    1    3    3  502    0 -0.25747865857E+03 -0.27244859974E+03  0.82891254478E+02  0.38391987366E+03  0.10100000352E+00 0.  1.
       -3    1    3    3    0  502  0.25747865857E+03  0.27244859974E+03  0.75610292549E+03  0.84392839937E+03  0.10100000352E+00 0. -1.
</event>
<event>
 5   0  0.1535906E-02  0.9123481E+03  0.7818609E-02  0.9410276E-01
       -2   -1    0    0    0  501  0.00000000000E+00  0.00000000000E+00  0.29133664750E+03  0.29133664751E+03  0.25500000920E-02 0.  1.
        2   -1    0    0  501    0  0.00000000000E+00  0.00000000000E+00 -0.71427599125E+03  0.71427599125E+03  0.25500000920E-02 0. -1.
    10030    2    1    2    0    0  0.00000000000E+00  0.00000000000E+00 -0.42293934375E+03  0.10056126388E+04  0.91234811928E+03 0.  0.
        2    1    3    3  502    0 -0.30456375112E+03 -0.12242931719E+03  0.13768817889E+03  0.35595793406E+03  0.25500000920E-02 0. -1.
       -2    1    3    3    0  502  0.30456375112E+03  0.12242931719E+03 -0.56062752263E+03  0.64965470471E+03  0.25500000920E-02 0.  1.
</event>
<event>
 5   0  0.8524692E-03  0.8893904E+03  0.7818609E-02  0.9438942E-01
       -1   -1    0    0    0  501  0.00000000000E+00  0.00000000000E+00  0.43259077814E+03  0.43259077817E+03  0.50400001928E-02 0.  1.
        1   -1    0    0  501    0  0.00000000000E+00  0.00000000000E+00 -0.45713831453E+03  0.45713831456E+03  0.50400001928E-02 0. -1.
    10030    2    1    2    0    0  0.00000000000E+00  0.00000000000E+00 -0.24547536395E+02  0.88972909273E+03  0.88939039623E+03 0.  0.
        5    1    3    3  502    0  0.21740171798E+03 -0.14409471277E+03  0.34800909698E+03  0.43492437826E+03  0.46999998093E+01 0.  1.
       -5    1    3    3    0  502 -0.21740171798E+03  0.14409471277E+03 -0.37255663338E+03  0.45480471446E+03  0.46999998093E+01 0. -1.
</event>
<event>
 5   0  0.1440615E-02  0.9016452E+03  0.7818609E-02  0.9423527E-01
       -2   -1    0    0    0  501  0.00000000000E+00  0.00000000000E+00  0.18727124483E+03  0.18727124485E+03  0.25500000920E-02 0.  1.
        2   -1    0    0  501    0  0.00000000000E+00  0.00000000000E+00 -0.10852762614E+04  0.10852762614E+04  0.25500000920E-02 0. -1.
    10030    2    1    2    0    0  0.00000000000E+00  0.00000000000E+00 -0.89800501661E+03  0.12725475063E+04  0.90164524394E+03 0.  0.
        3    1    3    3  502    0  0.30939455942E+02  0.33752572849E+03 -0.86853591852E+03  0.93232801057E+03  0.10100000352E+00 0. -1.
       -3    1    3    3    0  502 -0.30939455942E+02 -0.33752572849E+03 -0.29469098091E+02  0.34021949572E+03  0.10100000352E+00 0.  1.
</event>
<event>
 5   0  0.1483326E-02  0.8627783E+03  0.7818609E-02  0.9473345E-01
       -2   -1    0    0    0  501  0.00000000000E+00  0.00000000000E+00  0.10459113613E+03  0.10459113616E+03  0.25500000920E-02 0. -1.
        2   -1    0    0  501    0  0.00000000000E+00  0.00000000000E+00 -0.17792768643E+04  0.17792768643E+04  0.25500000920E-02 0.  1.
    10030    2    1    2    0    0  0.00000000000E+00  0.00000000000E+00 -0.16746857281E+04  0.18838680004E+04  0.86277827686E+03 0.  0.
        1    1    3    3  502    0  0.53620889583E+02  0.27852976492E+02  0.95305569488E+02  0.11284564546E+03  0.50400001928E-02 0. -1.
       -1    1    3    3    0  502 -0.53620889583E+02 -0.27852976492E+02 -0.17699912976E+04  0.17710223550E+04  0.50400001928E-02 0.  1.
</event>
<event>
 5   0  0.1454652E-02  0.8960742E+03  0.7818609E-02  0.9430502E-01
       -2   -1    0    0    0  501  0.00000000000E+00  0.00000000000E+00  0.23539335093E+03  0.23539335094E+03  0.25500000920E-02 0.  1.
        2   -1    0    0  501    0  0.00000000000E+00  0.00000000000E+00 -0.85277357642E+03  0.85277357642E+03  0.25500000920E-02 0. -1.
    10030    2    1    2    0    0  0.00000000000E+00  0.00000000000E+00 -0.61738022549E+03  0.10881669274E+04  0.89607417047E+03 0.  0.
        4    1    3    3  502    0 -0.25377129979E+03 -0.33246057394E+03 -0.11361158099E+03  0.43340409557E+03  0.12699999809E+01 0.  1.
       -4    1    3    3    0  502  0.25377129979E+03  0.33246057394E+03 -0.50376864450E+03  0.65476283180E+03  0.12699999809E+01 0. -1.
</event>
<event>
 5   0  0.1535906E-02  0.9050401E+03  0.7818609E-02  0.9419303E-01
       -2   -1    0    0    0  501  0.00000000000E+00  0.00000000000E+00  0.31771665902E+03  0.31771665903E+03  0.25500000920E-02 0.  1.
        2   -1    0    0  501    0  0.00000000000E+00  0.00000000000E+00 -0.64451887591E+03  0.64451887592E+03  0.25500000920E-02 0. -1.
    10030    2    1    2    0    0  0.00000000000E+00  0.00000000000E+00 -0.32680221689E+03  0.96223553495E+03  0.90504007411E+03 0.  0.
        2    1    3    3  502    0  0.96450477481E+02  0.16172345688E+03  0.27408486857E+03  0.33253524068E+03  0.25500000920E-02 0.  1.
       -2    1    3    3    0  502 -0.96450477481E+02 -0.16172345688E+03 -0.60088708546E+03  0.62970029426E+03  0.25500000920E-02 0. -1.
</event>
<event>
 5   0  0.8524692E-03  0.9011041E+03  0.7818609E-02  0.9424202E-01
       -1   -1    0    0    0  501  0.00000000000E+00  0.00000000000E+00  0.13611671103E+03  0.13611671113E+03  0.50400001928E-02 0.  1.
        1   -1    0    0  501    0  0.00000000000E+00  0.00000000000E+00 -0.14913462586E+04  0.14913462586E+04  0.50400001928E-02 0. -1.
    10030    2    1    2    0    0  0.00000000000E+00  0.00000000000E+00 -0.13552295475E+04  0.16274629697E+04  0.90110409567E+03 0.  0.
        5    1    3    3  502    0  0.92155760395E+02  0.13188733010E+03  0.82415424318E+02  0.18083512982E+03  0.46999998093E+01 0.  1.
       -5    1    3    3    0  502 -0.92155760395E+02 -0.13188733010E+03 -0.14376449718E+04  0.14466278399E+04  0.46999998093E+01 0. -1.
</event>
<event>
 5   0  0.1535906E-02  0.8796582E+03  0.7818609E-02  0.9451373E-01
        2   -1    0    0  501    0  0.00000000000E+00  0.00000000000E+00  0.84381147092E+03  0.84381147093E+03  0.25500000920E-02 0. -1.
       -2   -1    0    0    0  501  0.00000000000E+00  0.00000000000E+00 -0.22925692247E+03  0.22925692248E+03  0.25500000920E-02 0.  1.
    10030    2    1    2    0    0  0.00000000000E+00  0.00000000000E+00  0.61455454846E+03  0.10730683934E+04  0.87965816310E+03 0.  0.
        2    1    3    3  502    0  0.27759921206E+03 -0.23937368526E+03  0.60380484887E+03  0.70635782664E+03  0.25500000920E-02 0. -1.
       -2    1    3    3    0  502 -0.27759921206E+03  0.23937368526E+03  0.10749699585E+02  0.36671056677E+03  0.25500000920E-02 0.  1.
</event>
<event>
 5   0  0.8524692E-03  0.9467006E+03  0.7818609E-02  0.9369015E-01
        1   -1    0    0  501    0  0.00000000000E+00  0.00000000000E+00  0.23184578826E+03  0.23184578832E+03  0.50400001928E-02 0. -1.
       -1   -1    0    0    0  501  0.00000000000E+00  0.00000000000E+00 -0.96642037227E+03  0.96642037228E+03  0.50400001928E-02 0.  1.
    10030    2    1    2    0    0  0.00000000000E+00  0.00000000000E+00 -0.73457458401E+03  0.11982661606E+04  0.94670057155E+03 0.  0.
        5    1    3    3  502    0  0.66321248215E+02  0.37514875442E+03 -0.72282712069E+03  0.81709010049E+03  0.46999998093E+01 0. -1.
       -5    1    3    3    0  502 -0.66321248215E+02 -0.37514875442E+03 -0.11747463315E+02  0.38117606011E+03  0.46999998093E+01 0.  1.
</event>
<event>
 5   0  0.8885324E-03  0.8962138E+03  0.7818609E-02  0.9430327E-01
       -1   -1    0    0    0  501  0.00000000000E+00  0.00000000000E+00  0.11211081059E+04  0.11211081059E+04  0.50400001928E-02 0.  1.
        1   -1    0    0  501    0  0.00000000000E+00  0.00000000000E+00 -0.17910832094E+03  0.17910832101E+03  0.50400001928E-02 0. -1.
    10030    2    1    2    0    0  0.00000000000E+00  0.00000000000E+00  0.94199978497E+03  0.13002164269E+04  0.89621379258E+03 0.  0.
        2    1    3    3  502    0  0.15713951810E+03  0.12190779875E+03 -0.11156963051E+03  0.22803973777E+03  0.25500000920E-02 0. -1.
       -2    1    3    3    0  502 -0.15713951810E+03 -0.12190779875E+03  0.10535694155E+04  0.10721766892E+04  0.25500000920E-02 0.  1.
</event>
<event>
 5   0  0.8885324E-03  0.9026695E+03  0.7818609E-02  0.9422251E-01
        1   -1    0    0  501    0  0.00000000000E+00  0.00000000000E+00  0.29529298840E+03  0.29529298844E+03  0.50400001928E-02 0. -1.
       -1   -1    0    0    0  501  0.00000000000E+00  0.00000000000E+00 -0.68983375581E+03  0.68983375583E+03  0.50400001928E-02 0.  1.
    10030    2    1    2    0    0  0.00000000000E+00  0.00000000000E+00 -0.39454076741E+03  0.98512674427E+03  0.90266953263E+03 0.  0.
        2    1    3    3  502    0 -0.61533265353E+02 -0.27458859921E+03 -0.58237532985E+03  0.64679692824E+03  0.25500000920E-02 0.  1.
       -2    1    3    3    0  502  0.61533265353E+02  0.27458859921E+03  0.18783456244E+03  0.33832981603E+03  0.25500000920E-02 0. -1.
</event>
<event>
 5   0  0.8885324E-03  0.9148740E+03  0.7818609E-02  0.9407177E-01
       -1   -1    0    0    0  501  0.00000000000E+00  0.00000000000E+00  0.29666073687E+03  0.29666073691E+03  0.50400001928E-02 0.  1.
        1   -1    0    0  501    0  0.00000000000E+00  0.00000000000E+00 -0.70534651524E+03  0.70534651526E+03  0.50400001928E-02 0. -1.
    10030    2    1    2    0    0  0.00000000000E+00  0.00000000000E+00 -0.40868577837E+03  0.10020072522E+04  0.91487401753E+03 0.  0.
        2    1    3    3  502    0 -0.22853606236E+03 -0.37481465618E+03 -0.34517337643E+03  0.55844374657E+03  0.25500000920E-02 0. -1.
       -2    1    3    3    0  502  0.22853606236E+03  0.37481465618E+03 -0.63512401944E+02  0.44356350559E+03  0.25500000920E-02 0.  1.
</event>
<event>
 5   0  0.1483326E-02  0.9150452E+03  0.7818609E-02  0.9406967E-01
       -2   -1    0    0    0  501  0.00000000000E+00  0.00000000000E+00  0.49905148899E+03  0.49905148900E+03  0.25500000920E-02 0.  1.
        2   -1    0    0  501    0  0.00000000000E+00  0.00000000000E+00 -0.41944952970E+03  0.41944952971E+03  0.25500000920E-02 0. -1.
    10030    2    1    2    0    0  0.00000000000E+00  0.00000000000E+00  0.79601959293E+02  0.91850101871E+03  0.91504516252E+03 0.  0.
        1    1    3    3  502    0 -0.36352783135E+02  0.43281341206E+03  0.18414231724E+03  0.47175986214E+03  0.50400001928E-02 0.  1.
       -1    1    3    3    0  502  0.36352783135E+02 -0.43281341206E+03 -0.10454035795E+03  0.44674115657E+03  0.50400001928E-02 0. -1.
</event>
<event>
 5   0  0.1454652E-02  0.7481027E+03  0.7818609E-02  0.9638332E-01
        2   -1    0    0  501    0  0.00000000000E+00  0.00000000000E+00  0.55391850677E+03  0.55391850678E+03  0.25500000920E-02 0.  1.
       -2   -1    0    0    0  501  0.00000000000E+00  0.00000000000E+00 -0.25259027058E+03  0.25259027059E+03  0.25500000920E-02 0. -1.
    10030    2    1    2    0    0  0.00000000000E+00  0.00000000000E+00  0.30132823620E+03  0.80650877737E+03  0.74810273495E+03 0.  0.
        4    1    3    3  502    0 -0.37016279789E+03  0.44307419045E+02  0.11780203837E+03  0.39097644106E+03  0.12699999809E+01 0.  1.
       -4    1    3    3    0  502  0.37016279789E+03 -0.44307419045E+02  0.18352619783E+03  0.41553233630E+03  0.12699999809E+01 0. -1.
</event>
<event>
 5   0  0.8738044E-03  0.9246597E+03  0.7818609E-02  0.9395270E-01
       -1   -1    0    0    0  501  0.00000000000E+00  0.00000000000E+00  0.65470302490E+03  0.65470302492E+03  0.50400001928E-02 0. -1.
        1   -1    0    0  501    0  0.00000000000E+00  0.00000000000E+00 -0.32648218681E+03  0.32648218684E+03  0.50400001928E-02 0.  1.
    10030    2    1    2    0    0  0.00000000000E+00  0.00000000000E+00  0.32822083809E+03  0.98118521176E+03  0.92465966778E+03 0.  0.
        3    1    3    3  502    0 -0.27695782128E+03  0.20701307679E+03  0.48977366620E+03  0.59953173647E+03  0.10100000352E+00 0. -1.
       -3    1    3    3    0  502  0.27695782128E+03 -0.20701307679E+03 -0.16155282811E+03  0.38165347529E+03  0.10100000352E+00 0.  1.
</event>
<event>
 5   0  0.1440615E-02  0.9123558E+03  0.7818609E-02  0.9410266E-01
        2   -1    0    0  501    0  0.00000000000E+00  0.00000000000E+00  0.13516188893E+03  0.13516188895E+03  0.25500000920E-02 0.  1.
       -2   -1    0    0    0  501  0.00000000000E+00  0.00000000000E+00 -0.15396225328E+04  0.15396225328E+04  0.25500000920E-02 0. -1.
    10030    2    1    2    0    0  0.00000000000E+00  0.00000000000E+00 -0.14044606439E+04  0.16747844218E+04  0.91235582926E+03 0.  0.
        3    1    3    3  502    0 -0.10062001037E+03 -0.44275609587E+03 -0.78310264102E+03  0.90521108228E+03  0.10100000352E+00 0. -1.
       -3    1    3    3    0  502  0.10062001037E+03  0.44275609587E+03 -0.62135800284E+03  0.76957333947E+03  0.10100000352E+00 0.  1.
</event>
<event>
 5   0  0.8738044E-03  0.9607629E+03  0.7818609E-02  0.9352658E-01
        1   -1    0    0  501    0  0.00000000000E+00  0.00000000000E+00  0.78997365518E+03  0.78997365519E+03  0.50400001928E-02 0.  1.
       -1   -1    0    0    0  501  0.00000000000E+00  0.00000000000E+00 -0.29211903085E+03  0.29211903089E+03  0.50400001928E-02 0. -1.
    10030    2    1    2    0    0  0.00000000000E+00  0.00000000000E+00  0.49785462433E+03  0.10820926861E+04  0.96076290224E+03 0.  0.
        3    1    3    3  502    0 -0.21763098060E+03  0.35108539281E+02  0.72964182282E+03  0.76221588350E+03  0.10100000352E+00 0.  1.
       -3    1    3    3    0  502  0.21763098060E+03 -0.35108539281E+02 -0.23178719849E+03  0.31987680259E+03  0.10100000352E+00 0. -1.
</event>
<event>
 5   0  0.8885324E-03  0.9614695E+03  0.7818609E-02  0.9351844E-01
       -1   -1    0    0    0  501  0.00000000000E+00  0.00000000000E+00  0.53770495414E+03  0.53770495416E+03  0.50400001928E-02 0.  1.
        1   -1    0    0  501    0  0.00000000000E+00  0.00000000000E+00 -0.42980061139E+03  0.42980061141E+03  0.50400001928E-02 0. -1.
    10030    2    1    2    0    0  0.00000000000E+00  0.00000000000E+00  0.10790434275E+03  0.96750556558E+03  0.96146953786E+03 0.  0.
        2    1    3    3  502    0 -0.46751758651E+03  0.10713240085E+03  0.86650367439E+02  0.48739956011E+03  0.25500000920E-02 0. -1.
       -2    1    3    3    0  502  0.46751758651E+03 -0.10713240085E+03  0.21253975315E+02  0.48010600547E+03  0.25500000920E-02 0.  1.
</event>
<event>
 5   0  0.1535906E-02  0.9303622E+03  0.7818609E-02  0.9388403E-01
        2   -1    0    0  501    0  0.00000000000E+00  0.00000000000E+00  0.11364657343E+04  0.11364657343E+04  0.25500000920E-02 0. -1.
       -2   -1    0    0    0  501  0.00000000000E+00  0.00000000000E+00 -0.19040914648E+03  0.19040914650E+03  0.25500000920E-02 0.  1.
    10030    2    1    2    0    0  0.00000000000E+00  0.00000000000E+00  0.94605658779E+03  0.13268748808E+04  0.93036223156E+03 0.  0.
        2    1    3    3  502    0 -0.32069141328E+01 -0.45981382418E+03  0.37264189109E+03  0.59186232876E+03  0.25500000920E-02 0.  1.
       -2    1    3    3    0  502  0.32069141328E+01  0.45981382418E+03  0.57341469670E+03  0.73501255201E+03  0.25500000920E-02 0. -1.
</event>
<event>
 5   0  0.8524692E-03  0.8712753E+03  0.7818609E-02  0.9462219E-01
        1   -1    0    0  501    0  0.00000000000E+00  0.00000000000E+00  0.14831094089E+04  0.14831094089E+04  0.50400001928E-02 0.  1.
       -1   -1    0    0    0  501  0.00000000000E+00  0.00000000000E+00 -0.12796098508E+03  0.12796098518E+03  0.50400001928E-02 0. -1.
    10030    2    1    2    0    0  0.00000000000E+00  0.00000000000E+00  0.13551484238E+04  0.16110703941E+04  0.87127525164E+03 0.  0.
        5    1    3    3  502    0  0.13946383126E+03 -0.13925180464E+02  0.14402310028E+04  0.14470423291E+04  0.46999998093E+01 0.  1.
       -5    1    3    3    0  502 -0.13946383126E+03  0.13925180464E+02 -0.85082578916E+02  0.16402806501E+03  0.46999998093E+01 0. -1.
</event>
<event>
 5   0  0.8291252E-03  0.9309549E+03  0.7818609E-02  0.9387693E-01
        1   -1    0    0  501    0  0.00000000000E+00  0.00000000000E+00  0.10754325680E+04  0.10754325680E+04  0.50400001928E-02 0. -1.
       -1   -1    0    0    0  501  0.00000000000E+00  0.00000000000E+00 -0.20147172664E+03  0.20147172671E+03  0.50400001928E-02 0.  1.
    10030    2    1    2    0    0  0.00000000000E+00  0.00000000000E+00  0.87396084135E+03  0.12769042947E+04  0.93095489989E+03 0.  0.
        1    1    3    3  502    0  0.76646767861E+02  0.35638011230E+03  0.83400734237E+03  0.91019215478E+03  0.50400001928E-02 0. -1.
       -1    1    3    3    0  502 -0.76646767861E+02 -0.35638011230E+03  0.39953498977E+02  0.36671213993E+03  0.50400001928E-02 0.  1.
</event>
<event>
 5   0  0.1454652E-02  0.9510806E+03  0.7818609E-02  0.9363888E-01
        2   -1    0    0  501    0  0.00000000000E+00  0.00000000000E+00  0.48711240078E+03  0.48711240078E+03  0.25500000920E-02 0. -1.
       -2   -1    0    0    0  501  0.00000000000E+00  0.00000000000E+00 -0.46424312137E+03  0.46424312138E+03  0.25500000920E-02 0.  1.
    10030    2    1    2    0    0  0.00000000000E+00  0.00000000000E+00  0.22869279409E+02  0.95135552216E+03  0.95108060941E+03 0.  0.
        4    1    3    3  502    0  0.20495829460E+03  0.27436774286E+03 -0.31858709354E+03  0.46774449213E+03  0.12699999809E+01 0.  1.
       -4    1    3    3    0  502 -0.20495829460E+03 -0.27436774286E+03  0.34145637295E+03  0.48361103003E+03  0.12699999809E+01 0. -1.
</event>
<event>
 5   0  0.8291252E-03  0.8969088E+03  0.7818609E-02  0.9429454E-01
        1   -1    0    0  501    0  0.00000000000E+00  0.00000000000E+00  0.13928995376E+04  0.13928995376E+04  0.50400001928E-02 0. -1.
       -1   -1    0    0    0  501  0.00000000000E+00  0.00000000000E+00 -0.14438323547E+03  0.14438323556E+03  0.50400001928E-02 0.  1.
    10030    2    1    2    0    0  0.00000000000E+00  0.00000000000E+00  0.12485163021E+04  0.15372827731E+04  0.89690878465E+03 0.  0.
        1    1    3    3  502    0  0.91741553281E+02 -0.35657967535E+03  0.18544685438E+03  0.41225733868E+03  0.50400001928E-02 0. -1.
       -1    1    3    3    0  502 -0.91741553281E+02  0.35657967535E+03  0.10630694477E+04  0.11250254344E+04  0.50400001928E-02 0.  1.
</event>
<event>
 5   0  0.1454652E-02  0.9051509E+03  0.7818609E-02  0.9419165E-01
        2   -1    0    0  501    0  0.00000000000E+00  0.00000000000E+00  0.30749213614E+03  0.30749213615E+03  0.25500000920E-02 0. -1.
       -2   -1    0    0    0  501  0.00000000000E+00  0.00000000000E+00 -0.66611305289E+03  0.66611305290E+03  0.25500000920E-02 0.  1.
    10030    2    1    2    0    0  0.00000000000E+00  0.00000000000E+00 -0.35862091675E+03  0.97360518905E+03  0.90515087263E+03 0.  0.
        4    1    3    3  502    0  0.42196210146E+03  0.84835813189E+02 -0.32979756192E+03  0.54223350599E+03  0.12699999809E+01 0.  1.
       -4    1    3    3    0  502 -0.42196210146E+03 -0.84835813189E+02 -0.28823354834E+02  0.43137168306E+03  0.12699999809E+01 0. -1.
</event>
<event>
 5   0  0.1441195E-02  0.8942505E+03  0.7818609E-02  0.9432797E-01
        2   -1    0    0  501    0  0.00000000000E+00  0.00000000000E+00  0.73487052040E+03  0.73487052040E+03  0.25500000920E-02 0.  1.
       -2   -1    0    0    0  501  0.00000000000E+00  0.00000000000E+00 -0.27204929513E+03  0.27204929514E+03  0.25500000920E-02 0. -1.
    10030    2    1    2    0    0  0.00000000000E+00  0.00000000000E+00  0.46282122527E+03  0.10069198155E+04  0.89425054004E+03 0.  0.
        5    1    3    3  502    0 -0.32936007469E+03  0.71935388497E+02 -0.99267580390E+02  0.35146678567E+03  0.46999998093E+01 0. -1.
       -5    1    3    3    0  502  0.32936007469E+03 -0.71935388497E+02  0.56208880566E+03  0.65545302987E+03  0.46999998093E+01 0.  1.
</event>
<event>
 5   0  0.8612969E-03  0.8910509E+03  0.7818609E-02  0.9436838E-01
        1   -1    0    0  501    0  0.00000000000E+00  0.00000000000E+00  0.62871554566E+03  0.62871554568E+03  0.50400001928E-02 0.  1.
       -1   -1    0    0    0  501  0.00000000000E+00  0.00000000000E+00 -0.31571184024E+03  0.31571184028E+03  0.50400001928E-02 0. -1.
    10030    2    1    2    0    0  0.00000000000E+00  0.00000000000E+00  0.31300370542E+03  0.94442738597E+03  0.89105093443E+03 0.  0.
        4    1    3    3  502    0 -0.12002571428E+03  0.36856222898E+03  0.38931171854E+03  0.54937192849E+03  0.12699999809E+01 0.  1.
       -4    1    3    3    0  502  0.12002571428E+03 -0.36856222898E+03 -0.76308013126E+02  0.39505545748E+03  0.12699999809E+01 0. -1.
</event>
<event>
 5   0  0.1441195E-02  0.8905592E+03  0.7818609E-02  0.9437460E-01
       -2   -1    0    0    0  501  0.00000000000E+00  0.00000000000E+00  0.10542798751E+03  0.10542798754E+03  0.25500000920E-02 0.  1.
        2   -1    0    0  501    0  0.00000000000E+00  0.00000000000E+00 -0.18806571876E+04  0.18806571876E+04  0.25500000920E-02 0. -1.
    10030    2    1    2    0    0  0.00000000000E+00  0.00000000000E+00 -0.17752292000E+04  0.19860851751E+04  0.89055915586E+03 0.  0.
        5    1    3    3  502    0 -0.22575736514E+03 -0.33887235922E+03 -0.12893580419E+04  0.13521342811E+04  0.46999998093E+01 0. -1.
       -5    1    3    3    0  502  0.22575736514E+03  0.33887235922E+03 -0.48587115811E+03  0.63395089403E+03  0.46999998093E+01 0.  1.
</event>
<event>
 5   0  0.5770125E-03  0.9016332E+03  0.7818609E-02  0.9423542E-01
       -4   -1    0    0    0  501  0.00000000000E+00  0.00000000000E+00  0.11686212224E+04  0.11686219125E+04  0.12699999809E+01 0.  1.
        4   -1    0    0  501    0  0.00000000000E+00  0.00000000000E+00 -0.17390753241E+03  0.17391216958E+03  0.12699999809E+01 0. -1.
    10030    2    1    2    0    0  0.00000000000E+00  0.00000000000E+00  0.99471368996E+03  0.13425340820E+04  0.90163320505E+03 0.  0.
        1    1    3    3  502    0 -0.27123961308E+03 -0.29192320754E+03  0.18344375255E+03  0.43868177210E+03  0.50400001928E-02 0. -1.
       -1    1    3    3    0  502  0.27123961308E+03  0.29192320754E+03  0.81126993741E+03  0.90385230993E+03  0.50400001928E-02 0.  1.
</event>
<event>
 5   0  0.1535906E-02  0.8941794E+03  0.7818609E-02  0.9432887E-01
       -2   -1    0    0    0  501  0.00000000000E+00  0.00000000000E+00  0.25179655607E+03  0.25179655608E+03  0.25500000920E-02 0. -1.
        2   -1    0    0  501    0  0.00000000000E+00  0.00000000000E+00 -0.79385198744E+03  0.79385198744E+03  0.25500000920E-02 0.  1.
    10030    2    1    2    0    0  0.00000000000E+00  0.00000000000E+00 -0.54205543137E+03  0.10456485435E+04  0.89417939246E+03 0.  0.
        2    1    3    3  502    0 -0.15041352391E+03 -0.19567370445E+03 -0.70697320312E+03  0.74881475462E+03  0.25500000920E-02 0.  1.
       -2    1    3    3    0  502  0.15041352391E+03  0.19567370445E+03  0.16491777175E+03  0.29683378891E+03  0.25500000920E-02 0. -1.
</event>
<event>
 5   0  0.8738044E-03  0.9052538E+03  0.7818609E-02  0.9419038E-01
       -1   -1    0    0    0  501  0.00000000000E+00  0.00000000000E+00  0.63225074570E+03  0.63225074572E+03  0.50400001928E-02 0. -1.
        1   -1    0    0  501    0  0.00000000000E+00  0.00000000000E+00 -0.32403455844E+03  0.32403455848E+03  0.50400001928E-02 0.  1.
    10030    2    1    2    0    0  0.00000000000E+00  0.00000000000E+00  0.30821618726E+03  0.95628530420E+03  0.90525375721E+03 0.  0.
        3    1    3    3  502    0 -0.26617826714E+03  0.29263774568E+03  0.38647012385E+03  0.55303425475E+03  0.10100000352E+00 0. -1.
       -3    1    3    3    0  502  0.26617826714E+03 -0.29263774568E+03 -0.78253936593E+02  0.40325104945E+03  0.10100000352E+00 0.  1.
</event>
</LesHouchesEvents>
