<LesHouchesEvents version="3.0">
<header>
<!--
#*********************************************************************
#                                                                    *
#                        MadGraph5_aMC@NLO                           *
#                                                                    *
#                           Going Beyond                             *
#                                                                    *
#                   http://madgraph.hep.uiuc.edu                     *
#                   http://madgraph.phys.ucl.ac.be                   *
#                   http://amcatnlo.cern.ch                          *
#                                                                    *
#                     The MadGraph5_aMC@NLO team                     *
#                                                                    *
#....................................................................*
#                                                                    *
# This file contains all the information necessary to reproduce      *
# the events generated:                                              *
#                                                                    *
# 1. software version                                                *
# 2. proc_card          : code generation info including model       *
# 3. param_card         : model primary parameters in the LH format  *
# 4. run_card           : running parameters (collider and cuts)     *
# 5. pythia_card        : present only if pythia has been run        *
# 6. pgs_card           : present only if pgs has been run           *
# 7. delphes_cards      : present only if delphes has been run       *
#                                                                    *
#                                                                    *
#*********************************************************************
-->
<MGVersion>
#5.2.2.3
</MGVersion>
<MG5ProcCard>
#************************************************************
#*                     MadGraph5_aMC@NLO                    *
#*                                                          *
#*                *                       *                 *
#*                  *        * *        *                   *
#*                    * * * * 5 * * * *                     *
#*                  *        * *        *                   *
#*                *                       *                 *
#*                                                          *
#*                                                          *
#*         VERSION 2.2.3                 2015-02-10         *
#*                                                          *
#*    The MadGraph5_aMC@NLO Development Team - Find us at   *
#*    https://server06.fynu.ucl.ac.be/projects/madgraph     *
#*                                                          *
#************************************************************
#*                                                          *
#*               Command File for MadGraph5_aMC@NLO         *
#*                                                          *
#*     run as ./bin/mg5_aMC  filename                       *
#*                                                          *
#************************************************************
set group_subprocesses Auto
set ignore_six_quark_processes False
set loop_optimized_output True
set gauge unitary
set complex_mass_scheme False
import model sm
define p = g u c d s u~ c~ d~ s~
define j = g u c d s u~ c~ d~ s~
define l+ = e+ mu+
define l- = e- mu-
define vl = ve vm vt
define vl~ = ve~ vm~ vt~
import model Zprime_UFO
generate p p > zph, zph > j j
add process p p > zph, zph > b b~
output Dijet_signal
</MG5ProcCard>
<MGProcCard>
#*********************************************************************
#                        MadGraph/MadEvent                           *
#                   http://madgraph.hep.uiuc.edu                     *
#                                                                    *
#                          proc_card.dat                             *
#*********************************************************************
#                                                                    *
#            This Files is generated by MADGRAPH 5                   *
#                                                                    *
# WARNING: This Files is generated for MADEVENT (compatibility issue)*
#          This files is NOT a valid MG4 proc_card.dat               *
#          Running this in MG4 will NEVER reproduce the result of MG5*
#                                                                    *
#*********************************************************************
#*********************************************************************
# Process(es) requested : mg2 input                                  *
#*********************************************************************
# Begin PROCESS # This is TAG. Do not modify this line
p p > zph , zph > j j           #Process
# Be carefull the coupling are here in MG5 convention
          
end_coup           # End the couplings input

done               # this tells MG there are no more procs
# End PROCESS  # This is TAG. Do not modify this line
#*********************************************************************
# Model information                                                  *
#*********************************************************************
# Begin MODEL  # This is TAG. Do not modify this line
Zprime_UFO
# End   MODEL  # This is TAG. Do not modify this line
#*********************************************************************
# Start multiparticle definitions                                    *
#*********************************************************************
# Begin MULTIPARTICLES # This is TAG. Do not modify this line

# End  MULTIPARTICLES # This is TAG. Do not modify this line
</MGProcCard>
<MGRunCard>
#*********************************************************************
#                       MadGraph5_aMC@NLO                            *
#                                                                    *
#                     run_card.dat MadEvent                          *
#                                                                    *
#  This file is used to set the parameters of the run.               *
#                                                                    *
#  Some notation/conventions:                                        *
#                                                                    *
#   Lines starting with a '# ' are info or comments                  *
#                                                                    *
#   mind the format:   value    = variable     ! comment             *
#*********************************************************************
#
#*******************                                                 
# Running parameters
#*******************                                                 
#                                                                    
#*********************************************************************
# Tag name for the run (one word)                                    *
#*********************************************************************
  tag_1     = run_tag ! name of the run 
#*********************************************************************
# Run to generate the grid pack                                      *
#*********************************************************************
  .false.     = gridpack  !True = setting up the grid pack
#*********************************************************************
# Number of events and rnd seed                                      *
# Warning: Do not generate more than 1M events in a single run       *
# If you want to run Pythia, avoid more than 50k events in a run.    *
#*********************************************************************
  2000 = nevents ! Number of unweighted events requested 
 1965 = iseed   ! rnd seed (0=assigned automatically=default))
#*********************************************************************
# Collider type and energy                                           *
# lpp: 0=No PDF, 1=proton, -1=antiproton, 2=photon from proton,      *
#                                         3=photon from electron     *
#*********************************************************************
        1     = lpp1    ! beam 1 type 
        1     = lpp2    ! beam 2 type
     4000     = ebeam1  ! beam 1 total energy in GeV
     4000     = ebeam2  ! beam 2 total energy in GeV
#*********************************************************************
# Beam polarization from -100 (left-handed) to 100 (right-handed)    *
#*********************************************************************
        0     = polbeam1 ! beam polarization for beam 1
        0     = polbeam2 ! beam polarization for beam 2
#*********************************************************************
# PDF CHOICE: this automatically fixes also alpha_s and its evol.    *
#*********************************************************************
 'nn23lo1'    = pdlabel     ! PDF set                                     
 230000    = lhaid     ! if pdlabel=lhapdf, this is the lhapdf number
#*********************************************************************
# Renormalization and factorization scales                           *
#*********************************************************************
 F        = fixed_ren_scale  ! if .true. use fixed ren scale
 F        = fixed_fac_scale  ! if .true. use fixed fac scale
 91.1880  = scale            ! fixed ren scale
 91.1880  = dsqrt_q2fact1    ! fixed fact scale for pdf1
 91.1880  = dsqrt_q2fact2    ! fixed fact scale for pdf2
 1        = scalefact        ! scale factor for event-by-event scales
#*********************************************************************
# Matching - Warning! ickkw > 1 is still beta
#*********************************************************************
 0        = ickkw            ! 0 no matching, 1 MLM, 2 CKKW matching
 1        = highestmult      ! for ickkw=2, highest mult group
 1        = ktscheme         ! for ickkw=1, 1 Durham kT, 2 Pythia pTE
 1        = alpsfact         ! scale factor for QCD emission vx
 F        = chcluster        ! cluster only according to channel diag
 T        = pdfwgt           ! for ickkw=1, perform pdf reweighting
 5        = asrwgtflavor     ! highest quark flavor for a_s reweight
 T        = clusinfo         ! include clustering tag in output
 3.0      = lhe_version       ! Change the way clustering information pass to shower.        
#*********************************************************************
#**********************************************************
#
#**********************************************************
# Automatic ptj and mjj cuts if xqcut > 0
# (turn off for VBF and single top processes)
#**********************************************************
   T  = auto_ptj_mjj  ! Automatic setting of ptj and mjj
#**********************************************************
#                                                                    
#**********************************
# BW cutoff (M+/-bwcutoff*Gamma)
#**********************************
  15  = bwcutoff      ! (M+/-bwcutoff*Gamma)
#**********************************************************
# Apply pt/E/eta/dr/mij cuts on decay products or not
# (note that etmiss/ptll/ptheavy/ht/sorted cuts always apply)
#**********************************************************
   T  = cut_decays    ! Cut decay products 
#*************************************************************
# Number of helicities to sum per event (0 = all helicities)
# 0 gives more stable result, but longer run time (needed for
# long decay chains e.g.).
# Use >=2 if most helicities contribute, e.g. pure QCD.
#*************************************************************
   0  = nhel          ! Number of helicities used per event
#*******************                                                 
# Standard Cuts
#*******************                                                 
#                                                                    
#*********************************************************************
# Minimum and maximum pt's (for max, -1 means no cut)                *
#*********************************************************************
 20  = ptj       ! minimum pt for the jets 
  0  = ptb       ! minimum pt for the b 
 10  = pta       ! minimum pt for the photons 
 10  = ptl       ! minimum pt for the charged leptons 
  0  = misset    ! minimum missing Et (sum of neutrino's momenta)
  0  = ptheavy   ! minimum pt for one heavy final state
 1.0 = ptonium   ! minimum pt for the quarkonium states
 -1  = ptjmax    ! maximum pt for the jets
 -1  = ptbmax    ! maximum pt for the b
 -1  = ptamax    ! maximum pt for the photons
 -1  = ptlmax    ! maximum pt for the charged leptons
 -1  = missetmax ! maximum missing Et (sum of neutrino's momenta)
#*********************************************************************
# Minimum and maximum E's (in the center of mass frame)              *
#*********************************************************************
  0  = ej     ! minimum E for the jets 
  0  = eb     ! minimum E for the b 
  0  = ea     ! minimum E for the photons 
  0  = el     ! minimum E for the charged leptons 
 -1   = ejmax ! maximum E for the jets
 -1   = ebmax ! maximum E for the b
 -1   = eamax ! maximum E for the photons
 -1   = elmax ! maximum E for the charged leptons
#*********************************************************************
# Maximum and minimum absolute rapidity (for max, -1 means no cut)   *
#*********************************************************************
   5  = etaj    ! max rap for the jets 
  -1  = etab    ! max rap for the b
 2.5  = etaa    ! max rap for the photons 
 2.5  = etal    ! max rap for the charged leptons 
 0.6  = etaonium ! max rap for the quarkonium states
   0  = etajmin ! min rap for the jets
   0  = etabmin ! min rap for the b
   0  = etaamin ! min rap for the photons
   0  = etalmin ! main rap for the charged leptons
#*********************************************************************
# Minimum and maximum DeltaR distance                                *
#*********************************************************************
 0.4 = drjj    ! min distance between jets 
 0   = drbb    ! min distance between b's 
 0.4 = drll    ! min distance between leptons 
 0.4 = draa    ! min distance between gammas 
 0   = drbj    ! min distance between b and jet 
 0.4 = draj    ! min distance between gamma and jet 
 0.4 = drjl    ! min distance between jet and lepton 
 0   = drab    ! min distance between gamma and b 
 0   = drbl    ! min distance between b and lepton 
 0.4 = dral    ! min distance between gamma and lepton 
 -1  = drjjmax ! max distance between jets
 -1  = drbbmax ! max distance between b's
 -1  = drllmax ! max distance between leptons
 -1  = draamax ! max distance between gammas
 -1  = drbjmax ! max distance between b and jet
 -1  = drajmax ! max distance between gamma and jet
 -1  = drjlmax ! max distance between jet and lepton
 -1  = drabmax ! max distance between gamma and b
 -1  = drblmax ! max distance between b and lepton
 -1  = dralmax ! maxdistance between gamma and lepton
#*********************************************************************
# Minimum and maximum invariant mass for pairs                       *
# WARNING: for four lepton final state mmll cut require to have      *
#          different lepton masses for each flavor!                  *           
#*********************************************************************
 0   = mmjj    ! min invariant mass of a jet pair 
 0   = mmbb    ! min invariant mass of a b pair 
 0   = mmaa    ! min invariant mass of gamma gamma pair
 0   = mmll    ! min invariant mass of l+l- (same flavour) lepton pair
 -1  = mmjjmax ! max invariant mass of a jet pair
 -1  = mmbbmax ! max invariant mass of a b pair
 -1  = mmaamax ! max invariant mass of gamma gamma pair
 -1  = mmllmax ! max invariant mass of l+l- (same flavour) lepton pair
#*********************************************************************
# Minimum and maximum invariant mass for all letpons                 *
#*********************************************************************
 0   = mmnl    ! min invariant mass for all letpons (l+- and vl) 
 -1  = mmnlmax ! max invariant mass for all letpons (l+- and vl) 
#*********************************************************************
# Minimum and maximum pt for 4-momenta sum of leptons                *
#*********************************************************************
 0   = ptllmin  ! Minimum pt for 4-momenta sum of leptons(l and vl)
 -1  = ptllmax  ! Maximum pt for 4-momenta sum of leptons(l and vl)
#*********************************************************************
# Inclusive cuts                                                     *
#*********************************************************************
 0  = xptj ! minimum pt for at least one jet  
 0  = xptb ! minimum pt for at least one b 
 0  = xpta ! minimum pt for at least one photon 
 0  = xptl ! minimum pt for at least one charged lepton 
#*********************************************************************
# Control the pt's of the jets sorted by pt                          *
#*********************************************************************
 0   = ptj1min ! minimum pt for the leading jet in pt
 0   = ptj2min ! minimum pt for the second jet in pt
 0   = ptj3min ! minimum pt for the third jet in pt
 0   = ptj4min ! minimum pt for the fourth jet in pt
 -1  = ptj1max ! maximum pt for the leading jet in pt 
 -1  = ptj2max ! maximum pt for the second jet in pt
 -1  = ptj3max ! maximum pt for the third jet in pt
 -1  = ptj4max ! maximum pt for the fourth jet in pt
 0   = cutuse  ! reject event if fails any (0) / all (1) jet pt cuts
#*********************************************************************
# Control the pt's of leptons sorted by pt                           *
#*********************************************************************
 0   = ptl1min ! minimum pt for the leading lepton in pt
 0   = ptl2min ! minimum pt for the second lepton in pt
 0   = ptl3min ! minimum pt for the third lepton in pt
 0   = ptl4min ! minimum pt for the fourth lepton in pt
 -1  = ptl1max ! maximum pt for the leading lepton in pt 
 -1  = ptl2max ! maximum pt for the second lepton in pt
 -1  = ptl3max ! maximum pt for the third lepton in pt
 -1  = ptl4max ! maximum pt for the fourth lepton in pt
#*********************************************************************
# Control the Ht(k)=Sum of k leading jets                            *
#*********************************************************************
 0   = htjmin ! minimum jet HT=Sum(jet pt)
 -1  = htjmax ! maximum jet HT=Sum(jet pt)
 0   = ihtmin  !inclusive Ht for all partons (including b)
 -1  = ihtmax  !inclusive Ht for all partons (including b)
 0   = ht2min ! minimum Ht for the two leading jets
 0   = ht3min ! minimum Ht for the three leading jets
 0   = ht4min ! minimum Ht for the four leading jets
 -1  = ht2max ! maximum Ht for the two leading jets
 -1  = ht3max ! maximum Ht for the three leading jets
 -1  = ht4max ! maximum Ht for the four leading jets
#***********************************************************************
# Photon-isolation cuts, according to hep-ph/9801442                   *
# When ptgmin=0, all the other parameters are ignored                  *
# When ptgmin>0, pta and draj are not going to be used                 *
#***********************************************************************
   0 = ptgmin ! Min photon transverse momentum
 0.4 = R0gamma ! Radius of isolation code
 1.0 = xn ! n parameter of eq.(3.4) in hep-ph/9801442
 1.0 = epsgamma ! epsilon_gamma parameter of eq.(3.4) in hep-ph/9801442
 .true. = isoEM ! isolate photons from EM energy (photons and leptons)
#*********************************************************************
# WBF cuts                                                           *
#*********************************************************************
 0   = xetamin ! minimum rapidity for two jets in the WBF case  
 0   = deltaeta ! minimum rapidity for two jets in the WBF case 
#*********************************************************************
# KT DURHAM CUT                                                      *
#*********************************************************************
 -1    =  ktdurham        
 0.4  =  dparameter 
#*********************************************************************
# maximal pdg code for quark to be considered as a light jet         *
# (otherwise b cuts are applied)                                     *
#*********************************************************************
 4 = maxjetflavor    ! Maximum jet pdg code
#*********************************************************************
# Jet measure cuts                                                   *
#*********************************************************************
 0   = xqcut   ! minimum kt jet measure between partons
#*********************************************************************
#
#*********************************************************************
# Store info for systematics studies                                 *
# WARNING: If use_syst is T, matched Pythia output is                *
#          meaningful ONLY if plotted taking matchscale              *
#          reweighting into account!                                 *
#*********************************************************************
   F  = use_syst      ! Enable systematics studies
#
#**************************************
# Parameter of the systematics study
#  will be used by SysCalc (if installed)
#**************************************                                  
#
0.5 1 2 = sys_scalefact  # factorization/renormalization scale factor
0.5 1 2 = sys_alpsfact  # \alpha_s emission scale factors
30 50 = sys_matchscale # variation of merging scale
# PDF sets and number of members (0 or none for all members).
CT10nlo.LHgrid = sys_pdf # matching scales
# MSTW2008nlo68cl.LHgrid 1  = sys_pdf
</MGRunCard>
<slha>
######################################################################
## PARAM_CARD AUTOMATICALY GENERATED BY MG5 FOLLOWING UFO MODEL   ####
######################################################################
##                                                                  ##
##  Width set on Auto will be computed following the information    ##
##        present in the decay.py files of the model.               ##
##        See  arXiv:1402.1178 for more details.                    ##
##                                                                  ##
######################################################################

###################################
## INFORMATION FOR CKMBLOCK
###################################
Block ckmblock 
    1 2.277360e-01 # cabi 

###################################
## INFORMATION FOR FRBLOCK
###################################
Block frblock 
    1 1.000000e+00 # gz 

###################################
## INFORMATION FOR MASS
###################################
Block mass 
    1 5.040000e-03 # MD 
    2 2.550000e-03 # MU 
    3 1.010000e-01 # MS 
    4 1.270000e+00 # MC 
    5 4.700000e+00 # MB 
    6 1.720000e+02 # MT 
   11 5.110000e-04 # Me 
   13 1.056600e-01 # MM 
   15 1.777000e+00 # MTA 
   23 9.118760e+01 # MZ 
   25 1.200000e+02 # MH 
  10030 2.400000e+03 # MZph 
  10031 3.000000e+02 # MZpl 
## Dependent parameters, given by model restrictions.
## Those values should be edited following the 
## analytical expression. MG5 ignores those values 
## but they are important for interfacing the output of MG5
## to external program such as Pythia.
  12 0.000000 # ve : 0.0 
  14 0.000000 # vm : 0.0 
  16 0.000000 # vt : 0.0 
  21 0.000000 # g : 0.0 
  22 0.000000 # a : 0.0 
  24 79.824360 # w+ : cmath.sqrt(MZ__exp__2/2. + cmath.sqrt(MZ__exp__4/4. - (aEW*cmath.pi*MZ__exp__2)/(Gf*sqrt__2))) 

###################################
## INFORMATION FOR SMINPUTS
###################################
Block sminputs 
    1 1.279000e+02 # aEWM1 
    2 1.166370e-05 # Gf 
    3 1.184000e-01 # aS 

###################################
## INFORMATION FOR YUKAWA
###################################
Block yukawa 
    1 5.040000e-03 # ymdo 
    2 2.550000e-03 # ymup 
    3 1.010000e-01 # yms 
    4 1.270000e+00 # ymc 
    5 4.700000e+00 # ymb 
    6 1.720000e+02 # ymt 
   11 5.110000e-04 # yme 
   13 1.056600e-01 # ymm 
   15 1.777000e+00 # ymtau 

###################################
## INFORMATION FOR DECAY
###################################
DECAY   6 1.508336e+00 # WT 
DECAY  23 2.495200e+00 # WZ 
DECAY  24 2.085000e+00 # WW 
DECAY  25 5.753088e-03 # WH 
## Dependent parameters, given by model restrictions.
## Those values should be edited following the 
## analytical expression. MG5 ignores those values 
## but they are important for interfacing the output of MG5
## to external program such as Pythia.
DECAY  1 0.000000 # d : 0.0 
DECAY  2 0.000000 # u : 0.0 
DECAY  3 0.000000 # s : 0.0 
DECAY  4 0.000000 # c : 0.0 
DECAY  5 0.000000 # b : 0.0 
DECAY  11 0.000000 # e- : 0.0 
DECAY  12 0.000000 # ve : 0.0 
DECAY  13 0.000000 # mu- : 0.0 
DECAY  14 0.000000 # vm : 0.0 
DECAY  15 0.000000 # ta- : 0.0 
DECAY  16 0.000000 # vt : 0.0 
DECAY  21 0.000000 # g : 0.0 
DECAY  22 0.000000 # a : 0.0 
DECAY  10030 0.308725 # zph : (gz__exp__2*MZph*(5 + cmath.sqrt(1 - (4*MT__exp__2)/MZph__exp__2)))/(144.*cmath.pi) 
DECAY  10031 0.132629 # zpl : (5*gz__exp__2*MZpl)/(144.*cmath.pi) 
#===========================================================
# QUANTUM NUMBERS OF NEW STATE(S) (NON SM PDG CODE)
#===========================================================

Block QNUMBERS 10030  # zph 
        1 0  # 3 times electric charge
        2 3  # number of spin states (2S+1)
        3 1  # colour rep (1: singlet, 3: triplet, 8: octet)
        4 0  # Particle/Antiparticle distinction (0=own anti)
Block QNUMBERS 10031  # zpl 
        1 0  # 3 times electric charge
        2 3  # number of spin states (2S+1)
        3 1  # colour rep (1: singlet, 3: triplet, 8: octet)
        4 0  # Particle/Antiparticle distinction (0=own anti)
</slha>
## END BANNER##
<MGGenerationInfo>
#  Number of Events        :         3932
#  Integrated weight (pb)  :  0.91789E-02
#  Max wgt                 :  0.33477E-05
#  Average wgt             :  0.23344E-05
</MGGenerationInfo>
</header>
<init>
     2212     2212  0.40000000000E+04  0.40000000000E+04 0 0  247000  247000 2   1
  0.91867909650E-02  0.22180051485E-04  0.33477280000E-05   0
</init>
<event>
 5   0  0.3215208E-05  0.2396611E+04  0.7818609E-02  0.8440773E-01
        2   -1    0    0  501    0  0.00000000000E+00  0.00000000000E+00  0.79919517372E+03  0.79919517373E+03  0.25500000920E-02 0.  1.
       -2   -1    0    0    0  501  0.00000000000E+00  0.00000000000E+00 -0.17967281824E+04  0.17967281824E+04  0.25500000920E-02 0. -1.
    10030    2    1    2    0    0  0.00000000000E+00  0.00000000000E+00 -0.99753300871E+03  0.25959233562E+04  0.23966113510E+04 0.  0.
        1    1    3    3  502    0 -0.26200903085E+02  0.51839614225E+03 -0.16686416128E+04  0.17475084777E+04  0.50400001928E-02 0. -1.
       -1    1    3    3    0  502  0.26200903085E+02 -0.51839614225E+03  0.67110860404E+03  0.84841487851E+03  0.50400001928E-02 0.  1.
</event>
<event>
 5   0  0.3215208E-05  0.2473315E+04  0.7818609E-02  0.8412554E-01
        2   -1    0    0  501    0  0.00000000000E+00  0.00000000000E+00  0.12688123641E+04  0.12688123641E+04  0.25500000920E-02 0.  1.
       -2   -1    0    0    0  501  0.00000000000E+00  0.00000000000E+00 -0.12053172421E+04  0.12053172421E+04  0.25500000920E-02 0. -1.
    10030    2    1    2    0    0  0.00000000000E+00  0.00000000000E+00  0.63495122042E+02  0.24741296062E+04  0.24733147147E+04 0.  0.
        1    1    3    3  502    0 -0.32464266654E+03  0.59303301400E+03 -0.10040840221E+04  0.12104816150E+04  0.50400001928E-02 0. -1.
       -1    1    3    3    0  502  0.32464266654E+03 -0.59303301400E+03  0.10675791442E+04  0.12636479912E+04  0.50400001928E-02 0.  1.
</event>
<event>
 5   0  0.3347728E-05  0.2363936E+04  0.7818609E-02  0.8453130E-01
       -2   -1    0    0    0  501  0.00000000000E+00  0.00000000000E+00  0.10373473484E+04  0.10373473484E+04  0.25500000920E-02 0. -1.
        2   -1    0    0  501    0  0.00000000000E+00  0.00000000000E+00 -0.13467508967E+04  0.13467508967E+04  0.25500000920E-02 0.  1.
    10030    2    1    2    0    0  0.00000000000E+00  0.00000000000E+00 -0.30940354826E+03  0.23840982451E+04  0.23639361004E+04 0.  0.
        3    1    3    3  502    0  0.29356254763E+03 -0.40822616448E+03  0.92410422153E+03  0.10520438171E+04  0.10100000352E+00 0. -1.
       -3    1    3    3    0  502 -0.29356254763E+03  0.40822616448E+03 -0.12335077698E+04  0.13320544280E+04  0.10100000352E+00 0.  1.
</event>
<event>
 5   0  0.3215208E-05  0.2411577E+04  0.7818609E-02  0.8435182E-01
       -2   -1    0    0    0  501  0.00000000000E+00  0.00000000000E+00  0.14355130385E+04  0.14355130385E+04  0.25500000920E-02 0.  1.
        2   -1    0    0  501    0  0.00000000000E+00  0.00000000000E+00 -0.10128267583E+04  0.10128267583E+04  0.25500000920E-02 0. -1.
    10030    2    1    2    0    0  0.00000000000E+00  0.00000000000E+00  0.42268628024E+03  0.24483397968E+04  0.24115770917E+04 0.  0.
        1    1    3    3  502    0  0.11128458835E+02  0.87892895939E+03  0.10493263042E+04  0.13688409882E+04  0.50400001928E-02 0.  1.
       -1    1    3    3    0  502 -0.11128458835E+02 -0.87892895939E+03 -0.62664002391E+03  0.10794988086E+04  0.50400001928E-02 0. -1.
</event>
<event>
 5   0  0.3347728E-05  0.2392837E+04  0.7818609E-02  0.8442190E-01
        2   -1    0    0  501    0  0.00000000000E+00  0.00000000000E+00  0.18013591294E+04  0.18013591294E+04  0.25500000920E-02 0. -1.
       -2   -1    0    0    0  501  0.00000000000E+00  0.00000000000E+00 -0.79463154684E+03  0.79463154685E+03  0.25500000920E-02 0.  1.
    10030    2    1    2    0    0  0.00000000000E+00  0.00000000000E+00  0.10067275825E+04  0.25959906762E+04  0.23928366358E+04 0.  0.
        3    1    3    3  502    0  0.11630161779E+04  0.16640757329E+03  0.25807378470E+03  0.12028716470E+04  0.10100000352E+00 0.  1.
       -3    1    3    3    0  502 -0.11630161779E+04 -0.16640757329E+03  0.74865379783E+03  0.13931190293E+04  0.10100000352E+00 0. -1.
</event>
<event>
 5   0  0.1407158E-05  0.2388525E+04  0.7818609E-02  0.8443812E-01
       -1   -1    0    0    0  501  0.00000000000E+00  0.00000000000E+00  0.70433095462E+03  0.70433095464E+03  0.50400001928E-02 0.  1.
        1   -1    0    0  501    0  0.00000000000E+00  0.00000000000E+00 -0.20249897346E+04  0.20249897346E+04  0.50400001928E-02 0. -1.
    10030    2    1    2    0    0  0.00000000000E+00  0.00000000000E+00 -0.13206587800E+04  0.27293206892E+04  0.23885250285E+04 0.  0.
        1    1    3    3  502    0  0.44042734177E+03  0.96519515569E+02  0.60333805068E+03  0.75319921912E+03  0.50400001928E-02 0.  1.
       -1    1    3    3    0  502 -0.44042734177E+03 -0.96519515569E+02 -0.19239968306E+04  0.19761214701E+04  0.50400001928E-02 0. -1.
</event>
<event>
 5   0  0.1506985E-05  0.2406345E+04  0.7818609E-02  0.8437132E-01
       -1   -1    0    0    0  501  0.00000000000E+00  0.00000000000E+00  0.11423506746E+04  0.11423506746E+04  0.50400001928E-02 0. -1.
        1   -1    0    0  501    0  0.00000000000E+00  0.00000000000E+00 -0.12672321575E+04  0.12672321575E+04  0.50400001928E-02 0.  1.
    10030    2    1    2    0    0  0.00000000000E+00  0.00000000000E+00 -0.12488148295E+03  0.24095828321E+04  0.24063445389E+04 0.  0.
        3    1    3    3  502    0 -0.26866900392E+03 -0.10829950358E+04  0.38823405706E+03  0.11814342870E+04  0.10100000352E+00 0. -1.
       -3    1    3    3    0  502  0.26866900392E+03  0.10829950358E+04 -0.51311554001E+03  0.12281485451E+04  0.10100000352E+00 0.  1.
</event>
<event>
 5   0  0.3215208E-05  0.2413120E+04  0.7818609E-02  0.8434608E-01
        2   -1    0    0  501    0  0.00000000000E+00  0.00000000000E+00  0.12827399481E+04  0.12827399481E+04  0.25500000920E-02 0. -1.
       -2   -1    0    0    0  501  0.00000000000E+00  0.00000000000E+00 -0.11349047311E+04  0.11349047311E+04  0.25500000920E-02 0.  1.
    10030    2    1    2    0    0  0.00000000000E+00  0.00000000000E+00  0.14783521698E+03  0.24176446792E+04  0.24131204992E+04 0.  0.
        1    1    3    3  502    0 -0.41996518715E+03 -0.57141067754E+03 -0.90408194787E+03  0.11490191858E+04  0.50400001928E-02 0.  1.
       -1    1    3    3    0  502  0.41996518715E+03  0.57141067754E+03  0.10519171648E+04  0.12686254934E+04  0.50400001928E-02 0. -1.
</event>
<event>
 5   0  0.1401596E-05  0.2400214E+04  0.7818609E-02  0.8439424E-01
       -1   -1    0    0    0  501  0.00000000000E+00  0.00000000000E+00  0.12776450639E+04  0.12776450640E+04  0.50400001928E-02 0. -1.
        1   -1    0    0  501    0  0.00000000000E+00  0.00000000000E+00 -0.11272741621E+04  0.11272741622E+04  0.50400001928E-02 0.  1.
    10030    2    1    2    0    0  0.00000000000E+00  0.00000000000E+00  0.15037090180E+03  0.24049192261E+04  0.24002135480E+04 0.  0.
        2    1    3    3  502    0  0.27137484841E+03 -0.41931303185E+03  0.11685574186E+04  0.12708242080E+04  0.25500000920E-02 0. -1.
       -2    1    3    3    0  502 -0.27137484841E+03  0.41931303185E+03 -0.10181865168E+04  0.11340950181E+04  0.25500000920E-02 0.  1.
</event>
<event>
 5   0  0.3215208E-05  0.2375987E+04  0.7818609E-02  0.8448549E-01
       -2   -1    0    0    0  501  0.00000000000E+00  0.00000000000E+00  0.73954522411E+03  0.73954522412E+03  0.25500000920E-02 0. -1.
        2   -1    0    0  501    0  0.00000000000E+00  0.00000000000E+00 -0.19083732027E+04  0.19083732027E+04  0.25500000920E-02 0.  1.
    10030    2    1    2    0    0  0.00000000000E+00  0.00000000000E+00 -0.11688279786E+04  0.26479184268E+04  0.23759867743E+04 0.  0.
        1    1    3    3  502    0  0.11156120008E+04 -0.22153412315E+03 -0.96668947754E+03  0.14927009245E+04  0.50400001928E-02 0.  1.
       -1    1    3    3    0  502 -0.11156120008E+04  0.22153412315E+03 -0.20213850107E+03  0.11552175023E+04  0.50400001928E-02 0. -1.
</event>
<event>
 5   0  0.1147362E-05  0.2399482E+04  0.7818609E-02  0.8439698E-01
        4   -1    0    0  501    0  0.00000000000E+00  0.00000000000E+00  0.10954150567E+04  0.10954157929E+04  0.12699999809E+01 0. -1.
       -4   -1    0    0    0  501  0.00000000000E+00  0.00000000000E+00 -0.13140008345E+04  0.13140014482E+04  0.12699999809E+01 0.  1.
    10030    2    1    2    0    0  0.00000000000E+00  0.00000000000E+00 -0.21858577784E+03  0.24094172411E+04  0.23994815481E+04 0.  0.
        4    1    3    3  502    0  0.58129030540E+03 -0.73509579100E+03  0.64288299471E+03  0.11364701487E+04  0.12699999809E+01 0. -1.
       -4    1    3    3    0  502 -0.58129030540E+03  0.73509579100E+03 -0.86146877255E+03  0.12729470924E+04  0.12699999809E+01 0.  1.
</event>
<event>
 5   0  0.3320780E-05  0.2317303E+04  0.7818609E-02  0.8471130E-01
        2   -1    0    0  501    0  0.00000000000E+00  0.00000000000E+00  0.19481121233E+04  0.19481121233E+04  0.25500000920E-02 0.  1.
       -2   -1    0    0    0  501  0.00000000000E+00  0.00000000000E+00 -0.68911517999E+03  0.68911517999E+03  0.25500000920E-02 0. -1.
    10030    2    1    2    0    0  0.00000000000E+00  0.00000000000E+00  0.12589969433E+04  0.26372273033E+04  0.23173032918E+04 0.  0.
        5    1    3    3  502    0 -0.19040049020E+03 -0.10576904309E+04  0.13671751584E+03  0.10833628956E+04  0.46999998093E+01 0. -1.
       -5    1    3    3    0  502  0.19040049020E+03  0.10576904309E+04  0.11222794275E+04  0.15538644077E+04  0.46999998093E+01 0.  1.
</event>
<event>
 5   0  0.1434943E-05  0.2367657E+04  0.7818609E-02  0.8451712E-01
        1   -1    0    0  501    0  0.00000000000E+00  0.00000000000E+00  0.16075678747E+04  0.16075678747E+04  0.50400001928E-02 0.  1.
       -1   -1    0    0    0  501  0.00000000000E+00  0.00000000000E+00 -0.87178275012E+03  0.87178275014E+03  0.50400001928E-02 0. -1.
    10030    2    1    2    0    0  0.00000000000E+00  0.00000000000E+00  0.73578512459E+03  0.24793506249E+04  0.23676570215E+04 0.  0.
        5    1    3    3  502    0  0.29416449274E+03 -0.10662850548E+04  0.80961078512E+03  0.13707619342E+04  0.46999998093E+01 0. -1.
       -5    1    3    3    0  502 -0.29416449274E+03  0.10662850548E+04 -0.73825660529E+02  0.11085886907E+04  0.46999998093E+01 0.  1.
</event>
<event>
 5   0  0.1407158E-05  0.2416814E+04  0.7818609E-02  0.8433235E-01
        1   -1    0    0  501    0  0.00000000000E+00  0.00000000000E+00  0.17872099494E+04  0.17872099495E+04  0.50400001928E-02 0.  1.
       -1   -1    0    0    0  501  0.00000000000E+00  0.00000000000E+00 -0.81705444508E+03  0.81705444509E+03  0.50400001928E-02 0. -1.
    10030    2    1    2    0    0  0.00000000000E+00  0.00000000000E+00  0.97015550437E+03  0.26042643945E+04  0.24168142945E+04 0.  0.
        1    1    3    3  502    0  0.95526106069E+03 -0.24783038346E+03 -0.26636486274E+03  0.10222004858E+04  0.50400001928E-02 0. -1.
       -1    1    3    3    0  502 -0.95526106069E+03  0.24783038346E+03  0.12365203671E+04  0.15820639087E+04  0.50400001928E-02 0.  1.
</event>
<event>
 5   0  0.1506985E-05  0.2367479E+04  0.7818609E-02  0.8451780E-01
       -1   -1    0    0    0  501  0.00000000000E+00  0.00000000000E+00  0.66759983786E+03  0.66759983788E+03  0.50400001928E-02 0.  1.
        1   -1    0    0  501    0  0.00000000000E+00  0.00000000000E+00 -0.20989203367E+04  0.20989203367E+04  0.50400001928E-02 0. -1.
    10030    2    1    2    0    0  0.00000000000E+00  0.00000000000E+00 -0.14313204989E+04  0.27665201746E+04  0.23674787235E+04 0.  0.
        3    1    3    3  502    0 -0.78421930856E+03 -0.79958818696E+03 -0.26778690478E+03  0.11515428907E+04  0.10100000352E+00 0.  1.
       -3    1    3    3    0  502  0.78421930856E+03  0.79958818696E+03 -0.11635335941E+04  0.16149772839E+04  0.10100000352E+00 0. -1.
</event>
<event>
 5   0  0.1506985E-05  0.2389201E+04  0.7818609E-02  0.8443558E-01
        1   -1    0    0  501    0  0.00000000000E+00  0.00000000000E+00  0.13841817466E+04  0.13841817466E+04  0.50400001928E-02 0. -1.
       -1   -1    0    0    0  501  0.00000000000E+00  0.00000000000E+00 -0.10309847428E+04  0.10309847428E+04  0.50400001928E-02 0.  1.
    10030    2    1    2    0    0  0.00000000000E+00  0.00000000000E+00  0.35319700386E+03  0.24151664894E+04  0.23892009225E+04 0.  0.
        3    1    3    3  502    0 -0.57454374975E+03 -0.13911112448E+03 -0.87276700334E+03  0.10541227052E+04  0.10100000352E+00 0.  1.
       -3    1    3    3    0  502  0.57454374975E+03  0.13911112448E+03  0.12259640072E+04  0.13610437842E+04  0.10100000352E+00 0. -1.
</event>
<event>
 5   0  0.3215208E-05  0.2385184E+04  0.7818609E-02  0.8445071E-01
        2   -1    0    0  501    0  0.00000000000E+00  0.00000000000E+00  0.23335967790E+04  0.23335967790E+04  0.25500000920E-02 0.  1.
       -2   -1    0    0    0  501  0.00000000000E+00  0.00000000000E+00 -0.60947794066E+03  0.60947794067E+03  0.25500000920E-02 0. -1.
    10030    2    1    2    0    0  0.00000000000E+00  0.00000000000E+00  0.17241188383E+04  0.29430747196E+04  0.23851840677E+04 0.  0.
        1    1    3    3  502    0  0.82881385718E+03 -0.85617273668E+03  0.80273476811E+03  0.14367836556E+04  0.50400001928E-02 0.  1.
       -1    1    3    3    0  502 -0.82881385718E+03  0.85617273668E+03  0.92138407018E+03  0.15062910641E+04  0.50400001928E-02 0. -1.
</event>
<event>
 5   0  0.1393026E-05  0.2409678E+04  0.7818609E-02  0.8435889E-01
        1   -1    0    0  501    0  0.00000000000E+00  0.00000000000E+00  0.22467623564E+04  0.22467623564E+04  0.50400001928E-02 0.  1.
       -1   -1    0    0    0  501  0.00000000000E+00  0.00000000000E+00 -0.64610155116E+03  0.64610155118E+03  0.50400001928E-02 0. -1.
    10030    2    1    2    0    0  0.00000000000E+00  0.00000000000E+00  0.16006608052E+04  0.28928639076E+04  0.24096776910E+04 0.  0.
        4    1    3    3  502    0  0.71443272919E+03 -0.75186652100E+03  0.64266704404E+02  0.10391579342E+04  0.12699999809E+01 0. -1.
       -4    1    3    3    0  502 -0.71443272919E+03  0.75186652100E+03  0.15363941008E+04  0.18537059734E+04  0.12699999809E+01 0.  1.
</event>
<event>
 5   0  0.1407158E-05  0.2415995E+04  0.7818609E-02  0.8433539E-01
       -1   -1    0    0    0  501  0.00000000000E+00  0.00000000000E+00  0.10136288849E+04  0.10136288849E+04  0.50400001928E-02 0. -1.
        1   -1    0    0  501    0  0.00000000000E+00  0.00000000000E+00 -0.14396375106E+04  0.14396375107E+04  0.50400001928E-02 0.  1.
    10030    2    1    2    0    0  0.00000000000E+00  0.00000000000E+00 -0.42600862575E+03  0.24532663956E+04  0.24159951694E+04 0.  0.
        1    1    3    3  502    0  0.42230966642E+02 -0.27115188854E+03  0.98155869642E+03  0.10191978590E+04  0.50400001928E-02 0. -1.
       -1    1    3    3    0  502 -0.42230966642E+02  0.27115188854E+03 -0.14075673222E+04  0.14340685366E+04  0.50400001928E-02 0.  1.
</event>
<event>
 5   0  0.3310037E-05  0.2420025E+04  0.7818609E-02  0.8432044E-01
       -2   -1    0    0    0  501  0.00000000000E+00  0.00000000000E+00  0.12783430524E+04  0.12783430524E+04  0.25500000920E-02 0.  1.
        2   -1    0    0  501    0  0.00000000000E+00  0.00000000000E+00 -0.11453343160E+04  0.11453343160E+04  0.25500000920E-02 0. -1.
    10030    2    1    2    0    0  0.00000000000E+00  0.00000000000E+00  0.13300873640E+03  0.24236773684E+04  0.24200249301E+04 0.  0.
        2    1    3    3  502    0 -0.79120719136E+03  0.28241190702E+03 -0.80565142194E+03  0.11639757380E+04  0.25500000920E-02 0. -1.
       -2    1    3    3    0  502  0.79120719136E+03 -0.28241190702E+03  0.93866015834E+03  0.12597016304E+04  0.25500000920E-02 0.  1.
</event>
<event>
 5   0  0.1506985E-05  0.2383980E+04  0.7818609E-02  0.8445526E-01
       -1   -1    0    0    0  501  0.00000000000E+00  0.00000000000E+00  0.55865332034E+03  0.55865332037E+03  0.50400001928E-02 0.  1.
        1   -1    0    0  501    0  0.00000000000E+00  0.00000000000E+00 -0.25433297817E+04  0.25433297817E+04  0.50400001928E-02 0. -1.
    10030    2    1    2    0    0  0.00000000000E+00  0.00000000000E+00 -0.19846764613E+04  0.31019831020E+04  0.23839795530E+04 0.  0.
        3    1    3    3  502    0  0.56705585511E+03 -0.82973938100E+03 -0.15834485171E+03  0.10173951472E+04  0.10100000352E+00 0.  1.
       -3    1    3    3    0  502 -0.56705585511E+03  0.82973938100E+03 -0.18263316096E+04  0.20845879549E+04  0.10100000352E+00 0. -1.
</event>
<event>
 5   0  0.3347728E-05  0.2329725E+04  0.7818609E-02  0.8466292E-01
       -2   -1    0    0    0  501  0.00000000000E+00  0.00000000000E+00  0.13660660819E+04  0.13660660820E+04  0.25500000920E-02 0. -1.
        2   -1    0    0  501    0  0.00000000000E+00  0.00000000000E+00 -0.99329353882E+03  0.99329353882E+03  0.25500000920E-02 0.  1.
    10030    2    1    2    0    0  0.00000000000E+00  0.00000000000E+00  0.37277254313E+03  0.23593596208E+04  0.23297249733E+04 0.  0.
        3    1    3    3  502    0  0.50159897442E+03 -0.12809282286E+03 -0.87038877302E+03  0.10127121648E+04  0.10100000352E+00 0.  1.
       -3    1    3    3    0  502 -0.50159897442E+03  0.12809282286E+03  0.12431613162E+04  0.13466474559E+04  0.10100000352E+00 0. -1.
</event>
<event>
 5   0  0.1407158E-05  0.2367544E+04  0.7818609E-02  0.8451755E-01
        1   -1    0    0  501    0  0.00000000000E+00  0.00000000000E+00  0.94105002847E+03  0.94105002848E+03  0.50400001928E-02 0. -1.
       -1   -1    0    0    0  501  0.00000000000E+00  0.00000000000E+00 -0.14890989528E+04  0.14890989528E+04  0.50400001928E-02 0.  1.
    10030    2    1    2    0    0  0.00000000000E+00  0.00000000000E+00 -0.54804892428E+03  0.24301489812E+04  0.23675443919E+04 0.  0.
        1    1    3    3  502    0  0.50126093887E+03 -0.74342498317E+03 -0.10673614449E+04  0.13939884104E+04  0.50400001928E-02 0.  1.
       -1    1    3    3    0  502 -0.50126093887E+03  0.74342498317E+03  0.51931252057E+03  0.10361605708E+04  0.50400001928E-02 0. -1.
</event>
<event>
 5   0  0.3310037E-05  0.2387951E+04  0.7818609E-02  0.8444028E-01
        2   -1    0    0  501    0  0.00000000000E+00  0.00000000000E+00  0.14947837039E+04  0.14947837039E+04  0.25500000920E-02 0. -1.
       -2   -1    0    0    0  501  0.00000000000E+00  0.00000000000E+00 -0.95370139170E+03  0.95370139170E+03  0.25500000920E-02 0.  1.
    10030    2    1    2    0    0  0.00000000000E+00  0.00000000000E+00  0.54108231224E+03  0.24484850956E+04  0.23879508360E+04 0.  0.
        2    1    3    3  502    0  0.99341432717E+02 -0.10444927926E+04 -0.31376739234E+03  0.10951182084E+04  0.25500000920E-02 0.  1.
       -2    1    3    3    0  502 -0.99341432717E+02  0.10444927926E+04  0.85484970458E+03  0.13533668872E+04  0.25500000920E-02 0. -1.
</event>
<event>
 5   0  0.1401596E-05  0.2375337E+04  0.7818609E-02  0.8448795E-01
       -1   -1    0    0    0  501  0.00000000000E+00  0.00000000000E+00  0.13349157967E+04  0.13349157967E+04  0.50400001928E-02 0.  1.
        1   -1    0    0  501    0  0.00000000000E+00  0.00000000000E+00 -0.10566630555E+04  0.10566630555E+04  0.50400001928E-02 0. -1.
    10030    2    1    2    0    0  0.00000000000E+00  0.00000000000E+00  0.27825274123E+03  0.23915788522E+04  0.23753367799E+04 0.  0.
        2    1    3    3  502    0  0.10789188411E+02  0.21452954401E+03  0.13151960453E+04  0.13326214651E+04  0.25500000920E-02 0.  1.
       -2    1    3    3    0  502 -0.10789188411E+02 -0.21452954401E+03 -0.10369433040E+04  0.10589573871E+04  0.25500000920E-02 0. -1.
</event>
<event>
 5   0  0.3347728E-05  0.2412747E+04  0.7818609E-02  0.8434747E-01
       -2   -1    0    0    0  501  0.00000000000E+00  0.00000000000E+00  0.99959608589E+03  0.99959608589E+03  0.25500000920E-02 0.  1.
        2   -1    0    0  501    0  0.00000000000E+00  0.00000000000E+00 -0.14559252585E+04  0.14559252585E+04  0.25500000920E-02 0. -1.
    10030    2    1    2    0    0  0.00000000000E+00  0.00000000000E+00 -0.45632917264E+03  0.24555213444E+04  0.24127471395E+04 0.  0.
        3    1    3    3  502    0  0.93163055351E+03 -0.64104181449E+03 -0.65569179380E+03  0.13072114729E+04  0.10100000352E+00 0. -1.
       -3    1    3    3    0  502 -0.93163055351E+03  0.64104181449E+03  0.19936262116E+03  0.11483098715E+04  0.10100000352E+00 0.  1.
</event>
<event>
 5   0  0.3320780E-05  0.2417221E+04  0.7818609E-02  0.8433084E-01
        2   -1    0    0  501    0  0.00000000000E+00  0.00000000000E+00  0.28936710768E+04  0.28936710768E+04  0.25500000920E-02 0. -1.
       -2   -1    0    0    0  501  0.00000000000E+00  0.00000000000E+00 -0.50480480687E+03  0.50480480688E+03  0.25500000920E-02 0.  1.
    10030    2    1    2    0    0  0.00000000000E+00  0.00000000000E+00  0.23888662699E+04  0.33984758837E+04  0.24172207753E+04 0.  0.
        5    1    3    3  502    0  0.77243501344E+02  0.10053924464E+04  0.21311930021E+04  0.23577078343E+04  0.46999998093E+01 0. -1.
       -5    1    3    3    0  502 -0.77243501344E+02 -0.10053924464E+04  0.25767326789E+03  0.10407680494E+04  0.46999998093E+01 0.  1.
</event>
<event>
 5   0  0.1401596E-05  0.2423246E+04  0.7818609E-02  0.8430852E-01
       -1   -1    0    0    0  501  0.00000000000E+00  0.00000000000E+00  0.84128826750E+03  0.84128826752E+03  0.50400001928E-02 0.  1.
        1   -1    0    0  501    0  0.00000000000E+00  0.00000000000E+00 -0.17449784151E+04  0.17449784151E+04  0.50400001928E-02 0. -1.
    10030    2    1    2    0    0  0.00000000000E+00  0.00000000000E+00 -0.90369014760E+03  0.25862666826E+04  0.24232456481E+04 0.  0.
        2    1    3    3  502    0 -0.10700803106E+04  0.11625550599E+03 -0.10455435745E+04  0.15005827468E+04  0.25500000920E-02 0. -1.
       -2    1    3    3    0  502  0.10700803106E+04 -0.11625550599E+03  0.14185342693E+03  0.10856839358E+04  0.25500000920E-02 0.  1.
</event>
<event>
 5   0  0.3347728E-05  0.2398590E+04  0.7818609E-02  0.8440032E-01
       -2   -1    0    0    0  501  0.00000000000E+00  0.00000000000E+00  0.98322770559E+03  0.98322770559E+03  0.25500000920E-02 0.  1.
        2   -1    0    0  501    0  0.00000000000E+00  0.00000000000E+00 -0.14628432599E+04  0.14628432599E+04  0.25500000920E-02 0. -1.
    10030    2    1    2    0    0  0.00000000000E+00  0.00000000000E+00 -0.47961555435E+03  0.24460709655E+04  0.23985896040E+04 0.  0.
        3    1    3    3  502    0 -0.43819424326E+03  0.25730059007E+03  0.86801607574E+03  0.10058179291E+04  0.10100000352E+00 0.  1.
       -3    1    3    3    0  502  0.43819424326E+03 -0.25730059007E+03 -0.13476316301E+04  0.14402530365E+04  0.10100000352E+00 0. -1.
</event>
<event>
 5   0  0.3215208E-05  0.2458565E+04  0.7818609E-02  0.8417898E-01
        2   -1    0    0  501    0  0.00000000000E+00  0.00000000000E+00  0.13354534899E+04  0.13354534899E+04  0.25500000920E-02 0. -1.
       -2   -1    0    0    0  501  0.00000000000E+00  0.00000000000E+00 -0.11315518472E+04  0.11315518472E+04  0.25500000920E-02 0.  1.
    10030    2    1    2    0    0  0.00000000000E+00  0.00000000000E+00  0.20390164268E+03  0.24670053370E+04  0.24585645107E+04 0.  0.
        1    1    3    3  502    0  0.33959052762E+03 -0.10818555908E+04  0.57834560200E+03  0.12728774023E+04  0.50400001928E-02 0. -1.
       -1    1    3    3    0  502 -0.33959052762E+03  0.10818555908E+04 -0.37444395932E+03  0.11941279348E+04  0.50400001928E-02 0.  1.
</event>
<event>
 5   0  0.1434943E-05  0.2375846E+04  0.7818609E-02  0.8448602E-01
       -1   -1    0    0    0  501  0.00000000000E+00  0.00000000000E+00  0.71559193899E+03  0.71559193901E+03  0.50400001928E-02 0. -1.
        1   -1    0    0  501    0  0.00000000000E+00  0.00000000000E+00 -0.19720187883E+04  0.19720187883E+04  0.50400001928E-02 0.  1.
    10030    2    1    2    0    0  0.00000000000E+00  0.00000000000E+00 -0.12564268493E+04  0.26876107274E+04  0.23758457429E+04 0.  0.
        5    1    3    3  502    0 -0.46903187719E+03 -0.74670661665E+03  0.27221215216E+03  0.92286684790E+03  0.46999998093E+01 0. -1.
       -5    1    3    3    0  502  0.46903187719E+03  0.74670661665E+03 -0.15286390015E+04  0.17647438795E+04  0.46999998093E+01 0.  1.
</event>
<event>
 5   0  0.3347728E-05  0.2427468E+04  0.7818609E-02  0.8429291E-01
       -2   -1    0    0    0  501  0.00000000000E+00  0.00000000000E+00  0.63215090788E+03  0.63215090788E+03  0.25500000920E-02 0.  1.
        2   -1    0    0  501    0  0.00000000000E+00  0.00000000000E+00 -0.23303781578E+04  0.23303781578E+04  0.25500000920E-02 0. -1.
    10030    2    1    2    0    0  0.00000000000E+00  0.00000000000E+00 -0.16982272499E+04  0.29625290657E+04  0.24274683670E+04 0.  0.
        3    1    3    3  502    0 -0.11101833788E+04  0.24822874825E+03 -0.13654908856E+04  0.17772703832E+04  0.10100000352E+00 0.  1.
       -3    1    3    3    0  502  0.11101833788E+04 -0.24822874825E+03 -0.33273636430E+03  0.11852586825E+04  0.10100000352E+00 0. -1.
</event>
<event>
 5   0  0.1393026E-05  0.2408782E+04  0.7818609E-02  0.8436223E-01
        1   -1    0    0  501    0  0.00000000000E+00  0.00000000000E+00  0.17586020803E+04  0.17586020803E+04  0.50400001928E-02 0. -1.
       -1   -1    0    0    0  501  0.00000000000E+00  0.00000000000E+00 -0.82483582314E+03  0.82483582316E+03  0.50400001928E-02 0.  1.
    10030    2    1    2    0    0  0.00000000000E+00  0.00000000000E+00  0.93376625713E+03  0.25834379034E+04  0.24087822604E+04 0.  0.
        4    1    3    3  502    0 -0.36813276090E+03  0.42230341317E+03  0.16103467657E+04  0.17050161938E+04  0.12699999809E+01 0. -1.
       -4    1    3    3    0  502  0.36813276090E+03 -0.42230341317E+03 -0.67658050859E+03  0.87842170961E+03  0.12699999809E+01 0.  1.
</event>
<event>
 5   0  0.1407158E-05  0.2401060E+04  0.7818609E-02  0.8439107E-01
        1   -1    0    0  501    0  0.00000000000E+00  0.00000000000E+00  0.13266390953E+04  0.13266390954E+04  0.50400001928E-02 0. -1.
       -1   -1    0    0    0  501  0.00000000000E+00  0.00000000000E+00 -0.10864088440E+04  0.10864088441E+04  0.50400001928E-02 0.  1.
    10030    2    1    2    0    0  0.00000000000E+00  0.00000000000E+00  0.24023025130E+03  0.24130479394E+04  0.24010601376E+04 0.  0.
        1    1    3    3  502    0 -0.64464866512E+02 -0.11741988350E+04 -0.12269789965E+03  0.11823507931E+04  0.50400001928E-02 0.  1.
       -1    1    3    3    0  502  0.64464866512E+02  0.11741988350E+04  0.36292815095E+03  0.12306971463E+04  0.50400001928E-02 0. -1.
</event>
<event>
 5   0  0.1506985E-05  0.2210828E+04  0.7818609E-02  0.8513935E-01
       -1   -1    0    0    0  501  0.00000000000E+00  0.00000000000E+00  0.53720927426E+03  0.53720927428E+03  0.50400001928E-02 0. -1.
        1   -1    0    0  501    0  0.00000000000E+00  0.00000000000E+00 -0.22746065060E+04  0.22746065060E+04  0.50400001928E-02 0.  1.
    10030    2    1    2    0    0  0.00000000000E+00  0.00000000000E+00 -0.17373972318E+04  0.28118157803E+04  0.22108276372E+04 0.  0.
        3    1    3    3  502    0 -0.37051554681E+03  0.19379555375E+03  0.43274785567E+03  0.60175510290E+03  0.10100000352E+00 0. -1.
       -3    1    3    3    0  502  0.37051554681E+03 -0.19379555375E+03 -0.21701450874E+04  0.22100606774E+04  0.10100000352E+00 0.  1.
</event>
<event>
 5   0  0.3345974E-05  0.2509185E+04  0.7818609E-02  0.8399721E-01
        2   -1    0    0  501    0  0.00000000000E+00  0.00000000000E+00  0.15693180125E+04  0.15693180125E+04  0.25500000920E-02 0. -1.
       -2   -1    0    0    0  501  0.00000000000E+00  0.00000000000E+00 -0.10029846298E+04  0.10029846298E+04  0.25500000920E-02 0.  1.
    10030    2    1    2    0    0  0.00000000000E+00  0.00000000000E+00  0.56633338279E+03  0.25723026423E+04  0.25091846052E+04 0.  0.
        4    1    3    3  502    0  0.74030667193E+03  0.63273227125E+03 -0.52767576157E+03  0.11076314449E+04  0.12699999809E+01 0.  1.
       -4    1    3    3    0  502 -0.74030667193E+03 -0.63273227125E+03  0.10940091444E+04  0.14646711974E+04  0.12699999809E+01 0. -1.
</event>
<event>
 5   0  0.3345974E-05  0.2420309E+04  0.7818609E-02  0.8431939E-01
       -2   -1    0    0    0  501  0.00000000000E+00  0.00000000000E+00  0.17563747456E+04  0.17563747456E+04  0.25500000920E-02 0. -1.
        2   -1    0    0  501    0  0.00000000000E+00  0.00000000000E+00 -0.83380507319E+03  0.83380507320E+03  0.25500000920E-02 0.  1.
    10030    2    1    2    0    0  0.00000000000E+00  0.00000000000E+00  0.92256967240E+03  0.25901798188E+04  0.24203092144E+04 0.  0.
        4    1    3    3  502    0 -0.71695290504E+03 -0.92166691330E+03  0.80136344104E+03  0.14162190313E+04  0.12699999809E+01 0. -1.
       -4    1    3    3    0  502  0.71695290504E+03  0.92166691330E+03  0.12120623135E+03  0.11739607875E+04  0.12699999809E+01 0.  1.
</event>
<event>
 5   0  0.1401596E-05  0.2398296E+04  0.7818609E-02  0.8440142E-01
        1   -1    0    0  501    0  0.00000000000E+00  0.00000000000E+00  0.18046231455E+04  0.18046231455E+04  0.50400001928E-02 0. -1.
       -1   -1    0    0    0  501  0.00000000000E+00  0.00000000000E+00 -0.79681768760E+03  0.79681768761E+03  0.50400001928E-02 0.  1.
    10030    2    1    2    0    0  0.00000000000E+00  0.00000000000E+00  0.10078054579E+04  0.26014408331E+04  0.23982957631E+04 0.  0.
        2    1    3    3  502    0 -0.77392428841E+03 -0.90655479351E+03  0.64597511091E+03  0.13557596549E+04  0.25500000920E-02 0. -1.
       -2    1    3    3    0  502  0.77392428841E+03  0.90655479351E+03  0.36183034697E+03  0.12456811782E+04  0.25500000920E-02 0.  1.
</event>
<event>
 5   0  0.1506985E-05  0.2372412E+04  0.7818609E-02  0.8449905E-01
        1   -1    0    0  501    0  0.00000000000E+00  0.00000000000E+00  0.10335800361E+04  0.10335800361E+04  0.50400001928E-02 0.  1.
       -1   -1    0    0    0  501  0.00000000000E+00  0.00000000000E+00 -0.13613698387E+04  0.13613698387E+04  0.50400001928E-02 0. -1.
    10030    2    1    2    0    0  0.00000000000E+00  0.00000000000E+00 -0.32778980261E+03  0.23949498748E+04  0.23724120106E+04 0.  0.
        3    1    3    3  502    0 -0.12418429551E+03 -0.10586929155E+04  0.36146449183E+03  0.11255705299E+04  0.10100000352E+00 0.  1.
       -3    1    3    3    0  502  0.12418429551E+03  0.10586929155E+04 -0.68925429444E+03  0.12693793449E+04  0.10100000352E+00 0. -1.
</event>
<event>
 5   0  0.1434943E-05  0.2398651E+04  0.7818609E-02  0.8440009E-01
        1   -1    0    0  501    0  0.00000000000E+00  0.00000000000E+00  0.16293236013E+04  0.16293236013E+04  0.50400001928E-02 0. -1.
       -1   -1    0    0    0  501  0.00000000000E+00  0.00000000000E+00 -0.88280929557E+03  0.88280929559E+03  0.50400001928E-02 0.  1.
    10030    2    1    2    0    0  0.00000000000E+00  0.00000000000E+00  0.74651430573E+03  0.25121328969E+04  0.23986513050E+04 0.  0.
        5    1    3    3  502    0  0.59888815707E+02  0.10194904464E+04 -0.28531093746E+03  0.10603640231E+04  0.46999998093E+01 0. -1.
       -5    1    3    3    0  502 -0.59888815707E+02 -0.10194904464E+04  0.10318252432E+04  0.14517688738E+04  0.46999998093E+01 0.  1.
</event>
<event>
 5   0  0.3310037E-05  0.2351708E+04  0.7818609E-02  0.8457808E-01
       -2   -1    0    0    0  501  0.00000000000E+00  0.00000000000E+00  0.10164711308E+04  0.10164711308E+04  0.25500000920E-02 0.  1.
        2   -1    0    0  501    0  0.00000000000E+00  0.00000000000E+00 -0.13602280365E+04  0.13602280365E+04  0.25500000920E-02 0. -1.
    10030    2    1    2    0    0  0.00000000000E+00  0.00000000000E+00 -0.34375690570E+03  0.23766991673E+04  0.23517079158E+04 0.  0.
        2    1    3    3  502    0  0.35477650734E+03 -0.10189661215E+02 -0.13048007690E+04  0.13522112432E+04  0.25500000920E-02 0. -1.
       -2    1    3    3    0  502 -0.35477650734E+03  0.10189661215E+02  0.96104386331E+03  0.10244879241E+04  0.25500000920E-02 0.  1.
</event>
<event>
 5   0  0.3347728E-05  0.2394233E+04  0.7818609E-02  0.8441666E-01
        2   -1    0    0  501    0  0.00000000000E+00  0.00000000000E+00  0.15583324051E+04  0.15583324051E+04  0.25500000920E-02 0.  1.
       -2   -1    0    0    0  501  0.00000000000E+00  0.00000000000E+00 -0.91962933265E+03  0.91962933266E+03  0.25500000920E-02 0. -1.
    10030    2    1    2    0    0  0.00000000000E+00  0.00000000000E+00  0.63870307242E+03  0.24779617377E+04  0.23942332299E+04 0.  0.
        3    1    3    3  502    0 -0.89352668499E+03 -0.62618145743E+03 -0.19041237616E+03  0.11075874853E+04  0.10100000352E+00 0. -1.
       -3    1    3    3    0  502  0.89352668499E+03  0.62618145743E+03  0.82911544858E+03  0.13703742524E+04  0.10100000352E+00 0.  1.
</event>
<event>
 5   0  0.3215208E-05  0.2394853E+04  0.7818609E-02  0.8441433E-01
       -2   -1    0    0    0  501  0.00000000000E+00  0.00000000000E+00  0.76590777968E+03  0.76590777968E+03  0.25500000920E-02 0.  1.
        2   -1    0    0  501    0  0.00000000000E+00  0.00000000000E+00 -0.18720664525E+04  0.18720664525E+04  0.25500000920E-02 0. -1.
    10030    2    1    2    0    0  0.00000000000E+00  0.00000000000E+00 -0.11061586728E+04  0.26379742322E+04  0.23948530310E+04 0.  0.
        1    1    3    3  502    0 -0.10883125812E+04 -0.40761868193E+03 -0.23525172985E+03  0.11857152444E+04  0.50400001928E-02 0.  1.
       -1    1    3    3    0  502  0.10883125812E+04  0.40761868193E+03 -0.87090694300E+03  0.14522589878E+04  0.50400001928E-02 0. -1.
</event>
<event>
 5   0  0.3310037E-05  0.2434172E+04  0.7818609E-02  0.8426820E-01
        2   -1    0    0  501    0  0.00000000000E+00  0.00000000000E+00  0.17380401680E+04  0.17380401680E+04  0.25500000920E-02 0. -1.
       -2   -1    0    0    0  501  0.00000000000E+00  0.00000000000E+00 -0.85228114172E+03  0.85228114172E+03  0.25500000920E-02 0.  1.
    10030    2    1    2    0    0  0.00000000000E+00  0.00000000000E+00  0.88575902625E+03  0.25903213097E+04  0.24341724333E+04 0.  0.
        2    1    3    3  502    0  0.10568796611E+04  0.45681388519E+02  0.10833320995E+04  0.15141630841E+04  0.25500000920E-02 0. -1.
       -2    1    3    3    0  502 -0.10568796611E+04 -0.45681388519E+02 -0.19757307329E+03  0.10761582256E+04  0.25500000920E-02 0.  1.
</event>
<event>
 5   0  0.3347728E-05  0.2402576E+04  0.7818609E-02  0.8438540E-01
        2   -1    0    0  501    0  0.00000000000E+00  0.00000000000E+00  0.11373892035E+04  0.11373892035E+04  0.25500000920E-02 0. -1.
       -2   -1    0    0    0  501  0.00000000000E+00  0.00000000000E+00 -0.12687769410E+04  0.12687769410E+04  0.25500000920E-02 0.  1.
    10030    2    1    2    0    0  0.00000000000E+00  0.00000000000E+00 -0.13138773752E+03  0.24061661445E+04  0.24025762792E+04 0.  0.
        3    1    3    3  502    0 -0.29892372569E+03  0.80801041983E+03 -0.90411674536E+03  0.12488648173E+04  0.10100000352E+00 0.  1.
       -3    1    3    3    0  502  0.29892372569E+03 -0.80801041983E+03  0.77272900784E+03  0.11573013273E+04  0.10100000352E+00 0. -1.
</event>
<event>
 5   0  0.1506985E-05  0.2395379E+04  0.7818609E-02  0.8441236E-01
        1   -1    0    0  501    0  0.00000000000E+00  0.00000000000E+00  0.19083077499E+04  0.19083077499E+04  0.50400001928E-02 0. -1.
       -1   -1    0    0    0  501  0.00000000000E+00  0.00000000000E+00 -0.75169242308E+03  0.75169242309E+03  0.50400001928E-02 0.  1.
    10030    2    1    2    0    0  0.00000000000E+00  0.00000000000E+00  0.11566153268E+04  0.26600001730E+04  0.23953792823E+04 0.  0.
        3    1    3    3  502    0 -0.92210071347E+03 -0.75383468456E+03  0.43817686991E+03  0.12690687282E+04  0.10100000352E+00 0.  1.
       -3    1    3    3    0  502  0.92210071347E+03  0.75383468456E+03  0.71843845688E+03  0.13909314447E+04  0.10100000352E+00 0. -1.
</event>
<event>
 5   0  0.3320780E-05  0.2368209E+04  0.7818609E-02  0.8451503E-01
        2   -1    0    0  501    0  0.00000000000E+00  0.00000000000E+00  0.20255226805E+04  0.20255226805E+04  0.25500000920E-02 0. -1.
       -2   -1    0    0    0  501  0.00000000000E+00  0.00000000000E+00 -0.69221782200E+03  0.69221782200E+03  0.25500000920E-02 0.  1.
    10030    2    1    2    0    0  0.00000000000E+00  0.00000000000E+00  0.13333048585E+04  0.27177405025E+04  0.23682085198E+04 0.  0.
        5    1    3    3  502    0  0.17302272090E+02  0.65448147816E+03  0.17989005880E+04  0.19143434356E+04  0.46999998093E+01 0. -1.
       -5    1    3    3    0  502 -0.17302272090E+02 -0.65448147816E+03 -0.46559572947E+03  0.80339706694E+03  0.46999998093E+01 0.  1.
</event>
<event>
 5   0  0.1434943E-05  0.2396733E+04  0.7818609E-02  0.8440728E-01
        1   -1    0    0  501    0  0.00000000000E+00  0.00000000000E+00  0.15230810867E+04  0.15230810867E+04  0.50400001928E-02 0. -1.
       -1   -1    0    0    0  501  0.00000000000E+00  0.00000000000E+00 -0.94287978217E+03  0.94287978218E+03  0.50400001928E-02 0.  1.
    10030    2    1    2    0    0  0.00000000000E+00  0.00000000000E+00  0.58020130456E+03  0.24659608689E+04  0.23967330793E+04 0.  0.
        5    1    3    3  502    0  0.40206005800E+03 -0.11132024289E+04  0.97096847103E+02  0.11875697141E+04  0.46999998093E+01 0. -1.
       -5    1    3    3    0  502 -0.40206005800E+03  0.11132024289E+04  0.48310445746E+03  0.12783911549E+04  0.46999998093E+01 0.  1.
</event>
<event>
 5   0  0.1506985E-05  0.2388311E+04  0.7818609E-02  0.8443893E-01
       -1   -1    0    0    0  501  0.00000000000E+00  0.00000000000E+00  0.78942564705E+03  0.78942564707E+03  0.50400001928E-02 0. -1.
        1   -1    0    0  501    0  0.00000000000E+00  0.00000000000E+00 -0.18063865719E+04  0.18063865719E+04  0.50400001928E-02 0.  1.
    10030    2    1    2    0    0  0.00000000000E+00  0.00000000000E+00 -0.10169609249E+04  0.25958122190E+04  0.23883114440E+04 0.  0.
        3    1    3    3  502    0  0.48616194370E+03 -0.24373923238E+03 -0.16639772194E+04  0.17505948834E+04  0.10100000352E+00 0.  1.
       -3    1    3    3    0  502 -0.48616194370E+03  0.24373923238E+03  0.64701629449E+03  0.84521733563E+03  0.10100000352E+00 0. -1.
</event>
<event>
 5   0  0.3347728E-05  0.2545766E+04  0.7818609E-02  0.8386860E-01
       -2   -1    0    0    0  501  0.00000000000E+00  0.00000000000E+00  0.11558764000E+04  0.11558764000E+04  0.25500000920E-02 0.  1.
        2   -1    0    0  501    0  0.00000000000E+00  0.00000000000E+00 -0.14017341045E+04  0.14017341045E+04  0.25500000920E-02 0. -1.
    10030    2    1    2    0    0  0.00000000000E+00  0.00000000000E+00 -0.24585770451E+03  0.25576105046E+04  0.25457661877E+04 0.  0.
        3    1    3    3  502    0 -0.21640265218E+03  0.41554466013E+02 -0.13824260151E+04  0.13998780586E+04  0.10100000352E+00 0. -1.
       -3    1    3    3    0  502  0.21640265218E+03 -0.41554466013E+02  0.11365683106E+04  0.11577324460E+04  0.10100000352E+00 0.  1.
</event>
<event>
 5   0  0.1407158E-05  0.2378903E+04  0.7818609E-02  0.8447445E-01
        1   -1    0    0  501    0  0.00000000000E+00  0.00000000000E+00  0.14369909030E+04  0.14369909031E+04  0.50400001928E-02 0.  1.
       -1   -1    0    0    0  501  0.00000000000E+00  0.00000000000E+00 -0.98455344939E+03  0.98455344941E+03  0.50400001928E-02 0. -1.
    10030    2    1    2    0    0  0.00000000000E+00  0.00000000000E+00  0.45243745366E+03  0.24215443525E+04  0.23789025624E+04 0.  0.
        1    1    3    3  502    0  0.57946335953E+03  0.54535186037E+03 -0.67371441888E+03  0.10426301141E+04  0.50400001928E-02 0. -1.
       -1    1    3    3    0  502 -0.57946335953E+03 -0.54535186037E+03  0.11261518725E+04  0.13789142383E+04  0.50400001928E-02 0.  1.
</event>
<event>
 5   0  0.1506985E-05  0.2419540E+04  0.7818609E-02  0.8432224E-01
       -1   -1    0    0    0  501  0.00000000000E+00  0.00000000000E+00  0.70092452418E+03  0.70092452419E+03  0.50400001928E-02 0.  1.
        1   -1    0    0  501    0  0.00000000000E+00  0.00000000000E+00 -0.20880191722E+04  0.20880191722E+04  0.50400001928E-02 0. -1.
    10030    2    1    2    0    0  0.00000000000E+00  0.00000000000E+00 -0.13870946480E+04  0.27889436964E+04  0.24195403239E+04 0.  0.
        3    1    3    3  502    0  0.11284156767E+04  0.39685195402E+03 -0.90208411345E+03  0.14981886299E+04  0.10100000352E+00 0.  1.
       -3    1    3    3    0  502 -0.11284156767E+04 -0.39685195402E+03 -0.48501053458E+03  0.12907550665E+04  0.10100000352E+00 0. -1.
</event>
<event>
 5   0  0.1401596E-05  0.2410934E+04  0.7818609E-02  0.8435421E-01
       -1   -1    0    0    0  501  0.00000000000E+00  0.00000000000E+00  0.11166461018E+04  0.11166461018E+04  0.50400001928E-02 0.  1.
        1   -1    0    0  501    0  0.00000000000E+00  0.00000000000E+00 -0.13013533018E+04  0.13013533018E+04  0.50400001928E-02 0. -1.
    10030    2    1    2    0    0  0.00000000000E+00  0.00000000000E+00 -0.18470720006E+03  0.24179994036E+04  0.24109343347E+04 0.  0.
        2    1    3    3  502    0  0.78056800455E+02  0.78646980086E+02 -0.12962348239E+04  0.13009623093E+04  0.25500000920E-02 0. -1.
       -2    1    3    3    0  502 -0.78056800455E+02 -0.78646980086E+02  0.11115276238E+04  0.11170370943E+04  0.25500000920E-02 0.  1.
</event>
<event>
 5   0  0.1434943E-05  0.2387973E+04  0.7818609E-02  0.8444020E-01
        1   -1    0    0  501    0  0.00000000000E+00  0.00000000000E+00  0.19583013812E+04  0.19583013812E+04  0.50400001928E-02 0. -1.
       -1   -1    0    0    0  501  0.00000000000E+00  0.00000000000E+00 -0.72797948823E+03  0.72797948825E+03  0.50400001928E-02 0.  1.
    10030    2    1    2    0    0  0.00000000000E+00  0.00000000000E+00  0.12303218929E+04  0.26862808694E+04  0.23879725604E+04 0.  0.
        5    1    3    3  502    0 -0.10351270566E+04 -0.53469630514E+03  0.32140143405E+03  0.12085980034E+04  0.46999998093E+01 0.  1.
       -5    1    3    3    0  502  0.10351270566E+04  0.53469630514E+03  0.90892045889E+03  0.14776828660E+04  0.46999998093E+01 0. -1.
</event>
<event>
 5   0  0.3345974E-05  0.2410281E+04  0.7818609E-02  0.8435664E-01
       -2   -1    0    0    0  501  0.00000000000E+00  0.00000000000E+00  0.12346140436E+04  0.12346140436E+04  0.25500000920E-02 0.  1.
        2   -1    0    0  501    0  0.00000000000E+00  0.00000000000E+00 -0.11763706996E+04  0.11763706996E+04  0.25500000920E-02 0. -1.
    10030    2    1    2    0    0  0.00000000000E+00  0.00000000000E+00  0.58243344017E+02  0.24109847432E+04  0.24102811339E+04 0.  0.
        4    1    3    3  502    0  0.90437914665E+03 -0.59164980439E+03  0.56257937053E+03  0.12183793715E+04  0.12699999809E+01 0.  1.
       -4    1    3    3    0  502 -0.90437914665E+03  0.59164980439E+03 -0.50433602651E+03  0.11926053716E+04  0.12699999809E+01 0. -1.
</event>
<event>
 5   0  0.3215208E-05  0.2361854E+04  0.7818609E-02  0.8453924E-01
       -2   -1    0    0    0  501  0.00000000000E+00  0.00000000000E+00  0.11364387026E+04  0.11364387026E+04  0.25500000920E-02 0. -1.
        2   -1    0    0  501    0  0.00000000000E+00  0.00000000000E+00 -0.12271570872E+04  0.12271570872E+04  0.25500000920E-02 0.  1.
    10030    2    1    2    0    0  0.00000000000E+00  0.00000000000E+00 -0.90718384672E+02  0.23635957898E+04  0.23618541937E+04 0.  0.
        1    1    3    3  502    0 -0.61840435166E+03  0.21022184683E+03  0.93922178608E+03  0.11440081864E+04  0.50400001928E-02 0. -1.
       -1    1    3    3    0  502  0.61840435166E+03 -0.21022184683E+03 -0.10299401708E+04  0.12195876034E+04  0.50400001928E-02 0.  1.
</event>
<event>
 5   0  0.1393026E-05  0.2353907E+04  0.7818609E-02  0.8456965E-01
        1   -1    0    0  501    0  0.00000000000E+00  0.00000000000E+00  0.22078404796E+04  0.22078404796E+04  0.50400001928E-02 0. -1.
       -1   -1    0    0    0  501  0.00000000000E+00  0.00000000000E+00 -0.62740905723E+03  0.62740905725E+03  0.50400001928E-02 0.  1.
    10030    2    1    2    0    0  0.00000000000E+00  0.00000000000E+00  0.15804314224E+04  0.28352495369E+04  0.23539066369E+04 0.  0.
        4    1    3    3  502    0  0.18533753841E+03  0.18236380861E+03  0.21728128400E+04  0.21883152909E+04  0.12699999809E+01 0. -1.
       -4    1    3    3    0  502 -0.18533753841E+03 -0.18236380861E+03 -0.59238141759E+03  0.64693424600E+03  0.12699999809E+01 0.  1.
</event>
<event>
 5   0  0.3310037E-05  0.2258981E+04  0.7818609E-02  0.8494272E-01
       -2   -1    0    0    0  501  0.00000000000E+00  0.00000000000E+00  0.81837485629E+03  0.81837485630E+03  0.25500000920E-02 0.  1.
        2   -1    0    0  501    0  0.00000000000E+00  0.00000000000E+00 -0.15588803129E+04  0.15588803129E+04  0.25500000920E-02 0. -1.
    10030    2    1    2    0    0  0.00000000000E+00  0.00000000000E+00 -0.74050545665E+03  0.23772551692E+04  0.22589807012E+04 0.  0.
        2    1    3    3  502    0  0.11143925323E+03 -0.40783672213E+03 -0.14724679041E+04  0.15319631939E+04  0.25500000920E-02 0. -1.
       -2    1    3    3    0  502 -0.11143925323E+03  0.40783672213E+03  0.73196244742E+03  0.84529197530E+03  0.25500000920E-02 0.  1.
</event>
<event>
 5   0  0.1434943E-05  0.2413505E+04  0.7818609E-02  0.8434465E-01
        1   -1    0    0  501    0  0.00000000000E+00  0.00000000000E+00  0.11550656203E+04  0.11550656203E+04  0.50400001928E-02 0. -1.
       -1   -1    0    0    0  501  0.00000000000E+00  0.00000000000E+00 -0.12607517457E+04  0.12607517457E+04  0.50400001928E-02 0.  1.
    10030    2    1    2    0    0  0.00000000000E+00  0.00000000000E+00 -0.10568612541E+03  0.24158173661E+04  0.24135045036E+04 0.  0.
        5    1    3    3  502    0 -0.47334887644E+03  0.71854897768E+03 -0.89973726207E+03  0.12449582414E+04  0.46999998093E+01 0.  1.
       -5    1    3    3    0  502  0.47334887644E+03 -0.71854897768E+03  0.79405113666E+03  0.11708591246E+04  0.46999998093E+01 0. -1.
</event>
<event>
 5   0  0.3310037E-05  0.2408878E+04  0.7818609E-02  0.8436187E-01
        2   -1    0    0  501    0  0.00000000000E+00  0.00000000000E+00  0.23741447349E+04  0.23741447349E+04  0.25500000920E-02 0. -1.
       -2   -1    0    0    0  501  0.00000000000E+00  0.00000000000E+00 -0.61102991637E+03  0.61102991638E+03  0.25500000920E-02 0.  1.
    10030    2    1    2    0    0  0.00000000000E+00  0.00000000000E+00  0.17631148185E+04  0.29851746512E+04  0.24088781279E+04 0.  0.
        2    1    3    3  502    0 -0.80717955390E+03 -0.19256983237E+03 -0.20024283210E+03  0.85365049311E+03  0.25500000920E-02 0.  1.
       -2    1    3    3    0  502  0.80717955390E+03  0.19256983237E+03  0.19633576506E+04  0.21315241581E+04  0.25500000920E-02 0. -1.
</event>
<event>
 5   0  0.1393026E-05  0.2393138E+04  0.7818609E-02  0.8442077E-01
       -1   -1    0    0    0  501  0.00000000000E+00  0.00000000000E+00  0.85177498553E+03  0.85177498554E+03  0.50400001928E-02 0.  1.
        1   -1    0    0  501    0  0.00000000000E+00  0.00000000000E+00 -0.16809341591E+04  0.16809341592E+04  0.50400001928E-02 0. -1.
    10030    2    1    2    0    0  0.00000000000E+00  0.00000000000E+00 -0.82915917362E+03  0.25327091447E+04  0.23931382485E+04 0.  0.
        4    1    3    3  502    0  0.59937423526E+03 -0.97746573161E+03 -0.52442941500E+02  0.11477981553E+04  0.12699999809E+01 0. -1.
       -4    1    3    3    0  502 -0.59937423526E+03  0.97746573161E+03 -0.77671623212E+03  0.13849109894E+04  0.12699999809E+01 0.  1.
</event>
<event>
 5   0  0.1401596E-05  0.2416383E+04  0.7818609E-02  0.8433395E-01
        1   -1    0    0  501    0  0.00000000000E+00  0.00000000000E+00  0.13571477648E+04  0.13571477648E+04  0.50400001928E-02 0. -1.
       -1   -1    0    0    0  501  0.00000000000E+00  0.00000000000E+00 -0.10755843158E+04  0.10755843158E+04  0.50400001928E-02 0.  1.
    10030    2    1    2    0    0  0.00000000000E+00  0.00000000000E+00  0.28156344895E+03  0.24327320806E+04  0.24163831236E+04 0.  0.
        2    1    3    3  502    0  0.69930970689E+03 -0.67584629562E+03  0.86251740875E+03  0.12998994430E+04  0.25500000920E-02 0. -1.
       -2    1    3    3    0  502 -0.69930970689E+03  0.67584629562E+03 -0.58095395980E+03  0.11328326376E+04  0.25500000920E-02 0.  1.
</event>
<event>
 5   0  0.1401596E-05  0.2396846E+04  0.7818609E-02  0.8440685E-01
       -1   -1    0    0    0  501  0.00000000000E+00  0.00000000000E+00  0.89808693767E+03  0.89808693769E+03  0.50400001928E-02 0.  1.
        1   -1    0    0  501    0  0.00000000000E+00  0.00000000000E+00 -0.15991963210E+04  0.15991963210E+04  0.50400001928E-02 0. -1.
    10030    2    1    2    0    0  0.00000000000E+00  0.00000000000E+00 -0.70110938336E+03  0.24972832587E+04  0.23968456994E+04 0.  0.
        2    1    3    3  502    0  0.90634978130E+03  0.62106455324E+03  0.14806604166E+03  0.11086544358E+04  0.25500000920E-02 0.  1.
       -2    1    3    3    0  502 -0.90634978130E+03 -0.62106455324E+03 -0.84917542502E+03  0.13886288229E+04  0.25500000920E-02 0. -1.
</event>
<event>
 5   0  0.3310037E-05  0.2580444E+04  0.7818609E-02  0.8374874E-01
       -2   -1    0    0    0  501  0.00000000000E+00  0.00000000000E+00  0.13256225069E+04  0.13256225069E+04  0.25500000920E-02 0.  1.
        2   -1    0    0  501    0  0.00000000000E+00  0.00000000000E+00 -0.12557669660E+04  0.12557669660E+04  0.25500000920E-02 0. -1.
    10030    2    1    2    0    0  0.00000000000E+00  0.00000000000E+00  0.69855540895E+02  0.25813894730E+04  0.25804441119E+04 0.  0.
        2    1    3    3  502    0  0.61867961762E+03 -0.90039782555E+03 -0.65175814869E+03  0.12721121798E+04  0.25500000920E-02 0. -1.
       -2    1    3    3    0  502 -0.61867961762E+03  0.90039782555E+03  0.72161368958E+03  0.13092772932E+04  0.25500000920E-02 0.  1.
</event>
<event>
 5   0  0.1147362E-05  0.2392645E+04  0.7818609E-02  0.8442262E-01
        3   -1    0    0  501    0  0.00000000000E+00  0.00000000000E+00  0.23232879741E+04  0.23232879763E+04  0.10100000352E+00 0.  1.
       -3   -1    0    0    0  501  0.00000000000E+00  0.00000000000E+00 -0.61601817070E+03  0.61601817898E+03  0.10100000352E+00 0. -1.
    10030    2    1    2    0    0  0.00000000000E+00  0.00000000000E+00  0.17072698034E+04  0.29393061552E+04  0.23926450829E+04 0.  0.
        2    1    3    3  502    0  0.76812180014E+03 -0.25046576072E+03 -0.23024227207E+03  0.84009267405E+03  0.25500000920E-02 0. -1.
       -2    1    3    3    0  502 -0.76812180014E+03  0.25046576072E+03  0.19375120754E+04  0.20992134812E+04  0.25500000920E-02 0.  1.
</event>
<event>
 5   0  0.3320780E-05  0.2413621E+04  0.7818609E-02  0.8434422E-01
       -2   -1    0    0    0  501  0.00000000000E+00  0.00000000000E+00  0.86305539406E+03  0.86305539406E+03  0.25500000920E-02 0. -1.
        2   -1    0    0  501    0  0.00000000000E+00  0.00000000000E+00 -0.16874836290E+04  0.16874836290E+04  0.25500000920E-02 0.  1.
    10030    2    1    2    0    0  0.00000000000E+00  0.00000000000E+00 -0.82442823495E+03  0.25505390231E+04  0.24136212200E+04 0.  0.
        5    1    3    3  502    0 -0.41946978686E+03  0.84398769621E+03  0.38426631085E+03  0.10178176758E+04  0.46999998093E+01 0. -1.
       -5    1    3    3    0  502  0.41946978686E+03 -0.84398769621E+03 -0.12086945458E+04  0.15327213473E+04  0.46999998093E+01 0.  1.
</event>
<event>
 5   0  0.3320780E-05  0.2540629E+04  0.7818609E-02  0.8388653E-01
       -2   -1    0    0    0  501  0.00000000000E+00  0.00000000000E+00  0.14180783739E+04  0.14180783739E+04  0.25500000920E-02 0.  1.
        2   -1    0    0  501    0  0.00000000000E+00  0.00000000000E+00 -0.11379475763E+04  0.11379475763E+04  0.25500000920E-02 0. -1.
    10030    2    1    2    0    0  0.00000000000E+00  0.00000000000E+00  0.28013079763E+03  0.25560259502E+04  0.25406289367E+04 0.  0.
        5    1    3    3  502    0  0.10995866358E+04  0.57812929489E+03  0.40691331049E+03  0.13072584991E+04  0.46999998093E+01 0.  1.
       -5    1    3    3    0  502 -0.10995866358E+04 -0.57812929489E+03 -0.12678251286E+03  0.12487674511E+04  0.46999998093E+01 0. -1.
</event>
<event>
 5   0  0.3345974E-05  0.2386454E+04  0.7818609E-02  0.8444592E-01
        2   -1    0    0  501    0  0.00000000000E+00  0.00000000000E+00  0.16814901716E+04  0.16814901716E+04  0.25500000920E-02 0. -1.
       -2   -1    0    0    0  501  0.00000000000E+00  0.00000000000E+00 -0.84674351031E+03  0.84674351032E+03  0.25500000920E-02 0.  1.
    10030    2    1    2    0    0  0.00000000000E+00  0.00000000000E+00  0.83474666127E+03  0.25282336819E+04  0.23864541818E+04 0.  0.
        4    1    3    3  502    0 -0.32171723509E+03  0.41607033729E+03  0.15520667275E+04  0.16387584460E+04  0.12699999809E+01 0. -1.
       -4    1    3    3    0  502  0.32171723509E+03 -0.41607033729E+03 -0.71732006622E+03  0.88947523587E+03  0.12699999809E+01 0.  1.
</event>
<event>
 5   0  0.1393026E-05  0.2406497E+04  0.7818609E-02  0.8437075E-01
       -1   -1    0    0    0  501  0.00000000000E+00  0.00000000000E+00  0.92686045807E+03  0.92686045808E+03  0.50400001928E-02 0.  1.
        1   -1    0    0  501    0  0.00000000000E+00  0.00000000000E+00 -0.15620549738E+04  0.15620549739E+04  0.50400001928E-02 0. -1.
    10030    2    1    2    0    0  0.00000000000E+00  0.00000000000E+00 -0.63519451578E+03  0.24889154319E+04  0.24064970298E+04 0.  0.
        4    1    3    3  502    0 -0.75447916238E+03 -0.17099747302E+03  0.63555467049E+03  0.10012044218E+04  0.12699999809E+01 0.  1.
       -4    1    3    3    0  502  0.75447916238E+03  0.17099747302E+03 -0.12707491863E+04  0.14877110101E+04  0.12699999809E+01 0. -1.
</event>
<event>
 5   0  0.1401596E-05  0.2407209E+04  0.7818609E-02  0.8436810E-01
        1   -1    0    0  501    0  0.00000000000E+00  0.00000000000E+00  0.10260993166E+04  0.10260993166E+04  0.50400001928E-02 0. -1.
       -1   -1    0    0    0  501  0.00000000000E+00  0.00000000000E+00 -0.14118161501E+04  0.14118161501E+04  0.50400001928E-02 0.  1.
    10030    2    1    2    0    0  0.00000000000E+00  0.00000000000E+00 -0.38571683351E+03  0.24379154668E+04  0.24072088292E+04 0.  0.
        2    1    3    3  502    0  0.66361288659E+03 -0.14018895039E+03  0.81412300004E+03  0.10596373268E+04  0.25500000920E-02 0. -1.
       -2    1    3    3    0  502 -0.66361288659E+03  0.14018895039E+03 -0.11998398335E+04  0.13782781400E+04  0.25500000920E-02 0.  1.
</event>
<event>
 5   0  0.3310037E-05  0.2323991E+04  0.7818609E-02  0.8468522E-01
       -2   -1    0    0    0  501  0.00000000000E+00  0.00000000000E+00  0.81642434950E+03  0.81642434950E+03  0.25500000920E-02 0. -1.
        2   -1    0    0  501    0  0.00000000000E+00  0.00000000000E+00 -0.16538372805E+04  0.16538372805E+04  0.25500000920E-02 0.  1.
    10030    2    1    2    0    0  0.00000000000E+00  0.00000000000E+00 -0.83741293100E+03  0.24702616300E+04  0.23239905558E+04 0.  0.
        2    1    3    3  502    0 -0.65191549067E+03  0.44901684810E+03  0.48549415688E+03  0.92860891295E+03  0.25500000920E-02 0. -1.
       -2    1    3    3    0  502  0.65191549067E+03 -0.44901684810E+03 -0.13229070879E+04  0.15416527171E+04  0.25500000920E-02 0.  1.
</event>
<event>
 5   0  0.1401596E-05  0.2160370E+04  0.7818609E-02  0.8535106E-01
       -1   -1    0    0    0  501  0.00000000000E+00  0.00000000000E+00  0.12231289360E+04  0.12231289360E+04  0.50400001928E-02 0. -1.
        1   -1    0    0  501    0  0.00000000000E+00  0.00000000000E+00 -0.95394649790E+03  0.95394649792E+03  0.50400001928E-02 0.  1.
    10030    2    1    2    0    0  0.00000000000E+00  0.00000000000E+00  0.26918243806E+03  0.21770754339E+04  0.21603699359E+04 0.  0.
        2    1    3    3  502    0  0.64317948835E+03  0.52561732665E+03 -0.56128899203E+03  0.10024962648E+04  0.25500000920E-02 0. -1.
       -2    1    3    3    0  502 -0.64317948835E+03 -0.52561732665E+03  0.83047143008E+03  0.11745791691E+04  0.25500000920E-02 0.  1.
</event>
<event>
 5   0  0.3347728E-05  0.2393027E+04  0.7818609E-02  0.8442119E-01
       -2   -1    0    0    0  501  0.00000000000E+00  0.00000000000E+00  0.10589356169E+04  0.10589356169E+04  0.25500000920E-02 0.  1.
        2   -1    0    0  501    0  0.00000000000E+00  0.00000000000E+00 -0.13519657693E+04  0.13519657693E+04  0.25500000920E-02 0. -1.
    10030    2    1    2    0    0  0.00000000000E+00  0.00000000000E+00 -0.29303015235E+03  0.24109013862E+04  0.23930271256E+04 0.  0.
        3    1    3    3  502    0 -0.24790667037E+03  0.86222955458E+03  0.65107183308E+03  0.11085089373E+04  0.10100000352E+00 0.  1.
       -3    1    3    3    0  502  0.24790667037E+03 -0.86222955458E+03 -0.94410198543E+03  0.13023924490E+04  0.10100000352E+00 0. -1.
</event>
<event>
 5   0  0.3320780E-05  0.2394397E+04  0.7818609E-02  0.8441604E-01
        2   -1    0    0  501    0  0.00000000000E+00  0.00000000000E+00  0.13486491785E+04  0.13486491785E+04  0.25500000920E-02 0. -1.
       -2   -1    0    0    0  501  0.00000000000E+00  0.00000000000E+00 -0.10627550884E+04  0.10627550884E+04  0.25500000920E-02 0.  1.
    10030    2    1    2    0    0  0.00000000000E+00  0.00000000000E+00  0.28589409010E+03  0.24114042670E+04  0.23943966063E+04 0.  0.
        5    1    3    3  502    0  0.87216651866E+03  0.79483511388E+03  0.34643270185E+03  0.12298272242E+04  0.46999998093E+01 0. -1.
       -5    1    3    3    0  502 -0.87216651866E+03 -0.79483511388E+03 -0.60538611744E+02  0.11815770428E+04  0.46999998093E+01 0.  1.
</event>
<event>
 5   0  0.1434943E-05  0.2431513E+04  0.7818609E-02  0.8427799E-01
        1   -1    0    0  501    0  0.00000000000E+00  0.00000000000E+00  0.14598750343E+04  0.14598750343E+04  0.50400001928E-02 0. -1.
       -1   -1    0    0    0  501  0.00000000000E+00  0.00000000000E+00 -0.10124594137E+04  0.10124594137E+04  0.50400001928E-02 0.  1.
    10030    2    1    2    0    0  0.00000000000E+00  0.00000000000E+00  0.44741562065E+03  0.24723344480E+04  0.24315132912E+04 0.  0.
        5    1    3    3  502    0  0.75321285829E+03 -0.87719210635E+03  0.60584514127E+03  0.13053221926E+04  0.46999998093E+01 0. -1.
       -5    1    3    3    0  502 -0.75321285829E+03  0.87719210635E+03 -0.15842952062E+03  0.11670122554E+04  0.46999998093E+01 0.  1.
</event>
<event>
 5   0  0.1506985E-05  0.2396510E+04  0.7818609E-02  0.8440811E-01
        1   -1    0    0  501    0  0.00000000000E+00  0.00000000000E+00  0.14185466666E+04  0.14185466666E+04  0.50400001928E-02 0.  1.
       -1   -1    0    0    0  501  0.00000000000E+00  0.00000000000E+00 -0.10121731062E+04  0.10121731062E+04  0.50400001928E-02 0. -1.
    10030    2    1    2    0    0  0.00000000000E+00  0.00000000000E+00  0.40637356035E+03  0.24307197728E+04  0.23965097837E+04 0.  0.
        3    1    3    3  502    0  0.10180349683E+04  0.53973908684E+03  0.53666781445E+03  0.12711120454E+04  0.10100000352E+00 0.  1.
       -3    1    3    3    0  502 -0.10180349683E+04 -0.53973908684E+03 -0.13029425410E+03  0.11596077274E+04  0.10100000352E+00 0. -1.
</event>
<event>
 5   0  0.3347728E-05  0.2428107E+04  0.7818609E-02  0.8429055E-01
       -2   -1    0    0    0  501  0.00000000000E+00  0.00000000000E+00  0.12687330168E+04  0.12687330168E+04  0.25500000920E-02 0. -1.
        2   -1    0    0  501    0  0.00000000000E+00  0.00000000000E+00 -0.11617309456E+04  0.11617309456E+04  0.25500000920E-02 0.  1.
    10030    2    1    2    0    0  0.00000000000E+00  0.00000000000E+00  0.10700207119E+03  0.24304639624E+04  0.24281074171E+04 0.  0.
        3    1    3    3  502    0 -0.49554496178E+03 -0.11079986026E+04  0.79997174451E+02  0.12163984835E+04  0.10100000352E+00 0.  1.
       -3    1    3    3    0  502  0.49554496178E+03  0.11079986026E+04  0.27004896743E+02  0.12140654789E+04  0.10100000352E+00 0. -1.
</event>
<event>
 5   0  0.3215208E-05  0.2387446E+04  0.7818609E-02  0.8444218E-01
       -2   -1    0    0    0  501  0.00000000000E+00  0.00000000000E+00  0.59181529151E+03  0.59181529151E+03  0.25500000920E-02 0. -1.
        2   -1    0    0  501    0  0.00000000000E+00  0.00000000000E+00 -0.24078036595E+04  0.24078036595E+04  0.25500000920E-02 0.  1.
    10030    2    1    2    0    0  0.00000000000E+00  0.00000000000E+00 -0.18159883680E+04  0.29996189510E+04  0.23874463551E+04 0.  0.
        1    1    3    3  502    0  0.20486164466E+03 -0.11060767341E+04 -0.14099323927E+04  0.18036860556E+04  0.50400001928E-02 0.  1.
       -1    1    3    3    0  502 -0.20486164466E+03  0.11060767341E+04 -0.40605597529E+03  0.11959328954E+04  0.50400001928E-02 0. -1.
</event>
<event>
 5   0  0.3215208E-05  0.2407550E+04  0.7818609E-02  0.8436682E-01
        2   -1    0    0  501    0  0.00000000000E+00  0.00000000000E+00  0.12934785415E+04  0.12934785415E+04  0.25500000920E-02 0.  1.
       -2   -1    0    0    0  501  0.00000000000E+00  0.00000000000E+00 -0.11202928348E+04  0.11202928348E+04  0.25500000920E-02 0. -1.
    10030    2    1    2    0    0  0.00000000000E+00  0.00000000000E+00  0.17318570667E+03  0.24137713764E+04  0.24075504083E+04 0.  0.
        1    1    3    3  502    0 -0.57934962508E+03 -0.99238925281E+03 -0.27293146214E+03  0.11810901745E+04  0.50400001928E-02 0. -1.
       -1    1    3    3    0  502  0.57934962508E+03  0.99238925281E+03  0.44611716880E+03  0.12326812019E+04  0.50400001928E-02 0.  1.
</event>
<event>
 5   0  0.3310037E-05  0.2459469E+04  0.7818609E-02  0.8417569E-01
        2   -1    0    0  501    0  0.00000000000E+00  0.00000000000E+00  0.26975857969E+04  0.26975857969E+04  0.25500000920E-02 0.  1.
       -2   -1    0    0    0  501  0.00000000000E+00  0.00000000000E+00 -0.56059275931E+03  0.56059275932E+03  0.25500000920E-02 0. -1.
    10030    2    1    2    0    0  0.00000000000E+00  0.00000000000E+00  0.21369930376E+04  0.32581785562E+04  0.24594691016E+04 0.  0.
        2    1    3    3  502    0 -0.68803161333E+02 -0.90318826424E+03  0.21703212997E+04  0.23517605022E+04  0.25500000920E-02 0.  1.
       -2    1    3    3    0  502  0.68803161333E+02  0.90318826424E+03 -0.33328262096E+02  0.90641805406E+03  0.25500000920E-02 0. -1.
</event>
<event>
 5   0  0.1407158E-05  0.2395202E+04  0.7818609E-02  0.8441302E-01
       -1   -1    0    0    0  501  0.00000000000E+00  0.00000000000E+00  0.59920650585E+03  0.59920650587E+03  0.50400001928E-02 0. -1.
        1   -1    0    0  501    0  0.00000000000E+00  0.00000000000E+00 -0.23935795063E+04  0.23935795063E+04  0.50400001928E-02 0.  1.
    10030    2    1    2    0    0  0.00000000000E+00  0.00000000000E+00 -0.17943730004E+04  0.29927860121E+04  0.23952022148E+04 0.  0.
        1    1    3    3  502    0 -0.21638743131E+03 -0.83002710058E+03  0.14707781781E+03  0.87028753447E+03  0.50400001928E-02 0. -1.
       -1    1    3    3    0  502  0.21638743131E+03  0.83002710058E+03 -0.19414508182E+04  0.21224984777E+04  0.50400001928E-02 0.  1.
</event>
<event>
 5   0  0.3215208E-05  0.2394972E+04  0.7818609E-02  0.8441388E-01
       -2   -1    0    0    0  501  0.00000000000E+00  0.00000000000E+00  0.21709945015E+04  0.21709945015E+04  0.25500000920E-02 0.  1.
        2   -1    0    0  501    0  0.00000000000E+00  0.00000000000E+00 -0.66051444160E+03  0.66051444160E+03  0.25500000920E-02 0. -1.
    10030    2    1    2    0    0  0.00000000000E+00  0.00000000000E+00  0.15104800599E+04  0.28315089431E+04  0.23949724181E+04 0.  0.
        1    1    3    3  502    0  0.69129553956E+03  0.14635818088E+03  0.18982366401E+04  0.20254907016E+04  0.50400001928E-02 0.  1.
       -1    1    3    3    0  502 -0.69129553956E+03 -0.14635818088E+03 -0.38775658025E+03  0.80601824153E+03  0.50400001928E-02 0. -1.
</event>
<event>
 5   0  0.3345974E-05  0.2293273E+04  0.7818609E-02  0.8480578E-01
        2   -1    0    0  501    0  0.00000000000E+00  0.00000000000E+00  0.14425122361E+04  0.14425122361E+04  0.25500000920E-02 0.  1.
       -2   -1    0    0    0  501  0.00000000000E+00  0.00000000000E+00 -0.91144835931E+03  0.91144835932E+03  0.25500000920E-02 0. -1.
    10030    2    1    2    0    0  0.00000000000E+00  0.00000000000E+00  0.53106387676E+03  0.23539605954E+04  0.22932731288E+04 0.  0.
        4    1    3    3  502    0 -0.93474674298E+03  0.43155715863E+03  0.78364758341E+03  0.12938694689E+04  0.12699999809E+01 0.  1.
       -4    1    3    3    0  502  0.93474674298E+03 -0.43155715863E+03 -0.25258370665E+03  0.10600911265E+04  0.12699999809E+01 0. -1.
</event>
<event>
 5   0  0.3347728E-05  0.2400935E+04  0.7818609E-02  0.8439154E-01
        2   -1    0    0  501    0  0.00000000000E+00  0.00000000000E+00  0.16302084627E+04  0.16302084627E+04  0.25500000920E-02 0. -1.
       -2   -1    0    0    0  501  0.00000000000E+00  0.00000000000E+00 -0.88401102880E+03  0.88401102881E+03  0.25500000920E-02 0.  1.
    10030    2    1    2    0    0  0.00000000000E+00  0.00000000000E+00  0.74619743386E+03  0.25142194915E+04  0.24009350347E+04 0.  0.
        3    1    3    3  502    0 -0.87242922315E+03  0.41663165962E+03 -0.37210132491E+03  0.10359411641E+04  0.10100000352E+00 0.  1.
       -3    1    3    3    0  502  0.87242922315E+03 -0.41663165962E+03  0.11182987588E+04  0.14782783274E+04  0.10100000352E+00 0. -1.
</event>
<event>
 5   0  0.1434943E-05  0.2408579E+04  0.7818609E-02  0.8436299E-01
       -1   -1    0    0    0  501  0.00000000000E+00  0.00000000000E+00  0.11803307302E+04  0.11803307302E+04  0.50400001928E-02 0.  1.
        1   -1    0    0  501    0  0.00000000000E+00  0.00000000000E+00 -0.12287343969E+04  0.12287343970E+04  0.50400001928E-02 0. -1.
    10030    2    1    2    0    0  0.00000000000E+00  0.00000000000E+00 -0.48403666782E+02  0.24090651271E+04  0.24085788075E+04 0.  0.
        5    1    3    3  502    0  0.98718668050E+03 -0.64024468303E+03 -0.28084686463E+03  0.12096891533E+04  0.46999998093E+01 0. -1.
       -5    1    3    3    0  502 -0.98718668050E+03  0.64024468303E+03  0.23244319785E+03  0.11993759738E+04  0.46999998093E+01 0.  1.
</event>
<event>
 5   0  0.1401596E-05  0.2248703E+04  0.7818609E-02  0.8498426E-01
        1   -1    0    0  501    0  0.00000000000E+00  0.00000000000E+00  0.12771698451E+04  0.12771698451E+04  0.50400001928E-02 0. -1.
       -1   -1    0    0    0  501  0.00000000000E+00  0.00000000000E+00 -0.98981849470E+03  0.98981849471E+03  0.50400001928E-02 0.  1.
    10030    2    1    2    0    0  0.00000000000E+00  0.00000000000E+00  0.28735135037E+03  0.22669883398E+04  0.22487030338E+04 0.  0.
        2    1    3    3  502    0  0.26165240272E+03 -0.10436922545E+04  0.47253495329E+03  0.11751786179E+04  0.25500000920E-02 0. -1.
       -2    1    3    3    0  502 -0.26165240272E+03  0.10436922545E+04 -0.18518360292E+03  0.10918097219E+04  0.25500000920E-02 0.  1.
</event>
<event>
 5   0  0.3215208E-05  0.2384440E+04  0.7818609E-02  0.8445352E-01
        2   -1    0    0  501    0  0.00000000000E+00  0.00000000000E+00  0.13295711538E+04  0.13295711538E+04  0.25500000920E-02 0.  1.
       -2   -1    0    0    0  501  0.00000000000E+00  0.00000000000E+00 -0.10690579953E+04  0.10690579953E+04  0.25500000920E-02 0. -1.
    10030    2    1    2    0    0  0.00000000000E+00  0.00000000000E+00  0.26051315848E+03  0.23986291492E+04  0.23844401208E+04 0.  0.
        1    1    3    3  502    0 -0.43414676349E+03 -0.20792235828E+03  0.12274686834E+04  0.13184818877E+04  0.50400001928E-02 0.  1.
       -1    1    3    3    0  502  0.43414676349E+03  0.20792235828E+03 -0.96695552493E+03  0.10801472615E+04  0.50400001928E-02 0. -1.
</event>
<event>
 5   0  0.3345974E-05  0.2427296E+04  0.7818609E-02  0.8429354E-01
        2   -1    0    0  501    0  0.00000000000E+00  0.00000000000E+00  0.18567804787E+04  0.18567804787E+04  0.25500000920E-02 0.  1.
       -2   -1    0    0    0  501  0.00000000000E+00  0.00000000000E+00 -0.79327731515E+03  0.79327731516E+03  0.25500000920E-02 0. -1.
    10030    2    1    2    0    0  0.00000000000E+00  0.00000000000E+00  0.10635031636E+04  0.26500577939E+04  0.24272963008E+04 0.  0.
        4    1    3    3  502    0  0.62236791656E+03 -0.46260571404E+03 -0.48751962122E+03  0.91598191259E+03  0.12699999809E+01 0. -1.
       -4    1    3    3    0  502 -0.62236791656E+03  0.46260571404E+03  0.15510227848E+04  0.17340758813E+04  0.12699999809E+01 0.  1.
</event>
<event>
 5   0  0.3347728E-05  0.2413290E+04  0.7818609E-02  0.8434545E-01
       -2   -1    0    0    0  501  0.00000000000E+00  0.00000000000E+00  0.15566859534E+04  0.15566859534E+04  0.25500000920E-02 0.  1.
        2   -1    0    0  501    0  0.00000000000E+00  0.00000000000E+00 -0.93531522806E+03  0.93531522806E+03  0.25500000920E-02 0. -1.
    10030    2    1    2    0    0  0.00000000000E+00  0.00000000000E+00  0.62137072537E+03  0.24920011815E+04  0.24132899350E+04 0.  0.
        3    1    3    3  502    0  0.79553404860E+03  0.69444574422E+03 -0.29219136023E+03  0.10956756433E+04  0.10100000352E+00 0. -1.
       -3    1    3    3    0  502 -0.79553404860E+03 -0.69444574422E+03  0.91356208560E+03  0.13963255382E+04  0.10100000352E+00 0.  1.
</event>
<event>
 5   0  0.1407158E-05  0.2404970E+04  0.7818609E-02  0.8437645E-01
        1   -1    0    0  501    0  0.00000000000E+00  0.00000000000E+00  0.17730283329E+04  0.17730283329E+04  0.50400001928E-02 0.  1.
       -1   -1    0    0    0  501  0.00000000000E+00  0.00000000000E+00 -0.81553669173E+03  0.81553669174E+03  0.50400001928E-02 0. -1.
    10030    2    1    2    0    0  0.00000000000E+00  0.00000000000E+00  0.95749164119E+03  0.25885650247E+04  0.24049695724E+04 0.  0.
        1    1    3    3  502    0  0.19199530195E+03 -0.44777426953E+03  0.16620374880E+04  0.17319736152E+04  0.50400001928E-02 0.  1.
       -1    1    3    3    0  502 -0.19199530195E+03  0.44777426953E+03 -0.70454584680E+03  0.85659140942E+03  0.50400001928E-02 0. -1.
</event>
<event>
 5   0  0.3310037E-05  0.2388609E+04  0.7818609E-02  0.8443780E-01
       -2   -1    0    0    0  501  0.00000000000E+00  0.00000000000E+00  0.80736136963E+03  0.80736136963E+03  0.25500000920E-02 0.  1.
        2   -1    0    0  501    0  0.00000000000E+00  0.00000000000E+00 -0.17666978567E+04  0.17666978567E+04  0.25500000920E-02 0. -1.
    10030    2    1    2    0    0  0.00000000000E+00  0.00000000000E+00 -0.95933648710E+03  0.25740592264E+04  0.23886093036E+04 0.  0.
        2    1    3    3  502    0  0.20682860209E+03 -0.10170079230E+04  0.15721604185E+03  0.10496666470E+04  0.25500000920E-02 0.  1.
       -2    1    3    3    0  502 -0.20682860209E+03  0.10170079230E+04 -0.11165525290E+04  0.15243925793E+04  0.25500000920E-02 0. -1.
</event>
<event>
 5   0  0.1407158E-05  0.2409565E+04  0.7818609E-02  0.8435931E-01
       -1   -1    0    0    0  501  0.00000000000E+00  0.00000000000E+00  0.13737139726E+04  0.13737139726E+04  0.50400001928E-02 0. -1.
        1   -1    0    0  501    0  0.00000000000E+00  0.00000000000E+00 -0.10566255610E+04  0.10566255610E+04  0.50400001928E-02 0.  1.
    10030    2    1    2    0    0  0.00000000000E+00  0.00000000000E+00  0.31708841159E+03  0.24303395336E+04  0.24095653525E+04 0.  0.
        1    1    3    3  502    0  0.45363850921E+03  0.10932298732E+04 -0.68254042119E+02  0.11855792116E+04  0.50400001928E-02 0.  1.
       -1    1    3    3    0  502 -0.45363850921E+03 -0.10932298732E+04  0.38534245371E+03  0.12447603220E+04  0.50400001928E-02 0. -1.
</event>
<event>
 5   0  0.1401596E-05  0.2444104E+04  0.7818609E-02  0.8423174E-01
       -1   -1    0    0    0  501  0.00000000000E+00  0.00000000000E+00  0.92486623840E+03  0.92486623842E+03  0.50400001928E-02 0.  1.
        1   -1    0    0  501    0  0.00000000000E+00  0.00000000000E+00 -0.16147318221E+04  0.16147318221E+04  0.50400001928E-02 0. -1.
    10030    2    1    2    0    0  0.00000000000E+00  0.00000000000E+00 -0.68986558369E+03  0.25395980605E+04  0.24441038819E+04 0.  0.
        2    1    3    3  502    0  0.77790120268E+03  0.91865037707E+03 -0.56378534555E+03  0.13292489279E+04  0.25500000920E-02 0. -1.
       -2    1    3    3    0  502 -0.77790120268E+03 -0.91865037707E+03 -0.12608023814E+03  0.12103491326E+04  0.25500000920E-02 0.  1.
</event>
<event>
 5   0  0.3320780E-05  0.2377249E+04  0.7818609E-02  0.8448071E-01
       -2   -1    0    0    0  501  0.00000000000E+00  0.00000000000E+00  0.20100774046E+04  0.20100774046E+04  0.25500000920E-02 0. -1.
        2   -1    0    0  501    0  0.00000000000E+00  0.00000000000E+00 -0.70287225013E+03  0.70287225013E+03  0.25500000920E-02 0.  1.
    10030    2    1    2    0    0  0.00000000000E+00  0.00000000000E+00  0.13072051545E+04  0.27129496547E+04  0.23772485174E+04 0.  0.
        5    1    3    3  502    0 -0.46506364481E+03 -0.82761840451E+03  0.14698452774E+04  0.17497724557E+04  0.46999998093E+01 0. -1.
       -5    1    3    3    0  502  0.46506364481E+03  0.82761840451E+03 -0.16264012290E+03  0.96317719906E+03  0.46999998093E+01 0.  1.
</event>
<event>
 5   0  0.1407158E-05  0.2417917E+04  0.7818609E-02  0.8432826E-01
       -1   -1    0    0    0  501  0.00000000000E+00  0.00000000000E+00  0.97255349005E+03  0.97255349006E+03  0.50400001928E-02 0.  1.
        1   -1    0    0  501    0  0.00000000000E+00  0.00000000000E+00 -0.15028274502E+04  0.15028274502E+04  0.50400001928E-02 0. -1.
    10030    2    1    2    0    0  0.00000000000E+00  0.00000000000E+00 -0.53027396018E+03  0.24753809403E+04  0.24179165260E+04 0.  0.
        1    1    3    3  502    0 -0.38282349911E+02  0.51433778087E+03  0.85427115768E+03  0.99789182882E+03  0.50400001928E-02 0.  1.
       -1    1    3    3    0  502  0.38282349911E+02 -0.51433778087E+03 -0.13845451179E+04  0.14774891115E+04  0.50400001928E-02 0. -1.
</event>
<event>
 5   0  0.3345974E-05  0.2411808E+04  0.7818609E-02  0.8435096E-01
        2   -1    0    0  501    0  0.00000000000E+00  0.00000000000E+00  0.13648226564E+04  0.13648226564E+04  0.25500000920E-02 0.  1.
       -2   -1    0    0    0  501  0.00000000000E+00  0.00000000000E+00 -0.10654900622E+04  0.10654900622E+04  0.25500000920E-02 0. -1.
    10030    2    1    2    0    0  0.00000000000E+00  0.00000000000E+00  0.29933259418E+03  0.24303127186E+04  0.24118084311E+04 0.  0.
        4    1    3    3  502    0  0.39874698620E+03  0.95281762571E+03 -0.47747742868E+03  0.11379133951E+04  0.12699999809E+01 0. -1.
       -4    1    3    3    0  502 -0.39874698620E+03 -0.95281762571E+03  0.77681002287E+03  0.12923993235E+04  0.12699999809E+01 0.  1.
</event>
<event>
 5   0  0.1147362E-05  0.2406529E+04  0.7818609E-02  0.8437063E-01
       -3   -1    0    0    0  501  0.00000000000E+00  0.00000000000E+00  0.11329182685E+04  0.11329182730E+04  0.10100000352E+00 0. -1.
        3   -1    0    0  501    0  0.00000000000E+00  0.00000000000E+00 -0.12779791852E+04  0.12779791892E+04  0.10100000352E+00 0.  1.
    10030    2    1    2    0    0  0.00000000000E+00  0.00000000000E+00 -0.14506091666E+03  0.24108974622E+04  0.24065294313E+04 0.  0.
        4    1    3    3  502    0 -0.12364750794E+03  0.30832869553E+03 -0.12311282160E+04  0.12751602204E+04  0.12699999809E+01 0.  1.
       -4    1    3    3    0  502  0.12364750794E+03 -0.30832869553E+03  0.10860672993E+04  0.11357372417E+04  0.12699999809E+01 0. -1.
</event>
<event>
 5   0  0.3347728E-05  0.2410878E+04  0.7818609E-02  0.8435442E-01
       -2   -1    0    0    0  501  0.00000000000E+00  0.00000000000E+00  0.58568872041E+03  0.58568872041E+03  0.25500000920E-02 0. -1.
        2   -1    0    0  501    0  0.00000000000E+00  0.00000000000E+00 -0.24809822877E+04  0.24809822877E+04  0.25500000920E-02 0.  1.
    10030    2    1    2    0    0  0.00000000000E+00  0.00000000000E+00 -0.18952935673E+04  0.30666710081E+04  0.24108781317E+04 0.  0.
        3    1    3    3  502    0  0.36612205271E+03  0.75419906462E+02  0.51010015438E+03  0.63240469437E+03  0.10100000352E+00 0. -1.
       -3    1    3    3    0  502 -0.36612205271E+03 -0.75419906462E+02 -0.24053937217E+04  0.24342663138E+04  0.10100000352E+00 0.  1.
</event>
<event>
 5   0  0.3347728E-05  0.2395351E+04  0.7818609E-02  0.8441246E-01
       -2   -1    0    0    0  501  0.00000000000E+00  0.00000000000E+00  0.11071905679E+04  0.11071905679E+04  0.25500000920E-02 0. -1.
        2   -1    0    0  501    0  0.00000000000E+00  0.00000000000E+00 -0.12955557993E+04  0.12955557993E+04  0.25500000920E-02 0.  1.
    10030    2    1    2    0    0  0.00000000000E+00  0.00000000000E+00 -0.18836523137E+03  0.24027463672E+04  0.23953514658E+04 0.  0.
        3    1    3    3  502    0 -0.42937961653E+03 -0.10276852309E+04  0.34754418482E+03  0.11667436563E+04  0.10100000352E+00 0. -1.
       -3    1    3    3    0  502  0.42937961653E+03  0.10276852309E+04 -0.53590941618E+03  0.12360027109E+04  0.10100000352E+00 0.  1.
</event>
<event>
 5   0  0.1506985E-05  0.2404686E+04  0.7818609E-02  0.8437751E-01
        1   -1    0    0  501    0  0.00000000000E+00  0.00000000000E+00  0.10986882108E+04  0.10986882108E+04  0.50400001928E-02 0.  1.
       -1   -1    0    0    0  501  0.00000000000E+00  0.00000000000E+00 -0.13157771397E+04  0.13157771397E+04  0.50400001928E-02 0. -1.
    10030    2    1    2    0    0  0.00000000000E+00  0.00000000000E+00 -0.21708892883E+03  0.24144653505E+04  0.24046861180E+04 0.  0.
        3    1    3    3  502    0  0.49049705254E+03  0.40571043265E+03 -0.11327124761E+04  0.12993174660E+04  0.10100000352E+00 0. -1.
       -3    1    3    3    0  502 -0.49049705254E+03 -0.40571043265E+03  0.91562354731E+03  0.11151478845E+04  0.10100000352E+00 0.  1.
</event>
<event>
 5   0  0.3310037E-05  0.2406664E+04  0.7818609E-02  0.8437013E-01
       -2   -1    0    0    0  501  0.00000000000E+00  0.00000000000E+00  0.79127455240E+03  0.79127455241E+03  0.25500000920E-02 0.  1.
        2   -1    0    0  501    0  0.00000000000E+00  0.00000000000E+00 -0.18299685807E+04  0.18299685807E+04  0.25500000920E-02 0. -1.
    10030    2    1    2    0    0  0.00000000000E+00  0.00000000000E+00 -0.10386940283E+04  0.26212431331E+04  0.24066637236E+04 0.  0.
        2    1    3    3  502    0 -0.88546102728E+03 -0.16150153702E+03 -0.13892335516E+04  0.16553228804E+04  0.25500000920E-02 0. -1.
       -2    1    3    3    0  502  0.88546102728E+03  0.16150153702E+03  0.35053952332E+03  0.96592025276E+03  0.25500000920E-02 0.  1.
</event>
<event>
 5   0  0.3345974E-05  0.2345033E+04  0.7818609E-02  0.8460374E-01
       -2   -1    0    0    0  501  0.00000000000E+00  0.00000000000E+00  0.46945887082E+03  0.46945887083E+03  0.25500000920E-02 0. -1.
        2   -1    0    0  501    0  0.00000000000E+00  0.00000000000E+00 -0.29284680831E+04  0.29284680831E+04  0.25500000920E-02 0.  1.
    10030    2    1    2    0    0  0.00000000000E+00  0.00000000000E+00 -0.24590092122E+04  0.33979269539E+04  0.23450333213E+04 0.  0.
        4    1    3    3  502    0 -0.83533405820E+03  0.58620829447E+03 -0.39288384361E+03  0.10935183953E+04  0.12699999809E+01 0. -1.
       -4    1    3    3    0  502  0.83533405820E+03 -0.58620829447E+03 -0.20661253686E+04  0.23044085586E+04  0.12699999809E+01 0.  1.
</event>
<event>
 5   0  0.3345974E-05  0.2374457E+04  0.7818609E-02  0.8449129E-01
       -2   -1    0    0    0  501  0.00000000000E+00  0.00000000000E+00  0.87599333538E+03  0.87599333539E+03  0.25500000920E-02 0. -1.
        2   -1    0    0  501    0  0.00000000000E+00  0.00000000000E+00 -0.16090440798E+04  0.16090440798E+04  0.25500000920E-02 0.  1.
    10030    2    1    2    0    0  0.00000000000E+00  0.00000000000E+00 -0.73305074438E+03  0.24850374152E+04  0.23744573192E+04 0.  0.
        4    1    3    3  502    0 -0.66251816604E+03  0.33218675938E+03 -0.13372059491E+04  0.15288556919E+04  0.12699999809E+01 0.  1.
       -4    1    3    3    0  502  0.66251816604E+03 -0.33218675938E+03  0.60415520477E+03  0.95618172321E+03  0.12699999809E+01 0. -1.
</event>
<event>
 5   0  0.1393026E-05  0.2389255E+04  0.7818609E-02  0.8443537E-01
       -1   -1    0    0    0  501  0.00000000000E+00  0.00000000000E+00  0.90068670468E+03  0.90068670470E+03  0.50400001928E-02 0.  1.
        1   -1    0    0  501    0  0.00000000000E+00  0.00000000000E+00 -0.15844969768E+04  0.15844969769E+04  0.50400001928E-02 0. -1.
    10030    2    1    2    0    0  0.00000000000E+00  0.00000000000E+00 -0.68381027216E+03  0.24851836815E+04  0.23892554160E+04 0.  0.
        4    1    3    3  502    0  0.85491544876E+03  0.78636857529E+03 -0.63217551189E+03  0.13224611342E+04  0.12699999809E+01 0. -1.
       -4    1    3    3    0  502 -0.85491544876E+03 -0.78636857529E+03 -0.51634760268E+02  0.11627225473E+04  0.12699999809E+01 0.  1.
</event>
<event>
 5   0  0.1506985E-05  0.2401780E+04  0.7818609E-02  0.8438837E-01
       -1   -1    0    0    0  501  0.00000000000E+00  0.00000000000E+00  0.93252366568E+03  0.93252366569E+03  0.50400001928E-02 0. -1.
        1   -1    0    0  501    0  0.00000000000E+00  0.00000000000E+00 -0.15464881787E+04  0.15464881787E+04  0.50400001928E-02 0.  1.
    10030    2    1    2    0    0  0.00000000000E+00  0.00000000000E+00 -0.61396451298E+03  0.24790118444E+04  0.24017800277E+04 0.  0.
        3    1    3    3  502    0  0.68769442907E+03 -0.84144235171E+03  0.22051711453E+03  0.11088627810E+04  0.10100000352E+00 0. -1.
       -3    1    3    3    0  502 -0.68769442907E+03  0.84144235171E+03 -0.83448162751E+03  0.13701490634E+04  0.10100000352E+00 0.  1.
</event>
<event>
 5   0  0.1407158E-05  0.2382578E+04  0.7818609E-02  0.8446055E-01
       -1   -1    0    0    0  501  0.00000000000E+00  0.00000000000E+00  0.47768795109E+03  0.47768795112E+03  0.50400001928E-02 0.  1.
        1   -1    0    0  501    0  0.00000000000E+00  0.00000000000E+00 -0.29709133802E+04  0.29709133802E+04  0.50400001928E-02 0. -1.
    10030    2    1    2    0    0  0.00000000000E+00  0.00000000000E+00 -0.24932254291E+04  0.34486013314E+04  0.23825780369E+04 0.  0.
        1    1    3    3  502    0  0.21696750673E+03  0.41931550798E+01  0.44883775371E+03  0.49854569571E+03  0.50400001928E-02 0.  1.
       -1    1    3    3    0  502 -0.21696750673E+03 -0.41931550798E+01 -0.29420631828E+04  0.29500556356E+04  0.50400001928E-02 0. -1.
</event>
<event>
 5   0  0.1393026E-05  0.2346062E+04  0.7818609E-02  0.8459978E-01
       -1   -1    0    0    0  501  0.00000000000E+00  0.00000000000E+00  0.98318519779E+03  0.98318519780E+03  0.50400001928E-02 0. -1.
        1   -1    0    0  501    0  0.00000000000E+00  0.00000000000E+00 -0.13995348664E+04  0.13995348665E+04  0.50400001928E-02 0.  1.
    10030    2    1    2    0    0  0.00000000000E+00  0.00000000000E+00 -0.41634966866E+03  0.23827200643E+04  0.23460622025E+04 0.  0.
        4    1    3    3  502    0 -0.87449226967E+03 -0.44447843076E+03  0.44507242501E+03  0.10772134800E+04  0.12699999809E+01 0. -1.
       -4    1    3    3    0  502  0.87449226967E+03  0.44447843076E+03 -0.86142209367E+03  0.13055065842E+04  0.12699999809E+01 0.  1.
</event>
<event>
 5   0  0.1407158E-05  0.2399880E+04  0.7818609E-02  0.8439548E-01
        1   -1    0    0  501    0  0.00000000000E+00  0.00000000000E+00  0.10313431635E+04  0.10313431635E+04  0.50400001928E-02 0. -1.
       -1   -1    0    0    0  501  0.00000000000E+00  0.00000000000E+00 -0.13960984354E+04  0.13960984355E+04  0.50400001928E-02 0.  1.
    10030    2    1    2    0    0  0.00000000000E+00  0.00000000000E+00 -0.36475527199E+03  0.24274415989E+04  0.23998804778E+04 0.  0.
        1    1    3    3  502    0 -0.21349966024E+03  0.17037007028E+03  0.99947963944E+03  0.10361310802E+04  0.50400001928E-02 0. -1.
       -1    1    3    3    0  502  0.21349966024E+03 -0.17037007028E+03 -0.13642349114E+04  0.13913105187E+04  0.50400001928E-02 0.  1.
</event>
<event>
 5   0  0.3310037E-05  0.2383002E+04  0.7818609E-02  0.8445895E-01
       -2   -1    0    0    0  501  0.00000000000E+00  0.00000000000E+00  0.87806697339E+03  0.87806697339E+03  0.25500000920E-02 0. -1.
        2   -1    0    0  501    0  0.00000000000E+00  0.00000000000E+00 -0.16168180087E+04  0.16168180087E+04  0.25500000920E-02 0.  1.
    10030    2    1    2    0    0  0.00000000000E+00  0.00000000000E+00 -0.73875103531E+03  0.24948849821E+04  0.23830018845E+04 0.  0.
        2    1    3    3  502    0  0.75646774131E+03 -0.90283750447E+03 -0.55758067982E+03  0.13031712158E+04  0.25500000920E-02 0. -1.
       -2    1    3    3    0  502 -0.75646774131E+03  0.90283750447E+03 -0.18117035550E+03  0.11917137663E+04  0.25500000920E-02 0.  1.
</event>
<event>
 5   0  0.1393026E-05  0.2380535E+04  0.7818609E-02  0.8446827E-01
        1   -1    0    0  501    0  0.00000000000E+00  0.00000000000E+00  0.30935524326E+04  0.30935524326E+04  0.50400001928E-02 0. -1.
       -1   -1    0    0    0  501  0.00000000000E+00  0.00000000000E+00 -0.45796416833E+03  0.45796416836E+03  0.50400001928E-02 0.  1.
    10030    2    1    2    0    0  0.00000000000E+00  0.00000000000E+00  0.26355882643E+04  0.35515166010E+04  0.23805345341E+04 0.  0.
        4    1    3    3  502    0 -0.28353205266E+03 -0.88718831429E+03  0.24234522200E+04  0.25962695941E+04  0.12699999809E+01 0. -1.
       -4    1    3    3    0  502  0.28353205266E+03  0.88718831429E+03  0.21213604429E+03  0.95524700685E+03  0.12699999809E+01 0.  1.
</event>
<event>
 5   0  0.3310037E-05  0.2400851E+04  0.7818609E-02  0.8439185E-01
        2   -1    0    0  501    0  0.00000000000E+00  0.00000000000E+00  0.17938099373E+04  0.17938099373E+04  0.25500000920E-02 0. -1.
       -2   -1    0    0    0  501  0.00000000000E+00  0.00000000000E+00 -0.80332997042E+03  0.80332997042E+03  0.25500000920E-02 0.  1.
    10030    2    1    2    0    0  0.00000000000E+00  0.00000000000E+00  0.99047996684E+03  0.25971399077E+04  0.24008509190E+04 0.  0.
        2    1    3    3  502    0 -0.60152730953E+03  0.64990905244E+02 -0.62633104271E+03  0.87083264578E+03  0.25500000920E-02 0.  1.
       -2    1    3    3    0  502  0.60152730953E+03 -0.64990905244E+02  0.16168110096E+04  0.17263072619E+04  0.25500000920E-02 0. -1.
</event>
<event>
 5   0  0.1407158E-05  0.2405129E+04  0.7818609E-02  0.8437586E-01
       -1   -1    0    0    0  501  0.00000000000E+00  0.00000000000E+00  0.82189502978E+03  0.82189502979E+03  0.50400001928E-02 0. -1.
        1   -1    0    0  501    0  0.00000000000E+00  0.00000000000E+00 -0.17595454353E+04  0.17595454353E+04  0.50400001928E-02 0.  1.
    10030    2    1    2    0    0  0.00000000000E+00  0.00000000000E+00 -0.93765040553E+03  0.25814404651E+04  0.24051292256E+04 0.  0.
        1    1    3    3  502    0  0.31654235898E+02  0.11854070246E+04 -0.68340553884E+03  0.13686617314E+04  0.50400001928E-02 0.  1.
       -1    1    3    3    0  502 -0.31654235898E+02 -0.11854070246E+04 -0.25424486669E+03  0.12127787337E+04  0.50400001928E-02 0. -1.
</event>
<event>
 5   0  0.1506985E-05  0.2256926E+04  0.7818609E-02  0.8495101E-01
       -1   -1    0    0    0  501  0.00000000000E+00  0.00000000000E+00  0.87845034134E+03  0.87845034135E+03  0.50400001928E-02 0.  1.
        1   -1    0    0  501    0  0.00000000000E+00  0.00000000000E+00 -0.14496307419E+04  0.14496307419E+04  0.50400001928E-02 0. -1.
    10030    2    1    2    0    0  0.00000000000E+00  0.00000000000E+00 -0.57118040059E+03  0.23280810833E+04  0.22569258916E+04 0.  0.
        3    1    3    3  502    0  0.21026036357E+03  0.43298129979E+03 -0.13384288121E+04  0.14223480312E+04  0.10100000352E+00 0. -1.
       -3    1    3    3    0  502 -0.21026036357E+03 -0.43298129979E+03  0.76724841155E+03  0.90573305211E+03  0.10100000352E+00 0.  1.
</event>
<event>
 5   0  0.3310037E-05  0.2755166E+04  0.7818609E-02  0.8317324E-01
       -2   -1    0    0    0  501  0.00000000000E+00  0.00000000000E+00  0.83411504476E+03  0.83411504476E+03  0.25500000920E-02 0. -1.
        2   -1    0    0  501    0  0.00000000000E+00  0.00000000000E+00 -0.22751478286E+04  0.22751478286E+04  0.25500000920E-02 0.  1.
    10030    2    1    2    0    0  0.00000000000E+00  0.00000000000E+00 -0.14410327839E+04  0.31092628734E+04  0.27551660806E+04 0.  0.
        2    1    3    3  502    0 -0.80568118644E+03 -0.30959427627E+03  0.49114119602E+03  0.99307122832E+03  0.25500000920E-02 0. -1.
       -2    1    3    3    0  502  0.80568118644E+03  0.30959427627E+03 -0.19321739799E+04  0.21161916451E+04  0.25500000920E-02 0.  1.
</event>
<event>
 5   0  0.3215208E-05  0.2407002E+04  0.7818609E-02  0.8436887E-01
        2   -1    0    0  501    0  0.00000000000E+00  0.00000000000E+00  0.19472101741E+04  0.19472101741E+04  0.25500000920E-02 0. -1.
       -2   -1    0    0    0  501  0.00000000000E+00  0.00000000000E+00 -0.74384066436E+03  0.74384066436E+03  0.25500000920E-02 0.  1.
    10030    2    1    2    0    0  0.00000000000E+00  0.00000000000E+00  0.12033695097E+04  0.26910508384E+04  0.24070015451E+04 0.  0.
        1    1    3    3  502    0 -0.95348638723E+03  0.28768350166E+03  0.13570787799E+04  0.16833184198E+04  0.50400001928E-02 0. -1.
       -1    1    3    3    0  502  0.95348638723E+03 -0.28768350166E+03 -0.15370927014E+03  0.10077324186E+04  0.50400001928E-02 0.  1.
</event>
<event>
 5   0  0.3320780E-05  0.2397330E+04  0.7818609E-02  0.8440504E-01
        2   -1    0    0  501    0  0.00000000000E+00  0.00000000000E+00  0.10109757199E+04  0.10109757199E+04  0.25500000920E-02 0.  1.
       -2   -1    0    0    0  501  0.00000000000E+00  0.00000000000E+00 -0.14211988514E+04  0.14211988514E+04  0.25500000920E-02 0. -1.
    10030    2    1    2    0    0  0.00000000000E+00  0.00000000000E+00 -0.41022313142E+03  0.24321745713E+04  0.23973297912E+04 0.  0.
        5    1    3    3  502    0  0.78026650687E+03 -0.33510677766E+02 -0.11276337568E+04  0.13716846455E+04  0.46999998093E+01 0. -1.
       -5    1    3    3    0  502 -0.78026650687E+03  0.33510677766E+02  0.71741062538E+03  0.10604899258E+04  0.46999998093E+01 0.  1.
</event>
<event>
 5   0  0.1393026E-05  0.2453079E+04  0.7818609E-02  0.8419894E-01
       -1   -1    0    0    0  501  0.00000000000E+00  0.00000000000E+00  0.11038452668E+04  0.11038452668E+04  0.50400001928E-02 0.  1.
        1   -1    0    0  501    0  0.00000000000E+00  0.00000000000E+00 -0.13628719230E+04  0.13628719230E+04  0.50400001928E-02 0. -1.
    10030    2    1    2    0    0  0.00000000000E+00  0.00000000000E+00 -0.25902665628E+03  0.24667171898E+04  0.24530794699E+04 0.  0.
        4    1    3    3  502    0  0.14892637059E+03  0.77735815081E+03 -0.10717033832E+04  0.13322967061E+04  0.12699999809E+01 0. -1.
       -4    1    3    3    0  502 -0.14892637059E+03 -0.77735815081E+03  0.81267672695E+03  0.11344204837E+04  0.12699999809E+01 0.  1.
</event>
<event>
 5   0  0.1407158E-05  0.2393939E+04  0.7818609E-02  0.8441776E-01
       -1   -1    0    0    0  501  0.00000000000E+00  0.00000000000E+00  0.95027622651E+03  0.95027622652E+03  0.50400001928E-02 0.  1.
        1   -1    0    0  501    0  0.00000000000E+00  0.00000000000E+00 -0.15077041246E+04  0.15077041246E+04  0.50400001928E-02 0. -1.
    10030    2    1    2    0    0  0.00000000000E+00  0.00000000000E+00 -0.55742789807E+03  0.24579803511E+04  0.23939385006E+04 0.  0.
        1    1    3    3  502    0 -0.10686740653E+04 -0.11430869838E+03 -0.81969092955E+03  0.13516745009E+04  0.50400001928E-02 0. -1.
       -1    1    3    3    0  502  0.10686740653E+04  0.11430869838E+03  0.26226303149E+03  0.11063058502E+04  0.50400001928E-02 0.  1.
</event>
<event>
 5   0  0.1506985E-05  0.2442213E+04  0.7818609E-02  0.8423867E-01
        1   -1    0    0  501    0  0.00000000000E+00  0.00000000000E+00  0.13055854198E+04  0.13055854199E+04  0.50400001928E-02 0. -1.
       -1   -1    0    0    0  501  0.00000000000E+00  0.00000000000E+00 -0.11420934367E+04  0.11420934368E+04  0.50400001928E-02 0.  1.
    10030    2    1    2    0    0  0.00000000000E+00  0.00000000000E+00  0.16349198310E+03  0.24476788566E+04  0.24422125535E+04 0.  0.
        3    1    3    3  502    0 -0.10823601017E+04  0.47339920201E+03  0.39145275172E+03  0.12445261995E+04  0.10100000352E+00 0. -1.
       -3    1    3    3    0  502  0.10823601017E+04 -0.47339920201E+03 -0.22796076862E+03  0.12031526571E+04  0.10100000352E+00 0.  1.
</event>
<event>
 5   0  0.3347728E-05  0.2384645E+04  0.7818609E-02  0.8445275E-01
       -2   -1    0    0    0  501  0.00000000000E+00  0.00000000000E+00  0.14077165518E+04  0.14077165518E+04  0.25500000920E-02 0.  1.
        2   -1    0    0  501    0  0.00000000000E+00  0.00000000000E+00 -0.10098860557E+04  0.10098860557E+04  0.25500000920E-02 0. -1.
    10030    2    1    2    0    0  0.00000000000E+00  0.00000000000E+00  0.39783049615E+03  0.24176026075E+04  0.23846453121E+04 0.  0.
        3    1    3    3  502    0  0.67664547386E+03  0.78262229126E+03 -0.40197048031E+03  0.11099220807E+04  0.10100000352E+00 0. -1.
       -3    1    3    3    0  502 -0.67664547386E+03 -0.78262229126E+03  0.79980097646E+03  0.13076805268E+04  0.10100000352E+00 0.  1.
</event>
<event>
 5   0  0.3310037E-05  0.2422746E+04  0.7818609E-02  0.8431036E-01
       -2   -1    0    0    0  501  0.00000000000E+00  0.00000000000E+00  0.68992818965E+03  0.68992818965E+03  0.25500000920E-02 0.  1.
        2   -1    0    0  501    0  0.00000000000E+00  0.00000000000E+00 -0.21269242711E+04  0.21269242711E+04  0.25500000920E-02 0. -1.
    10030    2    1    2    0    0  0.00000000000E+00  0.00000000000E+00 -0.14369960814E+04  0.28168524607E+04  0.24227463853E+04 0.  0.
        2    1    3    3  502    0 -0.35197846221E+03 -0.77322763934E+03 -0.17224782897E+04  0.19205991978E+04  0.25500000920E-02 0. -1.
       -2    1    3    3    0  502  0.35197846221E+03  0.77322763934E+03  0.28548220825E+03  0.89625326294E+03  0.25500000920E-02 0.  1.
</event>
<event>
 5   0  0.1401596E-05  0.2703943E+04  0.7818609E-02  0.8333727E-01
       -1   -1    0    0    0  501  0.00000000000E+00  0.00000000000E+00  0.15923040375E+04  0.15923040375E+04  0.50400001928E-02 0.  1.
        1   -1    0    0  501    0  0.00000000000E+00  0.00000000000E+00 -0.11479132663E+04  0.11479132663E+04  0.50400001928E-02 0. -1.
    10030    2    1    2    0    0  0.00000000000E+00  0.00000000000E+00  0.44439077115E+03  0.27402173038E+04  0.27039429940E+04 0.  0.
        2    1    3    3  502    0  0.33045946183E+03 -0.29447386478E+03  0.15167947539E+04  0.15800584288E+04  0.25500000920E-02 0.  1.
       -2    1    3    3    0  502 -0.33045946183E+03  0.29447386478E+03 -0.10724039828E+04  0.11601588750E+04  0.25500000920E-02 0. -1.
</event>
<event>
 5   0  0.1401596E-05  0.2364645E+04  0.7818609E-02  0.8452860E-01
       -1   -1    0    0    0  501  0.00000000000E+00  0.00000000000E+00  0.64074791017E+03  0.64074791019E+03  0.50400001928E-02 0. -1.
        1   -1    0    0  501    0  0.00000000000E+00  0.00000000000E+00 -0.21816472675E+04  0.21816472675E+04  0.50400001928E-02 0.  1.
    10030    2    1    2    0    0  0.00000000000E+00  0.00000000000E+00 -0.15408993574E+04  0.28223951777E+04  0.23646445208E+04 0.  0.
        2    1    3    3  502    0 -0.56397408585E+03  0.79494614809E+03 -0.15692398036E+04  0.18473006547E+04  0.25500000920E-02 0.  1.
       -2    1    3    3    0  502  0.56397408585E+03 -0.79494614809E+03  0.28340446206E+02  0.97509452299E+03  0.25500000920E-02 0. -1.
</event>
<event>
 5   0  0.3345974E-05  0.2414353E+04  0.7818609E-02  0.8434150E-01
        2   -1    0    0  501    0  0.00000000000E+00  0.00000000000E+00  0.13852530885E+04  0.13852530885E+04  0.25500000920E-02 0.  1.
       -2   -1    0    0    0  501  0.00000000000E+00  0.00000000000E+00 -0.10519915772E+04  0.10519915772E+04  0.25500000920E-02 0. -1.
    10030    2    1    2    0    0  0.00000000000E+00  0.00000000000E+00  0.33326151132E+03  0.24372446657E+04  0.24143525686E+04 0.  0.
        4    1    3    3  502    0 -0.96382738975E+02  0.88997285139E+02  0.13780351837E+04  0.13842661339E+04  0.12699999809E+01 0.  1.
       -4    1    3    3    0  502  0.96382738975E+02 -0.88997285139E+02 -0.10447736723E+04  0.10529785318E+04  0.12699999809E+01 0. -1.
</event>
<event>
 5   0  0.1506985E-05  0.2276748E+04  0.7818609E-02  0.8487146E-01
        1   -1    0    0  501    0  0.00000000000E+00  0.00000000000E+00  0.81114191987E+03  0.81114191989E+03  0.50400001928E-02 0.  1.
       -1   -1    0    0    0  501  0.00000000000E+00  0.00000000000E+00 -0.15976189475E+04  0.15976189475E+04  0.50400001928E-02 0. -1.
    10030    2    1    2    0    0  0.00000000000E+00  0.00000000000E+00 -0.78647702766E+03  0.24087608674E+04  0.22767482956E+04 0.  0.
        3    1    3    3  502    0  0.72861447842E+03 -0.86037936114E+03 -0.22674820846E+03  0.11500202013E+04  0.10100000352E+00 0.  1.
       -3    1    3    3    0  502 -0.72861447842E+03  0.86037936114E+03 -0.55972881920E+03  0.12587406661E+04  0.10100000352E+00 0. -1.
</event>
<event>
 5   0  0.3215208E-05  0.2392657E+04  0.7818609E-02  0.8442258E-01
       -2   -1    0    0    0  501  0.00000000000E+00  0.00000000000E+00  0.65089323889E+03  0.65089323889E+03  0.25500000920E-02 0.  1.
        2   -1    0    0  501    0  0.00000000000E+00  0.00000000000E+00 -0.21988269896E+04  0.21988269896E+04  0.25500000920E-02 0. -1.
    10030    2    1    2    0    0  0.00000000000E+00  0.00000000000E+00 -0.15479337507E+04  0.28497202285E+04  0.23926567836E+04 0.  0.
        1    1    3    3  502    0  0.69870623096E+03  0.90847939394E+03 -0.11825369309E+04  0.16467904540E+04  0.50400001928E-02 0. -1.
       -1    1    3    3    0  502 -0.69870623096E+03 -0.90847939394E+03 -0.36539681979E+03  0.12029297745E+04  0.50400001928E-02 0.  1.
</event>
<event>
 5   0  0.1401596E-05  0.2395752E+04  0.7818609E-02  0.8441096E-01
        1   -1    0    0  501    0  0.00000000000E+00  0.00000000000E+00  0.11606465162E+04  0.11606465162E+04  0.50400001928E-02 0.  1.
       -1   -1    0    0    0  501  0.00000000000E+00  0.00000000000E+00 -0.12362999980E+04  0.12362999980E+04  0.50400001928E-02 0. -1.
    10030    2    1    2    0    0  0.00000000000E+00  0.00000000000E+00 -0.75653481769E+02  0.23969465143E+04  0.23957523125E+04 0.  0.
        2    1    3    3  502    0 -0.66145163099E+03  0.14714323795E+03  0.95046010028E+03  0.11672805125E+04  0.25500000920E-02 0.  1.
       -2    1    3    3    0  502  0.66145163099E+03 -0.14714323795E+03 -0.10261135820E+04  0.12296660018E+04  0.25500000920E-02 0. -1.
</event>
<event>
 5   0  0.1393026E-05  0.2139046E+04  0.7818609E-02  0.8544236E-01
       -1   -1    0    0    0  501  0.00000000000E+00  0.00000000000E+00  0.61787766847E+03  0.61787766849E+03  0.50400001928E-02 0. -1.
        1   -1    0    0  501    0  0.00000000000E+00  0.00000000000E+00 -0.18513033489E+04  0.18513033489E+04  0.50400001928E-02 0.  1.
    10030    2    1    2    0    0  0.00000000000E+00  0.00000000000E+00 -0.12334256804E+04  0.24691810174E+04  0.21390455786E+04 0.  0.
        4    1    3    3  502    0  0.65100162257E+03  0.25757508071E+03 -0.15500356557E+04  0.17008116244E+04  0.12699999809E+01 0.  1.
       -4    1    3    3    0  502 -0.65100162257E+03 -0.25757508071E+03  0.31660997526E+03  0.76836939302E+03  0.12699999809E+01 0. -1.
</event>
<event>
 5   0  0.3345974E-05  0.2434073E+04  0.7818609E-02  0.8426856E-01
       -2   -1    0    0    0  501  0.00000000000E+00  0.00000000000E+00  0.75590703642E+03  0.75590703643E+03  0.25500000920E-02 0.  1.
        2   -1    0    0  501    0  0.00000000000E+00  0.00000000000E+00 -0.19594709837E+04  0.19594709837E+04  0.25500000920E-02 0. -1.
    10030    2    1    2    0    0  0.00000000000E+00  0.00000000000E+00 -0.12035639473E+04  0.27153780201E+04  0.24340730509E+04 0.  0.
        4    1    3    3  502    0  0.97894712969E+03  0.32590809052E+02 -0.14076037683E+04  0.17148614011E+04  0.12699999809E+01 0. -1.
       -4    1    3    3    0  502 -0.97894712969E+03 -0.32590809052E+02  0.20403982099E+03  0.10005166191E+04  0.12699999809E+01 0.  1.
</event>
<event>
 5   0  0.3310037E-05  0.2293198E+04  0.7818609E-02  0.8480608E-01
       -2   -1    0    0    0  501  0.00000000000E+00  0.00000000000E+00  0.93703287803E+03  0.93703287804E+03  0.25500000920E-02 0.  1.
        2   -1    0    0  501    0  0.00000000000E+00  0.00000000000E+00 -0.14030347574E+04  0.14030347574E+04  0.25500000920E-02 0. -1.
    10030    2    1    2    0    0  0.00000000000E+00  0.00000000000E+00 -0.46600187938E+03  0.23400676354E+04  0.22931983750E+04 0.  0.
        2    1    3    3  502    0 -0.10949178743E+04  0.29855607361E+02 -0.57897799241E+03  0.12389318078E+04  0.25500000920E-02 0.  1.
       -2    1    3    3    0  502  0.10949178743E+04 -0.29855607361E+02  0.11297611304E+03  0.11011358276E+04  0.25500000920E-02 0. -1.
</event>
<event>
 5   0  0.1434943E-05  0.2231185E+04  0.7818609E-02  0.8505559E-01
       -1   -1    0    0    0  501  0.00000000000E+00  0.00000000000E+00  0.80567631393E+03  0.80567631395E+03  0.50400001928E-02 0. -1.
        1   -1    0    0  501    0  0.00000000000E+00  0.00000000000E+00 -0.15447227883E+04  0.15447227883E+04  0.50400001928E-02 0.  1.
    10030    2    1    2    0    0  0.00000000000E+00  0.00000000000E+00 -0.73904647434E+03  0.23503991022E+04  0.22311849427E+04 0.  0.
        5    1    3    3  502    0  0.10305135139E+04  0.10786494573E+03  0.66005808465E+02  0.10382542105E+04  0.46999998093E+01 0. -1.
       -5    1    3    3    0  502 -0.10305135139E+04 -0.10786494573E+03 -0.80505228280E+03  0.13121448917E+04  0.46999998093E+01 0.  1.
</event>
<event>
 5   0  0.3320780E-05  0.2405645E+04  0.7818609E-02  0.8437393E-01
        2   -1    0    0  501    0  0.00000000000E+00  0.00000000000E+00  0.10447922516E+04  0.10447922516E+04  0.25500000920E-02 0. -1.
       -2   -1    0    0    0  501  0.00000000000E+00  0.00000000000E+00 -0.13847551948E+04  0.13847551948E+04  0.25500000920E-02 0.  1.
    10030    2    1    2    0    0  0.00000000000E+00  0.00000000000E+00 -0.33996294313E+03  0.24295474464E+04  0.24056446104E+04 0.  0.
        5    1    3    3  502    0  0.51335788457E+03  0.50760921184E+03 -0.11415988213E+04  0.13507306868E+04  0.46999998093E+01 0.  1.
       -5    1    3    3    0  502 -0.51335788457E+03 -0.50760921184E+03  0.80163587815E+03  0.10788167596E+04  0.46999998093E+01 0. -1.
</event>
<event>
 5   0  0.3310037E-05  0.2381283E+04  0.7818609E-02  0.8446544E-01
        2   -1    0    0  501    0  0.00000000000E+00  0.00000000000E+00  0.13374754704E+04  0.13374754704E+04  0.25500000920E-02 0. -1.
       -2   -1    0    0    0  501  0.00000000000E+00  0.00000000000E+00 -0.10599275802E+04  0.10599275802E+04  0.25500000920E-02 0.  1.
    10030    2    1    2    0    0  0.00000000000E+00  0.00000000000E+00  0.27754789022E+03  0.23974030506E+04  0.23812829642E+04 0.  0.
        2    1    3    3  502    0 -0.87483894241E+03 -0.52937707887E+03 -0.47530912799E+03  0.11276089898E+04  0.25500000920E-02 0.  1.
       -2    1    3    3    0  502  0.87483894241E+03  0.52937707887E+03  0.75285701822E+03  0.12697940607E+04  0.25500000920E-02 0. -1.
</event>
<event>
 5   0  0.3320780E-05  0.2392530E+04  0.7818609E-02  0.8442306E-01
       -2   -1    0    0    0  501  0.00000000000E+00  0.00000000000E+00  0.64729993089E+03  0.64729993090E+03  0.25500000920E-02 0. -1.
        2   -1    0    0  501    0  0.00000000000E+00  0.00000000000E+00 -0.22107982901E+04  0.22107982901E+04  0.25500000920E-02 0.  1.
    10030    2    1    2    0    0  0.00000000000E+00  0.00000000000E+00 -0.15634983592E+04  0.28580982210E+04  0.23925296909E+04 0.  0.
        5    1    3    3  502    0 -0.23963456710E+03 -0.11606427186E+04 -0.97625601632E+03  0.15354524237E+04  0.46999998093E+01 0.  1.
       -5    1    3    3    0  502  0.23963456710E+03  0.11606427186E+04 -0.58724234290E+03  0.13226457973E+04  0.46999998093E+01 0. -1.
</event>
<event>
 5   0  0.1506985E-05  0.2370415E+04  0.7818609E-02  0.8450663E-01
        1   -1    0    0  501    0  0.00000000000E+00  0.00000000000E+00  0.16775961992E+04  0.16775961993E+04  0.50400001928E-02 0.  1.
       -1   -1    0    0    0  501  0.00000000000E+00  0.00000000000E+00 -0.83733928444E+03  0.83733928445E+03  0.50400001928E-02 0. -1.
    10030    2    1    2    0    0  0.00000000000E+00  0.00000000000E+00  0.84025691481E+03  0.25149354837E+04  0.23704153232E+04 0.  0.
        3    1    3    3  502    0  0.11585728506E+04 -0.31287180598E+02  0.68312718013E+03  0.13453373897E+04  0.10100000352E+00 0.  1.
       -3    1    3    3    0  502 -0.11585728506E+04  0.31287180598E+02  0.15712973468E+03  0.11695980940E+04  0.10100000352E+00 0. -1.
</event>
<event>
 5   0  0.3215208E-05  0.2405371E+04  0.7818609E-02  0.8437495E-01
        2   -1    0    0  501    0  0.00000000000E+00  0.00000000000E+00  0.13497858932E+04  0.13497858932E+04  0.25500000920E-02 0. -1.
       -2   -1    0    0    0  501  0.00000000000E+00  0.00000000000E+00 -0.10716161522E+04  0.10716161522E+04  0.25500000920E-02 0.  1.
    10030    2    1    2    0    0  0.00000000000E+00  0.00000000000E+00  0.27816974094E+03  0.24214020454E+04  0.24053709612E+04 0.  0.
        1    1    3    3  502    0 -0.69247339669E+02 -0.11207878046E+04  0.57264294494E+03  0.12605080085E+04  0.50400001928E-02 0. -1.
       -1    1    3    3    0  502  0.69247339669E+02  0.11207878046E+04 -0.29447320400E+03  0.11608940369E+04  0.50400001928E-02 0.  1.
</event>
<event>
 5   0  0.1506985E-05  0.2409084E+04  0.7818609E-02  0.8436110E-01
       -1   -1    0    0    0  501  0.00000000000E+00  0.00000000000E+00  0.13604059321E+04  0.13604059321E+04  0.50400001928E-02 0.  1.
        1   -1    0    0  501    0  0.00000000000E+00  0.00000000000E+00 -0.10665359133E+04  0.10665359133E+04  0.50400001928E-02 0. -1.
    10030    2    1    2    0    0  0.00000000000E+00  0.00000000000E+00  0.29387001888E+03  0.24269418454E+04  0.24090842935E+04 0.  0.
        3    1    3    3  502    0  0.38792102659E+03  0.69268834491E+03 -0.76566175982E+03  0.11029677270E+04  0.10100000352E+00 0. -1.
       -3    1    3    3    0  502 -0.38792102659E+03 -0.69268834491E+03  0.10595317787E+04  0.13239741185E+04  0.10100000352E+00 0.  1.
</event>
<event>
 5   0  0.3310037E-05  0.2556452E+04  0.7818609E-02  0.8383146E-01
       -2   -1    0    0    0  501  0.00000000000E+00  0.00000000000E+00  0.14523636318E+04  0.14523636318E+04  0.25500000920E-02 0.  1.
        2   -1    0    0  501    0  0.00000000000E+00  0.00000000000E+00 -0.11249673137E+04  0.11249673137E+04  0.25500000920E-02 0. -1.
    10030    2    1    2    0    0  0.00000000000E+00  0.00000000000E+00  0.32739631805E+03  0.25773309455E+04  0.25564519267E+04 0.  0.
        2    1    3    3  502    0  0.76902902055E+02  0.84235624799E+03  0.11298482434E+04  0.14113947563E+04  0.25500000920E-02 0.  1.
       -2    1    3    3    0  502 -0.76902902055E+02 -0.84235624799E+03 -0.80245192537E+03  0.11659361892E+04  0.25500000920E-02 0. -1.
</event>
<event>
 5   0  0.3347728E-05  0.2418178E+04  0.7818609E-02  0.8432729E-01
       -2   -1    0    0    0  501  0.00000000000E+00  0.00000000000E+00  0.15533574903E+04  0.15533574903E+04  0.25500000920E-02 0.  1.
        2   -1    0    0  501    0  0.00000000000E+00  0.00000000000E+00 -0.94112008837E+03  0.94112008838E+03  0.25500000920E-02 0. -1.
    10030    2    1    2    0    0  0.00000000000E+00  0.00000000000E+00  0.61223740197E+03  0.24944775787E+04  0.24181777756E+04 0.  0.
        3    1    3    3  502    0 -0.14120931731E+03  0.45561577409E+02  0.15439302457E+04  0.15510436945E+04  0.10100000352E+00 0.  1.
       -3    1    3    3    0  502  0.14120931731E+03 -0.45561577409E+02 -0.93169284370E+03  0.94343388419E+03  0.10100000352E+00 0. -1.
</event>
<event>
 5   0  0.3215208E-05  0.2410223E+04  0.7818609E-02  0.8435686E-01
       -2   -1    0    0    0  501  0.00000000000E+00  0.00000000000E+00  0.80754521941E+03  0.80754521942E+03  0.25500000920E-02 0.  1.
        2   -1    0    0  501    0  0.00000000000E+00  0.00000000000E+00 -0.17984048065E+04  0.17984048065E+04  0.25500000920E-02 0. -1.
    10030    2    1    2    0    0  0.00000000000E+00  0.00000000000E+00 -0.99085958712E+03  0.26059500260E+04  0.24102225657E+04 0.  0.
        1    1    3    3  502    0 -0.37392084281E+03  0.58481674107E+03  0.56969145672E+03  0.89798428339E+03  0.50400001928E-02 0.  1.
       -1    1    3    3    0  502  0.37392084281E+03 -0.58481674107E+03 -0.15605510438E+04  0.17079657426E+04  0.50400001928E-02 0. -1.
</event>
<event>
 5   0  0.3320780E-05  0.2371141E+04  0.7818609E-02  0.8450388E-01
       -2   -1    0    0    0  501  0.00000000000E+00  0.00000000000E+00  0.10035626371E+04  0.10035626371E+04  0.25500000920E-02 0.  1.
        2   -1    0    0  501    0  0.00000000000E+00  0.00000000000E+00 -0.14005873711E+04  0.14005873712E+04  0.25500000920E-02 0. -1.
    10030    2    1    2    0    0  0.00000000000E+00  0.00000000000E+00 -0.39702473407E+03  0.24041500082E+04  0.23711407851E+04 0.  0.
        5    1    3    3  502    0 -0.42634833413E+03  0.41052069073E+03  0.84304432973E+03  0.10300708575E+04  0.46999998093E+01 0.  1.
       -5    1    3    3    0  502  0.42634833413E+03 -0.41052069073E+03 -0.12400690638E+04  0.13740791508E+04  0.46999998093E+01 0. -1.
</event>
<event>
 5   0  0.1393026E-05  0.2267273E+04  0.7818609E-02  0.8490938E-01
       -1   -1    0    0    0  501  0.00000000000E+00  0.00000000000E+00  0.81093432197E+03  0.81093432198E+03  0.50400001928E-02 0. -1.
        1   -1    0    0  501    0  0.00000000000E+00  0.00000000000E+00 -0.15847542609E+04  0.15847542609E+04  0.50400001928E-02 0.  1.
    10030    2    1    2    0    0  0.00000000000E+00  0.00000000000E+00 -0.77381993894E+03  0.23956885829E+04  0.22672729188E+04 0.  0.
        4    1    3    3  502    0  0.41721591889E+02  0.90442728761E+02  0.80630122846E+03  0.81243083541E+03  0.12699999809E+01 0. -1.
       -4    1    3    3    0  502 -0.41721591889E+02 -0.90442728761E+02 -0.15801211674E+04  0.15832577475E+04  0.12699999809E+01 0.  1.
</event>
<event>
 5   0  0.1434943E-05  0.2369348E+04  0.7818609E-02  0.8451069E-01
       -1   -1    0    0    0  501  0.00000000000E+00  0.00000000000E+00  0.10330640429E+04  0.10330640430E+04  0.50400001928E-02 0. -1.
        1   -1    0    0  501    0  0.00000000000E+00  0.00000000000E+00 -0.13585344055E+04  0.13585344055E+04  0.50400001928E-02 0.  1.
    10030    2    1    2    0    0  0.00000000000E+00  0.00000000000E+00 -0.32547036255E+03  0.23915984485E+04  0.23693484720E+04 0.  0.
        5    1    3    3  502    0 -0.16002799682E+03  0.35473359429E+02 -0.13470235670E+04  0.13569679064E+04  0.46999998093E+01 0.  1.
       -5    1    3    3    0  502  0.16002799682E+03 -0.35473359429E+02  0.10215532045E+04  0.10346305420E+04  0.46999998093E+01 0. -1.
</event>
<event>
 5   0  0.3345974E-05  0.2374843E+04  0.7818609E-02  0.8448983E-01
        2   -1    0    0  501    0  0.00000000000E+00  0.00000000000E+00  0.12925862607E+04  0.12925862607E+04  0.25500000920E-02 0.  1.
       -2   -1    0    0    0  501  0.00000000000E+00  0.00000000000E+00 -0.10908125281E+04  0.10908125281E+04  0.25500000920E-02 0. -1.
    10030    2    1    2    0    0  0.00000000000E+00  0.00000000000E+00  0.20177373265E+03  0.23833987888E+04  0.23748425521E+04 0.  0.
        4    1    3    3  502    0 -0.41326008836E+03 -0.10592939409E+04 -0.24251564912E+03  0.11626276303E+04  0.12699999809E+01 0. -1.
       -4    1    3    3    0  502  0.41326008836E+03  0.10592939409E+04  0.44428938177E+03  0.12207711585E+04  0.12699999809E+01 0.  1.
</event>
<event>
 5   0  0.1393026E-05  0.2364332E+04  0.7818609E-02  0.8452979E-01
        1   -1    0    0  501    0  0.00000000000E+00  0.00000000000E+00  0.15781108623E+04  0.15781108623E+04  0.50400001928E-02 0. -1.
       -1   -1    0    0    0  501  0.00000000000E+00  0.00000000000E+00 -0.88556255301E+03  0.88556255302E+03  0.50400001928E-02 0.  1.
    10030    2    1    2    0    0  0.00000000000E+00  0.00000000000E+00  0.69254830927E+03  0.24636734153E+04  0.23643315200E+04 0.  0.
        4    1    3    3  502    0  0.85472331522E+03  0.80025788458E+03  0.51606102956E+03  0.12795644675E+04  0.12699999809E+01 0. -1.
       -4    1    3    3    0  502 -0.85472331522E+03 -0.80025788458E+03  0.17648727971E+03  0.11841089478E+04  0.12699999809E+01 0.  1.
</event>
<event>
 5   0  0.1407158E-05  0.2381741E+04  0.7818609E-02  0.8446371E-01
        1   -1    0    0  501    0  0.00000000000E+00  0.00000000000E+00  0.15787858124E+04  0.15787858124E+04  0.50400001928E-02 0. -1.
       -1   -1    0    0    0  501  0.00000000000E+00  0.00000000000E+00 -0.89826780168E+03  0.89826780169E+03  0.50400001928E-02 0.  1.
    10030    2    1    2    0    0  0.00000000000E+00  0.00000000000E+00  0.68051801068E+03  0.24770536141E+04  0.23817409271E+04 0.  0.
        1    1    3    3  502    0 -0.50725712411E+03  0.55369846369E+03 -0.62100167924E+03  0.97444079569E+03  0.50400001928E-02 0.  1.
       -1    1    3    3    0  502  0.50725712411E+03 -0.55369846369E+03  0.13015196899E+04  0.15026128184E+04  0.50400001928E-02 0. -1.
</event>
<event>
 5   0  0.3215208E-05  0.2291695E+04  0.7818609E-02  0.8481203E-01
       -2   -1    0    0    0  501  0.00000000000E+00  0.00000000000E+00  0.68600110091E+03  0.68600110092E+03  0.25500000920E-02 0.  1.
        2   -1    0    0  501    0  0.00000000000E+00  0.00000000000E+00 -0.19139415710E+04  0.19139415710E+04  0.25500000920E-02 0. -1.
    10030    2    1    2    0    0  0.00000000000E+00  0.00000000000E+00 -0.12279404700E+04  0.25999426719E+04  0.22916945911E+04 0.  0.
        1    1    3    3  502    0  0.49465912612E+03  0.10037600169E+03  0.55308532777E+03  0.74877658390E+03  0.50400001928E-02 0.  1.
       -1    1    3    3    0  502 -0.49465912612E+03 -0.10037600169E+03 -0.17810257978E+04  0.18511660880E+04  0.50400001928E-02 0. -1.
</event>
<event>
 5   0  0.1434943E-05  0.2405003E+04  0.7818609E-02  0.8437633E-01
        1   -1    0    0  501    0  0.00000000000E+00  0.00000000000E+00  0.16984142427E+04  0.16984142427E+04  0.50400001928E-02 0.  1.
       -1   -1    0    0    0  501  0.00000000000E+00  0.00000000000E+00 -0.85138823285E+03  0.85138823287E+03  0.50400001928E-02 0. -1.
    10030    2    1    2    0    0  0.00000000000E+00  0.00000000000E+00  0.84702600985E+03  0.25498024756E+04  0.24050030360E+04 0.  0.
        5    1    3    3  502    0  0.36428331856E+03  0.10643770481E+03  0.16332449381E+04  0.16767654693E+04  0.46999998093E+01 0.  1.
       -5    1    3    3    0  502 -0.36428331856E+03 -0.10643770481E+03 -0.78621892825E+03  0.87303700628E+03  0.46999998093E+01 0. -1.
</event>
<event>
 5   0  0.3345974E-05  0.2378264E+04  0.7818609E-02  0.8447686E-01
       -2   -1    0    0    0  501  0.00000000000E+00  0.00000000000E+00  0.91744285391E+03  0.91744285391E+03  0.25500000920E-02 0. -1.
        2   -1    0    0  501    0  0.00000000000E+00  0.00000000000E+00 -0.15412781804E+04  0.15412781804E+04  0.25500000920E-02 0.  1.
    10030    2    1    2    0    0  0.00000000000E+00  0.00000000000E+00 -0.62383532650E+03  0.24587210343E+04  0.23782637806E+04 0.  0.
        4    1    3    3  502    0  0.71043406181E+03  0.23123077577E+03 -0.12683357067E+04  0.14720262584E+04  0.12699999809E+01 0.  1.
       -4    1    3    3    0  502 -0.71043406181E+03 -0.23123077577E+03  0.64450038015E+03  0.98669477589E+03  0.12699999809E+01 0. -1.
</event>
<event>
 5   0  0.3215208E-05  0.2386523E+04  0.7818609E-02  0.8444566E-01
        2   -1    0    0  501    0  0.00000000000E+00  0.00000000000E+00  0.14413901499E+04  0.14413901499E+04  0.25500000920E-02 0. -1.
       -2   -1    0    0    0  501  0.00000000000E+00  0.00000000000E+00 -0.98784702883E+03  0.98784702883E+03  0.25500000920E-02 0.  1.
    10030    2    1    2    0    0  0.00000000000E+00  0.00000000000E+00  0.45354312109E+03  0.24292371787E+04  0.23865229745E+04 0.  0.
        1    1    3    3  502    0  0.11894608868E+04  0.19859901742E+02  0.32150369943E+03  0.12323052567E+04  0.50400001928E-02 0. -1.
       -1    1    3    3    0  502 -0.11894608868E+04 -0.19859901742E+02  0.13203942165E+03  0.11969319220E+04  0.50400001928E-02 0.  1.
</event>
<event>
 5   0  0.3347728E-05  0.2369015E+04  0.7818609E-02  0.8451196E-01
       -2   -1    0    0    0  501  0.00000000000E+00  0.00000000000E+00  0.77056054466E+03  0.77056054466E+03  0.25500000920E-02 0. -1.
        2   -1    0    0  501    0  0.00000000000E+00  0.00000000000E+00 -0.18208276309E+04  0.18208276309E+04  0.25500000920E-02 0.  1.
    10030    2    1    2    0    0  0.00000000000E+00  0.00000000000E+00 -0.10502670862E+04  0.25913881756E+04  0.23690149269E+04 0.  0.
        3    1    3    3  502    0  0.40861868925E+03  0.11061491588E+04 -0.40272432680E+03  0.12460826972E+04  0.10100000352E+00 0.  1.
       -3    1    3    3    0  502 -0.40861868925E+03 -0.11061491588E+04 -0.64754275944E+03  0.13453054784E+04  0.10100000352E+00 0. -1.
</event>
<event>
 5   0  0.3310037E-05  0.2350513E+04  0.7818609E-02  0.8458267E-01
       -2   -1    0    0    0  501  0.00000000000E+00  0.00000000000E+00  0.95978011010E+03  0.95978011010E+03  0.25500000920E-02 0.  1.
        2   -1    0    0  501    0  0.00000000000E+00  0.00000000000E+00 -0.14391080200E+04  0.14391080200E+04  0.25500000920E-02 0. -1.
    10030    2    1    2    0    0  0.00000000000E+00  0.00000000000E+00 -0.47932790990E+03  0.23988881301E+04  0.23505125006E+04 0.  0.
        2    1    3    3  502    0  0.11404736988E+04  0.20117709096E+02  0.49256480660E+02  0.11417141414E+04  0.25500000920E-02 0.  1.
       -2    1    3    3    0  502 -0.11404736988E+04 -0.20117709096E+02 -0.52858439056E+03  0.12571739887E+04  0.25500000920E-02 0. -1.
</event>
<event>
 5   0  0.3215208E-05  0.2429079E+04  0.7818609E-02  0.8428697E-01
        2   -1    0    0  501    0  0.00000000000E+00  0.00000000000E+00  0.10581463834E+04  0.10581463834E+04  0.25500000920E-02 0. -1.
       -2   -1    0    0    0  501  0.00000000000E+00  0.00000000000E+00 -0.13940468776E+04  0.13940468776E+04  0.25500000920E-02 0.  1.
    10030    2    1    2    0    0  0.00000000000E+00  0.00000000000E+00 -0.33590049421E+03  0.24521932611E+04  0.24290785594E+04 0.  0.
        1    1    3    3  502    0  0.81221856052E+03  0.40624374709E+03  0.64618073453E+03  0.11145772803E+04  0.50400001928E-02 0. -1.
       -1    1    3    3    0  502 -0.81221856052E+03 -0.40624374709E+03 -0.98208122874E+03  0.13376159808E+04  0.50400001928E-02 0.  1.
</event>
<event>
 5   0  0.3320780E-05  0.2390892E+04  0.7818609E-02  0.8442921E-01
        2   -1    0    0  501    0  0.00000000000E+00  0.00000000000E+00  0.13086683178E+04  0.13086683178E+04  0.25500000920E-02 0. -1.
       -2   -1    0    0    0  501  0.00000000000E+00  0.00000000000E+00 -0.10920190715E+04  0.10920190715E+04  0.25500000920E-02 0.  1.
    10030    2    1    2    0    0  0.00000000000E+00  0.00000000000E+00  0.21664924627E+03  0.24006873893E+04  0.23908916841E+04 0.  0.
        5    1    3    3  502    0  0.47504536282E+03  0.10937766579E+04  0.19265202548E+03  0.12079537934E+04  0.46999998093E+01 0.  1.
       -5    1    3    3    0  502 -0.47504536282E+03 -0.10937766579E+04  0.23997220792E+02  0.11927335959E+04  0.46999998093E+01 0. -1.
</event>
<event>
 5   0  0.3310037E-05  0.2431787E+04  0.7818609E-02  0.8427698E-01
       -2   -1    0    0    0  501  0.00000000000E+00  0.00000000000E+00  0.80316578608E+03  0.80316578609E+03  0.25500000920E-02 0.  1.
        2   -1    0    0  501    0  0.00000000000E+00  0.00000000000E+00 -0.18407120501E+04  0.18407120501E+04  0.25500000920E-02 0. -1.
    10030    2    1    2    0    0  0.00000000000E+00  0.00000000000E+00 -0.10375462640E+04  0.26438778362E+04  0.24317869484E+04 0.  0.
        2    1    3    3  502    0 -0.75240409040E+03 -0.78197664592E+03 -0.11150569295E+04  0.15559406627E+04  0.25500000920E-02 0.  1.
       -2    1    3    3    0  502  0.75240409040E+03  0.78197664592E+03  0.77510665481E+02  0.10879371734E+04  0.25500000920E-02 0. -1.
</event>
<event>
 5   0  0.1506985E-05  0.2417652E+04  0.7818609E-02  0.8432924E-01
       -1   -1    0    0    0  501  0.00000000000E+00  0.00000000000E+00  0.68551002668E+03  0.68551002670E+03  0.50400001928E-02 0.  1.
        1   -1    0    0  501    0  0.00000000000E+00  0.00000000000E+00 -0.21316391847E+04  0.21316391847E+04  0.50400001928E-02 0. -1.
    10030    2    1    2    0    0  0.00000000000E+00  0.00000000000E+00 -0.14461291580E+04  0.28171492114E+04  0.24176517817E+04 0.  0.
        3    1    3    3  502    0 -0.91251047114E+03  0.34685929493E+03  0.10767470306E+03  0.98213063403E+03  0.10100000352E+00 0.  1.
       -3    1    3    3    0  502  0.91251047114E+03 -0.34685929493E+03 -0.15538038611E+04  0.18350185774E+04  0.10100000352E+00 0. -1.
</event>
<event>
 5   0  0.1407158E-05  0.2374725E+04  0.7818609E-02  0.8449027E-01
        1   -1    0    0  501    0  0.00000000000E+00  0.00000000000E+00  0.18007228361E+04  0.18007228361E+04  0.50400001928E-02 0.  1.
       -1   -1    0    0    0  501  0.00000000000E+00  0.00000000000E+00 -0.78292460099E+03  0.78292460100E+03  0.50400001928E-02 0. -1.
    10030    2    1    2    0    0  0.00000000000E+00  0.00000000000E+00  0.10177982351E+04  0.25836474371E+04  0.23747254224E+04 0.  0.
        1    1    3    3  502    0  0.24650485982E+03  0.46628968305E+03  0.16662735818E+04  0.17477580965E+04  0.50400001928E-02 0.  1.
       -1    1    3    3    0  502 -0.24650485982E+03 -0.46628968305E+03 -0.64847534669E+03  0.83588934060E+03  0.50400001928E-02 0. -1.
</event>
<event>
 5   0  0.3310037E-05  0.2469186E+04  0.7818609E-02  0.8414046E-01
       -2   -1    0    0    0  501  0.00000000000E+00  0.00000000000E+00  0.13640854715E+04  0.13640854715E+04  0.25500000920E-02 0.  1.
        2   -1    0    0  501    0  0.00000000000E+00  0.00000000000E+00 -0.11173933402E+04  0.11173933402E+04  0.25500000920E-02 0. -1.
    10030    2    1    2    0    0  0.00000000000E+00  0.00000000000E+00  0.24669213128E+03  0.24814788117E+04  0.24691861180E+04 0.  0.
        2    1    3    3  502    0  0.70158087208E+03  0.57251570328E+03 -0.72001593175E+03  0.11568979612E+04  0.25500000920E-02 0. -1.
       -2    1    3    3    0  502 -0.70158087208E+03 -0.57251570328E+03  0.96670806303E+03  0.13245808506E+04  0.25500000920E-02 0.  1.
</event>
<event>
 5   0  0.3320780E-05  0.2373257E+04  0.7818609E-02  0.8449584E-01
       -2   -1    0    0    0  501  0.00000000000E+00  0.00000000000E+00  0.90357774523E+03  0.90357774523E+03  0.25500000920E-02 0.  1.
        2   -1    0    0  501    0  0.00000000000E+00  0.00000000000E+00 -0.15583459569E+04  0.15583459569E+04  0.25500000920E-02 0. -1.
    10030    2    1    2    0    0  0.00000000000E+00  0.00000000000E+00 -0.65476821165E+03  0.24619237021E+04  0.23732566031E+04 0.  0.
        5    1    3    3  502    0  0.15095874505E+03  0.59922902214E+03  0.72347874390E+03  0.95147650868E+03  0.46999998093E+01 0.  1.
       -5    1    3    3    0  502 -0.15095874505E+03 -0.59922902214E+03 -0.13782469556E+04  0.15104471934E+04  0.46999998093E+01 0. -1.
</event>
<event>
 5   0  0.3320780E-05  0.2508428E+04  0.7818609E-02  0.8399989E-01
        2   -1    0    0  501    0  0.00000000000E+00  0.00000000000E+00  0.21279314517E+04  0.21279314517E+04  0.25500000920E-02 0. -1.
       -2   -1    0    0    0  501  0.00000000000E+00  0.00000000000E+00 -0.73924027703E+03  0.73924027704E+03  0.25500000920E-02 0.  1.
    10030    2    1    2    0    0  0.00000000000E+00  0.00000000000E+00  0.13886911747E+04  0.28671717288E+04  0.25084279028E+04 0.  0.
        5    1    3    3  502    0 -0.35389624199E+03  0.12023675295E+04  0.64196205321E+03  0.14082143281E+04  0.46999998093E+01 0.  1.
       -5    1    3    3    0  502  0.35389624199E+03 -0.12023675295E+04  0.74672912148E+03  0.14589574007E+04  0.46999998093E+01 0. -1.
</event>
<event>
 5   0  0.1393026E-05  0.2371599E+04  0.7818609E-02  0.8450213E-01
       -1   -1    0    0    0  501  0.00000000000E+00  0.00000000000E+00  0.87221258151E+03  0.87221258153E+03  0.50400001928E-02 0.  1.
        1   -1    0    0  501    0  0.00000000000E+00  0.00000000000E+00 -0.16121310669E+04  0.16121310669E+04  0.50400001928E-02 0. -1.
    10030    2    1    2    0    0  0.00000000000E+00  0.00000000000E+00 -0.73991848538E+03  0.24843436484E+04  0.23715994600E+04 0.  0.
        4    1    3    3  502    0 -0.94855672858E+03  0.25338845067E+03 -0.10665168088E+04  0.14496293632E+04  0.12699999809E+01 0. -1.
       -4    1    3    3    0  502  0.94855672858E+03 -0.25338845067E+03  0.32659832345E+03  0.10347142852E+04  0.12699999809E+01 0.  1.
</event>
<event>
 5   0  0.1434943E-05  0.2381162E+04  0.7818609E-02  0.8446590E-01
        1   -1    0    0  501    0  0.00000000000E+00  0.00000000000E+00  0.12067371858E+04  0.12067371859E+04  0.50400001928E-02 0. -1.
       -1   -1    0    0    0  501  0.00000000000E+00  0.00000000000E+00 -0.11746407072E+04  0.11746407072E+04  0.50400001928E-02 0.  1.
    10030    2    1    2    0    0  0.00000000000E+00  0.00000000000E+00  0.32096478687E+02  0.23813778930E+04  0.23811615832E+04 0.  0.
        5    1    3    3  502    0  0.75190180946E+03  0.41595325012E+03 -0.80809402936E+03  0.11795810645E+04  0.46999998093E+01 0.  1.
       -5    1    3    3    0  502 -0.75190180946E+03 -0.41595325012E+03  0.84019050804E+03  0.12017968286E+04  0.46999998093E+01 0. -1.
</event>
<event>
 5   0  0.3215208E-05  0.2416590E+04  0.7818609E-02  0.8433319E-01
        2   -1    0    0  501    0  0.00000000000E+00  0.00000000000E+00  0.15517904516E+04  0.15517904516E+04  0.25500000920E-02 0.  1.
       -2   -1    0    0    0  501  0.00000000000E+00  0.00000000000E+00 -0.94083371735E+03  0.94083371736E+03  0.25500000920E-02 0. -1.
    10030    2    1    2    0    0  0.00000000000E+00  0.00000000000E+00  0.61095673421E+03  0.24926241689E+04  0.24165899769E+04 0.  0.
        1    1    3    3  502    0 -0.75873062502E+03 -0.48049873572E+03 -0.52830244945E+03  0.10419475392E+04  0.50400001928E-02 0. -1.
       -1    1    3    3    0  502  0.75873062502E+03  0.48049873572E+03  0.11392591837E+04  0.14506766297E+04  0.50400001928E-02 0.  1.
</event>
<event>
 5   0  0.3345974E-05  0.2362082E+04  0.7818609E-02  0.8453837E-01
       -2   -1    0    0    0  501  0.00000000000E+00  0.00000000000E+00  0.97165248261E+03  0.97165248261E+03  0.25500000920E-02 0. -1.
        2   -1    0    0  501    0  0.00000000000E+00  0.00000000000E+00 -0.14355523600E+04  0.14355523600E+04  0.25500000920E-02 0.  1.
    10030    2    1    2    0    0  0.00000000000E+00  0.00000000000E+00 -0.46389987741E+03  0.24072048426E+04  0.23620821447E+04 0.  0.
        4    1    3    3  502    0 -0.86797590524E+03 -0.34432672607E+03  0.50499138539E+03  0.10615841835E+04  0.12699999809E+01 0. -1.
       -4    1    3    3    0  502  0.86797590524E+03  0.34432672607E+03 -0.96889126279E+03  0.13456206592E+04  0.12699999809E+01 0.  1.
</event>
<event>
 5   0  0.3310037E-05  0.2414142E+04  0.7818609E-02  0.8434228E-01
        2   -1    0    0  501    0  0.00000000000E+00  0.00000000000E+00  0.13333114169E+04  0.13333114169E+04  0.25500000920E-02 0. -1.
       -2   -1    0    0    0  501  0.00000000000E+00  0.00000000000E+00 -0.10927837027E+04  0.10927837027E+04  0.25500000920E-02 0.  1.
    10030    2    1    2    0    0  0.00000000000E+00  0.00000000000E+00  0.24052771427E+03  0.24260951196E+04  0.24141424871E+04 0.  0.
        2    1    3    3  502    0  0.79608179122E+02 -0.12026340301E+04  0.18658236407E+03  0.12196225035E+04  0.25500000920E-02 0. -1.
       -2    1    3    3    0  502 -0.79608179122E+02  0.12026340301E+04  0.53945350198E+02  0.12064726161E+04  0.25500000920E-02 0.  1.
</event>
<event>
 5   0  0.3310037E-05  0.2317529E+04  0.7818609E-02  0.8471041E-01
       -2   -1    0    0    0  501  0.00000000000E+00  0.00000000000E+00  0.69014551952E+03  0.69014551952E+03  0.25500000920E-02 0.  1.
        2   -1    0    0  501    0  0.00000000000E+00  0.00000000000E+00 -0.19455831575E+04  0.19455831575E+04  0.25500000920E-02 0. -1.
    10030    2    1    2    0    0  0.00000000000E+00  0.00000000000E+00 -0.12554376380E+04  0.26357286770E+04  0.23175292870E+04 0.  0.
        2    1    3    3  502    0 -0.54486680248E+03 -0.96631039920E+03 -0.10085022498E+04  0.14992372754E+04  0.25500000920E-02 0.  1.
       -2    1    3    3    0  502  0.54486680248E+03  0.96631039920E+03 -0.24693538817E+03  0.11364914016E+04  0.25500000920E-02 0. -1.
</event>
<event>
 5   0  0.1401596E-05  0.2202278E+04  0.7818609E-02  0.8517481E-01
        1   -1    0    0  501    0  0.00000000000E+00  0.00000000000E+00  0.17424865103E+04  0.17424865103E+04  0.50400001928E-02 0.  1.
       -1   -1    0    0    0  501  0.00000000000E+00  0.00000000000E+00 -0.69584846400E+03  0.69584846402E+03  0.50400001928E-02 0. -1.
    10030    2    1    2    0    0  0.00000000000E+00  0.00000000000E+00  0.10466380463E+04  0.24383349744E+04  0.22022775137E+04 0.  0.
        2    1    3    3  502    0  0.23150620563E+03  0.63873356624E+03 -0.43612866910E+03  0.80733134951E+03  0.25500000920E-02 0. -1.
       -2    1    3    3    0  502 -0.23150620563E+03 -0.63873356624E+03  0.14827667154E+04  0.16310036248E+04  0.25500000920E-02 0.  1.
</event>
<event>
 5   0  0.1506985E-05  0.2415452E+04  0.7818609E-02  0.8433741E-01
       -1   -1    0    0    0  501  0.00000000000E+00  0.00000000000E+00  0.80901997535E+03  0.80901997536E+03  0.50400001928E-02 0. -1.
        1   -1    0    0  501    0  0.00000000000E+00  0.00000000000E+00 -0.18029241532E+04  0.18029241532E+04  0.50400001928E-02 0.  1.
    10030    2    1    2    0    0  0.00000000000E+00  0.00000000000E+00 -0.99390417789E+03  0.26119441286E+04  0.24154516381E+04 0.  0.
        3    1    3    3  502    0 -0.28811267193E+03 -0.11368390949E+04 -0.18506308342E+03  0.11872912004E+04  0.10100000352E+00 0.  1.
       -3    1    3    3    0  502  0.28811267193E+03  0.11368390949E+04 -0.80884109447E+03  0.14246529282E+04  0.10100000352E+00 0. -1.
</event>
<event>
 5   0  0.3320780E-05  0.2386461E+04  0.7818609E-02  0.8444590E-01
        2   -1    0    0  501    0  0.00000000000E+00  0.00000000000E+00  0.12440324414E+04  0.12440324414E+04  0.25500000920E-02 0.  1.
       -2   -1    0    0    0  501  0.00000000000E+00  0.00000000000E+00 -0.11445028325E+04  0.11445028325E+04  0.25500000920E-02 0. -1.
    10030    2    1    2    0    0  0.00000000000E+00  0.00000000000E+00  0.99529608873E+02  0.23885352739E+04  0.23864606872E+04 0.  0.
        5    1    3    3  502    0  0.26744286106E+03  0.48182924156E+03 -0.10094989647E+04  0.11501284066E+04  0.46999998093E+01 0. -1.
       -5    1    3    3    0  502 -0.26744286106E+03 -0.48182924156E+03  0.11090285736E+04  0.12384068673E+04  0.46999998093E+01 0.  1.
</event>
<event>
 5   0  0.3215208E-05  0.2400679E+04  0.7818609E-02  0.8439250E-01
        2   -1    0    0  501    0  0.00000000000E+00  0.00000000000E+00  0.13035042686E+04  0.13035042686E+04  0.25500000920E-02 0.  1.
       -2   -1    0    0    0  501  0.00000000000E+00  0.00000000000E+00 -0.11053391884E+04  0.11053391884E+04  0.25500000920E-02 0. -1.
    10030    2    1    2    0    0  0.00000000000E+00  0.00000000000E+00  0.19816508022E+03  0.24088434570E+04  0.24006785293E+04 0.  0.
        1    1    3    3  502    0  0.10490789401E+04 -0.50842367406E+03  0.38597997907E+03  0.12280235337E+04  0.50400001928E-02 0.  1.
       -1    1    3    3    0  502 -0.10490789401E+04  0.50842367406E+03 -0.18781489885E+03  0.11808199233E+04  0.50400001928E-02 0. -1.
</event>
<event>
 5   0  0.1393026E-05  0.2368863E+04  0.7818609E-02  0.8451254E-01
       -1   -1    0    0    0  501  0.00000000000E+00  0.00000000000E+00  0.70044445415E+03  0.70044445417E+03  0.50400001928E-02 0.  1.
        1   -1    0    0  501    0  0.00000000000E+00  0.00000000000E+00 -0.20028397549E+04  0.20028397549E+04  0.50400001928E-02 0. -1.
    10030    2    1    2    0    0  0.00000000000E+00  0.00000000000E+00 -0.13023953008E+04  0.27032842091E+04  0.23688630175E+04 0.  0.
        4    1    3    3  502    0 -0.79595449622E+03  0.16509402661E+03 -0.16342489539E+04  0.18252591197E+04  0.12699999809E+01 0. -1.
       -4    1    3    3    0  502  0.79595449622E+03 -0.16509402661E+03  0.33185365313E+03  0.87802508943E+03  0.12699999809E+01 0.  1.
</event>
<event>
 5   0  0.1506985E-05  0.2386871E+04  0.7818609E-02  0.8444435E-01
       -1   -1    0    0    0  501  0.00000000000E+00  0.00000000000E+00  0.68543561859E+03  0.68543561861E+03  0.50400001928E-02 0.  1.
        1   -1    0    0  501    0  0.00000000000E+00  0.00000000000E+00 -0.20779307020E+04  0.20779307020E+04  0.50400001928E-02 0. -1.
    10030    2    1    2    0    0  0.00000000000E+00  0.00000000000E+00 -0.13924950834E+04  0.27633663206E+04  0.23868705169E+04 0.  0.
        3    1    3    3  502    0  0.61901360336E+03 -0.88002568839E+03 -0.12940976692E+04  0.16829473673E+04  0.10100000352E+00 0. -1.
       -3    1    3    3    0  502 -0.61901360336E+03  0.88002568839E+03 -0.98397414181E+02  0.10804189533E+04  0.10100000352E+00 0.  1.
</event>
<event>
 5   0  0.3320780E-05  0.2403999E+04  0.7818609E-02  0.8438008E-01
       -2   -1    0    0    0  501  0.00000000000E+00  0.00000000000E+00  0.13695015408E+04  0.13695015408E+04  0.25500000920E-02 0.  1.
        2   -1    0    0  501    0  0.00000000000E+00  0.00000000000E+00 -0.10549840266E+04  0.10549840266E+04  0.25500000920E-02 0. -1.
    10030    2    1    2    0    0  0.00000000000E+00  0.00000000000E+00  0.31451751428E+03  0.24244855674E+04  0.24039985440E+04 0.  0.
        5    1    3    3  502    0  0.35244291587E+03  0.10004097239E+04 -0.41301970301E+03  0.11382631461E+04  0.46999998093E+01 0. -1.
       -5    1    3    3    0  502 -0.35244291587E+03 -0.10004097239E+04  0.72753721729E+03  0.12862224213E+04  0.46999998093E+01 0.  1.
</event>
<event>
 5   0  0.3320780E-05  0.2445819E+04  0.7818609E-02  0.8422546E-01
       -2   -1    0    0    0  501  0.00000000000E+00  0.00000000000E+00  0.18108770589E+04  0.18108770589E+04  0.25500000920E-02 0. -1.
        2   -1    0    0  501    0  0.00000000000E+00  0.00000000000E+00 -0.82584746234E+03  0.82584746235E+03  0.25500000920E-02 0.  1.
    10030    2    1    2    0    0  0.00000000000E+00  0.00000000000E+00  0.98502959656E+03  0.26367245213E+04  0.24458194731E+04 0.  0.
        5    1    3    3  502    0 -0.49248077243E+01  0.12010937905E+04  0.74031612404E+03  0.14109360726E+04  0.46999998093E+01 0. -1.
       -5    1    3    3    0  502  0.49248077243E+01 -0.12010937905E+04  0.24471347252E+03  0.12257884487E+04  0.46999998093E+01 0.  1.
</event>
<event>
 5   0  0.3310037E-05  0.2399330E+04  0.7818609E-02  0.8439755E-01
        2   -1    0    0  501    0  0.00000000000E+00  0.00000000000E+00  0.16902762632E+04  0.16902762632E+04  0.25500000920E-02 0.  1.
       -2   -1    0    0    0  501  0.00000000000E+00  0.00000000000E+00 -0.85145596340E+03  0.85145596340E+03  0.25500000920E-02 0. -1.
    10030    2    1    2    0    0  0.00000000000E+00  0.00000000000E+00  0.83882029982E+03  0.25417322266E+04  0.23993297432E+04 0.  0.
        2    1    3    3  502    0 -0.38562348739E+03  0.10186419599E+04  0.95210557755E+03  0.14466658036E+04  0.25500000920E-02 0.  1.
       -2    1    3    3    0  502  0.38562348739E+03 -0.10186419599E+04 -0.11328527773E+03  0.10950664230E+04  0.25500000920E-02 0. -1.
</event>
<event>
 5   0  0.3345974E-05  0.2412424E+04  0.7818609E-02  0.8434867E-01
       -2   -1    0    0    0  501  0.00000000000E+00  0.00000000000E+00  0.11054663530E+04  0.11054663530E+04  0.25500000920E-02 0. -1.
        2   -1    0    0  501    0  0.00000000000E+00  0.00000000000E+00 -0.13161391989E+04  0.13161391989E+04  0.25500000920E-02 0.  1.
    10030    2    1    2    0    0  0.00000000000E+00  0.00000000000E+00 -0.21067284590E+03  0.24216055518E+04  0.24124241751E+04 0.  0.
        4    1    3    3  502    0  0.25044704751E+03 -0.72168142577E+03  0.83170341852E+03  0.11292829553E+04  0.12699999809E+01 0. -1.
       -4    1    3    3    0  502 -0.25044704751E+03  0.72168142577E+03 -0.10423762644E+04  0.12923225965E+04  0.12699999809E+01 0.  1.
</event>
<event>
 5   0  0.1407158E-05  0.2372635E+04  0.7818609E-02  0.8449820E-01
       -1   -1    0    0    0  501  0.00000000000E+00  0.00000000000E+00  0.53784513371E+03  0.53784513374E+03  0.50400001928E-02 0. -1.
        1   -1    0    0  501    0  0.00000000000E+00  0.00000000000E+00 -0.26166430196E+04  0.26166430196E+04  0.50400001928E-02 0.  1.
    10030    2    1    2    0    0  0.00000000000E+00  0.00000000000E+00 -0.20787978859E+04  0.31544881533E+04  0.23726345819E+04 0.  0.
        1    1    3    3  502    0 -0.76502680187E+03  0.54438076041E+03 -0.20034063538E+04  0.22125219634E+04  0.50400001928E-02 0. -1.
       -1    1    3    3    0  502  0.76502680187E+03 -0.54438076041E+03 -0.75391532052E+02  0.94196618995E+03  0.50400001928E-02 0.  1.
</event>
<event>
 5   0  0.1407158E-05  0.2443143E+04  0.7818609E-02  0.8423526E-01
       -1   -1    0    0    0  501  0.00000000000E+00  0.00000000000E+00  0.21410783980E+04  0.21410783980E+04  0.50400001928E-02 0. -1.
        1   -1    0    0  501    0  0.00000000000E+00  0.00000000000E+00 -0.69695559370E+03  0.69695559372E+03  0.50400001928E-02 0.  1.
    10030    2    1    2    0    0  0.00000000000E+00  0.00000000000E+00  0.14441228043E+04  0.28380339917E+04  0.24431427024E+04 0.  0.
        1    1    3    3  502    0 -0.11862584228E+04  0.15689331075E+03  0.10075773679E+04  0.15643007093E+04  0.50400001928E-02 0.  1.
       -1    1    3    3    0  502  0.11862584228E+04 -0.15689331075E+03  0.43654543640E+03  0.12737332824E+04  0.50400001928E-02 0. -1.
</event>
<event>
 5   0  0.1506985E-05  0.2415668E+04  0.7818609E-02  0.8433661E-01
        1   -1    0    0  501    0  0.00000000000E+00  0.00000000000E+00  0.97925931769E+03  0.97925931770E+03  0.50400001928E-02 0. -1.
       -1   -1    0    0    0  501  0.00000000000E+00  0.00000000000E+00 -0.14897615626E+04  0.14897615626E+04  0.50400001928E-02 0.  1.
    10030    2    1    2    0    0  0.00000000000E+00  0.00000000000E+00 -0.51050224487E+03  0.24690208803E+04  0.24156679336E+04 0.  0.
        3    1    3    3  502    0 -0.91302173004E+03  0.70085882043E+03  0.11896521539E+03  0.11571363353E+04  0.10100000352E+00 0. -1.
       -3    1    3    3    0  502  0.91302173004E+03 -0.70085882043E+03 -0.62946746026E+03  0.13118845450E+04  0.10100000352E+00 0.  1.
</event>
<event>
 5   0  0.3215208E-05  0.2406148E+04  0.7818609E-02  0.8437206E-01
        2   -1    0    0  501    0  0.00000000000E+00  0.00000000000E+00  0.52108347748E+03  0.52108347749E+03  0.25500000920E-02 0. -1.
       -2   -1    0    0    0  501  0.00000000000E+00  0.00000000000E+00 -0.27776483343E+04  0.27776483343E+04  0.25500000920E-02 0.  1.
    10030    2    1    2    0    0  0.00000000000E+00  0.00000000000E+00 -0.22565648569E+04  0.32987318118E+04  0.24061476707E+04 0.  0.
        1    1    3    3  502    0 -0.37351385646E+03 -0.87246597851E+02 -0.26915746984E+04  0.27187679060E+04  0.50400001928E-02 0.  1.
       -1    1    3    3    0  502  0.37351385646E+03  0.87246597851E+02  0.43500984152E+03  0.57996390581E+03  0.50400001928E-02 0. -1.
</event>
<event>
 5   0  0.3345974E-05  0.2403674E+04  0.7818609E-02  0.8438129E-01
       -2   -1    0    0    0  501  0.00000000000E+00  0.00000000000E+00  0.80606234818E+03  0.80606234818E+03  0.25500000920E-02 0.  1.
        2   -1    0    0  501    0  0.00000000000E+00  0.00000000000E+00 -0.17919359593E+04  0.17919359593E+04  0.25500000920E-02 0. -1.
    10030    2    1    2    0    0  0.00000000000E+00  0.00000000000E+00 -0.98587361113E+03  0.25979983075E+04  0.24036739439E+04 0.  0.
        4    1    3    3  502    0 -0.17869662900E+03  0.38702292804E+03  0.72160339901E+03  0.83811234951E+03  0.12699999809E+01 0.  1.
       -4    1    3    3    0  502  0.17869662900E+03 -0.38702292804E+03 -0.17074770101E+04  0.17598859580E+04  0.12699999809E+01 0. -1.
</event>
<event>
 5   0  0.1393026E-05  0.2397678E+04  0.7818609E-02  0.8440373E-01
        1   -1    0    0  501    0  0.00000000000E+00  0.00000000000E+00  0.55013615511E+03  0.55013615513E+03  0.50400001928E-02 0.  1.
       -1   -1    0    0    0  501  0.00000000000E+00  0.00000000000E+00 -0.26124723407E+04  0.26124723407E+04  0.50400001928E-02 0. -1.
    10030    2    1    2    0    0  0.00000000000E+00  0.00000000000E+00 -0.20623361856E+04  0.31626084958E+04  0.23976784512E+04 0.  0.
        4    1    3    3  502    0 -0.63837875617E+03  0.19903829911E+03  0.28129616917E+03  0.72544664072E+03  0.12699999809E+01 0.  1.
       -4    1    3    3    0  502  0.63837875617E+03 -0.19903829911E+03 -0.23436323548E+04  0.24371618551E+04  0.12699999809E+01 0. -1.
</event>
<event>
 5   0  0.1434943E-05  0.2317715E+04  0.7818609E-02  0.8470969E-01
        1   -1    0    0  501    0  0.00000000000E+00  0.00000000000E+00  0.10945658982E+04  0.10945658982E+04  0.50400001928E-02 0.  1.
       -1   -1    0    0    0  501  0.00000000000E+00  0.00000000000E+00 -0.12269250462E+04  0.12269250462E+04  0.50400001928E-02 0. -1.
    10030    2    1    2    0    0  0.00000000000E+00  0.00000000000E+00 -0.13235914802E+03  0.23214909445E+04  0.23177146634E+04 0.  0.
        5    1    3    3  502    0  0.13461048123E+03  0.40719322094E+03  0.10121440107E+04  0.10992651588E+04  0.46999998093E+01 0.  1.
       -5    1    3    3    0  502 -0.13461048123E+03 -0.40719322094E+03 -0.11445031587E+04  0.12222257857E+04  0.46999998093E+01 0. -1.
</event>
<event>
 5   0  0.3215208E-05  0.2376184E+04  0.7818609E-02  0.8448474E-01
        2   -1    0    0  501    0  0.00000000000E+00  0.00000000000E+00  0.23012405482E+04  0.23012405482E+04  0.25500000920E-02 0.  1.
       -2   -1    0    0    0  501  0.00000000000E+00  0.00000000000E+00 -0.61339194797E+03  0.61339194797E+03  0.25500000920E-02 0. -1.
    10030    2    1    2    0    0  0.00000000000E+00  0.00000000000E+00  0.16878486002E+04  0.29146324961E+04  0.23761838503E+04 0.  0.
        1    1    3    3  502    0 -0.57052527521E+03 -0.84234363774E+03  0.91265588318E+02  0.10214554818E+04  0.50400001928E-02 0. -1.
       -1    1    3    3    0  502  0.57052527521E+03  0.84234363774E+03  0.15965830119E+04  0.18931770143E+04  0.50400001928E-02 0.  1.
</event>
<event>
 5   0  0.1506985E-05  0.2414019E+04  0.7818609E-02  0.8434274E-01
        1   -1    0    0  501    0  0.00000000000E+00  0.00000000000E+00  0.92517667918E+03  0.92517667919E+03  0.50400001928E-02 0.  1.
       -1   -1    0    0    0  501  0.00000000000E+00  0.00000000000E+00 -0.15746961021E+04  0.15746961021E+04  0.50400001928E-02 0. -1.
    10030    2    1    2    0    0  0.00000000000E+00  0.00000000000E+00 -0.64951942294E+03  0.24998727813E+04  0.24140191470E+04 0.  0.
        3    1    3    3  502    0  0.64320383021E+03  0.10198789253E+04 -0.38155465642E+03  0.12646929095E+04  0.10100000352E+00 0.  1.
       -3    1    3    3    0  502 -0.64320383021E+03 -0.10198789253E+04 -0.26796476652E+03  0.12351798718E+04  0.10100000352E+00 0. -1.
</event>
<event>
 5   0  0.3310037E-05  0.2396641E+04  0.7818609E-02  0.8440762E-01
       -2   -1    0    0    0  501  0.00000000000E+00  0.00000000000E+00  0.16116719806E+04  0.16116719806E+04  0.25500000920E-02 0.  1.
        2   -1    0    0  501    0  0.00000000000E+00  0.00000000000E+00 -0.89098280742E+03  0.89098280743E+03  0.25500000920E-02 0. -1.
    10030    2    1    2    0    0  0.00000000000E+00  0.00000000000E+00  0.72068917320E+03  0.25026547881E+04  0.23966410044E+04 0.  0.
        2    1    3    3  502    0  0.64962256375E+03  0.20148585458E+03 -0.66988981737E+03  0.95465092696E+03  0.25500000920E-02 0. -1.
       -2    1    3    3    0  502 -0.64962256375E+03 -0.20148585458E+03  0.13905789906E+04  0.15480038611E+04  0.25500000920E-02 0.  1.
</event>
<event>
 5   0  0.3310037E-05  0.2403488E+04  0.7818609E-02  0.8438199E-01
        2   -1    0    0  501    0  0.00000000000E+00  0.00000000000E+00  0.77269133839E+03  0.77269133840E+03  0.25500000920E-02 0. -1.
       -2   -1    0    0    0  501  0.00000000000E+00  0.00000000000E+00 -0.18690376646E+04  0.18690376646E+04  0.25500000920E-02 0.  1.
    10030    2    1    2    0    0  0.00000000000E+00  0.00000000000E+00 -0.10963463262E+04  0.26417290030E+04  0.24034884768E+04 0.  0.
        2    1    3    3  502    0  0.51589724104E+03  0.19505269489E+03 -0.17217119418E+04  0.18078958840E+04  0.25500000920E-02 0.  1.
       -2    1    3    3    0  502 -0.51589724104E+03 -0.19505269489E+03  0.62536561558E+03  0.83383311894E+03  0.25500000920E-02 0. -1.
</event>
<event>
 5   0  0.3345974E-05  0.2393315E+04  0.7818609E-02  0.8442011E-01
        2   -1    0    0  501    0  0.00000000000E+00  0.00000000000E+00  0.23657032847E+04  0.23657032847E+04  0.25500000920E-02 0. -1.
       -2   -1    0    0    0  501  0.00000000000E+00  0.00000000000E+00 -0.60531228734E+03  0.60531228735E+03  0.25500000920E-02 0.  1.
    10030    2    1    2    0    0  0.00000000000E+00  0.00000000000E+00  0.17603909974E+04  0.29710155721E+04  0.23933150787E+04 0.  0.
        4    1    3    3  502    0  0.29048307914E+03 -0.77749185248E+03 -0.18992497106E+03  0.85143825817E+03  0.12699999809E+01 0.  1.
       -4    1    3    3    0  502 -0.29048307914E+03  0.77749185248E+03  0.19503159684E+04  0.21195773139E+04  0.12699999809E+01 0. -1.
</event>
<event>
 5   0  0.3347728E-05  0.2394583E+04  0.7818609E-02  0.8441534E-01
       -2   -1    0    0    0  501  0.00000000000E+00  0.00000000000E+00  0.14881743066E+04  0.14881743066E+04  0.25500000920E-02 0.  1.
        2   -1    0    0  501    0  0.00000000000E+00  0.00000000000E+00 -0.96326552792E+03  0.96326552792E+03  0.25500000920E-02 0. -1.
    10030    2    1    2    0    0  0.00000000000E+00  0.00000000000E+00  0.52490877871E+03  0.24514398345E+04  0.23945830611E+04 0.  0.
        3    1    3    3  502    0  0.45595478711E+03 -0.10765332678E+04  0.52682692307E+03  0.12823280632E+04  0.10100000352E+00 0.  1.
       -3    1    3    3    0  502 -0.45595478711E+03  0.10765332678E+04 -0.19181443687E+01  0.11691117714E+04  0.10100000352E+00 0. -1.
</event>
<event>
 5   0  0.3215208E-05  0.2393325E+04  0.7818609E-02  0.8442007E-01
       -2   -1    0    0    0  501  0.00000000000E+00  0.00000000000E+00  0.12528997432E+04  0.12528997432E+04  0.25500000920E-02 0. -1.
        2   -1    0    0  501    0  0.00000000000E+00  0.00000000000E+00 -0.11429496737E+04  0.11429496737E+04  0.25500000920E-02 0.  1.
    10030    2    1    2    0    0  0.00000000000E+00  0.00000000000E+00  0.10995006952E+03  0.23958494169E+04  0.23933251786E+04 0.  0.
        1    1    3    3  502    0  0.90999088049E+03 -0.69273464012E+03 -0.29758481712E+03  0.11817450688E+04  0.50400001928E-02 0.  1.
       -1    1    3    3    0  502 -0.90999088049E+03  0.69273464012E+03  0.40753488664E+03  0.12141043481E+04  0.50400001928E-02 0. -1.
</event>
<event>
 5   0  0.3320780E-05  0.2389181E+04  0.7818609E-02  0.8443565E-01
       -2   -1    0    0    0  501  0.00000000000E+00  0.00000000000E+00  0.59967836713E+03  0.59967836713E+03  0.25500000920E-02 0. -1.
        2   -1    0    0  501    0  0.00000000000E+00  0.00000000000E+00 -0.23796872147E+04  0.23796872147E+04  0.25500000920E-02 0.  1.
    10030    2    1    2    0    0  0.00000000000E+00  0.00000000000E+00 -0.17800088475E+04  0.29793655818E+04  0.23891814022E+04 0.  0.
        5    1    3    3  502    0  0.51295102384E+03  0.10356804871E+04 -0.12667459764E+04  0.17147653726E+04  0.46999998093E+01 0.  1.
       -5    1    3    3    0  502 -0.51295102384E+03 -0.10356804871E+04 -0.51326287115E+03  0.12646002092E+04  0.46999998093E+01 0. -1.
</event>
<event>
 5   0  0.1393026E-05  0.2394828E+04  0.7818609E-02  0.8441442E-01
       -1   -1    0    0    0  501  0.00000000000E+00  0.00000000000E+00  0.95395139937E+03  0.95395139938E+03  0.50400001928E-02 0.  1.
        1   -1    0    0  501    0  0.00000000000E+00  0.00000000000E+00 -0.15030121466E+04  0.15030121466E+04  0.50400001928E-02 0. -1.
    10030    2    1    2    0    0  0.00000000000E+00  0.00000000000E+00 -0.54906074719E+03  0.24569635460E+04  0.23948282114E+04 0.  0.
        4    1    3    3  502    0 -0.91828233944E+03  0.52412367271E+03 -0.85111807042E+03  0.13573325539E+04  0.12699999809E+01 0. -1.
       -4    1    3    3    0  502  0.91828233944E+03 -0.52412367271E+03  0.30205732323E+03  0.10996309920E+04  0.12699999809E+01 0.  1.
</event>
<event>
 5   0  0.1434943E-05  0.2438519E+04  0.7818609E-02  0.8425222E-01
        1   -1    0    0  501    0  0.00000000000E+00  0.00000000000E+00  0.13297254879E+04  0.13297254880E+04  0.50400001928E-02 0. -1.
       -1   -1    0    0    0  501  0.00000000000E+00  0.00000000000E+00 -0.11179700050E+04  0.11179700050E+04  0.50400001928E-02 0.  1.
    10030    2    1    2    0    0  0.00000000000E+00  0.00000000000E+00  0.21175548295E+03  0.24476954930E+04  0.24385185752E+04 0.  0.
        5    1    3    3  502    0 -0.49308366620E+03 -0.11150199948E+04  0.11896635891E+03  0.12249800714E+04  0.46999998093E+01 0.  1.
       -5    1    3    3    0  502  0.49308366620E+03  0.11150199948E+04  0.92789124044E+02  0.12227154216E+04  0.46999998093E+01 0. -1.
</event>
<event>
 5   0  0.3345974E-05  0.2413992E+04  0.7818609E-02  0.8434284E-01
       -2   -1    0    0    0  501  0.00000000000E+00  0.00000000000E+00  0.12858010855E+04  0.12858010855E+04  0.25500000920E-02 0. -1.
        2   -1    0    0  501    0  0.00000000000E+00  0.00000000000E+00 -0.11330207708E+04  0.11330207708E+04  0.25500000920E-02 0.  1.
    10030    2    1    2    0    0  0.00000000000E+00  0.00000000000E+00  0.15278031476E+03  0.24188218563E+04  0.24139919942E+04 0.  0.
        4    1    3    3  502    0  0.44930182526E+03 -0.90934334965E+03  0.73196234032E+03  0.12508189071E+04  0.12699999809E+01 0. -1.
       -4    1    3    3    0  502 -0.44930182526E+03  0.90934334965E+03 -0.57918202556E+03  0.11680029492E+04  0.12699999809E+01 0.  1.
</event>
<event>
 5   0  0.3310037E-05  0.2373435E+04  0.7818609E-02  0.8449517E-01
       -2   -1    0    0    0  501  0.00000000000E+00  0.00000000000E+00  0.12965812302E+04  0.12965812302E+04  0.25500000920E-02 0. -1.
        2   -1    0    0  501    0  0.00000000000E+00  0.00000000000E+00 -0.10861624563E+04  0.10861624563E+04  0.25500000920E-02 0.  1.
    10030    2    1    2    0    0  0.00000000000E+00  0.00000000000E+00  0.21041877391E+03  0.23827436865E+04  0.23734345188E+04 0.  0.
        2    1    3    3  502    0  0.51141494478E+03  0.41591330822E+03 -0.88545827063E+03  0.11038865316E+04  0.25500000920E-02 0.  1.
       -2    1    3    3    0  502 -0.51141494478E+03 -0.41591330822E+03  0.10958770445E+04  0.12788571548E+04  0.25500000920E-02 0. -1.
</event>
<event>
 5   0  0.1434943E-05  0.2389459E+04  0.7818609E-02  0.8443461E-01
        1   -1    0    0  501    0  0.00000000000E+00  0.00000000000E+00  0.15080779682E+04  0.15080779682E+04  0.50400001928E-02 0.  1.
       -1   -1    0    0    0  501  0.00000000000E+00  0.00000000000E+00 -0.94648841800E+03  0.94648841801E+03  0.50400001928E-02 0. -1.
    10030    2    1    2    0    0  0.00000000000E+00  0.00000000000E+00  0.56158955019E+03  0.24545663862E+04  0.23894587926E+04 0.  0.
        5    1    3    3  502    0 -0.36973647055E+03  0.77819907137E+03 -0.56943970735E+03  0.10327548221E+04  0.46999998093E+01 0. -1.
       -5    1    3    3    0  502  0.36973647055E+03 -0.77819907137E+03  0.11310292575E+04  0.14218115641E+04  0.46999998093E+01 0.  1.
</event>
<event>
 5   0  0.1401596E-05  0.2402526E+04  0.7818609E-02  0.8438559E-01
        1   -1    0    0  501    0  0.00000000000E+00  0.00000000000E+00  0.14993344928E+04  0.14993344928E+04  0.50400001928E-02 0.  1.
       -1   -1    0    0    0  501  0.00000000000E+00  0.00000000000E+00 -0.96244856569E+03  0.96244856571E+03  0.50400001928E-02 0. -1.
    10030    2    1    2    0    0  0.00000000000E+00  0.00000000000E+00  0.53688592713E+03  0.24617830585E+04  0.24025256146E+04 0.  0.
        2    1    3    3  502    0 -0.34044902519E+03 -0.11455702296E+04  0.39308044580E+03  0.12580734980E+04  0.25500000920E-02 0.  1.
       -2    1    3    3    0  502  0.34044902519E+03  0.11455702296E+04  0.14380548134E+03  0.12037095605E+04  0.25500000920E-02 0. -1.
</event>
<event>
 5   0  0.3320780E-05  0.2408285E+04  0.7818609E-02  0.8436408E-01
       -2   -1    0    0    0  501  0.00000000000E+00  0.00000000000E+00  0.10051367491E+04  0.10051367491E+04  0.25500000920E-02 0. -1.
        2   -1    0    0  501    0  0.00000000000E+00  0.00000000000E+00 -0.14425494465E+04  0.14425494465E+04  0.25500000920E-02 0.  1.
    10030    2    1    2    0    0  0.00000000000E+00  0.00000000000E+00 -0.43741269742E+03  0.24476861955E+04  0.24082852497E+04 0.  0.
        5    1    3    3  502    0  0.59525225263E+03 -0.48342824682E+03  0.72487334339E+03  0.10552210991E+04  0.46999998093E+01 0. -1.
       -5    1    3    3    0  502 -0.59525225263E+03  0.48342824682E+03 -0.11622860408E+04  0.13924650964E+04  0.46999998093E+01 0.  1.
</event>
<event>
 5   0  0.1401596E-05  0.2396414E+04  0.7818609E-02  0.8440847E-01
        1   -1    0    0  501    0  0.00000000000E+00  0.00000000000E+00  0.12942505914E+04  0.12942505914E+04  0.50400001928E-02 0. -1.
       -1   -1    0    0    0  501  0.00000000000E+00  0.00000000000E+00 -0.11092905632E+04  0.11092905632E+04  0.50400001928E-02 0.  1.
    10030    2    1    2    0    0  0.00000000000E+00  0.00000000000E+00  0.18496002823E+03  0.24035411546E+04  0.23964139605E+04 0.  0.
        2    1    3    3  502    0 -0.10914249320E+04 -0.28924083911E+02  0.58756228044E+03  0.12398687100E+04  0.25500000920E-02 0. -1.
       -2    1    3    3    0  502  0.10914249320E+04  0.28924083911E+02 -0.40260225222E+03  0.11636724446E+04  0.25500000920E-02 0.  1.
</event>
<event>
 5   0  0.1506985E-05  0.2378470E+04  0.7818609E-02  0.8447608E-01
       -1   -1    0    0    0  501  0.00000000000E+00  0.00000000000E+00  0.15500607269E+04  0.15500607269E+04  0.50400001928E-02 0. -1.
        1   -1    0    0  501    0  0.00000000000E+00  0.00000000000E+00 -0.91240289827E+03  0.91240289828E+03  0.50400001928E-02 0.  1.
    10030    2    1    2    0    0  0.00000000000E+00  0.00000000000E+00  0.63765782858E+03  0.24624636251E+04  0.23784700122E+04 0.  0.
        3    1    3    3  502    0 -0.31728010949E+03  0.30799584834E+03  0.14617856071E+04  0.15272017816E+04  0.10100000352E+00 0. -1.
       -3    1    3    3    0  502  0.31728010949E+03 -0.30799584834E+03 -0.82412777850E+03  0.93526184353E+03  0.10100000352E+00 0.  1.
</event>
<event>
 5   0  0.1407158E-05  0.2393015E+04  0.7818609E-02  0.8442123E-01
       -1   -1    0    0    0  501  0.00000000000E+00  0.00000000000E+00  0.86033166709E+03  0.86033166710E+03  0.50400001928E-02 0.  1.
        1   -1    0    0  501    0  0.00000000000E+00  0.00000000000E+00 -0.16640441700E+04  0.16640441701E+04  0.50400001928E-02 0. -1.
    10030    2    1    2    0    0  0.00000000000E+00  0.00000000000E+00 -0.80371250295E+03  0.25243758372E+04  0.23930147471E+04 0.  0.
        1    1    3    3  502    0  0.11511180499E+03  0.76207113762E+03 -0.13673154136E+04  0.15695714659E+04  0.50400001928E-02 0. -1.
       -1    1    3    3    0  502 -0.11511180499E+03 -0.76207113762E+03  0.56360291061E+03  0.95480437123E+03  0.50400001928E-02 0.  1.
</event>
<event>
 5   0  0.3215208E-05  0.2414270E+04  0.7818609E-02  0.8434180E-01
        2   -1    0    0  501    0  0.00000000000E+00  0.00000000000E+00  0.25944728590E+04  0.25944728590E+04  0.25500000920E-02 0.  1.
       -2   -1    0    0    0  501  0.00000000000E+00  0.00000000000E+00 -0.56164596692E+03  0.56164596692E+03  0.25500000920E-02 0. -1.
    10030    2    1    2    0    0  0.00000000000E+00  0.00000000000E+00  0.20328268920E+04  0.31561188259E+04  0.24142702562E+04 0.  0.
        1    1    3    3  502    0  0.35720842734E+03 -0.38718345116E+03 -0.40345155514E+03  0.66353752176E+03  0.50400001928E-02 0. -1.
       -1    1    3    3    0  502 -0.35720842734E+03  0.38718345116E+03  0.24362784472E+04  0.24925813041E+04  0.50400001928E-02 0.  1.
</event>
<event>
 5   0  0.3347728E-05  0.2838790E+04  0.7818609E-02  0.8291326E-01
        2   -1    0    0  501    0  0.00000000000E+00  0.00000000000E+00  0.19729156568E+04  0.19729156568E+04  0.25500000920E-02 0. -1.
       -2   -1    0    0    0  501  0.00000000000E+00  0.00000000000E+00 -0.10211698646E+04  0.10211698646E+04  0.25500000920E-02 0.  1.
    10030    2    1    2    0    0  0.00000000000E+00  0.00000000000E+00  0.95174579214E+03  0.29940855214E+04  0.28387898930E+04 0.  0.
        3    1    3    3  502    0 -0.21689646295E+03 -0.13988233597E+04  0.58614447970E+03  0.15320953719E+04  0.10100000352E+00 0. -1.
       -3    1    3    3    0  502  0.21689646295E+03  0.13988233597E+04  0.36560131244E+03  0.14619901495E+04  0.10100000352E+00 0.  1.
</event>
<event>
 5   0  0.3320780E-05  0.2386360E+04  0.7818609E-02  0.8444628E-01
       -2   -1    0    0    0  501  0.00000000000E+00  0.00000000000E+00  0.79430746825E+03  0.79430746825E+03  0.25500000920E-02 0.  1.
        2   -1    0    0  501    0  0.00000000000E+00  0.00000000000E+00 -0.17923515889E+04  0.17923515889E+04  0.25500000920E-02 0. -1.
    10030    2    1    2    0    0  0.00000000000E+00  0.00000000000E+00 -0.99804412070E+03  0.25866590572E+04  0.23863597825E+04 0.  0.
        5    1    3    3  502    0 -0.10794698960E+04  0.46770308540E+03 -0.28317269903E+03  0.12100455777E+04  0.46999998093E+01 0.  1.
       -5    1    3    3    0  502  0.10794698960E+04 -0.46770308540E+03 -0.71487142167E+03  0.13766134795E+04  0.46999998093E+01 0. -1.
</event>
<event>
 5   0  0.3345974E-05  0.2252901E+04  0.7818609E-02  0.8496726E-01
       -2   -1    0    0    0  501  0.00000000000E+00  0.00000000000E+00  0.86520634968E+03  0.86520634968E+03  0.25500000920E-02 0. -1.
        2   -1    0    0  501    0  0.00000000000E+00  0.00000000000E+00 -0.14665763762E+04  0.14665763762E+04  0.25500000920E-02 0.  1.
    10030    2    1    2    0    0  0.00000000000E+00  0.00000000000E+00 -0.60137002656E+03  0.23317827259E+04  0.22529014120E+04 0.  0.
        4    1    3    3  502    0  0.80937544608E+03  0.74975498141E+03 -0.53595067716E+03  0.12265667068E+04  0.12699999809E+01 0.  1.
       -4    1    3    3    0  502 -0.80937544608E+03 -0.74975498141E+03 -0.65419349405E+02  0.11052160192E+04  0.12699999809E+01 0. -1.
</event>
<event>
 5   0  0.3215208E-05  0.2382033E+04  0.7818609E-02  0.8446261E-01
        2   -1    0    0  501    0  0.00000000000E+00  0.00000000000E+00  0.14300658314E+04  0.14300658314E+04  0.25500000920E-02 0. -1.
       -2   -1    0    0    0  501  0.00000000000E+00  0.00000000000E+00 -0.99192616593E+03  0.99192616593E+03  0.25500000920E-02 0.  1.
    10030    2    1    2    0    0  0.00000000000E+00  0.00000000000E+00  0.43813966551E+03  0.24219919974E+04  0.23820325079E+04 0.  0.
        1    1    3    3  502    0 -0.10366502203E+04  0.11327783325E+03 -0.36594650125E+03  0.11051662267E+04  0.50400001928E-02 0.  1.
       -1    1    3    3    0  502  0.10366502203E+04 -0.11327783325E+03  0.80408616677E+03  0.13168257707E+04  0.50400001928E-02 0. -1.
</event>
<event>
 5   0  0.1401596E-05  0.2421378E+04  0.7818609E-02  0.8431543E-01
        1   -1    0    0  501    0  0.00000000000E+00  0.00000000000E+00  0.80931802707E+03  0.80931802709E+03  0.50400001928E-02 0. -1.
       -1   -1    0    0    0  501  0.00000000000E+00  0.00000000000E+00 -0.18111143194E+04  0.18111143195E+04  0.50400001928E-02 0.  1.
    10030    2    1    2    0    0  0.00000000000E+00  0.00000000000E+00 -0.10017962924E+04  0.26204323465E+04  0.24213776805E+04 0.  0.
        2    1    3    3  502    0 -0.10198067180E+04  0.55838952461E+03 -0.86623383137E+03  0.14498847037E+04  0.25500000920E-02 0.  1.
       -2    1    3    3    0  502  0.10198067180E+04 -0.55838952461E+03 -0.13556246100E+03  0.11705476429E+04  0.25500000920E-02 0. -1.
</event>
<event>
 5   0  0.1506985E-05  0.2407501E+04  0.7818609E-02  0.8436701E-01
        1   -1    0    0  501    0  0.00000000000E+00  0.00000000000E+00  0.11650365574E+04  0.11650365574E+04  0.50400001928E-02 0.  1.
       -1   -1    0    0    0  501  0.00000000000E+00  0.00000000000E+00 -0.12437505649E+04  0.12437505649E+04  0.50400001928E-02 0. -1.
    10030    2    1    2    0    0  0.00000000000E+00  0.00000000000E+00 -0.78714007466E+02  0.24087871223E+04  0.24075006762E+04 0.  0.
        3    1    3    3  502    0 -0.87070998815E+03 -0.40196396664E+03 -0.76727854466E+03  0.12281804791E+04  0.10100000352E+00 0. -1.
       -3    1    3    3    0  502  0.87070998815E+03  0.40196396664E+03  0.68856453720E+03  0.11806066432E+04  0.10100000352E+00 0.  1.
</event>
<event>
 5   0  0.3347728E-05  0.2423995E+04  0.7818609E-02  0.8430575E-01
       -2   -1    0    0    0  501  0.00000000000E+00  0.00000000000E+00  0.11745621800E+04  0.11745621800E+04  0.25500000920E-02 0. -1.
        2   -1    0    0  501    0  0.00000000000E+00  0.00000000000E+00 -0.12506258266E+04  0.12506258266E+04  0.25500000920E-02 0.  1.
    10030    2    1    2    0    0  0.00000000000E+00  0.00000000000E+00 -0.76063646645E+02  0.24251880066E+04  0.24239948822E+04 0.  0.
        3    1    3    3  502    0 -0.42541878563E+03 -0.31487654845E+03 -0.11288938625E+04  0.12468078228E+04  0.10100000352E+00 0.  1.
       -3    1    3    3    0  502  0.42541878563E+03  0.31487654845E+03  0.10528302159E+04  0.11783801838E+04  0.10100000352E+00 0. -1.
</event>
<event>
 5   0  0.3347728E-05  0.2323014E+04  0.7818609E-02  0.8468902E-01
       -2   -1    0    0    0  501  0.00000000000E+00  0.00000000000E+00  0.15463278508E+04  0.15463278508E+04  0.25500000920E-02 0. -1.
        2   -1    0    0  501    0  0.00000000000E+00  0.00000000000E+00 -0.87245293981E+03  0.87245293981E+03  0.25500000920E-02 0.  1.
    10030    2    1    2    0    0  0.00000000000E+00  0.00000000000E+00  0.67387491095E+03  0.24187807906E+04  0.23230138005E+04 0.  0.
        3    1    3    3  502    0 -0.44643903940E+02 -0.75696901677E+03 -0.57916516190E+03  0.95416322790E+03  0.10100000352E+00 0.  1.
       -3    1    3    3    0  502  0.44643903940E+02  0.75696901677E+03  0.12530400729E+04  0.14646175627E+04  0.10100000352E+00 0. -1.
</event>
<event>
 5   0  0.1401596E-05  0.2377380E+04  0.7818609E-02  0.8448021E-01
       -1   -1    0    0    0  501  0.00000000000E+00  0.00000000000E+00  0.67266546503E+03  0.67266546505E+03  0.50400001928E-02 0.  1.
        1   -1    0    0  501    0  0.00000000000E+00  0.00000000000E+00 -0.21005740068E+04  0.21005740068E+04  0.50400001928E-02 0. -1.
    10030    2    1    2    0    0  0.00000000000E+00  0.00000000000E+00 -0.14279085418E+04  0.27732394718E+04  0.23773797266E+04 0.  0.
        2    1    3    3  502    0  0.81469490096E+03  0.20052776491E+03  0.26830365392E+03  0.88086662831E+03  0.25500000920E-02 0. -1.
       -2    1    3    3    0  502 -0.81469490096E+03 -0.20052776491E+03 -0.16962121957E+04  0.18923728435E+04  0.25500000920E-02 0.  1.
</event>
<event>
 5   0  0.1407158E-05  0.2382176E+04  0.7818609E-02  0.8446207E-01
        1   -1    0    0  501    0  0.00000000000E+00  0.00000000000E+00  0.99516527490E+03  0.99516527491E+03  0.50400001928E-02 0.  1.
       -1   -1    0    0    0  501  0.00000000000E+00  0.00000000000E+00 -0.14255831416E+04  0.14255831417E+04  0.50400001928E-02 0. -1.
    10030    2    1    2    0    0  0.00000000000E+00  0.00000000000E+00 -0.43041786675E+03  0.24207484166E+04  0.23821761808E+04 0.  0.
        1    1    3    3  502    0  0.68826388838E+03 -0.99334284911E+02  0.76746312168E+03  0.10356515453E+04  0.50400001928E-02 0.  1.
       -1    1    3    3    0  502 -0.68826388838E+03  0.99334284911E+02 -0.11978809884E+04  0.13850968712E+04  0.50400001928E-02 0. -1.
</event>
<event>
 5   0  0.3320780E-05  0.2384137E+04  0.7818609E-02  0.8445467E-01
       -2   -1    0    0    0  501  0.00000000000E+00  0.00000000000E+00  0.77513385605E+03  0.77513385606E+03  0.25500000920E-02 0.  1.
        2   -1    0    0  501    0  0.00000000000E+00  0.00000000000E+00 -0.18332663034E+04  0.18332663034E+04  0.25500000920E-02 0. -1.
    10030    2    1    2    0    0  0.00000000000E+00  0.00000000000E+00 -0.10581324473E+04  0.26084001594E+04  0.23841365556E+04 0.  0.
        5    1    3    3  502    0  0.34869003322E+03 -0.27046265456E+03  0.68246922501E+03  0.81272450428E+03  0.46999998093E+01 0.  1.
       -5    1    3    3    0  502 -0.34869003322E+03  0.27046265456E+03 -0.17406016723E+04  0.17956756552E+04  0.46999998093E+01 0. -1.
</event>
<event>
 5   0  0.1393026E-05  0.2338213E+04  0.7818609E-02  0.8463005E-01
       -1   -1    0    0    0  501  0.00000000000E+00  0.00000000000E+00  0.12161816415E+04  0.12161816415E+04  0.50400001928E-02 0. -1.
        1   -1    0    0  501    0  0.00000000000E+00  0.00000000000E+00 -0.11238538065E+04  0.11238538065E+04  0.50400001928E-02 0.  1.
    10030    2    1    2    0    0  0.00000000000E+00  0.00000000000E+00  0.92327835060E+02  0.23400354480E+04  0.23382133069E+04 0.  0.
        4    1    3    3  502    0 -0.60175164941E+03  0.44554428008E+03  0.94474669339E+03  0.12054719742E+04  0.12699999809E+01 0. -1.
       -4    1    3    3    0  502  0.60175164941E+03 -0.44554428008E+03 -0.85241885833E+03  0.11345634738E+04  0.12699999809E+01 0.  1.
</event>
<event>
 5   0  0.1407158E-05  0.2245441E+04  0.7818609E-02  0.8499749E-01
        1   -1    0    0  501    0  0.00000000000E+00  0.00000000000E+00  0.96676419754E+03  0.96676419755E+03  0.50400001928E-02 0.  1.
       -1   -1    0    0    0  501  0.00000000000E+00  0.00000000000E+00 -0.13038348673E+04  0.13038348673E+04  0.50400001928E-02 0. -1.
    10030    2    1    2    0    0  0.00000000000E+00  0.00000000000E+00 -0.33707066980E+03  0.22705990649E+04  0.22454405975E+04 0.  0.
        1    1    3    3  502    0  0.54170411035E+03  0.61561399557E+03 -0.94398918610E+03  0.12504157382E+04  0.50400001928E-02 0. -1.
       -1    1    3    3    0  502 -0.54170411035E+03 -0.61561399557E+03  0.60691851631E+03  0.10201833267E+04  0.50400001928E-02 0.  1.
</event>
<event>
 5   0  0.3345974E-05  0.2305094E+04  0.7818609E-02  0.8475915E-01
       -2   -1    0    0    0  501  0.00000000000E+00  0.00000000000E+00  0.56898115526E+03  0.56898115527E+03  0.25500000920E-02 0. -1.
        2   -1    0    0  501    0  0.00000000000E+00  0.00000000000E+00 -0.23346369366E+04  0.23346369366E+04  0.25500000920E-02 0.  1.
    10030    2    1    2    0    0  0.00000000000E+00  0.00000000000E+00 -0.17656557813E+04  0.29036180919E+04  0.23050938561E+04 0.  0.
        4    1    3    3  502    0  0.61764782960E+03 -0.30111585204E+03 -0.20484004289E+04  0.21605799055E+04  0.12699999809E+01 0.  1.
       -4    1    3    3    0  502 -0.61764782960E+03  0.30111585204E+03  0.28274464761E+03  0.74303818638E+03  0.12699999809E+01 0. -1.
</event>
<event>
 5   0  0.1407158E-05  0.2432498E+04  0.7818609E-02  0.8427436E-01
        1   -1    0    0  501    0  0.00000000000E+00  0.00000000000E+00  0.13746319078E+04  0.13746319078E+04  0.50400001928E-02 0. -1.
       -1   -1    0    0    0  501  0.00000000000E+00  0.00000000000E+00 -0.10761148633E+04  0.10761148634E+04  0.50400001928E-02 0.  1.
    10030    2    1    2    0    0  0.00000000000E+00  0.00000000000E+00  0.29851704442E+03  0.24507467711E+04  0.24324981625E+04 0.  0.
        1    1    3    3  502    0  0.37668781517E+02 -0.10009581982E+04 -0.54579050584E+03  0.11407118514E+04  0.50400001928E-02 0. -1.
       -1    1    3    3    0  502 -0.37668781517E+02  0.10009581982E+04  0.84430755026E+03  0.13100349198E+04  0.50400001928E-02 0.  1.
</event>
<event>
 5   0  0.1407158E-05  0.2399774E+04  0.7818609E-02  0.8439588E-01
        1   -1    0    0  501    0  0.00000000000E+00  0.00000000000E+00  0.13779123247E+04  0.13779123247E+04  0.50400001928E-02 0.  1.
       -1   -1    0    0    0  501  0.00000000000E+00  0.00000000000E+00 -0.10448620522E+04  0.10448620522E+04  0.50400001928E-02 0. -1.
    10030    2    1    2    0    0  0.00000000000E+00  0.00000000000E+00  0.33305027253E+03  0.24227743769E+04  0.23997735721E+04 0.  0.
        1    1    3    3  502    0  0.80286494012E+03  0.73151579860E+03  0.68133489465E+03  0.12821562753E+04  0.50400001928E-02 0.  1.
       -1    1    3    3    0  502 -0.80286494012E+03 -0.73151579860E+03 -0.34828462212E+03  0.11406181016E+04  0.50400001928E-02 0. -1.
</event>
<event>
 5   0  0.1407158E-05  0.2429638E+04  0.7818609E-02  0.8428490E-01
        1   -1    0    0  501    0  0.00000000000E+00  0.00000000000E+00  0.12583680182E+04  0.12583680182E+04  0.50400001928E-02 0. -1.
       -1   -1    0    0    0  501  0.00000000000E+00  0.00000000000E+00 -0.11727775037E+04  0.11727775037E+04  0.50400001928E-02 0.  1.
    10030    2    1    2    0    0  0.00000000000E+00  0.00000000000E+00  0.85590514478E+02  0.24311455219E+04  0.24296384119E+04 0.  0.
        1    1    3    3  502    0 -0.37838977433E+03  0.63681554787E+03 -0.92064821653E+03  0.11816539265E+04  0.50400001928E-02 0.  1.
       -1    1    3    3    0  502  0.37838977433E+03 -0.63681554787E+03  0.10062387310E+04  0.12494915955E+04  0.50400001928E-02 0. -1.
</event>
<event>
 5   0  0.1434943E-05  0.2392816E+04  0.7818609E-02  0.8442198E-01
        1   -1    0    0  501    0  0.00000000000E+00  0.00000000000E+00  0.12113497650E+04  0.12113497650E+04  0.50400001928E-02 0. -1.
       -1   -1    0    0    0  501  0.00000000000E+00  0.00000000000E+00 -0.11816501219E+04  0.11816501219E+04  0.50400001928E-02 0.  1.
    10030    2    1    2    0    0  0.00000000000E+00  0.00000000000E+00  0.29699643093E+02  0.23929998869E+04  0.23928155779E+04 0.  0.
        5    1    3    3  502    0 -0.70822522818E+03 -0.92329005434E+03 -0.26323995038E+03  0.11930485572E+04  0.46999998093E+01 0. -1.
       -5    1    3    3    0  502  0.70822522818E+03  0.92329005434E+03  0.29293959348E+03  0.11999513297E+04  0.46999998093E+01 0.  1.
</event>
<event>
 5   0  0.1434943E-05  0.2390044E+04  0.7818609E-02  0.8443240E-01
        1   -1    0    0  501    0  0.00000000000E+00  0.00000000000E+00  0.96676085446E+03  0.96676085447E+03  0.50400001928E-02 0.  1.
       -1   -1    0    0    0  501  0.00000000000E+00  0.00000000000E+00 -0.14771779286E+04  0.14771779286E+04  0.50400001928E-02 0. -1.
    10030    2    1    2    0    0  0.00000000000E+00  0.00000000000E+00 -0.51041707410E+03  0.24439387830E+04  0.23900441807E+04 0.  0.
        5    1    3    3  502    0  0.45929967552E+03 -0.35861114433E+02 -0.13827119729E+04  0.14574486960E+04  0.46999998093E+01 0. -1.
       -5    1    3    3    0  502 -0.45929967552E+03  0.35861114433E+02  0.87229489877E+03  0.98649008707E+03  0.46999998093E+01 0.  1.
</event>
<event>
 5   0  0.1401596E-05  0.2401112E+04  0.7818609E-02  0.8439087E-01
        1   -1    0    0  501    0  0.00000000000E+00  0.00000000000E+00  0.13295718564E+04  0.13295718564E+04  0.50400001928E-02 0. -1.
       -1   -1    0    0    0  501  0.00000000000E+00  0.00000000000E+00 -0.10840593952E+04  0.10840593952E+04  0.50400001928E-02 0.  1.
    10030    2    1    2    0    0  0.00000000000E+00  0.00000000000E+00  0.24551246118E+03  0.24136312516E+04  0.24011121277E+04 0.  0.
        2    1    3    3  502    0 -0.70588594324E+03 -0.78154430106E+03  0.70217149224E+03  0.12657532397E+04  0.25500000920E-02 0. -1.
       -2    1    3    3    0  502  0.70588594324E+03  0.78154430106E+03 -0.45665903105E+03  0.11478780118E+04  0.25500000920E-02 0.  1.
</event>
<event>
 5   0  0.1401596E-05  0.2386489E+04  0.7818609E-02  0.8444579E-01
        1   -1    0    0  501    0  0.00000000000E+00  0.00000000000E+00  0.16408666231E+04  0.16408666231E+04  0.50400001928E-02 0. -1.
       -1   -1    0    0    0  501  0.00000000000E+00  0.00000000000E+00 -0.86773165085E+03  0.86773165087E+03  0.50400001928E-02 0.  1.
    10030    2    1    2    0    0  0.00000000000E+00  0.00000000000E+00  0.77313497221E+03  0.25085982739E+04  0.23864885532E+04 0.  0.
        2    1    3    3  502    0  0.95132770485E+03 -0.43692788335E+02  0.11423109068E+04  0.14872147356E+04  0.25500000920E-02 0. -1.
       -2    1    3    3    0  502 -0.95132770485E+03  0.43692788335E+02 -0.36917593463E+03  0.10213835384E+04  0.25500000920E-02 0.  1.
</event>
<event>
 5   0  0.1401596E-05  0.1941687E+04  0.7818609E-02  0.8634380E-01
       -1   -1    0    0    0  501  0.00000000000E+00  0.00000000000E+00  0.48089370252E+03  0.48089370255E+03  0.50400001928E-02 0. -1.
        1   -1    0    0  501    0  0.00000000000E+00  0.00000000000E+00 -0.19599690387E+04  0.19599690387E+04  0.50400001928E-02 0.  1.
    10030    2    1    2    0    0  0.00000000000E+00  0.00000000000E+00 -0.14790753362E+04  0.24408627413E+04  0.19416866564E+04 0.  0.
        2    1    3    3  502    0 -0.74903132248E+02 -0.85506971608E+02  0.47249894054E+03  0.48598062742E+03  0.25500000920E-02 0. -1.
       -2    1    3    3    0  502  0.74903132248E+02  0.85506971608E+02 -0.19515742767E+04  0.19548821138E+04  0.25500000920E-02 0.  1.
</event>
<event>
 5   0  0.3320780E-05  0.2331393E+04  0.7818609E-02  0.8465645E-01
        2   -1    0    0  501    0  0.00000000000E+00  0.00000000000E+00  0.13490573965E+04  0.13490573965E+04  0.25500000920E-02 0. -1.
       -2   -1    0    0    0  501  0.00000000000E+00  0.00000000000E+00 -0.10072576085E+04  0.10072576085E+04  0.25500000920E-02 0.  1.
    10030    2    1    2    0    0  0.00000000000E+00  0.00000000000E+00  0.34179978803E+03  0.23563150050E+04  0.23313929972E+04 0.  0.
        5    1    3    3  502    0  0.50338522351E+03  0.56919659426E+02  0.12319747822E+04  0.13320737535E+04  0.46999998093E+01 0. -1.
       -5    1    3    3    0  502 -0.50338522351E+03 -0.56919659426E+02 -0.89017499418E+03  0.10242412514E+04  0.46999998093E+01 0.  1.
</event>
<event>
 5   0  0.1407158E-05  0.2399940E+04  0.7818609E-02  0.8439526E-01
       -1   -1    0    0    0  501  0.00000000000E+00  0.00000000000E+00  0.59483926503E+03  0.59483926506E+03  0.50400001928E-02 0.  1.
        1   -1    0    0  501    0  0.00000000000E+00  0.00000000000E+00 -0.24207010957E+04  0.24207010957E+04  0.50400001928E-02 0. -1.
    10030    2    1    2    0    0  0.00000000000E+00  0.00000000000E+00 -0.18258618307E+04  0.30155403608E+04  0.23999400498E+04 0.  0.
        1    1    3    3  502    0  0.51649693766E+03 -0.17597435002E+03 -0.22558019606E+04  0.23208572864E+04  0.50400001928E-02 0. -1.
       -1    1    3    3    0  502 -0.51649693766E+03  0.17597435002E+03  0.42994012991E+03  0.69468307436E+03  0.50400001928E-02 0.  1.
</event>
<event>
 5   0  0.1147362E-05  0.2396054E+04  0.7818609E-02  0.8440982E-01
       -3   -1    0    0    0  501  0.00000000000E+00  0.00000000000E+00  0.10900661698E+04  0.10900661745E+04  0.10100000352E+00 0. -1.
        3   -1    0    0  501    0  0.00000000000E+00  0.00000000000E+00 -0.13166801068E+04  0.13166801107E+04  0.10100000352E+00 0.  1.
    10030    2    1    2    0    0  0.00000000000E+00  0.00000000000E+00 -0.22661393707E+03  0.24067462852E+04  0.23960537984E+04 0.  0.
        1    1    3    3  502    0 -0.17296711818E+03  0.70698779027E+03 -0.10691411358E+04  0.12933723856E+04  0.50400001928E-02 0.  1.
       -1    1    3    3    0  502  0.17296711818E+03 -0.70698779027E+03  0.84252719874E+03  0.11133738996E+04  0.50400001928E-02 0. -1.
</event>
<event>
 5   0  0.3347728E-05  0.2460022E+04  0.7818609E-02  0.8417368E-01
       -2   -1    0    0    0  501  0.00000000000E+00  0.00000000000E+00  0.83713103925E+03  0.83713103926E+03  0.25500000920E-02 0.  1.
        2   -1    0    0  501    0  0.00000000000E+00  0.00000000000E+00 -0.18072766236E+04  0.18072766236E+04  0.25500000920E-02 0. -1.
    10030    2    1    2    0    0  0.00000000000E+00  0.00000000000E+00 -0.97014558435E+03  0.26444076629E+04  0.24600222423E+04 0.  0.
        3    1    3    3  502    0  0.31928445402E+03  0.85984500235E+03  0.39589761772E+03  0.99900496723E+03  0.10100000352E+00 0.  1.
       -3    1    3    3    0  502 -0.31928445402E+03 -0.85984500235E+03 -0.13660432021E+04  0.16454026956E+04  0.10100000352E+00 0. -1.
</event>
<event>
 5   0  0.1393026E-05  0.2396548E+04  0.7818609E-02  0.8440797E-01
       -1   -1    0    0    0  501  0.00000000000E+00  0.00000000000E+00  0.15624058236E+04  0.15624058236E+04  0.50400001928E-02 0. -1.
        1   -1    0    0  501    0  0.00000000000E+00  0.00000000000E+00 -0.91900639624E+03  0.91900639625E+03  0.50400001928E-02 0.  1.
    10030    2    1    2    0    0  0.00000000000E+00  0.00000000000E+00  0.64339942735E+03  0.24814122199E+04  0.23965483057E+04 0.  0.
        4    1    3    3  502    0 -0.20953494256E+02 -0.11247240838E+04  0.74913260370E+03  0.13515341596E+04  0.12699999809E+01 0. -1.
       -4    1    3    3    0  502  0.20953494256E+02  0.11247240838E+04 -0.10573317635E+03  0.11298780603E+04  0.12699999809E+01 0.  1.
</event>
<event>
 5   0  0.3345974E-05  0.2438438E+04  0.7818609E-02  0.8425252E-01
       -2   -1    0    0    0  501  0.00000000000E+00  0.00000000000E+00  0.74748785867E+03  0.74748785868E+03  0.25500000920E-02 0. -1.
        2   -1    0    0  501    0  0.00000000000E+00  0.00000000000E+00 -0.19886544997E+04  0.19886544997E+04  0.25500000920E-02 0.  1.
    10030    2    1    2    0    0  0.00000000000E+00  0.00000000000E+00 -0.12411666410E+04  0.27361423584E+04  0.24384381014E+04 0.  0.
        4    1    3    3  502    0 -0.60516796307E+03 -0.98355904836E+03 -0.10593137605E+04  0.15670877197E+04  0.12699999809E+01 0.  1.
       -4    1    3    3    0  502  0.60516796307E+03  0.98355904836E+03 -0.18185288051E+03  0.11690546387E+04  0.12699999809E+01 0. -1.
</event>
<event>
 5   0  0.3215208E-05  0.2368601E+04  0.7818609E-02  0.8451353E-01
       -2   -1    0    0    0  501  0.00000000000E+00  0.00000000000E+00  0.10140684574E+04  0.10140684574E+04  0.25500000920E-02 0.  1.
        2   -1    0    0  501    0  0.00000000000E+00  0.00000000000E+00 -0.13831091543E+04  0.13831091543E+04  0.25500000920E-02 0. -1.
    10030    2    1    2    0    0  0.00000000000E+00  0.00000000000E+00 -0.36904069695E+03  0.23971776117E+04  0.23686007401E+04 0.  0.
        1    1    3    3  502    0  0.45876919543E+03  0.64099608493E+03  0.71001116191E+03  0.10608774697E+04  0.50400001928E-02 0.  1.
       -1    1    3    3    0  502 -0.45876919543E+03 -0.64099608493E+03 -0.10790518589E+04  0.13363001421E+04  0.50400001928E-02 0. -1.
</event>
<event>
 5   0  0.1506985E-05  0.2398252E+04  0.7818609E-02  0.8440158E-01
       -1   -1    0    0    0  501  0.00000000000E+00  0.00000000000E+00  0.67268163222E+03  0.67268163224E+03  0.50400001928E-02 0.  1.
        1   -1    0    0  501    0  0.00000000000E+00  0.00000000000E+00 -0.21375694534E+04  0.21375694534E+04  0.50400001928E-02 0. -1.
    10030    2    1    2    0    0  0.00000000000E+00  0.00000000000E+00 -0.14648878211E+04  0.28102510856E+04  0.23982524545E+04 0.  0.
        3    1    3    3  502    0 -0.42822863782E+03  0.11190420263E+04 -0.78825950897E+03  0.14342203062E+04  0.10100000352E+00 0.  1.
       -3    1    3    3    0  502  0.42822863782E+03 -0.11190420263E+04 -0.67662831216E+03  0.13760307794E+04  0.10100000352E+00 0. -1.
</event>
<event>
 5   0  0.3347728E-05  0.2408171E+04  0.7818609E-02  0.8436451E-01
        2   -1    0    0  501    0  0.00000000000E+00  0.00000000000E+00  0.20502676026E+04  0.20502676026E+04  0.25500000920E-02 0.  1.
       -2   -1    0    0    0  501  0.00000000000E+00  0.00000000000E+00 -0.70713803033E+03  0.70713803034E+03  0.25500000920E-02 0. -1.
    10030    2    1    2    0    0  0.00000000000E+00  0.00000000000E+00  0.13431295723E+04  0.27574056330E+04  0.24081712515E+04 0.  0.
        3    1    3    3  502    0  0.77253985874E+03  0.16842785728E+03  0.17113521693E+04  0.18851822283E+04  0.10100000352E+00 0.  1.
       -3    1    3    3    0  502 -0.77253985874E+03 -0.16842785728E+03 -0.36822259700E+03  0.87222340464E+03  0.10100000352E+00 0. -1.
</event>
<event>
 5   0  0.1393026E-05  0.2405350E+04  0.7818609E-02  0.8437503E-01
       -1   -1    0    0    0  501  0.00000000000E+00  0.00000000000E+00  0.88382286613E+03  0.88382286615E+03  0.50400001928E-02 0. -1.
        1   -1    0    0  501    0  0.00000000000E+00  0.00000000000E+00 -0.16365578694E+04  0.16365578694E+04  0.50400001928E-02 0.  1.
    10030    2    1    2    0    0  0.00000000000E+00  0.00000000000E+00 -0.75273500324E+03  0.25203807355E+04  0.24053500924E+04 0.  0.
        4    1    3    3  502    0  0.13660878744E+03  0.93053351075E+03  0.40906016404E+03  0.10256151355E+04  0.12699999809E+01 0. -1.
       -4    1    3    3    0  502 -0.13660878744E+03 -0.93053351075E+03 -0.11617951673E+04  0.14947656000E+04  0.12699999809E+01 0.  1.
</event>
<event>
 5   0  0.3310037E-05  0.2373740E+04  0.7818609E-02  0.8449401E-01
        2   -1    0    0  501    0  0.00000000000E+00  0.00000000000E+00  0.16500100653E+04  0.16500100653E+04  0.25500000920E-02 0.  1.
       -2   -1    0    0    0  501  0.00000000000E+00  0.00000000000E+00 -0.85372812622E+03  0.85372812623E+03  0.25500000920E-02 0. -1.
    10030    2    1    2    0    0  0.00000000000E+00  0.00000000000E+00  0.79628193906E+03  0.25037381915E+04  0.23737396667E+04 0.  0.
        2    1    3    3  502    0  0.35699977338E+03  0.74098060217E+03 -0.50438249710E+03  0.96483303963E+03  0.25500000920E-02 0. -1.
       -2    1    3    3    0  502 -0.35699977338E+03 -0.74098060217E+03  0.13006644362E+04  0.15389051519E+04  0.25500000920E-02 0.  1.
</event>
<event>
 5   0  0.1393026E-05  0.2393411E+04  0.7818609E-02  0.8441975E-01
       -1   -1    0    0    0  501  0.00000000000E+00  0.00000000000E+00  0.68070218655E+03  0.68070218657E+03  0.50400001928E-02 0.  1.
        1   -1    0    0  501    0  0.00000000000E+00  0.00000000000E+00 -0.21038620955E+04  0.21038620955E+04  0.50400001928E-02 0. -1.
    10030    2    1    2    0    0  0.00000000000E+00  0.00000000000E+00 -0.14231599089E+04  0.27845642821E+04  0.23934105612E+04 0.  0.
        4    1    3    3  502    0 -0.18019630950E+03 -0.11494988002E+04 -0.38606139433E+03  0.12259132167E+04  0.12699999809E+01 0.  1.
       -4    1    3    3    0  502  0.18019630950E+03  0.11494988002E+04 -0.10370985146E+04  0.15586510654E+04  0.12699999809E+01 0. -1.
</event>
<event>
 5   0  0.1393026E-05  0.2397241E+04  0.7818609E-02  0.8440537E-01
       -1   -1    0    0    0  501  0.00000000000E+00  0.00000000000E+00  0.93872665686E+03  0.93872665687E+03  0.50400001928E-02 0. -1.
        1   -1    0    0  501    0  0.00000000000E+00  0.00000000000E+00 -0.15304684808E+04  0.15304684808E+04  0.50400001928E-02 0.  1.
    10030    2    1    2    0    0  0.00000000000E+00  0.00000000000E+00 -0.59174182396E+03  0.24691951377E+04  0.23972413816E+04 0.  0.
        4    1    3    3  502    0  0.17338752587E+03  0.39427093900E+03 -0.14480050567E+04  0.15107061476E+04  0.12699999809E+01 0.  1.
       -4    1    3    3    0  502 -0.17338752587E+03 -0.39427093900E+03  0.85626323271E+03  0.95848899006E+03  0.12699999809E+01 0. -1.
</event>
<event>
 5   0  0.1401596E-05  0.2412091E+04  0.7818609E-02  0.8434991E-01
       -1   -1    0    0    0  501  0.00000000000E+00  0.00000000000E+00  0.12053798158E+04  0.12053798158E+04  0.50400001928E-02 0.  1.
        1   -1    0    0  501    0  0.00000000000E+00  0.00000000000E+00 -0.12067120394E+04  0.12067120394E+04  0.50400001928E-02 0. -1.
    10030    2    1    2    0    0  0.00000000000E+00  0.00000000000E+00 -0.13322236144E+01  0.24120918552E+04  0.24120914873E+04 0.  0.
        2    1    3    3  502    0 -0.58895777560E+02 -0.74772611049E+03 -0.94511492403E+03  0.12065675566E+04  0.25500000920E-02 0. -1.
       -2    1    3    3    0  502  0.58895777560E+02  0.74772611049E+03  0.94378270041E+03  0.12055242986E+04  0.25500000920E-02 0.  1.
</event>
<event>
 5   0  0.3310037E-05  0.2382306E+04  0.7818609E-02  0.8446158E-01
        2   -1    0    0  501    0  0.00000000000E+00  0.00000000000E+00  0.22988749699E+04  0.22988749699E+04  0.25500000920E-02 0.  1.
       -2   -1    0    0    0  501  0.00000000000E+00  0.00000000000E+00 -0.61719148122E+03  0.61719148122E+03  0.25500000920E-02 0. -1.
    10030    2    1    2    0    0  0.00000000000E+00  0.00000000000E+00  0.16816834887E+04  0.29160664511E+04  0.23823064856E+04 0.  0.
        2    1    3    3  502    0  0.44637861846E+03  0.11035780620E+04  0.79025954978E+03  0.14288626827E+04  0.25500000920E-02 0.  1.
       -2    1    3    3    0  502 -0.44637861846E+03 -0.11035780620E+04  0.89142393891E+03  0.14872037684E+04  0.25500000920E-02 0. -1.
</event>
<event>
 5   0  0.3215208E-05  0.2374816E+04  0.7818609E-02  0.8448993E-01
       -2   -1    0    0    0  501  0.00000000000E+00  0.00000000000E+00  0.11432989980E+04  0.11432989980E+04  0.25500000920E-02 0. -1.
        2   -1    0    0  501    0  0.00000000000E+00  0.00000000000E+00 -0.12332182833E+04  0.12332182833E+04  0.25500000920E-02 0.  1.
    10030    2    1    2    0    0  0.00000000000E+00  0.00000000000E+00 -0.89919285313E+02  0.23765172813E+04  0.23748155530E+04 0.  0.
        1    1    3    3  502    0  0.62258271368E+03 -0.82420726445E+03 -0.63105019663E+03  0.12104343026E+04  0.50400001928E-02 0.  1.
       -1    1    3    3    0  502 -0.62258271368E+03  0.82420726445E+03  0.54113091132E+03  0.11660829788E+04  0.50400001928E-02 0. -1.
</event>
<event>
 5   0  0.3320780E-05  0.2406408E+04  0.7818609E-02  0.8437108E-01
        2   -1    0    0  501    0  0.00000000000E+00  0.00000000000E+00  0.20122335973E+04  0.20122335973E+04  0.25500000920E-02 0.  1.
       -2   -1    0    0    0  501  0.00000000000E+00  0.00000000000E+00 -0.71944908526E+03  0.71944908527E+03  0.25500000920E-02 0. -1.
    10030    2    1    2    0    0  0.00000000000E+00  0.00000000000E+00  0.12927845120E+04  0.27316826825E+04  0.24064077966E+04 0.  0.
        5    1    3    3  502    0 -0.11170990541E+03 -0.42240769671E+03  0.19189835701E+04  0.19681024866E+04  0.46999998093E+01 0.  1.
       -5    1    3    3    0  502  0.11170990541E+03  0.42240769671E+03 -0.62619905815E+03  0.76358019594E+03  0.46999998093E+01 0. -1.
</event>
<event>
 5   0  0.3215208E-05  0.2351191E+04  0.7818609E-02  0.8458006E-01
        2   -1    0    0  501    0  0.00000000000E+00  0.00000000000E+00  0.16729711507E+04  0.16729711507E+04  0.25500000920E-02 0.  1.
       -2   -1    0    0    0  501  0.00000000000E+00  0.00000000000E+00 -0.82609017050E+03  0.82609017051E+03  0.25500000920E-02 0. -1.
    10030    2    1    2    0    0  0.00000000000E+00  0.00000000000E+00  0.84688098019E+03  0.24990613212E+04  0.23511912071E+04 0.  0.
        1    1    3    3  502    0  0.50927239457E+03 -0.16773465283E+03  0.15354362812E+04  0.16263633848E+04  0.50400001928E-02 0.  1.
       -1    1    3    3    0  502 -0.50927239457E+03  0.16773465283E+03 -0.68855530103E+03  0.87269793642E+03  0.50400001928E-02 0. -1.
</event>
<event>
 5   0  0.1407158E-05  0.2409274E+04  0.7818609E-02  0.8436040E-01
        1   -1    0    0  501    0  0.00000000000E+00  0.00000000000E+00  0.90501381271E+03  0.90501381272E+03  0.50400001928E-02 0. -1.
       -1   -1    0    0    0  501  0.00000000000E+00  0.00000000000E+00 -0.16034564061E+04  0.16034564061E+04  0.50400001928E-02 0.  1.
    10030    2    1    2    0    0  0.00000000000E+00  0.00000000000E+00 -0.69844259336E+03  0.25084702188E+04  0.24092739119E+04 0.  0.
        1    1    3    3  502    0 -0.53329933966E+01  0.11243016453E+04 -0.79954210785E+03  0.13796195899E+04  0.50400001928E-02 0.  1.
       -1    1    3    3    0  502  0.53329933966E+01 -0.11243016453E+04  0.10109951448E+03  0.11288506289E+04  0.50400001928E-02 0. -1.
</event>
<event>
 5   0  0.3320780E-05  0.2403349E+04  0.7818609E-02  0.8438251E-01
       -2   -1    0    0    0  501  0.00000000000E+00  0.00000000000E+00  0.26675511573E+04  0.26675511573E+04  0.25500000920E-02 0. -1.
        2   -1    0    0  501    0  0.00000000000E+00  0.00000000000E+00 -0.54132870584E+03  0.54132870585E+03  0.25500000920E-02 0.  1.
    10030    2    1    2    0    0  0.00000000000E+00  0.00000000000E+00  0.21262224514E+04  0.32088798631E+04  0.24033493427E+04 0.  0.
        5    1    3    3  502    0  0.37101373864E+03 -0.46643400270E+03  0.24562944241E+04  0.25275712178E+04  0.46999998093E+01 0. -1.
       -5    1    3    3    0  502 -0.37101373864E+03  0.46643400270E+03 -0.33007197264E+03  0.68130864537E+03  0.46999998093E+01 0.  1.
</event>
<event>
 5   0  0.3345974E-05  0.2136085E+04  0.7818609E-02  0.8545512E-01
        2   -1    0    0  501    0  0.00000000000E+00  0.00000000000E+00  0.23691274836E+04  0.23691274836E+04  0.25500000920E-02 0. -1.
       -2   -1    0    0    0  501  0.00000000000E+00  0.00000000000E+00 -0.48149156014E+03  0.48149156014E+03  0.25500000920E-02 0.  1.
    10030    2    1    2    0    0  0.00000000000E+00  0.00000000000E+00  0.18876359235E+04  0.28506190438E+04  0.21360850997E+04 0.  0.
        4    1    3    3  502    0 -0.28453847410E+03 -0.79564016445E+03  0.18155559127E+04  0.20025609353E+04  0.12699999809E+01 0. -1.
       -4    1    3    3    0  502  0.28453847410E+03  0.79564016445E+03  0.72080010816E+02  0.84805810850E+03  0.12699999809E+01 0.  1.
</event>
<event>
 5   0  0.3345974E-05  0.2352766E+04  0.7818609E-02  0.8457402E-01
       -2   -1    0    0    0  501  0.00000000000E+00  0.00000000000E+00  0.49770185011E+03  0.49770185011E+03  0.25500000920E-02 0.  1.
        2   -1    0    0  501    0  0.00000000000E+00  0.00000000000E+00 -0.27805340189E+04  0.27805340189E+04  0.25500000920E-02 0. -1.
    10030    2    1    2    0    0  0.00000000000E+00  0.00000000000E+00 -0.22828321688E+04  0.32782358690E+04  0.23527659684E+04 0.  0.
        4    1    3    3  502    0 -0.36545967160E+03 -0.64489858361E+03 -0.24141977591E+04  0.25254321190E+04  0.12699999809E+01 0. -1.
       -4    1    3    3    0  502  0.36545967160E+03  0.64489858361E+03  0.13136559038E+03  0.75280374995E+03  0.12699999809E+01 0.  1.
</event>
<event>
 5   0  0.1401596E-05  0.2424605E+04  0.7818609E-02  0.8430349E-01
        1   -1    0    0  501    0  0.00000000000E+00  0.00000000000E+00  0.21565948608E+04  0.21565948608E+04  0.50400001928E-02 0. -1.
       -1   -1    0    0    0  501  0.00000000000E+00  0.00000000000E+00 -0.68148040279E+03  0.68148040281E+03  0.50400001928E-02 0.  1.
    10030    2    1    2    0    0  0.00000000000E+00  0.00000000000E+00  0.14751144580E+04  0.28380752636E+04  0.24246048209E+04 0.  0.
        2    1    3    3  502    0 -0.56776090027E+02 -0.54296433621E+03  0.20045690247E+04  0.20775781019E+04  0.25500000920E-02 0. -1.
       -2    1    3    3    0  502  0.56776090027E+02  0.54296433621E+03 -0.52945456667E+03  0.76049716171E+03  0.25500000920E-02 0.  1.
</event>
<event>
 5   0  0.1407158E-05  0.2394953E+04  0.7818609E-02  0.8441396E-01
        1   -1    0    0  501    0  0.00000000000E+00  0.00000000000E+00  0.15205710249E+04  0.15205710249E+04  0.50400001928E-02 0.  1.
       -1   -1    0    0    0  501  0.00000000000E+00  0.00000000000E+00 -0.94303369064E+03  0.94303369065E+03  0.50400001928E-02 0. -1.
    10030    2    1    2    0    0  0.00000000000E+00  0.00000000000E+00  0.57753733426E+03  0.24636047156E+04  0.23949527808E+04 0.  0.
        1    1    3    3  502    0  0.56934355416E+03  0.10515462812E+04  0.35421669122E+03  0.12471451914E+04  0.50400001928E-02 0.  1.
       -1    1    3    3    0  502 -0.56934355416E+03 -0.10515462812E+04  0.22332064304E+03  0.12164595241E+04  0.50400001928E-02 0. -1.
</event>
<event>
 5   0  0.1434943E-05  0.2338086E+04  0.7818609E-02  0.8463054E-01
        1   -1    0    0  501    0  0.00000000000E+00  0.00000000000E+00  0.10579426611E+04  0.10579426611E+04  0.50400001928E-02 0.  1.
       -1   -1    0    0    0  501  0.00000000000E+00  0.00000000000E+00 -0.12918108642E+04  0.12918108642E+04  0.50400001928E-02 0. -1.
    10030    2    1    2    0    0  0.00000000000E+00  0.00000000000E+00 -0.23386820312E+03  0.23497535253E+04  0.23380862459E+04 0.  0.
        5    1    3    3  502    0  0.41466580953E+03  0.18948263061E+03 -0.11987761058E+04  0.12825512242E+04  0.46999998093E+01 0. -1.
       -5    1    3    3    0  502 -0.41466580953E+03 -0.18948263061E+03  0.96490790266E+03  0.10672023011E+04  0.46999998093E+01 0.  1.
</event>
<event>
 5   0  0.3345974E-05  0.2391502E+04  0.7818609E-02  0.8442692E-01
        2   -1    0    0  501    0  0.00000000000E+00  0.00000000000E+00  0.22269962188E+04  0.22269962188E+04  0.25500000920E-02 0. -1.
       -2   -1    0    0    0  501  0.00000000000E+00  0.00000000000E+00 -0.64204005178E+03  0.64204005179E+03  0.25500000920E-02 0.  1.
    10030    2    1    2    0    0  0.00000000000E+00  0.00000000000E+00  0.15849561670E+04  0.28690362706E+04  0.23915022623E+04 0.  0.
        4    1    3    3  502    0 -0.77176593399E+03  0.51697985914E+03 -0.11081632068E+03  0.93550665495E+03  0.12699999809E+01 0.  1.
       -4    1    3    3    0  502  0.77176593399E+03 -0.51697985914E+03  0.16957724877E+04  0.19335296156E+04  0.12699999809E+01 0. -1.
</event>
<event>
 5   0  0.3320780E-05  0.2401158E+04  0.7818609E-02  0.8439070E-01
       -2   -1    0    0    0  501  0.00000000000E+00  0.00000000000E+00  0.92752138943E+03  0.92752138943E+03  0.25500000920E-02 0. -1.
        2   -1    0    0  501    0  0.00000000000E+00  0.00000000000E+00 -0.15540234821E+04  0.15540234821E+04  0.25500000920E-02 0.  1.
    10030    2    1    2    0    0  0.00000000000E+00  0.00000000000E+00 -0.62650209266E+03  0.24815448715E+04  0.24011580700E+04 0.  0.
        5    1    3    3  502    0  0.52783103063E+03 -0.87382632764E+03 -0.96621791198E+03  0.14056234173E+04  0.46999998093E+01 0.  1.
       -5    1    3    3    0  502 -0.52783103063E+03  0.87382632764E+03  0.33971581932E+03  0.10759214542E+04  0.46999998093E+01 0. -1.
</event>
<event>
 5   0  0.3215208E-05  0.2391903E+04  0.7818609E-02  0.8442541E-01
        2   -1    0    0  501    0  0.00000000000E+00  0.00000000000E+00  0.11962786632E+04  0.11962786632E+04  0.25500000920E-02 0.  1.
       -2   -1    0    0    0  501  0.00000000000E+00  0.00000000000E+00 -0.11956246335E+04  0.11956246335E+04  0.25500000920E-02 0. -1.
    10030    2    1    2    0    0  0.00000000000E+00  0.00000000000E+00  0.65402966350E+00  0.23919032968E+04  0.23919032073E+04 0.  0.
        1    1    3    3  502    0  0.56744809110E+03 -0.10099211828E+04 -0.29693063997E+03  0.11958703678E+04  0.50400001928E-02 0. -1.
       -1    1    3    3    0  502 -0.56744809110E+03  0.10099211828E+04  0.29758466963E+03  0.11960329290E+04  0.50400001928E-02 0.  1.
</event>
<event>
 5   0  0.3215208E-05  0.2397611E+04  0.7818609E-02  0.8440399E-01
        2   -1    0    0  501    0  0.00000000000E+00  0.00000000000E+00  0.17601683620E+04  0.17601683620E+04  0.25500000920E-02 0.  1.
       -2   -1    0    0    0  501  0.00000000000E+00  0.00000000000E+00 -0.81647549412E+03  0.81647549412E+03  0.25500000920E-02 0. -1.
    10030    2    1    2    0    0  0.00000000000E+00  0.00000000000E+00  0.94369286789E+03  0.25766438561E+04  0.23976107550E+04 0.  0.
        1    1    3    3  502    0  0.46666266781E+03 -0.87397049286E+03 -0.25348584361E+03  0.10226698103E+04  0.50400001928E-02 0. -1.
       -1    1    3    3    0  502 -0.46666266781E+03  0.87397049286E+03  0.11971787115E+04  0.15539740459E+04  0.50400001928E-02 0.  1.
</event>
<event>
 5   0  0.1147362E-05  0.2404444E+04  0.7818609E-02  0.8437842E-01
        3   -1    0    0  501    0  0.00000000000E+00  0.00000000000E+00  0.18795036374E+04  0.18795036401E+04  0.10100000352E+00 0.  1.
       -3   -1    0    0    0  501  0.00000000000E+00  0.00000000000E+00 -0.76899989339E+03  0.76899990002E+03  0.10100000352E+00 0. -1.
    10030    2    1    2    0    0  0.00000000000E+00  0.00000000000E+00  0.11105037440E+04  0.26485035401E+04  0.24044443093E+04 0.  0.
        2    1    3    3  502    0  0.80681537707E+03  0.77232565708E+03  0.65237428471E+02  0.11187912653E+04  0.25500000920E-02 0. -1.
       -2    1    3    3    0  502 -0.80681537707E+03 -0.77232565708E+03  0.10452663155E+04  0.15297122748E+04  0.25500000920E-02 0.  1.
</event>
<event>
 5   0  0.1147362E-05  0.2392201E+04  0.7818609E-02  0.8442429E-01
        3   -1    0    0  501    0  0.00000000000E+00  0.00000000000E+00  0.12612192217E+04  0.12612192257E+04  0.10100000352E+00 0.  1.
       -3   -1    0    0    0  501  0.00000000000E+00  0.00000000000E+00 -0.11343436066E+04  0.11343436111E+04  0.10100000352E+00 0. -1.
    10030    2    1    2    0    0  0.00000000000E+00  0.00000000000E+00  0.12687561502E+03  0.23955628369E+04  0.23922006362E+04 0.  0.
        2    1    3    3  502    0  0.71818173595E+03  0.26211942384E+03  0.98460260594E+03  0.12465688468E+04  0.25500000920E-02 0.  1.
       -2    1    3    3    0  502 -0.71818173595E+03 -0.26211942384E+03 -0.85772699092E+03  0.11489939900E+04  0.25500000920E-02 0. -1.
</event>
<event>
 5   0  0.3345974E-05  0.2434255E+04  0.7818609E-02  0.8426789E-01
       -2   -1    0    0    0  501  0.00000000000E+00  0.00000000000E+00  0.56033908284E+03  0.56033908285E+03  0.25500000920E-02 0.  1.
        2   -1    0    0  501    0  0.00000000000E+00  0.00000000000E+00 -0.26437559381E+04  0.26437559381E+04  0.25500000920E-02 0. -1.
    10030    2    1    2    0    0  0.00000000000E+00  0.00000000000E+00 -0.20834168553E+04  0.32040950209E+04  0.24342553503E+04 0.  0.
        4    1    3    3  502    0 -0.13598652216E+03  0.22212397733E+03  0.52323058529E+03  0.58446835141E+03  0.12699999809E+01 0.  1.
       -4    1    3    3    0  502  0.13598652216E+03 -0.22212397733E+03 -0.26066474405E+04  0.26196266695E+04  0.12699999809E+01 0. -1.
</event>
<event>
 5   0  0.1393026E-05  0.2387412E+04  0.7818609E-02  0.8444231E-01
        1   -1    0    0  501    0  0.00000000000E+00  0.00000000000E+00  0.15566609560E+04  0.15566609560E+04  0.50400001928E-02 0. -1.
       -1   -1    0    0    0  501  0.00000000000E+00  0.00000000000E+00 -0.91537869705E+03  0.91537869706E+03  0.50400001928E-02 0.  1.
    10030    2    1    2    0    0  0.00000000000E+00  0.00000000000E+00  0.64128225896E+03  0.24720396531E+04  0.23874122205E+04 0.  0.
        4    1    3    3  502    0  0.46170068196E+03 -0.81997054484E+03  0.10811230717E+04  0.14332996627E+04  0.12699999809E+01 0. -1.
       -4    1    3    3    0  502 -0.46170068196E+03  0.81997054484E+03 -0.43984081273E+03  0.10387399904E+04  0.12699999809E+01 0.  1.
</event>
<event>
 5   0  0.3345974E-05  0.2349109E+04  0.7818609E-02  0.8458806E-01
       -2   -1    0    0    0  501  0.00000000000E+00  0.00000000000E+00  0.86471082858E+03  0.86471082858E+03  0.25500000920E-02 0. -1.
        2   -1    0    0  501    0  0.00000000000E+00  0.00000000000E+00 -0.15954212142E+04  0.15954212142E+04  0.25500000920E-02 0.  1.
    10030    2    1    2    0    0  0.00000000000E+00  0.00000000000E+00 -0.73071038567E+03  0.24601320428E+04  0.23491087673E+04 0.  0.
        4    1    3    3  502    0 -0.59430428582E+03  0.38973675483E+03 -0.13446901165E+04  0.15209488632E+04  0.12699999809E+01 0.  1.
       -4    1    3    3    0  502  0.59430428582E+03 -0.38973675483E+03  0.61397973080E+03  0.93918317965E+03  0.12699999809E+01 0. -1.
</event>
<event>
 5   0  0.1506985E-05  0.2373590E+04  0.7818609E-02  0.8449458E-01
        1   -1    0    0  501    0  0.00000000000E+00  0.00000000000E+00  0.17087517353E+04  0.17087517353E+04  0.50400001928E-02 0.  1.
       -1   -1    0    0    0  501  0.00000000000E+00  0.00000000000E+00 -0.82427578664E+03  0.82427578665E+03  0.50400001928E-02 0. -1.
    10030    2    1    2    0    0  0.00000000000E+00  0.00000000000E+00  0.88447594864E+03  0.25330275219E+04  0.23735902602E+04 0.  0.
        3    1    3    3  502    0 -0.36499602526E+03 -0.23159832876E+03  0.16217509414E+04  0.16783730248E+04  0.10100000352E+00 0.  1.
       -3    1    3    3    0  502  0.36499602526E+03  0.23159832876E+03 -0.73727499274E+03  0.85465449713E+03  0.10100000352E+00 0. -1.
</event>
<event>
 5   0  0.1393026E-05  0.2536112E+04  0.7818609E-02  0.8390232E-01
        1   -1    0    0  501    0  0.00000000000E+00  0.00000000000E+00  0.90860878887E+03  0.90860878889E+03  0.50400001928E-02 0. -1.
       -1   -1    0    0    0  501  0.00000000000E+00  0.00000000000E+00 -0.17697008823E+04  0.17697008823E+04  0.50400001928E-02 0.  1.
    10030    2    1    2    0    0  0.00000000000E+00  0.00000000000E+00 -0.86109209345E+03  0.26783096712E+04  0.25361118078E+04 0.  0.
        4    1    3    3  502    0  0.63407253870E+03 -0.72621357746E+03 -0.13004612606E+04  0.16188376224E+04  0.12699999809E+01 0.  1.
       -4    1    3    3    0  502 -0.63407253870E+03  0.72621357746E+03  0.43936916710E+03  0.10594720489E+04  0.12699999809E+01 0. -1.
</event>
<event>
 5   0  0.1401596E-05  0.2432201E+04  0.7818609E-02  0.8427546E-01
        1   -1    0    0  501    0  0.00000000000E+00  0.00000000000E+00  0.21756012376E+04  0.21756012376E+04  0.50400001928E-02 0.  1.
       -1   -1    0    0    0  501  0.00000000000E+00  0.00000000000E+00 -0.67976619605E+03  0.67976619607E+03  0.50400001928E-02 0. -1.
    10030    2    1    2    0    0  0.00000000000E+00  0.00000000000E+00  0.14958350416E+04  0.28553674337E+04  0.24322007955E+04 0.  0.
        2    1    3    3  502    0  0.94908124018E+03 -0.62346182999E+03  0.23694353639E+03  0.11600009023E+04  0.25500000920E-02 0. -1.
       -2    1    3    3    0  502 -0.94908124018E+03  0.62346182999E+03  0.12588915052E+04  0.16953665314E+04  0.25500000920E-02 0.  1.
</event>
<event>
 5   0  0.3215208E-05  0.2376602E+04  0.7818609E-02  0.8448316E-01
        2   -1    0    0  501    0  0.00000000000E+00  0.00000000000E+00  0.12702053321E+04  0.12702053321E+04  0.25500000920E-02 0. -1.
       -2   -1    0    0    0  501  0.00000000000E+00  0.00000000000E+00 -0.11116783847E+04  0.11116783847E+04  0.25500000920E-02 0.  1.
    10030    2    1    2    0    0  0.00000000000E+00  0.00000000000E+00  0.15852694738E+03  0.23818837168E+04  0.23766024588E+04 0.  0.
        1    1    3    3  502    0 -0.45643173484E+03  0.10190555264E+04  0.48668339472E+03  0.12180578070E+04  0.50400001928E-02 0. -1.
       -1    1    3    3    0  502  0.45643173484E+03 -0.10190555264E+04 -0.32815644734E+03  0.11638259098E+04  0.50400001928E-02 0.  1.
</event>
<event>
 5   0  0.1407158E-05  0.2377274E+04  0.7818609E-02  0.8448061E-01
        1   -1    0    0  501    0  0.00000000000E+00  0.00000000000E+00  0.13808020897E+04  0.13808020897E+04  0.50400001928E-02 0.  1.
       -1   -1    0    0    0  501  0.00000000000E+00  0.00000000000E+00 -0.10232155017E+04  0.10232155017E+04  0.50400001928E-02 0. -1.
    10030    2    1    2    0    0  0.00000000000E+00  0.00000000000E+00  0.35758658805E+03  0.24040175914E+04  0.23772741558E+04 0.  0.
        1    1    3    3  502    0 -0.94124320892E+03 -0.69878043217E+03 -0.19950659060E+02  0.11724465444E+04  0.50400001928E-02 0.  1.
       -1    1    3    3    0  502  0.94124320892E+03  0.69878043217E+03  0.37753724710E+03  0.12315710469E+04  0.50400001928E-02 0. -1.
</event>
<event>
 5   0  0.3215208E-05  0.2394217E+04  0.7818609E-02  0.8441672E-01
        2   -1    0    0  501    0  0.00000000000E+00  0.00000000000E+00  0.17086248175E+04  0.17086248175E+04  0.25500000920E-02 0. -1.
       -2   -1    0    0    0  501  0.00000000000E+00  0.00000000000E+00 -0.83872631746E+03  0.83872631746E+03  0.25500000920E-02 0.  1.
    10030    2    1    2    0    0  0.00000000000E+00  0.00000000000E+00  0.86989850001E+03  0.25473511349E+04  0.23942168666E+04 0.  0.
        1    1    3    3  502    0 -0.10737560828E+04  0.52848154797E+03  0.46548563078E+03  0.12841034788E+04  0.50400001928E-02 0.  1.
       -1    1    3    3    0  502  0.10737560828E+04 -0.52848154797E+03  0.40441286923E+03  0.12632476561E+04  0.50400001928E-02 0. -1.
</event>
<event>
 5   0  0.3310037E-05  0.2392829E+04  0.7818609E-02  0.8442193E-01
       -2   -1    0    0    0  501  0.00000000000E+00  0.00000000000E+00  0.67683030690E+03  0.67683030690E+03  0.25500000920E-02 0.  1.
        2   -1    0    0  501    0  0.00000000000E+00  0.00000000000E+00 -0.21148695288E+04  0.21148695288E+04  0.25500000920E-02 0. -1.
    10030    2    1    2    0    0  0.00000000000E+00  0.00000000000E+00 -0.14380392219E+04  0.27916998357E+04  0.23928291140E+04 0.  0.
        2    1    3    3  502    0  0.51455574083E+03 -0.84135700166E+03 -0.15092416458E+04  0.18029030922E+04  0.25500000920E-02 0. -1.
       -2    1    3    3    0  502 -0.51455574083E+03  0.84135700166E+03  0.71202423884E+02  0.98879674344E+03  0.25500000920E-02 0.  1.
</event>
<event>
 5   0  0.3345974E-05  0.2412564E+04  0.7818609E-02  0.8434815E-01
        2   -1    0    0  501    0  0.00000000000E+00  0.00000000000E+00  0.16785948736E+04  0.16785948736E+04  0.25500000920E-02 0. -1.
       -2   -1    0    0    0  501  0.00000000000E+00  0.00000000000E+00 -0.86686533507E+03  0.86686533507E+03  0.25500000920E-02 0.  1.
    10030    2    1    2    0    0  0.00000000000E+00  0.00000000000E+00  0.81172953849E+03  0.25454602086E+04  0.24125635391E+04 0.  0.
        4    1    3    3  502    0 -0.96585958280E+03  0.34864053580E+03  0.10737255142E+04  0.14857062461E+04  0.12699999809E+01 0. -1.
       -4    1    3    3    0  502  0.96585958280E+03 -0.34864053580E+03 -0.26199597575E+03  0.10597539625E+04  0.12699999809E+01 0.  1.
</event>
<event>
 5   0  0.1393026E-05  0.2433673E+04  0.7818609E-02  0.8427003E-01
        1   -1    0    0  501    0  0.00000000000E+00  0.00000000000E+00  0.18129189386E+04  0.18129189386E+04  0.50400001928E-02 0.  1.
       -1   -1    0    0    0  501  0.00000000000E+00  0.00000000000E+00 -0.81674417759E+03  0.81674417760E+03  0.50400001928E-02 0. -1.
    10030    2    1    2    0    0  0.00000000000E+00  0.00000000000E+00  0.99617476100E+03  0.26296631162E+04  0.24336729341E+04 0.  0.
        4    1    3    3  502    0  0.68307930111E+03 -0.13554361587E+03 -0.58013045565E+03  0.90637870776E+03  0.12699999809E+01 0. -1.
       -4    1    3    3    0  502 -0.68307930111E+03  0.13554361587E+03  0.15763052166E+04  0.17232844084E+04  0.12699999809E+01 0.  1.
</event>
<event>
 5   0  0.1407158E-05  0.2386299E+04  0.7818609E-02  0.8444651E-01
        1   -1    0    0  501    0  0.00000000000E+00  0.00000000000E+00  0.85611890628E+03  0.85611890630E+03  0.50400001928E-02 0. -1.
       -1   -1    0    0    0  501  0.00000000000E+00  0.00000000000E+00 -0.16628602490E+04  0.16628602490E+04  0.50400001928E-02 0.  1.
    10030    2    1    2    0    0  0.00000000000E+00  0.00000000000E+00 -0.80674134270E+03  0.25189791553E+04  0.23862993087E+04 0.  0.
        1    1    3    3  502    0 -0.47511391422E+03  0.48634924073E+02 -0.15575566993E+04  0.16291351875E+04  0.50400001928E-02 0.  1.
       -1    1    3    3    0  502  0.47511391422E+03 -0.48634924073E+02  0.75081535663E+03  0.88984396784E+03  0.50400001928E-02 0. -1.
</event>
<event>
 5   0  0.3345974E-05  0.2394854E+04  0.7818609E-02  0.8441433E-01
        2   -1    0    0  501    0  0.00000000000E+00  0.00000000000E+00  0.12249859580E+04  0.12249859580E+04  0.25500000920E-02 0. -1.
       -2   -1    0    0    0  501  0.00000000000E+00  0.00000000000E+00 -0.11704882434E+04  0.11704882434E+04  0.25500000920E-02 0.  1.
    10030    2    1    2    0    0  0.00000000000E+00  0.00000000000E+00  0.54497714624E+02  0.23954742013E+04  0.23948542019E+04 0.  0.
        4    1    3    3  502    0  0.14348532992E+03 -0.99432876856E+03 -0.62449661518E+03  0.11829097071E+04  0.12699999809E+01 0.  1.
       -4    1    3    3    0  502 -0.14348532992E+03  0.99432876856E+03  0.67899432981E+03  0.12125644942E+04  0.12699999809E+01 0. -1.
</event>
<event>
 5   0  0.3347728E-05  0.2423033E+04  0.7818609E-02  0.8430930E-01
        2   -1    0    0  501    0  0.00000000000E+00  0.00000000000E+00  0.25197642698E+04  0.25197642698E+04  0.25500000920E-02 0.  1.
       -2   -1    0    0    0  501  0.00000000000E+00  0.00000000000E+00 -0.58250393856E+03  0.58250393856E+03  0.25500000920E-02 0. -1.
    10030    2    1    2    0    0  0.00000000000E+00  0.00000000000E+00  0.19372603313E+04  0.31022682084E+04  0.24230333150E+04 0.  0.
        3    1    3    3  502    0  0.67954875024E+03  0.96170293367E+03  0.13332721746E+04  0.17788405601E+04  0.10100000352E+00 0.  1.
       -3    1    3    3    0  502 -0.67954875024E+03 -0.96170293367E+03  0.60398815668E+03  0.13234276483E+04  0.10100000352E+00 0. -1.
</event>
<event>
 5   0  0.1401596E-05  0.2398175E+04  0.7818609E-02  0.8440187E-01
       -1   -1    0    0    0  501  0.00000000000E+00  0.00000000000E+00  0.13872470940E+04  0.13872470940E+04  0.50400001928E-02 0.  1.
        1   -1    0    0  501    0  0.00000000000E+00  0.00000000000E+00 -0.10364488241E+04  0.10364488241E+04  0.50400001928E-02 0. -1.
    10030    2    1    2    0    0  0.00000000000E+00  0.00000000000E+00  0.35079826989E+03  0.24236959181E+04  0.23981748221E+04 0.  0.
        2    1    3    3  502    0  0.69050419728E+03 -0.54081095867E+03 -0.65094389295E+03  0.10922456186E+04  0.25500000920E-02 0. -1.
       -2    1    3    3    0  502 -0.69050419728E+03  0.54081095867E+03  0.10017421628E+04  0.13314502996E+04  0.25500000920E-02 0.  1.
</event>
<event>
 5   0  0.1506985E-05  0.2388159E+04  0.7818609E-02  0.8443950E-01
        1   -1    0    0  501    0  0.00000000000E+00  0.00000000000E+00  0.15342224730E+04  0.15342224730E+04  0.50400001928E-02 0. -1.
       -1   -1    0    0    0  501  0.00000000000E+00  0.00000000000E+00 -0.92934719614E+03  0.92934719615E+03  0.50400001928E-02 0.  1.
    10030    2    1    2    0    0  0.00000000000E+00  0.00000000000E+00  0.60487527688E+03  0.24635696692E+04  0.23881585823E+04 0.  0.
        3    1    3    3  502    0  0.85523096098E+03  0.81293149144E+03  0.11349355326E+03  0.11853937756E+04  0.10100000352E+00 0.  1.
       -3    1    3    3    0  502 -0.85523096098E+03 -0.81293149144E+03  0.49138172362E+03  0.12781758936E+04  0.10100000352E+00 0. -1.
</event>
<event>
 5   0  0.3310037E-05  0.2442340E+04  0.7818609E-02  0.8423820E-01
        2   -1    0    0  501    0  0.00000000000E+00  0.00000000000E+00  0.18451777792E+04  0.18451777792E+04  0.25500000920E-02 0. -1.
       -2   -1    0    0    0  501  0.00000000000E+00  0.00000000000E+00 -0.80819079666E+03  0.80819079667E+03  0.25500000920E-02 0.  1.
    10030    2    1    2    0    0  0.00000000000E+00  0.00000000000E+00  0.10369869825E+04  0.26533685759E+04  0.24423396155E+04 0.  0.
        2    1    3    3  502    0  0.76258097937E+03 -0.87261651109E+03  0.10016941515E+03  0.11631952705E+04  0.25500000920E-02 0.  1.
       -2    1    3    3    0  502 -0.76258097937E+03  0.87261651109E+03  0.93681756737E+03  0.14901733054E+04  0.25500000920E-02 0. -1.
</event>
<event>
 5   0  0.3345974E-05  0.2385441E+04  0.7818609E-02  0.8444974E-01
        2   -1    0    0  501    0  0.00000000000E+00  0.00000000000E+00  0.24329183150E+04  0.24329183150E+04  0.25500000920E-02 0. -1.
       -2   -1    0    0    0  501  0.00000000000E+00  0.00000000000E+00 -0.58472251730E+03  0.58472251730E+03  0.25500000920E-02 0.  1.
    10030    2    1    2    0    0  0.00000000000E+00  0.00000000000E+00  0.18481957977E+04  0.30176408323E+04  0.23854409417E+04 0.  0.
        4    1    3    3  502    0 -0.10791673805E+03  0.24342894855E+03 -0.54664010245E+03  0.60804661815E+03  0.12699999809E+01 0.  1.
       -4    1    3    3    0  502  0.10791673805E+03 -0.24342894855E+03  0.23948359002E+04  0.24095942142E+04  0.12699999809E+01 0. -1.
</event>
<event>
 5   0  0.1407158E-05  0.2407749E+04  0.7818609E-02  0.8436608E-01
        1   -1    0    0  501    0  0.00000000000E+00  0.00000000000E+00  0.12187906684E+04  0.12187906684E+04  0.50400001928E-02 0.  1.
       -1   -1    0    0    0  501  0.00000000000E+00  0.00000000000E+00 -0.11891410086E+04  0.11891410086E+04  0.50400001928E-02 0. -1.
    10030    2    1    2    0    0  0.00000000000E+00  0.00000000000E+00  0.29649659817E+02  0.24079316770E+04  0.24077491270E+04 0.  0.
        1    1    3    3  502    0  0.10387491008E+04  0.44271857406E+03 -0.40271674609E+03  0.11988245108E+04  0.50400001928E-02 0. -1.
       -1    1    3    3    0  502 -0.10387491008E+04 -0.44271857406E+03  0.43236640591E+03  0.12091071661E+04  0.50400001928E-02 0.  1.
</event>
<event>
 5   0  0.1407158E-05  0.2413906E+04  0.7818609E-02  0.8434316E-01
        1   -1    0    0  501    0  0.00000000000E+00  0.00000000000E+00  0.12039123151E+04  0.12039123151E+04  0.50400001928E-02 0. -1.
       -1   -1    0    0    0  501  0.00000000000E+00  0.00000000000E+00 -0.12100014151E+04  0.12100014151E+04  0.50400001928E-02 0.  1.
    10030    2    1    2    0    0  0.00000000000E+00  0.00000000000E+00 -0.60891000248E+01  0.24139137302E+04  0.24139060503E+04 0.  0.
        1    1    3    3  502    0  0.71087737217E+03  0.93964602539E+03  0.25859403505E+03  0.12062968815E+04  0.50400001928E-02 0. -1.
       -1    1    3    3    0  502 -0.71087737217E+03 -0.93964602539E+03 -0.26468313507E+03  0.12076168487E+04  0.50400001928E-02 0.  1.
</event>
<event>
 5   0  0.3347728E-05  0.2382998E+04  0.7818609E-02  0.8445896E-01
        2   -1    0    0  501    0  0.00000000000E+00  0.00000000000E+00  0.17954019218E+04  0.17954019218E+04  0.25500000920E-02 0.  1.
       -2   -1    0    0    0  501  0.00000000000E+00  0.00000000000E+00 -0.79072570712E+03  0.79072570712E+03  0.25500000920E-02 0. -1.
    10030    2    1    2    0    0  0.00000000000E+00  0.00000000000E+00  0.10046762147E+04  0.25861276289E+04  0.23829984928E+04 0.  0.
        3    1    3    3  502    0  0.11100118036E+03  0.30060393175E+03 -0.74308477587E+03  0.80923357578E+03  0.10100000352E+00 0. -1.
       -3    1    3    3    0  502 -0.11100118036E+03 -0.30060393175E+03  0.17477609905E+04  0.17768940531E+04  0.10100000352E+00 0.  1.
</event>
<event>
 5   0  0.1393026E-05  0.2472658E+04  0.7818609E-02  0.8412791E-01
       -1   -1    0    0    0  501  0.00000000000E+00  0.00000000000E+00  0.82112322978E+03  0.82112322979E+03  0.50400001928E-02 0.  1.
        1   -1    0    0  501    0  0.00000000000E+00  0.00000000000E+00 -0.18614866866E+04  0.18614866866E+04  0.50400001928E-02 0. -1.
    10030    2    1    2    0    0  0.00000000000E+00  0.00000000000E+00 -0.10403634568E+04  0.26826099164E+04  0.24726584562E+04 0.  0.
        4    1    3    3  502    0 -0.11432303810E+04  0.31830033572E+03 -0.14401765807E+03  0.11954218948E+04  0.12699999809E+01 0.  1.
       -4    1    3    3    0  502  0.11432303810E+04 -0.31830033572E+03 -0.89634579872E+03  0.14871880216E+04  0.12699999809E+01 0. -1.
</event>
<event>
 5   0  0.1407158E-05  0.2391996E+04  0.7818609E-02  0.8442506E-01
       -1   -1    0    0    0  501  0.00000000000E+00  0.00000000000E+00  0.11049055906E+04  0.11049055906E+04  0.50400001928E-02 0.  1.
        1   -1    0    0  501    0  0.00000000000E+00  0.00000000000E+00 -0.12945998880E+04  0.12945998880E+04  0.50400001928E-02 0. -1.
    10030    2    1    2    0    0  0.00000000000E+00  0.00000000000E+00 -0.18969429738E+03  0.23995054787E+04  0.23919955300E+04 0.  0.
        1    1    3    3  502    0  0.18874466123E+03 -0.96777516846E+03  0.58418081421E+03  0.11460717899E+04  0.50400001928E-02 0. -1.
       -1    1    3    3    0  502 -0.18874466123E+03  0.96777516846E+03 -0.77387511160E+03  0.12534336888E+04  0.50400001928E-02 0.  1.
</event>
<event>
 5   0  0.1407158E-05  0.2398965E+04  0.7818609E-02  0.8439891E-01
        1   -1    0    0  501    0  0.00000000000E+00  0.00000000000E+00  0.22820012038E+04  0.22820012038E+04  0.50400001928E-02 0.  1.
       -1   -1    0    0    0  501  0.00000000000E+00  0.00000000000E+00 -0.63048076145E+03  0.63048076147E+03  0.50400001928E-02 0. -1.
    10030    2    1    2    0    0  0.00000000000E+00  0.00000000000E+00  0.16515204424E+04  0.29124819653E+04  0.23989646572E+04 0.  0.
        1    1    3    3  502    0  0.82439249335E+02 -0.59665988156E+03 -0.43356290308E+03  0.74214286700E+03  0.50400001928E-02 0. -1.
       -1    1    3    3    0  502 -0.82439249335E+02  0.59665988156E+03  0.20850833455E+04  0.21703390983E+04  0.50400001928E-02 0.  1.
</event>
<event>
 5   0  0.1506985E-05  0.2366462E+04  0.7818609E-02  0.8452167E-01
        1   -1    0    0  501    0  0.00000000000E+00  0.00000000000E+00  0.12777210877E+04  0.12777210878E+04  0.50400001928E-02 0. -1.
       -1   -1    0    0    0  501  0.00000000000E+00  0.00000000000E+00 -0.10957290797E+04  0.10957290797E+04  0.50400001928E-02 0.  1.
    10030    2    1    2    0    0  0.00000000000E+00  0.00000000000E+00  0.18199200803E+03  0.23734501675E+04  0.23664624667E+04 0.  0.
        3    1    3    3  502    0 -0.11055996488E+04  0.22887398322E+03  0.44602182896E+03  0.12139478431E+04  0.10100000352E+00 0. -1.
       -3    1    3    3    0  502  0.11055996488E+04 -0.22887398322E+03 -0.26402982093E+03  0.11595023244E+04  0.10100000352E+00 0.  1.
</event>
<event>
 5   0  0.3320780E-05  0.2382008E+04  0.7818609E-02  0.8446270E-01
        2   -1    0    0  501    0  0.00000000000E+00  0.00000000000E+00  0.84831732074E+03  0.84831732075E+03  0.25500000920E-02 0.  1.
       -2   -1    0    0    0  501  0.00000000000E+00  0.00000000000E+00 -0.16721220945E+04  0.16721220945E+04  0.25500000920E-02 0. -1.
    10030    2    1    2    0    0  0.00000000000E+00  0.00000000000E+00 -0.82380477371E+03  0.25204394152E+04  0.23820076701E+04 0.  0.
        5    1    3    3  502    0 -0.87245728018E+03 -0.77007701700E+03 -0.14365865772E+03  0.11725443351E+04  0.46999998093E+01 0.  1.
       -5    1    3    3    0  502  0.87245728018E+03  0.77007701700E+03 -0.68014611599E+03  0.13478950801E+04  0.46999998093E+01 0. -1.
</event>
<event>
 5   0  0.1393026E-05  0.2407172E+04  0.7818609E-02  0.8436823E-01
        1   -1    0    0  501    0  0.00000000000E+00  0.00000000000E+00  0.12932321986E+04  0.12932321986E+04  0.50400001928E-02 0. -1.
       -1   -1    0    0    0  501  0.00000000000E+00  0.00000000000E+00 -0.11201537822E+04  0.11201537822E+04  0.50400001928E-02 0.  1.
    10030    2    1    2    0    0  0.00000000000E+00  0.00000000000E+00  0.17307841639E+03  0.24133859808E+04  0.24071717334E+04 0.  0.
        4    1    3    3  502    0  0.40450212588E+03  0.88483896901E+03 -0.62384862117E+03  0.11557468088E+04  0.12699999809E+01 0.  1.
       -4    1    3    3    0  502 -0.40450212588E+03 -0.88483896901E+03  0.79692703756E+03  0.12576391720E+04  0.12699999809E+01 0. -1.
</event>
<event>
 5   0  0.1407158E-05  0.2402173E+04  0.7818609E-02  0.8438690E-01
        1   -1    0    0  501    0  0.00000000000E+00  0.00000000000E+00  0.18107790854E+04  0.18107790854E+04  0.50400001928E-02 0.  1.
       -1   -1    0    0    0  501  0.00000000000E+00  0.00000000000E+00 -0.79667882156E+03  0.79667882158E+03  0.50400001928E-02 0. -1.
    10030    2    1    2    0    0  0.00000000000E+00  0.00000000000E+00  0.10141002639E+04  0.26074579070E+04  0.24021734724E+04 0.  0.
        1    1    3    3  502    0  0.30578140339E+03  0.60054394136E+03  0.15862234109E+04  0.17234442264E+04  0.50400001928E-02 0.  1.
       -1    1    3    3    0  502 -0.30578140339E+03 -0.60054394136E+03 -0.57212314702E+03  0.88401368063E+03  0.50400001928E-02 0. -1.
</event>
<event>
 5   0  0.1407158E-05  0.2316938E+04  0.7818609E-02  0.8471273E-01
        1   -1    0    0  501    0  0.00000000000E+00  0.00000000000E+00  0.24352600634E+04  0.24352600634E+04  0.50400001928E-02 0.  1.
       -1   -1    0    0    0  501  0.00000000000E+00  0.00000000000E+00 -0.55109109159E+03  0.55109109162E+03  0.50400001928E-02 0. -1.
    10030    2    1    2    0    0  0.00000000000E+00  0.00000000000E+00  0.18841689718E+04  0.29863511550E+04  0.23169377434E+04 0.  0.
        1    1    3    3  502    0 -0.60614325557E+03 -0.28173352542E+03 -0.27747425987E+03  0.72372328312E+03  0.50400001928E-02 0. -1.
       -1    1    3    3    0  502  0.60614325557E+03  0.28173352542E+03  0.21616432317E+04  0.22626278719E+04  0.50400001928E-02 0.  1.
</event>
<event>
 5   0  0.3320780E-05  0.2339036E+04  0.7818609E-02  0.8462687E-01
       -2   -1    0    0    0  501  0.00000000000E+00  0.00000000000E+00  0.13149887073E+04  0.13149887073E+04  0.25500000920E-02 0.  1.
        2   -1    0    0  501    0  0.00000000000E+00  0.00000000000E+00 -0.10401399092E+04  0.10401399092E+04  0.25500000920E-02 0. -1.
    10030    2    1    2    0    0  0.00000000000E+00  0.00000000000E+00  0.27484879806E+03  0.23551286165E+04  0.23390358993E+04 0.  0.
        5    1    3    3  502    0  0.73245622675E+03 -0.89101220083E+03  0.33202928112E+03  0.12002751350E+04  0.46999998093E+01 0.  1.
       -5    1    3    3    0  502 -0.73245622675E+03  0.89101220083E+03 -0.57180483064E+02  0.11548534815E+04  0.46999998093E+01 0. -1.
</event>
<event>
 5   0  0.3345974E-05  0.2313386E+04  0.7818609E-02  0.8472662E-01
       -2   -1    0    0    0  501  0.00000000000E+00  0.00000000000E+00  0.93173359622E+03  0.93173359622E+03  0.25500000920E-02 0.  1.
        2   -1    0    0  501    0  0.00000000000E+00  0.00000000000E+00 -0.14359675523E+04  0.14359675523E+04  0.25500000920E-02 0. -1.
    10030    2    1    2    0    0  0.00000000000E+00  0.00000000000E+00 -0.50423395606E+03  0.23677011485E+04  0.23133864455E+04 0.  0.
        4    1    3    3  502    0 -0.91789373678E+03 -0.69852900067E+03 -0.34055121193E+03  0.12026838394E+04  0.12699999809E+01 0.  1.
       -4    1    3    3    0  502  0.91789373678E+03  0.69852900067E+03 -0.16368274413E+03  0.11650173091E+04  0.12699999809E+01 0. -1.
</event>
<event>
 5   0  0.1434943E-05  0.2393018E+04  0.7818609E-02  0.8442122E-01
       -1   -1    0    0    0  501  0.00000000000E+00  0.00000000000E+00  0.70628096692E+03  0.70628096694E+03  0.50400001928E-02 0. -1.
        1   -1    0    0  501    0  0.00000000000E+00  0.00000000000E+00 -0.20270030174E+04  0.20270030174E+04  0.50400001928E-02 0.  1.
    10030    2    1    2    0    0  0.00000000000E+00  0.00000000000E+00 -0.13207220505E+04  0.27332839843E+04  0.23930178864E+04 0.  0.
        5    1    3    3  502    0 -0.18015075664E+03 -0.11774485844E+04 -0.78944428260E+03  0.14290149857E+04  0.46999998093E+01 0.  1.
       -5    1    3    3    0  502  0.18015075664E+03  0.11774485844E+04 -0.53127776788E+03  0.13042689986E+04  0.46999998093E+01 0. -1.
</event>
<event>
 5   0  0.3345974E-05  0.2105624E+04  0.7818609E-02  0.8558770E-01
       -2   -1    0    0    0  501  0.00000000000E+00  0.00000000000E+00  0.50199418903E+03  0.50199418904E+03  0.25500000920E-02 0. -1.
        2   -1    0    0  501    0  0.00000000000E+00  0.00000000000E+00 -0.22080188466E+04  0.22080188466E+04  0.25500000920E-02 0.  1.
    10030    2    1    2    0    0  0.00000000000E+00  0.00000000000E+00 -0.17060246576E+04  0.27100130356E+04  0.21056235469E+04 0.  0.
        4    1    3    3  502    0  0.61689166721E+02 -0.10462381556E+04 -0.72436547430E+03  0.12740199310E+04  0.12699999809E+01 0.  1.
       -4    1    3    3    0  502 -0.61689166721E+02  0.10462381556E+04 -0.98165918325E+03  0.14359931046E+04  0.12699999809E+01 0. -1.
</event>
<event>
 5   0  0.1506985E-05  0.2401044E+04  0.7818609E-02  0.8439113E-01
        1   -1    0    0  501    0  0.00000000000E+00  0.00000000000E+00  0.81492326109E+03  0.81492326110E+03  0.50400001928E-02 0. -1.
       -1   -1    0    0    0  501  0.00000000000E+00  0.00000000000E+00 -0.17685751544E+04  0.17685751544E+04  0.50400001928E-02 0.  1.
    10030    2    1    2    0    0  0.00000000000E+00  0.00000000000E+00 -0.95365189329E+03  0.25834984155E+04  0.24010439665E+04 0.  0.
        3    1    3    3  502    0 -0.77341078351E+03 -0.73369771097E+03  0.11719093915E+03  0.10724785767E+04  0.10100000352E+00 0. -1.
       -3    1    3    3    0  502  0.77341078351E+03  0.73369771097E+03 -0.10708428324E+04  0.15110198388E+04  0.10100000352E+00 0.  1.
</event>
<event>
 5   0  0.3310037E-05  0.2379886E+04  0.7818609E-02  0.8447073E-01
        2   -1    0    0  501    0  0.00000000000E+00  0.00000000000E+00  0.23319761043E+04  0.23319761043E+04  0.25500000920E-02 0. -1.
       -2   -1    0    0    0  501  0.00000000000E+00  0.00000000000E+00 -0.60719480822E+03  0.60719480822E+03  0.25500000920E-02 0.  1.
    10030    2    1    2    0    0  0.00000000000E+00  0.00000000000E+00  0.17247812961E+04  0.29391709126E+04  0.23798855296E+04 0.  0.
        2    1    3    3  502    0 -0.99733040628E+03 -0.68745749906E+02  0.65290852168E+02  0.10018267379E+04  0.25500000920E-02 0.  1.
       -2    1    3    3    0  502  0.99733040628E+03  0.68745749906E+02  0.16594904440E+04  0.19373441746E+04  0.25500000920E-02 0. -1.
</event>
<event>
 5   0  0.3215208E-05  0.2600721E+04  0.7818609E-02  0.8367956E-01
       -2   -1    0    0    0  501  0.00000000000E+00  0.00000000000E+00  0.14251868802E+04  0.14251868802E+04  0.25500000920E-02 0. -1.
        2   -1    0    0  501    0  0.00000000000E+00  0.00000000000E+00 -0.11864671947E+04  0.11864671947E+04  0.25500000920E-02 0.  1.
    10030    2    1    2    0    0  0.00000000000E+00  0.00000000000E+00  0.23871968555E+03  0.26116540749E+04  0.26007210382E+04 0.  0.
        1    1    3    3  502    0  0.11396316840E+04  0.34224938547E+03 -0.40728975302E+03  0.12576883398E+04  0.50400001928E-02 0.  1.
       -1    1    3    3    0  502 -0.11396316840E+04 -0.34224938547E+03  0.64600943857E+03  0.13539657351E+04  0.50400001928E-02 0. -1.
</event>
<event>
 5   0  0.1393026E-05  0.2267894E+04  0.7818609E-02  0.8490689E-01
        1   -1    0    0  501    0  0.00000000000E+00  0.00000000000E+00  0.91165003841E+03  0.91165003843E+03  0.50400001928E-02 0. -1.
       -1   -1    0    0    0  501  0.00000000000E+00  0.00000000000E+00 -0.14104486792E+04  0.14104486792E+04  0.50400001928E-02 0.  1.
    10030    2    1    2    0    0  0.00000000000E+00  0.00000000000E+00 -0.49879864075E+03  0.23220987176E+04  0.22678938181E+04 0.  0.
        4    1    3    3  502    0 -0.79707944806E+03 -0.32569358184E+03  0.50608560716E+03  0.99876734550E+03  0.12699999809E+01 0. -1.
       -4    1    3    3    0  502  0.79707944806E+03  0.32569358184E+03 -0.10048842479E+04  0.13233313721E+04  0.12699999809E+01 0.  1.
</event>
<event>
 5   0  0.3215208E-05  0.2401689E+04  0.7818609E-02  0.8438872E-01
        2   -1    0    0  501    0  0.00000000000E+00  0.00000000000E+00  0.81695305531E+03  0.81695305531E+03  0.25500000920E-02 0.  1.
       -2   -1    0    0    0  501  0.00000000000E+00  0.00000000000E+00 -0.17651286084E+04  0.17651286084E+04  0.25500000920E-02 0. -1.
    10030    2    1    2    0    0  0.00000000000E+00  0.00000000000E+00 -0.94817555308E+03  0.25820816637E+04  0.24016887472E+04 0.  0.
        1    1    3    3  502    0 -0.60147164226E+03  0.60677213843E+03 -0.13813225142E+04  0.16241897834E+04  0.50400001928E-02 0. -1.
       -1    1    3    3    0  502  0.60147164226E+03 -0.60677213843E+03  0.43314696107E+03  0.95789188029E+03  0.50400001928E-02 0.  1.
</event>
<event>
 5   0  0.1401596E-05  0.2402099E+04  0.7818609E-02  0.8438718E-01
        1   -1    0    0  501    0  0.00000000000E+00  0.00000000000E+00  0.15636801271E+04  0.15636801272E+04  0.50400001928E-02 0. -1.
       -1   -1    0    0    0  501  0.00000000000E+00  0.00000000000E+00 -0.92251631970E+03  0.92251631971E+03  0.50400001928E-02 0.  1.
    10030    2    1    2    0    0  0.00000000000E+00  0.00000000000E+00  0.64116380745E+03  0.24861964469E+04  0.24020994452E+04 0.  0.
        2    1    3    3  502    0 -0.14267477774E+03 -0.46525734470E+03  0.14570678757E+04  0.15361859534E+04  0.25500000920E-02 0. -1.
       -2    1    3    3    0  502  0.14267477774E+03  0.46525734470E+03 -0.81590406828E+03  0.95001049344E+03  0.25500000920E-02 0.  1.
</event>
<event>
 5   0  0.3345974E-05  0.2399982E+04  0.7818609E-02  0.8439510E-01
        2   -1    0    0  501    0  0.00000000000E+00  0.00000000000E+00  0.26034630706E+04  0.26034630706E+04  0.25500000920E-02 0.  1.
       -2   -1    0    0    0  501  0.00000000000E+00  0.00000000000E+00 -0.55310119920E+03  0.55310119920E+03  0.25500000920E-02 0. -1.
    10030    2    1    2    0    0  0.00000000000E+00  0.00000000000E+00  0.20503618714E+04  0.31565642698E+04  0.23999821220E+04 0.  0.
        4    1    3    3  502    0  0.63407462875E+03 -0.10620347056E+03 -0.30747251032E+03  0.71265052409E+03  0.12699999809E+01 0. -1.
       -4    1    3    3    0  502 -0.63407462875E+03  0.10620347056E+03  0.23578343817E+04  0.24439137457E+04  0.12699999809E+01 0.  1.
</event>
<event>
 5   0  0.3347728E-05  0.2341063E+04  0.7818609E-02  0.8461904E-01
        2   -1    0    0  501    0  0.00000000000E+00  0.00000000000E+00  0.22009639665E+04  0.22009639665E+04  0.25500000920E-02 0. -1.
       -2   -1    0    0    0  501  0.00000000000E+00  0.00000000000E+00 -0.62251997140E+03  0.62251997140E+03  0.25500000920E-02 0.  1.
    10030    2    1    2    0    0  0.00000000000E+00  0.00000000000E+00  0.15784439951E+04  0.28234839379E+04  0.23410630282E+04 0.  0.
        3    1    3    3  502    0  0.10039130558E+04  0.55270922376E+03  0.10766996729E+04  0.15724538485E+04  0.10100000352E+00 0.  1.
       -3    1    3    3    0  502 -0.10039130558E+04 -0.55270922376E+03  0.50174432212E+03  0.12510300894E+04  0.10100000352E+00 0. -1.
</event>
<event>
 5   0  0.1401596E-05  0.2316230E+04  0.7818609E-02  0.8471549E-01
        1   -1    0    0  501    0  0.00000000000E+00  0.00000000000E+00  0.13672299912E+04  0.13672299912E+04  0.50400001928E-02 0.  1.
       -1   -1    0    0    0  501  0.00000000000E+00  0.00000000000E+00 -0.98098369829E+03  0.98098369831E+03  0.50400001928E-02 0. -1.
    10030    2    1    2    0    0  0.00000000000E+00  0.00000000000E+00  0.38624629288E+03  0.23482136895E+04  0.23162299827E+04 0.  0.
        2    1    3    3  502    0 -0.78440011491E+03 -0.35703131865E+03 -0.59117122693E+03  0.10451020631E+04  0.25500000920E-02 0. -1.
       -2    1    3    3    0  502  0.78440011491E+03  0.35703131865E+03  0.97741751982E+03  0.13031116264E+04  0.25500000920E-02 0.  1.
</event>
<event>
 5   0  0.1393026E-05  0.2394111E+04  0.7818609E-02  0.8441712E-01
       -1   -1    0    0    0  501  0.00000000000E+00  0.00000000000E+00  0.71918947766E+03  0.71918947768E+03  0.50400001928E-02 0.  1.
        1   -1    0    0  501    0  0.00000000000E+00  0.00000000000E+00 -0.19924403224E+04  0.19924403224E+04  0.50400001928E-02 0. -1.
    10030    2    1    2    0    0  0.00000000000E+00  0.00000000000E+00 -0.12732508448E+04  0.27116298001E+04  0.23941112044E+04 0.  0.
        4    1    3    3  502    0 -0.50272550255E+03  0.56747366792E+03  0.41261636568E+03  0.86314145586E+03  0.12699999809E+01 0.  1.
       -4    1    3    3    0  502  0.50272550255E+03 -0.56747366792E+03 -0.16858672105E+04  0.18484883443E+04  0.12699999809E+01 0. -1.
</event>
<event>
 5   0  0.1506985E-05  0.2303954E+04  0.7818609E-02  0.8476364E-01
        1   -1    0    0  501    0  0.00000000000E+00  0.00000000000E+00  0.27911506884E+04  0.27911506884E+04  0.50400001928E-02 0. -1.
       -1   -1    0    0    0  501  0.00000000000E+00  0.00000000000E+00 -0.47544946879E+03  0.47544946882E+03  0.50400001928E-02 0.  1.
    10030    2    1    2    0    0  0.00000000000E+00  0.00000000000E+00  0.23157012196E+04  0.32666001572E+04  0.23039540900E+04 0.  0.
        3    1    3    3  502    0  0.11100659955E+04  0.23283586072E+03  0.87219507176E+03  0.14307981359E+04  0.10100000352E+00 0.  1.
       -3    1    3    3    0  502 -0.11100659955E+04 -0.23283586072E+03  0.14435061478E+04  0.18358020213E+04  0.10100000352E+00 0. -1.
</event>
<event>
 5   0  0.1506985E-05  0.2419865E+04  0.7818609E-02  0.8432104E-01
        1   -1    0    0  501    0  0.00000000000E+00  0.00000000000E+00  0.10483495625E+04  0.10483495625E+04  0.50400001928E-02 0.  1.
       -1   -1    0    0    0  501  0.00000000000E+00  0.00000000000E+00 -0.13964199700E+04  0.13964199701E+04  0.50400001928E-02 0. -1.
    10030    2    1    2    0    0  0.00000000000E+00  0.00000000000E+00 -0.34807040753E+03  0.24447695326E+04  0.24198646778E+04 0.  0.
        3    1    3    3  502    0  0.35353080931E+03  0.60990260799E+03 -0.11675025015E+04  0.13638281877E+04  0.10100000352E+00 0.  1.
       -3    1    3    3    0  502 -0.35353080931E+03 -0.60990260799E+03  0.81943209393E+03  0.10809413449E+04  0.10100000352E+00 0. -1.
</event>
<event>
 5   0  0.3215208E-05  0.2133235E+04  0.7818609E-02  0.8546743E-01
       -2   -1    0    0    0  501  0.00000000000E+00  0.00000000000E+00  0.49566012759E+03  0.49566012759E+03  0.25500000920E-02 0.  1.
        2   -1    0    0  501    0  0.00000000000E+00  0.00000000000E+00 -0.22952672505E+04  0.22952672505E+04  0.25500000920E-02 0. -1.
    10030    2    1    2    0    0  0.00000000000E+00  0.00000000000E+00 -0.17996071229E+04  0.27909273781E+04  0.21332345940E+04 0.  0.
        1    1    3    3  502    0  0.99051354871E+03  0.21822166229E+03 -0.46799327136E+03  0.11170297606E+04  0.50400001928E-02 0.  1.
       -1    1    3    3    0  502 -0.99051354871E+03 -0.21822166229E+03 -0.13316138515E+04  0.16738976175E+04  0.50400001928E-02 0. -1.
</event>
<event>
 5   0  0.3320780E-05  0.2379286E+04  0.7818609E-02  0.8447299E-01
        2   -1    0    0  501    0  0.00000000000E+00  0.00000000000E+00  0.10146308578E+04  0.10146308578E+04  0.25500000920E-02 0.  1.
       -2   -1    0    0    0  501  0.00000000000E+00  0.00000000000E+00 -0.13948430894E+04  0.13948430894E+04  0.25500000920E-02 0. -1.
    10030    2    1    2    0    0  0.00000000000E+00  0.00000000000E+00 -0.38021223167E+03  0.24094739472E+04  0.23792863134E+04 0.  0.
        5    1    3    3  502    0 -0.11185040734E+04  0.23762323834E+03  0.14225388549E+03  0.11522909457E+04  0.46999998093E+01 0. -1.
       -5    1    3    3    0  502  0.11185040734E+04 -0.23762323834E+03 -0.52246611716E+03  0.12571830015E+04  0.46999998093E+01 0.  1.
</event>
<event>
 5   0  0.3310037E-05  0.2400620E+04  0.7818609E-02  0.8439271E-01
       -2   -1    0    0    0  501  0.00000000000E+00  0.00000000000E+00  0.80946200984E+03  0.80946200984E+03  0.25500000920E-02 0. -1.
        2   -1    0    0  501    0  0.00000000000E+00  0.00000000000E+00 -0.17798792115E+04  0.17798792115E+04  0.25500000920E-02 0.  1.
    10030    2    1    2    0    0  0.00000000000E+00  0.00000000000E+00 -0.97041720168E+03  0.25893412214E+04  0.24006204230E+04 0.  0.
        2    1    3    3  502    0  0.32872696524E+03 -0.11221570703E+04 -0.19289304995E+03  0.11851184062E+04  0.25500000920E-02 0.  1.
       -2    1    3    3    0  502 -0.32872696524E+03  0.11221570703E+04 -0.77752415173E+03  0.14042228151E+04  0.25500000920E-02 0. -1.
</event>
<event>
 5   0  0.1407158E-05  0.2285295E+04  0.7818609E-02  0.8483742E-01
        1   -1    0    0  501    0  0.00000000000E+00  0.00000000000E+00  0.13442093867E+04  0.13442093867E+04  0.50400001928E-02 0. -1.
       -1   -1    0    0    0  501  0.00000000000E+00  0.00000000000E+00 -0.97130927948E+03  0.97130927949E+03  0.50400001928E-02 0.  1.
    10030    2    1    2    0    0  0.00000000000E+00  0.00000000000E+00  0.37290010725E+03  0.23155186662E+04  0.22852947739E+04 0.  0.
        1    1    3    3  502    0  0.29167267971E+03  0.65335584108E+03  0.10891288109E+04  0.13031302214E+04  0.50400001928E-02 0. -1.
       -1    1    3    3    0  502 -0.29167267971E+03 -0.65335584108E+03 -0.71622870368E+03  0.10123884448E+04  0.50400001928E-02 0.  1.
</event>
<event>
 5   0  0.3310037E-05  0.2407649E+04  0.7818609E-02  0.8436646E-01
       -2   -1    0    0    0  501  0.00000000000E+00  0.00000000000E+00  0.10165234029E+04  0.10165234029E+04  0.25500000920E-02 0. -1.
        2   -1    0    0  501    0  0.00000000000E+00  0.00000000000E+00 -0.14256365847E+04  0.14256365847E+04  0.25500000920E-02 0.  1.
    10030    2    1    2    0    0  0.00000000000E+00  0.00000000000E+00 -0.40911318180E+03  0.24421599875E+04  0.24076486058E+04 0.  0.
        2    1    3    3  502    0  0.26533596970E+03  0.11643948777E+04 -0.50811034914E+02  0.11953243783E+04  0.25500000920E-02 0.  1.
       -2    1    3    3    0  502 -0.26533596970E+03 -0.11643948777E+04 -0.35830214689E+03  0.12468356092E+04  0.25500000920E-02 0. -1.
</event>
<event>
 5   0  0.1407158E-05  0.2463087E+04  0.7818609E-02  0.8416255E-01
       -1   -1    0    0    0  501  0.00000000000E+00  0.00000000000E+00  0.88009330517E+03  0.88009330518E+03  0.50400001928E-02 0. -1.
        1   -1    0    0  501    0  0.00000000000E+00  0.00000000000E+00 -0.17233392249E+04  0.17233392249E+04  0.50400001928E-02 0.  1.
    10030    2    1    2    0    0  0.00000000000E+00  0.00000000000E+00 -0.84324591973E+03  0.26034325301E+04  0.24630869367E+04 0.  0.
        1    1    3    3  502    0  0.38461089962E+03  0.41897164937E+03 -0.15762184477E+04  0.16756871373E+04  0.50400001928E-02 0.  1.
       -1    1    3    3    0  502 -0.38461089962E+03 -0.41897164937E+03  0.73297252798E+03  0.92774539281E+03  0.50400001928E-02 0. -1.
</event>
<event>
 5   0  0.1434943E-05  0.2352139E+04  0.7818609E-02  0.8457643E-01
       -1   -1    0    0    0  501  0.00000000000E+00  0.00000000000E+00  0.11038077048E+04  0.11038077048E+04  0.50400001928E-02 0. -1.
        1   -1    0    0  501    0  0.00000000000E+00  0.00000000000E+00 -0.12530619245E+04  0.12530619245E+04  0.50400001928E-02 0.  1.
    10030    2    1    2    0    0  0.00000000000E+00  0.00000000000E+00 -0.14925421972E+03  0.23568696293E+04  0.23521389473E+04 0.  0.
        5    1    3    3  502    0 -0.36563014858E+03 -0.43260584377E+03  0.95811747527E+03  0.11130338755E+04  0.46999998093E+01 0. -1.
       -5    1    3    3    0  502  0.36563014858E+03  0.43260584377E+03 -0.11073716950E+04  0.12438357538E+04  0.46999998093E+01 0.  1.
</event>
<event>
 5   0  0.3345974E-05  0.2412000E+04  0.7818609E-02  0.8435024E-01
       -2   -1    0    0    0  501  0.00000000000E+00  0.00000000000E+00  0.14982135889E+04  0.14982135889E+04  0.25500000920E-02 0.  1.
        2   -1    0    0  501    0  0.00000000000E+00  0.00000000000E+00 -0.97078053103E+03  0.97078053103E+03  0.25500000920E-02 0. -1.
    10030    2    1    2    0    0  0.00000000000E+00  0.00000000000E+00  0.52743305789E+03  0.24689941200E+04  0.24120004838E+04 0.  0.
        4    1    3    3  502    0 -0.10997444086E+03  0.89124284254E+03 -0.56030611230E+03  0.10584671626E+04  0.12699999809E+01 0. -1.
       -4    1    3    3    0  502  0.10997444086E+03 -0.89124284254E+03  0.10877391702E+04  0.14105269573E+04  0.12699999809E+01 0.  1.
</event>
<event>
 5   0  0.1506985E-05  0.2388010E+04  0.7818609E-02  0.8444006E-01
        1   -1    0    0  501    0  0.00000000000E+00  0.00000000000E+00  0.20562298533E+04  0.20562298533E+04  0.50400001928E-02 0.  1.
       -1   -1    0    0    0  501  0.00000000000E+00  0.00000000000E+00 -0.69333078916E+03  0.69333078918E+03  0.50400001928E-02 0. -1.
    10030    2    1    2    0    0  0.00000000000E+00  0.00000000000E+00  0.13628990641E+04  0.27495606425E+04  0.23880096038E+04 0.  0.
        3    1    3    3  502    0  0.10729603563E+04 -0.12095945903E+03  0.94604156439E+02  0.10838934789E+04  0.10100000352E+00 0. -1.
       -3    1    3    3    0  502 -0.10729603563E+04  0.12095945903E+03  0.12682949077E+04  0.16656671636E+04  0.10100000352E+00 0.  1.
</event>
<event>
 5   0  0.1147362E-05  0.2589848E+04  0.7818609E-02  0.8371658E-01
       -3   -1    0    0    0  501  0.00000000000E+00  0.00000000000E+00  0.16334514170E+04  0.16334514202E+04  0.10100000352E+00 0.  1.
        3   -1    0    0  501    0  0.00000000000E+00  0.00000000000E+00 -0.10265556164E+04  0.10265556214E+04  0.10100000352E+00 0. -1.
    10030    2    1    2    0    0  0.00000000000E+00  0.00000000000E+00  0.60689580058E+03  0.26600070416E+04  0.25898484412E+04 0.  0.
        1    1    3    3  502    0  0.45079078208E+03  0.19664734692E+03  0.15337910347E+04  0.16107133347E+04  0.50400001928E-02 0.  1.
       -1    1    3    3    0  502 -0.45079078208E+03 -0.19664734692E+03 -0.92689523414E+03  0.10492937069E+04  0.50400001928E-02 0. -1.
</event>
<event>
 5   0  0.1407158E-05  0.2383216E+04  0.7818609E-02  0.8445814E-01
        1   -1    0    0  501    0  0.00000000000E+00  0.00000000000E+00  0.21239219316E+04  0.21239219316E+04  0.50400001928E-02 0. -1.
       -1   -1    0    0    0  501  0.00000000000E+00  0.00000000000E+00 -0.66854127210E+03  0.66854127212E+03  0.50400001928E-02 0.  1.
    10030    2    1    2    0    0  0.00000000000E+00  0.00000000000E+00  0.14553806595E+04  0.27924632037E+04  0.23832158694E+04 0.  0.
        1    1    3    3  502    0  0.57204836594E+03  0.12155840141E+03  0.19442014166E+04  0.20302548919E+04  0.50400001928E-02 0. -1.
       -1    1    3    3    0  502 -0.57204836594E+03 -0.12155840141E+03 -0.48882075711E+03  0.76220831177E+03  0.50400001928E-02 0.  1.
</event>
<event>
 5   0  0.1401596E-05  0.2403574E+04  0.7818609E-02  0.8438167E-01
       -1   -1    0    0    0  501  0.00000000000E+00  0.00000000000E+00  0.14750504547E+04  0.14750504548E+04  0.50400001928E-02 0. -1.
        1   -1    0    0  501    0  0.00000000000E+00  0.00000000000E+00 -0.97914718773E+03  0.97914718774E+03  0.50400001928E-02 0.  1.
    10030    2    1    2    0    0  0.00000000000E+00  0.00000000000E+00  0.49590326702E+03  0.24541976425E+04  0.24035735933E+04 0.  0.
        2    1    3    3  502    0  0.75735928792E+02  0.76918303601E+03 -0.69171005015E+03  0.10372276834E+04  0.25500000920E-02 0.  1.
       -2    1    3    3    0  502 -0.75735928792E+02 -0.76918303601E+03  0.11876133172E+04  0.14169699591E+04  0.25500000920E-02 0. -1.
</event>
<event>
 5   0  0.1393026E-05  0.2414592E+04  0.7818609E-02  0.8434061E-01
        1   -1    0    0  501    0  0.00000000000E+00  0.00000000000E+00  0.14168082319E+04  0.14168082319E+04  0.50400001928E-02 0. -1.
       -1   -1    0    0    0  501  0.00000000000E+00  0.00000000000E+00 -0.10287655768E+04  0.10287655768E+04  0.50400001928E-02 0.  1.
    10030    2    1    2    0    0  0.00000000000E+00  0.00000000000E+00  0.38804265508E+03  0.24455738087E+04  0.24145919223E+04 0.  0.
        4    1    3    3  502    0  0.61897682030E+03  0.97994730338E+03  0.53619174841E+03  0.12770795690E+04  0.12699999809E+01 0. -1.
       -4    1    3    3    0  502 -0.61897682030E+03 -0.97994730338E+03 -0.14814909333E+03  0.11684942397E+04  0.12699999809E+01 0.  1.
</event>
<event>
 5   0  0.1434943E-05  0.2390605E+04  0.7818609E-02  0.8443029E-01
        1   -1    0    0  501    0  0.00000000000E+00  0.00000000000E+00  0.10943107847E+04  0.10943107847E+04  0.50400001928E-02 0.  1.
       -1   -1    0    0    0  501  0.00000000000E+00  0.00000000000E+00 -0.13056146895E+04  0.13056146895E+04  0.50400001928E-02 0. -1.
    10030    2    1    2    0    0  0.00000000000E+00  0.00000000000E+00 -0.21130390486E+03  0.23999254742E+04  0.23906051413E+04 0.  0.
        5    1    3    3  502    0 -0.36318373714E+03  0.59437832255E+03  0.86949402532E+03  0.11141050073E+04  0.46999998093E+01 0.  1.
       -5    1    3    3    0  502  0.36318373714E+03 -0.59437832255E+03 -0.10807979302E+04  0.12858204669E+04  0.46999998093E+01 0. -1.
</event>
<event>
 5   0  0.3215208E-05  0.2421623E+04  0.7818609E-02  0.8431452E-01
        2   -1    0    0  501    0  0.00000000000E+00  0.00000000000E+00  0.99828197616E+03  0.99828197616E+03  0.25500000920E-02 0.  1.
       -2   -1    0    0    0  501  0.00000000000E+00  0.00000000000E+00 -0.14685872460E+04  0.14685872460E+04  0.25500000920E-02 0. -1.
    10030    2    1    2    0    0  0.00000000000E+00  0.00000000000E+00 -0.47030526982E+03  0.24668692221E+04  0.24216227436E+04 0.  0.
        1    1    3    3  502    0 -0.11934011378E+03  0.25864979063E+03 -0.14339681632E+04  0.14619871648E+04  0.50400001928E-02 0. -1.
       -1    1    3    3    0  502  0.11934011378E+03 -0.25864979063E+03  0.96366289341E+03  0.10048820573E+04  0.50400001928E-02 0.  1.
</event>
<event>
 5   0  0.1401596E-05  0.2376994E+04  0.7818609E-02  0.8448167E-01
        1   -1    0    0  501    0  0.00000000000E+00  0.00000000000E+00  0.13408936884E+04  0.13408936884E+04  0.50400001928E-02 0. -1.
       -1   -1    0    0    0  501  0.00000000000E+00  0.00000000000E+00 -0.10534209365E+04  0.10534209365E+04  0.50400001928E-02 0.  1.
    10030    2    1    2    0    0  0.00000000000E+00  0.00000000000E+00  0.28747275188E+03  0.23943146249E+04  0.23769943079E+04 0.  0.
        2    1    3    3  502    0  0.10109401996E+03  0.96368128531E+03 -0.54948167836E+03  0.11139262702E+04  0.25500000920E-02 0.  1.
       -2    1    3    3    0  502 -0.10109401996E+03 -0.96368128531E+03  0.83695443025E+03  0.12803883547E+04  0.25500000920E-02 0. -1.
</event>
<event>
 5   0  0.3347728E-05  0.2086223E+04  0.7818609E-02  0.8567336E-01
        2   -1    0    0  501    0  0.00000000000E+00  0.00000000000E+00  0.10406854809E+04  0.10406854809E+04  0.25500000920E-02 0.  1.
       -2   -1    0    0    0  501  0.00000000000E+00  0.00000000000E+00 -0.10455436450E+04  0.10455436450E+04  0.25500000920E-02 0. -1.
    10030    2    1    2    0    0  0.00000000000E+00  0.00000000000E+00 -0.48581641169E+01  0.20862291260E+04  0.20862234694E+04 0.  0.
        3    1    3    3  502    0  0.54265921623E+03  0.17111266466E+03  0.87182926457E+03  0.10410786933E+04  0.10100000352E+00 0.  1.
       -3    1    3    3    0  502 -0.54265921623E+03 -0.17111266466E+03 -0.87668742869E+03  0.10451504326E+04  0.10100000352E+00 0. -1.
</event>
<event>
 5   0  0.1393026E-05  0.2385061E+04  0.7818609E-02  0.8445118E-01
       -1   -1    0    0    0  501  0.00000000000E+00  0.00000000000E+00  0.56958742197E+03  0.56958742200E+03  0.50400001928E-02 0.  1.
        1   -1    0    0  501    0  0.00000000000E+00  0.00000000000E+00 -0.24967693304E+04  0.24967693304E+04  0.50400001928E-02 0. -1.
    10030    2    1    2    0    0  0.00000000000E+00  0.00000000000E+00 -0.19271819084E+04  0.30663567524E+04  0.23850605076E+04 0.  0.
        4    1    3    3  502    0 -0.71734131560E+03  0.10878052875E+03 -0.21803601595E+04  0.22979085718E+04  0.12699999809E+01 0. -1.
       -4    1    3    3    0  502  0.71734131560E+03 -0.10878052875E+03  0.25317825107E+03  0.76844818056E+03  0.12699999809E+01 0.  1.
</event>
<event>
 5   0  0.3215208E-05  0.2395143E+04  0.7818609E-02  0.8441324E-01
        2   -1    0    0  501    0  0.00000000000E+00  0.00000000000E+00  0.10330304601E+04  0.10330304601E+04  0.25500000920E-02 0. -1.
       -2   -1    0    0    0  501  0.00000000000E+00  0.00000000000E+00 -0.13883203721E+04  0.13883203721E+04  0.25500000920E-02 0.  1.
    10030    2    1    2    0    0  0.00000000000E+00  0.00000000000E+00 -0.35528991199E+03  0.24213508322E+04  0.23951427789E+04 0.  0.
        1    1    3    3  502    0 -0.57521747075E+03 -0.35054341252E+03  0.82335188087E+03  0.10637970401E+04  0.50400001928E-02 0. -1.
       -1    1    3    3    0  502  0.57521747075E+03  0.35054341252E+03 -0.11786417929E+04  0.13575537922E+04  0.50400001928E-02 0.  1.
</event>
<event>
 5   0  0.1506985E-05  0.2383794E+04  0.7818609E-02  0.8445596E-01
        1   -1    0    0  501    0  0.00000000000E+00  0.00000000000E+00  0.59296082014E+03  0.59296082017E+03  0.50400001928E-02 0. -1.
       -1   -1    0    0    0  501  0.00000000000E+00  0.00000000000E+00 -0.23958052312E+04  0.23958052313E+04  0.50400001928E-02 0.  1.
    10030    2    1    2    0    0  0.00000000000E+00  0.00000000000E+00 -0.18028444111E+04  0.29887660514E+04  0.23837941479E+04 0.  0.
        3    1    3    3  502    0  0.13646744986E+03  0.10738134617E+04 -0.27588522522E+03  0.11170547807E+04  0.10100000352E+00 0. -1.
       -3    1    3    3    0  502 -0.13646744986E+03 -0.10738134617E+04 -0.15269591859E+04  0.18717112707E+04  0.10100000352E+00 0.  1.
</event>
<event>
 5   0  0.3345974E-05  0.2396996E+04  0.7818609E-02  0.8440629E-01
        2   -1    0    0  501    0  0.00000000000E+00  0.00000000000E+00  0.13957603026E+04  0.13957603026E+04  0.25500000920E-02 0.  1.
       -2   -1    0    0    0  501  0.00000000000E+00  0.00000000000E+00 -0.10291143285E+04  0.10291143285E+04  0.25500000920E-02 0. -1.
    10030    2    1    2    0    0  0.00000000000E+00  0.00000000000E+00  0.36664597416E+03  0.24248746311E+04  0.23969955582E+04 0.  0.
        4    1    3    3  502    0 -0.92701643845E+03 -0.77025699285E+01  0.95174735006E+03  0.13286246415E+04  0.12699999809E+01 0.  1.
       -4    1    3    3    0  502  0.92701643845E+03  0.77025699285E+01 -0.58510137590E+03  0.10962499896E+04  0.12699999809E+01 0. -1.
</event>
<event>
 5   0  0.3345974E-05  0.2292511E+04  0.7818609E-02  0.8480880E-01
       -2   -1    0    0    0  501  0.00000000000E+00  0.00000000000E+00  0.11823652473E+04  0.11823652473E+04  0.25500000920E-02 0. -1.
        2   -1    0    0  501    0  0.00000000000E+00  0.00000000000E+00 -0.11112487140E+04  0.11112487140E+04  0.25500000920E-02 0.  1.
    10030    2    1    2    0    0  0.00000000000E+00  0.00000000000E+00  0.71116533244E+02  0.22936139613E+04  0.22925111651E+04 0.  0.
        4    1    3    3  502    0 -0.60603116220E+03  0.20452082355E+03  0.98722439147E+03  0.11763146470E+04  0.12699999809E+01 0. -1.
       -4    1    3    3    0  502  0.60603116220E+03 -0.20452082355E+03 -0.91610785823E+03  0.11172993143E+04  0.12699999809E+01 0.  1.
</event>
<event>
 5   0  0.3320780E-05  0.2402413E+04  0.7818609E-02  0.8438601E-01
       -2   -1    0    0    0  501  0.00000000000E+00  0.00000000000E+00  0.98285909402E+03  0.98285909403E+03  0.25500000920E-02 0. -1.
        2   -1    0    0  501    0  0.00000000000E+00  0.00000000000E+00 -0.14680609420E+04  0.14680609420E+04  0.25500000920E-02 0.  1.
    10030    2    1    2    0    0  0.00000000000E+00  0.00000000000E+00 -0.48520184797E+03  0.24509200360E+04  0.24024129932E+04 0.  0.
        5    1    3    3  502    0 -0.11401763785E+03 -0.10548768219E+04  0.33189416951E+03  0.11117288163E+04  0.46999998093E+01 0. -1.
       -5    1    3    3    0  502  0.11401763785E+03  0.10548768219E+04 -0.81709601748E+03  0.13391912197E+04  0.46999998093E+01 0.  1.
</event>
<event>
 5   0  0.3310037E-05  0.2398336E+04  0.7818609E-02  0.8440127E-01
        2   -1    0    0  501    0  0.00000000000E+00  0.00000000000E+00  0.16599156042E+04  0.16599156042E+04  0.25500000920E-02 0.  1.
       -2   -1    0    0    0  501  0.00000000000E+00  0.00000000000E+00 -0.86631167949E+03  0.86631167949E+03  0.25500000920E-02 0. -1.
    10030    2    1    2    0    0  0.00000000000E+00  0.00000000000E+00  0.79360392468E+03  0.25262272837E+04  0.23983363191E+04 0.  0.
        2    1    3    3  502    0  0.71006612441E+02 -0.73647565594E+03 -0.59721862383E+03  0.95084615762E+03  0.25500000920E-02 0. -1.
       -2    1    3    3    0  502 -0.71006612441E+02  0.73647565594E+03  0.13908225485E+04  0.15753811260E+04  0.25500000920E-02 0.  1.
</event>
<event>
 5   0  0.3347728E-05  0.2398784E+04  0.7818609E-02  0.8439959E-01
        2   -1    0    0  501    0  0.00000000000E+00  0.00000000000E+00  0.86255513965E+03  0.86255513965E+03  0.25500000920E-02 0. -1.
       -2   -1    0    0    0  501  0.00000000000E+00  0.00000000000E+00 -0.16677673802E+04  0.16677673802E+04  0.25500000920E-02 0.  1.
    10030    2    1    2    0    0  0.00000000000E+00  0.00000000000E+00 -0.80521224053E+03  0.25303225198E+04  0.23987841299E+04 0.  0.
        3    1    3    3  502    0 -0.10435439742E+04  0.58890923050E+03 -0.45785379847E+03  0.12827424601E+04  0.10100000352E+00 0. -1.
       -3    1    3    3    0  502  0.10435439742E+04 -0.58890923050E+03 -0.34735844206E+03  0.12475800597E+04  0.10100000352E+00 0.  1.
</event>
<event>
 5   0  0.3347728E-05  0.2384170E+04  0.7818609E-02  0.8445454E-01
        2   -1    0    0  501    0  0.00000000000E+00  0.00000000000E+00  0.15711923905E+04  0.15711923905E+04  0.25500000920E-02 0.  1.
       -2   -1    0    0    0  501  0.00000000000E+00  0.00000000000E+00 -0.90445078575E+03  0.90445078575E+03  0.25500000920E-02 0. -1.
    10030    2    1    2    0    0  0.00000000000E+00  0.00000000000E+00  0.66674160478E+03  0.24756431763E+04  0.23841696183E+04 0.  0.
        3    1    3    3  502    0 -0.40654671365E+03 -0.64467669896E+03 -0.61840909370E+03  0.98148769423E+03  0.10100000352E+00 0. -1.
       -3    1    3    3    0  502  0.40654671365E+03  0.64467669896E+03  0.12851506985E+04  0.14941554821E+04  0.10100000352E+00 0.  1.
</event>
<event>
 5   0  0.3310037E-05  0.2399547E+04  0.7818609E-02  0.8439673E-01
       -2   -1    0    0    0  501  0.00000000000E+00  0.00000000000E+00  0.13288811640E+04  0.13288811640E+04  0.25500000920E-02 0.  1.
        2   -1    0    0  501    0  0.00000000000E+00  0.00000000000E+00 -0.10832093838E+04  0.10832093838E+04  0.25500000920E-02 0. -1.
    10030    2    1    2    0    0  0.00000000000E+00  0.00000000000E+00  0.24567178021E+03  0.24120905478E+04  0.23995470796E+04 0.  0.
        2    1    3    3  502    0 -0.20539821253E+03  0.69431380024E+03  0.10844957730E+04  0.13039904757E+04  0.25500000920E-02 0.  1.
       -2    1    3    3    0  502  0.20539821253E+03 -0.69431380024E+03 -0.83882399284E+03  0.11081000721E+04  0.25500000920E-02 0. -1.
</event>
<event>
 5   0  0.1147362E-05  0.2403521E+04  0.7818609E-02  0.8438187E-01
        3   -1    0    0  501    0  0.00000000000E+00  0.00000000000E+00  0.22508766246E+04  0.22508766269E+04  0.10100000352E+00 0.  1.
       -3   -1    0    0    0  501  0.00000000000E+00  0.00000000000E+00 -0.64162911759E+03  0.64162912554E+03  0.10100000352E+00 0. -1.
    10030    2    1    2    0    0  0.00000000000E+00  0.00000000000E+00  0.16092475070E+04  0.28925057524E+04  0.24035207486E+04 0.  0.
        5    1    3    3  502    0 -0.62259780332E+03  0.63823529197E+03  0.17743002027E+04  0.19857330163E+04  0.46999998093E+01 0.  1.
       -5    1    3    3    0  502  0.62259780332E+03 -0.63823529197E+03 -0.16505269571E+03  0.90677273612E+03  0.46999998093E+01 0. -1.
</event>
<event>
 5   0  0.3320780E-05  0.2363052E+04  0.7818609E-02  0.8453467E-01
       -2   -1    0    0    0  501  0.00000000000E+00  0.00000000000E+00  0.78732782389E+03  0.78732782389E+03  0.25500000920E-02 0. -1.
        2   -1    0    0  501    0  0.00000000000E+00  0.00000000000E+00 -0.17730900127E+04  0.17730900127E+04  0.25500000920E-02 0.  1.
    10030    2    1    2    0    0  0.00000000000E+00  0.00000000000E+00 -0.98576218883E+03  0.25604178366E+04  0.23630515029E+04 0.  0.
        5    1    3    3  502    0  0.47938607277E+03 -0.99027934061E+03 -0.26190211738E+02  0.11005326876E+04  0.46999998093E+01 0. -1.
       -5    1    3    3    0  502 -0.47938607277E+03  0.99027934061E+03 -0.95957197710E+03  0.14598851491E+04  0.46999998093E+01 0.  1.
</event>
<event>
 5   0  0.3347728E-05  0.2407662E+04  0.7818609E-02  0.8436640E-01
       -2   -1    0    0    0  501  0.00000000000E+00  0.00000000000E+00  0.96406611628E+03  0.96406611628E+03  0.25500000920E-02 0.  1.
        2   -1    0    0  501    0  0.00000000000E+00  0.00000000000E+00 -0.15032261675E+04  0.15032261675E+04  0.25500000920E-02 0. -1.
    10030    2    1    2    0    0  0.00000000000E+00  0.00000000000E+00 -0.53916005125E+03  0.24672922838E+04  0.24076622797E+04 0.  0.
        3    1    3    3  502    0  0.58156471237E+03  0.93308204725E+02 -0.13454804345E+04  0.14687551006E+04  0.10100000352E+00 0. -1.
       -3    1    3    3    0  502 -0.58156471237E+03 -0.93308204725E+02  0.80632038320E+03  0.99853718324E+03  0.10100000352E+00 0.  1.
</event>
<event>
 5   0  0.1393026E-05  0.2345655E+04  0.7818609E-02  0.8460135E-01
        1   -1    0    0  501    0  0.00000000000E+00  0.00000000000E+00  0.93646819009E+03  0.93646819010E+03  0.50400001928E-02 0. -1.
       -1   -1    0    0    0  501  0.00000000000E+00  0.00000000000E+00 -0.14688420808E+04  0.14688420808E+04  0.50400001928E-02 0.  1.
    10030    2    1    2    0    0  0.00000000000E+00  0.00000000000E+00 -0.53237389071E+03  0.24053102709E+04  0.23456546080E+04 0.  0.
        4    1    3    3  502    0  0.44094460810E+03 -0.76394942469E+03  0.52643410679E+03  0.10272221535E+04  0.12699999809E+01 0. -1.
       -4    1    3    3    0  502 -0.44094460810E+03  0.76394942469E+03 -0.10588079975E+04  0.13780881174E+04  0.12699999809E+01 0.  1.
</event>
<event>
 5   0  0.3215208E-05  0.2405149E+04  0.7818609E-02  0.8437578E-01
       -2   -1    0    0    0  501  0.00000000000E+00  0.00000000000E+00  0.13398901977E+04  0.13398901977E+04  0.25500000920E-02 0.  1.
        2   -1    0    0  501    0  0.00000000000E+00  0.00000000000E+00 -0.10793309952E+04  0.10793309952E+04  0.25500000920E-02 0. -1.
    10030    2    1    2    0    0  0.00000000000E+00  0.00000000000E+00  0.26055920246E+03  0.24192211929E+04  0.24051486611E+04 0.  0.
        1    1    3    3  502    0  0.68372605646E+03  0.22764252003E+03  0.10986600532E+04  0.13139088057E+04  0.50400001928E-02 0.  1.
       -1    1    3    3    0  502 -0.68372605646E+03 -0.22764252003E+03 -0.83810085074E+03  0.11053123872E+04  0.50400001928E-02 0. -1.
</event>
<event>
 5   0  0.3310037E-05  0.2439431E+04  0.7818609E-02  0.8424887E-01
       -2   -1    0    0    0  501  0.00000000000E+00  0.00000000000E+00  0.81133807652E+03  0.81133807652E+03  0.25500000920E-02 0.  1.
        2   -1    0    0  501    0  0.00000000000E+00  0.00000000000E+00 -0.18336455132E+04  0.18336455132E+04  0.25500000920E-02 0. -1.
    10030    2    1    2    0    0  0.00000000000E+00  0.00000000000E+00 -0.10223074367E+04  0.26449835897E+04  0.24394314286E+04 0.  0.
        2    1    3    3  502    0 -0.10119132509E+04 -0.14354053016E+03  0.21062148667E+03  0.10435198713E+04  0.25500000920E-02 0.  1.
       -2    1    3    3    0  502  0.10119132509E+04  0.14354053016E+03 -0.12329289234E+04  0.16014637184E+04  0.25500000920E-02 0. -1.
</event>
<event>
 5   0  0.1401596E-05  0.2462330E+04  0.7818609E-02  0.8416530E-01
        1   -1    0    0  501    0  0.00000000000E+00  0.00000000000E+00  0.14431780719E+04  0.14431780719E+04  0.50400001928E-02 0.  1.
       -1   -1    0    0    0  501  0.00000000000E+00  0.00000000000E+00 -0.10502979325E+04  0.10502979325E+04  0.50400001928E-02 0. -1.
    10030    2    1    2    0    0  0.00000000000E+00  0.00000000000E+00  0.39288013948E+03  0.24934760044E+04  0.24623297465E+04 0.  0.
        2    1    3    3  502    0 -0.10084047799E+04  0.51065146573E+03 -0.29770968394E+03  0.11688781697E+04  0.25500000920E-02 0.  1.
       -2    1    3    3    0  502  0.10084047799E+04 -0.51065146573E+03  0.69058982342E+03  0.13245978348E+04  0.25500000920E-02 0. -1.
</event>
<event>
 5   0  0.3320780E-05  0.2409298E+04  0.7818609E-02  0.8436031E-01
       -2   -1    0    0    0  501  0.00000000000E+00  0.00000000000E+00  0.61878968465E+03  0.61878968465E+03  0.25500000920E-02 0. -1.
        2   -1    0    0  501    0  0.00000000000E+00  0.00000000000E+00 -0.23451902511E+04  0.23451902511E+04  0.25500000920E-02 0.  1.
    10030    2    1    2    0    0  0.00000000000E+00  0.00000000000E+00 -0.17264005665E+04  0.29639799358E+04  0.24092982679E+04 0.  0.
        5    1    3    3  502    0  0.41463174954E+03  0.97738031571E+02 -0.22494220876E+04  0.22894091003E+04  0.46999998093E+01 0.  1.
       -5    1    3    3    0  502 -0.41463174954E+03 -0.97738031571E+02  0.52302152109E+03  0.67457083547E+03  0.46999998093E+01 0. -1.
</event>
<event>
 5   0  0.1506985E-05  0.2406701E+04  0.7818609E-02  0.8436999E-01
       -1   -1    0    0    0  501  0.00000000000E+00  0.00000000000E+00  0.84085858677E+03  0.84085858679E+03  0.50400001928E-02 0. -1.
        1   -1    0    0  501    0  0.00000000000E+00  0.00000000000E+00 -0.17221123958E+04  0.17221123958E+04  0.50400001928E-02 0.  1.
    10030    2    1    2    0    0  0.00000000000E+00  0.00000000000E+00 -0.88125380900E+03  0.25629709826E+04  0.24067014733E+04 0.  0.
        3    1    3    3  502    0  0.72150678858E+03  0.77526378470E+03 -0.10490809858E+04  0.14906967857E+04  0.10100000352E+00 0.  1.
       -3    1    3    3    0  502 -0.72150678858E+03 -0.77526378470E+03  0.16782717682E+03  0.10722741969E+04  0.10100000352E+00 0. -1.
</event>
<event>
 5   0  0.1506985E-05  0.2361471E+04  0.7818609E-02  0.8454071E-01
        1   -1    0    0  501    0  0.00000000000E+00  0.00000000000E+00  0.78493376603E+03  0.78493376604E+03  0.50400001928E-02 0.  1.
       -1   -1    0    0    0  501  0.00000000000E+00  0.00000000000E+00 -0.17761194388E+04  0.17761194388E+04  0.50400001928E-02 0. -1.
    10030    2    1    2    0    0  0.00000000000E+00  0.00000000000E+00 -0.99118567279E+03  0.25610532049E+04  0.23614708299E+04 0.  0.
        3    1    3    3  502    0 -0.13362652761E+03  0.92199719971E+03 -0.12822978951E+04  0.15849993020E+04  0.10100000352E+00 0. -1.
       -3    1    3    3    0  502  0.13362652761E+03 -0.92199719971E+03  0.29111222235E+03  0.97605390290E+03  0.10100000352E+00 0.  1.
</event>
<event>
 5   0  0.1393026E-05  0.2417779E+04  0.7818609E-02  0.8432877E-01
       -1   -1    0    0    0  501  0.00000000000E+00  0.00000000000E+00  0.80828395046E+03  0.80828395047E+03  0.50400001928E-02 0. -1.
        1   -1    0    0  501    0  0.00000000000E+00  0.00000000000E+00 -0.18080447635E+04  0.18080447635E+04  0.50400001928E-02 0.  1.
    10030    2    1    2    0    0  0.00000000000E+00  0.00000000000E+00 -0.99976081301E+03  0.26163287139E+04  0.24177787856E+04 0.  0.
        4    1    3    3  502    0  0.41403917080E+03 -0.82829366951E+03  0.34105565181E+03  0.98682288605E+03  0.12699999809E+01 0. -1.
       -4    1    3    3    0  502 -0.41403917080E+03  0.82829366951E+03 -0.13408164648E+04  0.16295058279E+04  0.12699999809E+01 0.  1.
</event>
<event>
 5   0  0.3345974E-05  0.2323603E+04  0.7818609E-02  0.8468673E-01
       -2   -1    0    0    0  501  0.00000000000E+00  0.00000000000E+00  0.93184419170E+03  0.93184419170E+03  0.25500000920E-02 0.  1.
        2   -1    0    0  501    0  0.00000000000E+00  0.00000000000E+00 -0.14485064279E+04  0.14485064279E+04  0.25500000920E-02 0. -1.
    10030    2    1    2    0    0  0.00000000000E+00  0.00000000000E+00 -0.51666223620E+03  0.23803506196E+04  0.23236026351E+04 0.  0.
        4    1    3    3  502    0 -0.42487715575E+03  0.10809269022E+04 -0.22833944304E+03  0.11836655268E+04  0.12699999809E+01 0.  1.
       -4    1    3    3    0  502  0.42487715575E+03 -0.10809269022E+04 -0.28832279315E+03  0.11966850928E+04  0.12699999809E+01 0. -1.
</event>
<event>
 5   0  0.3310037E-05  0.2352585E+04  0.7818609E-02  0.8457472E-01
       -2   -1    0    0    0  501  0.00000000000E+00  0.00000000000E+00  0.83310362069E+03  0.83310362070E+03  0.25500000920E-02 0.  1.
        2   -1    0    0  501    0  0.00000000000E+00  0.00000000000E+00 -0.16608540635E+04  0.16608540635E+04  0.25500000920E-02 0. -1.
    10030    2    1    2    0    0  0.00000000000E+00  0.00000000000E+00 -0.82775044279E+03  0.24939576842E+04  0.23525845649E+04 0.  0.
        2    1    3    3  502    0  0.92020342014E+03 -0.32453145307E+02  0.36212130673E+03  0.98942376253E+03  0.25500000920E-02 0.  1.
       -2    1    3    3    0  502 -0.92020342014E+03  0.32453145307E+02 -0.11898717495E+04  0.15045339216E+04  0.25500000920E-02 0. -1.
</event>
<event>
 5   0  0.3345974E-05  0.2386809E+04  0.7818609E-02  0.8444459E-01
        2   -1    0    0  501    0  0.00000000000E+00  0.00000000000E+00  0.21551940374E+04  0.21551940374E+04  0.25500000920E-02 0. -1.
       -2   -1    0    0    0  501  0.00000000000E+00  0.00000000000E+00 -0.66082895267E+03  0.66082895268E+03  0.25500000920E-02 0.  1.
    10030    2    1    2    0    0  0.00000000000E+00  0.00000000000E+00  0.14943650848E+04  0.28160229901E+04  0.23868092664E+04 0.  0.
        4    1    3    3  502    0  0.28638839950E+03  0.56621698344E+03 -0.44531485226E+03  0.77519476150E+03  0.12699999809E+01 0.  1.
       -4    1    3    3    0  502 -0.28638839950E+03 -0.56621698344E+03  0.19396799370E+04  0.20408282286E+04  0.12699999809E+01 0. -1.
</event>
<event>
 5   0  0.3215208E-05  0.2398294E+04  0.7818609E-02  0.8440142E-01
       -2   -1    0    0    0  501  0.00000000000E+00  0.00000000000E+00  0.17816139729E+04  0.17816139729E+04  0.25500000920E-02 0.  1.
        2   -1    0    0  501    0  0.00000000000E+00  0.00000000000E+00 -0.80710743205E+03  0.80710743205E+03  0.25500000920E-02 0. -1.
    10030    2    1    2    0    0  0.00000000000E+00  0.00000000000E+00  0.97450654085E+03  0.25887214049E+04  0.23982942927E+04 0.  0.
        1    1    3    3  502    0  0.30005988549E+03 -0.79910490422E+03  0.13963558953E+04  0.16365861936E+04  0.50400001928E-02 0.  1.
       -1    1    3    3    0  502 -0.30005988549E+03  0.79910490422E+03 -0.42184935441E+03  0.95213521134E+03  0.50400001928E-02 0. -1.
</event>
<event>
 5   0  0.3347728E-05  0.2405774E+04  0.7818609E-02  0.8437345E-01
        2   -1    0    0  501    0  0.00000000000E+00  0.00000000000E+00  0.16263298298E+04  0.16263298298E+04  0.25500000920E-02 0.  1.
       -2   -1    0    0    0  501  0.00000000000E+00  0.00000000000E+00 -0.88969490468E+03  0.88969490469E+03  0.25500000920E-02 0. -1.
    10030    2    1    2    0    0  0.00000000000E+00  0.00000000000E+00  0.73663492509E+03  0.25160247345E+04  0.24057741896E+04 0.  0.
        3    1    3    3  502    0 -0.11510784547E+04  0.29481231205E+03  0.56408967316E+03  0.13153300262E+04  0.10100000352E+00 0.  1.
       -3    1    3    3    0  502  0.11510784547E+04 -0.29481231205E+03  0.17254525194E+03  0.12006947083E+04  0.10100000352E+00 0. -1.
</event>
<event>
 5   0  0.1407158E-05  0.2413479E+04  0.7818609E-02  0.8434474E-01
       -1   -1    0    0    0  501  0.00000000000E+00  0.00000000000E+00  0.14670630999E+04  0.14670630999E+04  0.50400001928E-02 0.  1.
        1   -1    0    0  501    0  0.00000000000E+00  0.00000000000E+00 -0.99260917294E+03  0.99260917295E+03  0.50400001928E-02 0. -1.
    10030    2    1    2    0    0  0.00000000000E+00  0.00000000000E+00  0.47445392696E+03  0.24596722729E+04  0.24134790575E+04 0.  0.
        1    1    3    3  502    0  0.69106959291E+03  0.44373243653E+03  0.11383128031E+04  0.14036494204E+04  0.50400001928E-02 0.  1.
       -1    1    3    3    0  502 -0.69106959291E+03 -0.44373243653E+03 -0.66385887618E+03  0.10560228525E+04  0.50400001928E-02 0. -1.
</event>
<event>
 5   0  0.3310037E-05  0.2406171E+04  0.7818609E-02  0.8437197E-01
       -2   -1    0    0    0  501  0.00000000000E+00  0.00000000000E+00  0.57465923295E+03  0.57465923295E+03  0.25500000920E-02 0.  1.
        2   -1    0    0  501    0  0.00000000000E+00  0.00000000000E+00 -0.25187365352E+04  0.25187365352E+04  0.25500000920E-02 0. -1.
    10030    2    1    2    0    0  0.00000000000E+00  0.00000000000E+00 -0.19440773022E+04  0.30933957681E+04  0.24061714031E+04 0.  0.
        2    1    3    3  502    0  0.11107698961E+04  0.20484075199E+03 -0.15046683791E+04  0.18814346725E+04  0.25500000920E-02 0. -1.
       -2    1    3    3    0  502 -0.11107698961E+04 -0.20484075199E+03 -0.43940892313E+03  0.12119610957E+04  0.25500000920E-02 0.  1.
</event>
<event>
 5   0  0.1401596E-05  0.2400863E+04  0.7818609E-02  0.8439181E-01
       -1   -1    0    0    0  501  0.00000000000E+00  0.00000000000E+00  0.15642529274E+04  0.15642529274E+04  0.50400001928E-02 0.  1.
        1   -1    0    0  501    0  0.00000000000E+00  0.00000000000E+00 -0.92122929059E+03  0.92122929061E+03  0.50400001928E-02 0. -1.
    10030    2    1    2    0    0  0.00000000000E+00  0.00000000000E+00  0.64302363678E+03  0.24854822180E+04  0.24008628571E+04 0.  0.
        2    1    3    3  502    0 -0.22946277780E+03 -0.22225329963E+03  0.15194414635E+04  0.15526596718E+04  0.25500000920E-02 0.  1.
       -2    1    3    3    0  502  0.22946277780E+03  0.22225329963E+03 -0.87641782671E+03  0.93282254614E+03  0.25500000920E-02 0. -1.
</event>
<event>
 5   0  0.3310037E-05  0.2412605E+04  0.7818609E-02  0.8434799E-01
        2   -1    0    0  501    0  0.00000000000E+00  0.00000000000E+00  0.31205685243E+04  0.31205685243E+04  0.25500000920E-02 0.  1.
       -2   -1    0    0    0  501  0.00000000000E+00  0.00000000000E+00 -0.46631433203E+03  0.46631433204E+03  0.25500000920E-02 0. -1.
    10030    2    1    2    0    0  0.00000000000E+00  0.00000000000E+00  0.26542541923E+04  0.35868828564E+04  0.24126050875E+04 0.  0.
        2    1    3    3  502    0  0.11678583604E+02 -0.20756163453E+03  0.30937353072E+04  0.31007122363E+04  0.25500000920E-02 0.  1.
       -2    1    3    3    0  502 -0.11678583604E+02  0.20756163453E+03 -0.43948111490E+03  0.48617062005E+03  0.25500000920E-02 0. -1.
</event>
<event>
 5   0  0.3345974E-05  0.2374505E+04  0.7818609E-02  0.8449111E-01
        2   -1    0    0  501    0  0.00000000000E+00  0.00000000000E+00  0.89853932992E+03  0.89853932993E+03  0.25500000920E-02 0.  1.
       -2   -1    0    0    0  501  0.00000000000E+00  0.00000000000E+00 -0.15687333976E+04  0.15687333976E+04  0.25500000920E-02 0. -1.
    10030    2    1    2    0    0  0.00000000000E+00  0.00000000000E+00 -0.67019406764E+03  0.24672727275E+04  0.23745051323E+04 0.  0.
        4    1    3    3  502    0  0.60179287083E+03 -0.51464304904E+03 -0.12542789203E+04  0.14833170093E+04  0.12699999809E+01 0. -1.
       -4    1    3    3    0  502 -0.60179287083E+03  0.51464304904E+03  0.58408485267E+03  0.98395571817E+03  0.12699999809E+01 0.  1.
</event>
<event>
 5   0  0.1407158E-05  0.2403478E+04  0.7818609E-02  0.8438203E-01
        1   -1    0    0  501    0  0.00000000000E+00  0.00000000000E+00  0.31101328296E+04  0.31101328297E+04  0.50400001928E-02 0. -1.
       -1   -1    0    0    0  501  0.00000000000E+00  0.00000000000E+00 -0.46434555304E+03  0.46434555306E+03  0.50400001928E-02 0.  1.
    10030    2    1    2    0    0  0.00000000000E+00  0.00000000000E+00  0.26457872766E+04  0.35744783827E+04  0.24034777709E+04 0.  0.
        1    1    3    3  502    0  0.10149948353E+04 -0.36433371766E+03  0.53421911840E+03  0.12034714953E+04  0.50400001928E-02 0. -1.
       -1    1    3    3    0  502 -0.10149948353E+04  0.36433371766E+03  0.21115681582E+04  0.23710068874E+04  0.50400001928E-02 0.  1.
</event>
<event>
 5   0  0.1506985E-05  0.2400349E+04  0.7818609E-02  0.8439373E-01
       -1   -1    0    0    0  501  0.00000000000E+00  0.00000000000E+00  0.14939671118E+04  0.14939671118E+04  0.50400001928E-02 0. -1.
        1   -1    0    0  501    0  0.00000000000E+00  0.00000000000E+00 -0.96415692796E+03  0.96415692797E+03  0.50400001928E-02 0.  1.
    10030    2    1    2    0    0  0.00000000000E+00  0.00000000000E+00  0.52981018383E+03  0.24581240398E+04  0.24003489255E+04 0.  0.
        3    1    3    3  502    0  0.10125388566E+04  0.60842240315E+03  0.48215745022E+03  0.12758873672E+04  0.10100000352E+00 0.  1.
       -3    1    3    3    0  502 -0.10125388566E+04 -0.60842240315E+03  0.47652733614E+02  0.11822366726E+04  0.10100000352E+00 0. -1.
</event>
<event>
 5   0  0.3347728E-05  0.2413214E+04  0.7818609E-02  0.8434573E-01
       -2   -1    0    0    0  501  0.00000000000E+00  0.00000000000E+00  0.59067168267E+03  0.59067168267E+03  0.25500000920E-02 0.  1.
        2   -1    0    0  501    0  0.00000000000E+00  0.00000000000E+00 -0.24648210976E+04  0.24648210976E+04  0.25500000920E-02 0. -1.
    10030    2    1    2    0    0  0.00000000000E+00  0.00000000000E+00 -0.18741494149E+04  0.30554927803E+04  0.24132136459E+04 0.  0.
        3    1    3    3  502    0 -0.45901584024E+03 -0.11059290934E+04 -0.11254093482E+04  0.16432653202E+04  0.10100000352E+00 0.  1.
       -3    1    3    3    0  502  0.45901584024E+03  0.11059290934E+04 -0.74874006677E+03  0.14122274601E+04  0.10100000352E+00 0. -1.
</event>
<event>
 5   0  0.1434943E-05  0.2417962E+04  0.7818609E-02  0.8432809E-01
       -1   -1    0    0    0  501  0.00000000000E+00  0.00000000000E+00  0.14431336280E+04  0.14431336280E+04  0.50400001928E-02 0. -1.
        1   -1    0    0  501    0  0.00000000000E+00  0.00000000000E+00 -0.10128205959E+04  0.10128205959E+04  0.50400001928E-02 0.  1.
    10030    2    1    2    0    0  0.00000000000E+00  0.00000000000E+00  0.43031303208E+03  0.24559542239E+04  0.24179623331E+04 0.  0.
        5    1    3    3  502    0  0.40419966198E+03 -0.23270195970E+03 -0.91775477083E+03  0.10294772840E+04  0.46999998093E+01 0.  1.
       -5    1    3    3    0  502 -0.40419966198E+03  0.23270195970E+03  0.13480678029E+04  0.14264769399E+04  0.46999998093E+01 0. -1.
</event>
<event>
 5   0  0.1393026E-05  0.2381606E+04  0.7818609E-02  0.8446422E-01
        1   -1    0    0  501    0  0.00000000000E+00  0.00000000000E+00  0.95521614149E+03  0.95521614151E+03  0.50400001928E-02 0. -1.
       -1   -1    0    0    0  501  0.00000000000E+00  0.00000000000E+00 -0.14844933547E+04  0.14844933547E+04  0.50400001928E-02 0.  1.
    10030    2    1    2    0    0  0.00000000000E+00  0.00000000000E+00 -0.52927721323E+03  0.24397094962E+04  0.23816061928E+04 0.  0.
        4    1    3    3  502    0 -0.69098776013E+02 -0.31518903604E+03  0.90957724537E+03  0.96511716775E+03  0.12699999809E+01 0. -1.
       -4    1    3    3    0  502  0.69098776013E+02  0.31518903604E+03 -0.14388544586E+04  0.14745923285E+04  0.12699999809E+01 0.  1.
</event>
<event>
 5   0  0.3345974E-05  0.2356934E+04  0.7818609E-02  0.8455805E-01
       -2   -1    0    0    0  501  0.00000000000E+00  0.00000000000E+00  0.92367507014E+03  0.92367507014E+03  0.25500000920E-02 0.  1.
        2   -1    0    0  501    0  0.00000000000E+00  0.00000000000E+00 -0.15035416964E+04  0.15035416964E+04  0.25500000920E-02 0. -1.
    10030    2    1    2    0    0  0.00000000000E+00  0.00000000000E+00 -0.57986662622E+03  0.24272167665E+04  0.23569335857E+04 0.  0.
        4    1    3    3  502    0  0.44339562297E+03  0.20085574536E+03  0.81530831114E+03  0.94956409159E+03  0.12699999809E+01 0.  1.
       -4    1    3    3    0  502 -0.44339562297E+03 -0.20085574536E+03 -0.13951749374E+04  0.14776526749E+04  0.12699999809E+01 0. -1.
</event>
<event>
 5   0  0.3215208E-05  0.2384043E+04  0.7818609E-02  0.8445502E-01
       -2   -1    0    0    0  501  0.00000000000E+00  0.00000000000E+00  0.11239569927E+04  0.11239569927E+04  0.25500000920E-02 0.  1.
        2   -1    0    0  501    0  0.00000000000E+00  0.00000000000E+00 -0.12642081267E+04  0.12642081267E+04  0.25500000920E-02 0. -1.
    10030    2    1    2    0    0  0.00000000000E+00  0.00000000000E+00 -0.14025113397E+03  0.23881651195E+04  0.23840432583E+04 0.  0.
        1    1    3    3  502    0 -0.74107743544E+03  0.53701438798E+03  0.69495886641E+03  0.11491510102E+04  0.50400001928E-02 0.  1.
       -1    1    3    3    0  502  0.74107743544E+03 -0.53701438798E+03 -0.83521000038E+03  0.12390141093E+04  0.50400001928E-02 0. -1.
</event>
<event>
 5   0  0.1401596E-05  0.2408768E+04  0.7818609E-02  0.8436228E-01
        1   -1    0    0  501    0  0.00000000000E+00  0.00000000000E+00  0.18541479623E+04  0.18541479623E+04  0.50400001928E-02 0. -1.
       -1   -1    0    0    0  501  0.00000000000E+00  0.00000000000E+00 -0.78232235678E+03  0.78232235679E+03  0.50400001928E-02 0.  1.
    10030    2    1    2    0    0  0.00000000000E+00  0.00000000000E+00  0.10718256055E+04  0.26364703191E+04  0.24087684851E+04 0.  0.
        2    1    3    3  502    0 -0.46493483845E+03 -0.61700431029E+03 -0.47537800885E+03  0.90710692546E+03  0.25500000920E-02 0.  1.
       -2    1    3    3    0  502  0.46493483845E+03  0.61700431029E+03  0.15472036143E+04  0.17293633936E+04  0.25500000920E-02 0. -1.
</event>
<event>
 5   0  0.3310037E-05  0.2410483E+04  0.7818609E-02  0.8435589E-01
       -2   -1    0    0    0  501  0.00000000000E+00  0.00000000000E+00  0.12916358764E+04  0.12916358764E+04  0.25500000920E-02 0. -1.
        2   -1    0    0  501    0  0.00000000000E+00  0.00000000000E+00 -0.11246254922E+04  0.11246254922E+04  0.25500000920E-02 0.  1.
    10030    2    1    2    0    0  0.00000000000E+00  0.00000000000E+00  0.16701038418E+03  0.24162613686E+04  0.24104826348E+04 0.  0.
        2    1    3    3  502    0  0.16068378461E+03  0.89782330331E+02 -0.11104533357E+04  0.11256050623E+04  0.25500000920E-02 0.  1.
       -2    1    3    3    0  502 -0.16068378461E+03 -0.89782330331E+02  0.12774637198E+04  0.12906563063E+04  0.25500000920E-02 0. -1.
</event>
<event>
 5   0  0.3215208E-05  0.2410877E+04  0.7818609E-02  0.8435443E-01
       -2   -1    0    0    0  501  0.00000000000E+00  0.00000000000E+00  0.16851876277E+04  0.16851876277E+04  0.25500000920E-02 0. -1.
        2   -1    0    0  501    0  0.00000000000E+00  0.00000000000E+00 -0.86226685282E+03  0.86226685282E+03  0.25500000920E-02 0.  1.
    10030    2    1    2    0    0  0.00000000000E+00  0.00000000000E+00  0.82292077485E+03  0.25474544805E+04  0.24108765478E+04 0.  0.
        1    1    3    3  502    0 -0.11822145043E+04  0.17046387781E+03  0.23979979397E+03  0.12182746033E+04  0.50400001928E-02 0. -1.
       -1    1    3    3    0  502  0.11822145043E+04 -0.17046387781E+03  0.58312098088E+03  0.13291798772E+04  0.50400001928E-02 0.  1.
</event>
<event>
 5   0  0.3347728E-05  0.2410750E+04  0.7818609E-02  0.8435490E-01
       -2   -1    0    0    0  501  0.00000000000E+00  0.00000000000E+00  0.87337926384E+03  0.87337926384E+03  0.25500000920E-02 0.  1.
        2   -1    0    0  501    0  0.00000000000E+00  0.00000000000E+00 -0.16635716295E+04  0.16635716295E+04  0.25500000920E-02 0. -1.
    10030    2    1    2    0    0  0.00000000000E+00  0.00000000000E+00 -0.79019236566E+03  0.25369508933E+04  0.24107500618E+04 0.  0.
        3    1    3    3  502    0 -0.79431559885E+03  0.42675931191E+03  0.44669646651E+03  0.10062795458E+04  0.10100000352E+00 0.  1.
       -3    1    3    3    0  502  0.79431559885E+03 -0.42675931191E+03 -0.12368888322E+04  0.15306713476E+04  0.10100000352E+00 0. -1.
</event>
<event>
 5   0  0.3310037E-05  0.2421906E+04  0.7818609E-02  0.8431348E-01
        2   -1    0    0  501    0  0.00000000000E+00  0.00000000000E+00  0.13918265735E+04  0.13918265735E+04  0.25500000920E-02 0.  1.
       -2   -1    0    0    0  501  0.00000000000E+00  0.00000000000E+00 -0.10535846815E+04  0.10535846815E+04  0.25500000920E-02 0. -1.
    10030    2    1    2    0    0  0.00000000000E+00  0.00000000000E+00  0.33824189196E+03  0.24454112550E+04  0.24219059909E+04 0.  0.
        2    1    3    3  502    0 -0.13048821314E+03  0.42760936889E+03 -0.96720363660E+03  0.10655326465E+04  0.25500000920E-02 0. -1.
       -2    1    3    3    0  502  0.13048821314E+03 -0.42760936889E+03  0.13054455286E+04  0.13798786085E+04  0.25500000920E-02 0.  1.
</event>
<event>
 5   0  0.1434943E-05  0.2288658E+04  0.7818609E-02  0.8482407E-01
        1   -1    0    0  501    0  0.00000000000E+00  0.00000000000E+00  0.14904338152E+04  0.14904338152E+04  0.50400001928E-02 0.  1.
       -1   -1    0    0    0  501  0.00000000000E+00  0.00000000000E+00 -0.87859558594E+03  0.87859558595E+03  0.50400001928E-02 0. -1.
    10030    2    1    2    0    0  0.00000000000E+00  0.00000000000E+00  0.61183822929E+03  0.23690294012E+04  0.22886577474E+04 0.  0.
        5    1    3    3  502    0  0.36208423490E+03 -0.36777169886E+03 -0.75127249877E+03  0.91147872880E+03  0.46999998093E+01 0. -1.
       -5    1    3    3    0  502 -0.36208423490E+03  0.36777169886E+03  0.13631107281E+04  0.14575506724E+04  0.46999998093E+01 0.  1.
</event>
<event>
 5   0  0.3345974E-05  0.2100389E+04  0.7818609E-02  0.8561072E-01
       -2   -1    0    0    0  501  0.00000000000E+00  0.00000000000E+00  0.47779715643E+03  0.47779715644E+03  0.25500000920E-02 0. -1.
        2   -1    0    0  501    0  0.00000000000E+00  0.00000000000E+00 -0.23083190887E+04  0.23083190887E+04  0.25500000920E-02 0.  1.
    10030    2    1    2    0    0  0.00000000000E+00  0.00000000000E+00 -0.18305219323E+04  0.27861162452E+04  0.21003888180E+04 0.  0.
        4    1    3    3  502    0  0.65785423747E+03 -0.63628152391E+03 -0.15984675485E+04  0.18419355287E+04  0.12699999809E+01 0.  1.
       -4    1    3    3    0  502 -0.65785423747E+03  0.63628152391E+03 -0.23205438385E+03  0.94418071649E+03  0.12699999809E+01 0. -1.
</event>
<event>
 5   0  0.1506985E-05  0.2241671E+04  0.7818609E-02  0.8501281E-01
       -1   -1    0    0    0  501  0.00000000000E+00  0.00000000000E+00  0.67710795297E+03  0.67710795299E+03  0.50400001928E-02 0. -1.
        1   -1    0    0  501    0  0.00000000000E+00  0.00000000000E+00 -0.18553502804E+04  0.18553502804E+04  0.50400001928E-02 0.  1.
    10030    2    1    2    0    0  0.00000000000E+00  0.00000000000E+00 -0.11782423274E+04  0.25324582334E+04  0.22416711895E+04 0.  0.
        3    1    3    3  502    0 -0.88767246196E+03  0.49346127358E+03 -0.53479534095E+02  0.10170184359E+04  0.10100000352E+00 0.  1.
       -3    1    3    3    0  502  0.88767246196E+03 -0.49346127358E+03 -0.11247627933E+04  0.15154397974E+04  0.10100000352E+00 0. -1.
</event>
<event>
 5   0  0.1407158E-05  0.2471344E+04  0.7818609E-02  0.8413266E-01
       -1   -1    0    0    0  501  0.00000000000E+00  0.00000000000E+00  0.16102482763E+04  0.16102482763E+04  0.50400001928E-02 0. -1.
        1   -1    0    0  501    0  0.00000000000E+00  0.00000000000E+00 -0.94822953330E+03  0.94822953331E+03  0.50400001928E-02 0.  1.
    10030    2    1    2    0    0  0.00000000000E+00  0.00000000000E+00  0.66201874301E+03  0.25584778096E+04  0.24713437410E+04 0.  0.
        1    1    3    3  502    0  0.70469259827E+03  0.81607497283E+03 -0.29385677520E+03  0.11175517096E+04  0.50400001928E-02 0.  1.
       -1    1    3    3    0  502 -0.70469259827E+03 -0.81607497283E+03  0.95587551821E+03  0.14409261000E+04  0.50400001928E-02 0. -1.
</event>
<event>
 5   0  0.3347728E-05  0.2395492E+04  0.7818609E-02  0.8441193E-01
        2   -1    0    0  501    0  0.00000000000E+00  0.00000000000E+00  0.17032789269E+04  0.17032789269E+04  0.25500000920E-02 0.  1.
       -2   -1    0    0    0  501  0.00000000000E+00  0.00000000000E+00 -0.84225498355E+03  0.84225498355E+03  0.25500000920E-02 0. -1.
    10030    2    1    2    0    0  0.00000000000E+00  0.00000000000E+00  0.86102394335E+03  0.25455339104E+04  0.23954917362E+04 0.  0.
        3    1    3    3  502    0 -0.58391030299E+03  0.25443235193E+03 -0.64737320890E+03  0.90817352166E+03  0.10100000352E+00 0. -1.
       -3    1    3    3    0  502  0.58391030299E+03 -0.25443235193E+03  0.15083971523E+04  0.16373603888E+04  0.10100000352E+00 0.  1.
</event>
<event>
 5   0  0.1147362E-05  0.2323393E+04  0.7818609E-02  0.8468754E-01
       -3   -1    0    0    0  501  0.00000000000E+00  0.00000000000E+00  0.23586570970E+04  0.23586570992E+04  0.10100000352E+00 0.  1.
        3   -1    0    0  501    0  0.00000000000E+00  0.00000000000E+00 -0.57216393707E+03  0.57216394599E+03  0.10100000352E+00 0. -1.
    10030    2    1    2    0    0  0.00000000000E+00  0.00000000000E+00  0.17864931599E+04  0.29308210452E+04  0.23233928183E+04 0.  0.
        1    1    3    3  502    0  0.93654048183E+03 -0.56013211857E+03  0.13957408943E+04  0.17717078507E+04  0.50400001928E-02 0.  1.
       -1    1    3    3    0  502 -0.93654048183E+03  0.56013211857E+03  0.39075226568E+03  0.11591131944E+04  0.50400001928E-02 0. -1.
</event>
<event>
 5   0  0.1506985E-05  0.2392891E+04  0.7818609E-02  0.8442170E-01
        1   -1    0    0  501    0  0.00000000000E+00  0.00000000000E+00  0.10420922802E+04  0.10420922802E+04  0.50400001928E-02 0.  1.
       -1   -1    0    0    0  501  0.00000000000E+00  0.00000000000E+00 -0.13736613140E+04  0.13736613140E+04  0.50400001928E-02 0. -1.
    10030    2    1    2    0    0  0.00000000000E+00  0.00000000000E+00 -0.33156903384E+03  0.24157535942E+04  0.23928910138E+04 0.  0.
        3    1    3    3  502    0  0.42077200274E+03  0.89491961009E+03 -0.84568146716E+03  0.13011945823E+04  0.10100000352E+00 0. -1.
       -3    1    3    3    0  502 -0.42077200274E+03 -0.89491961009E+03  0.51411243332E+03  0.11145590119E+04  0.10100000352E+00 0.  1.
</event>
<event>
 5   0  0.1393026E-05  0.2390355E+04  0.7818609E-02  0.8443123E-01
        1   -1    0    0  501    0  0.00000000000E+00  0.00000000000E+00  0.13049923274E+04  0.13049923274E+04  0.50400001928E-02 0. -1.
       -1   -1    0    0    0  501  0.00000000000E+00  0.00000000000E+00 -0.10946038554E+04  0.10946038554E+04  0.50400001928E-02 0.  1.
    10030    2    1    2    0    0  0.00000000000E+00  0.00000000000E+00  0.21038847204E+03  0.23995961828E+04  0.23903553149E+04 0.  0.
        4    1    3    3  502    0  0.10306174589E+04 -0.56288653145E+03  0.32839231352E+03  0.12193673435E+04  0.12699999809E+01 0. -1.
       -4    1    3    3    0  502 -0.10306174589E+04  0.56288653145E+03 -0.11800384148E+03  0.11802288394E+04  0.12699999809E+01 0.  1.
</event>
<event>
 5   0  0.1434943E-05  0.2389887E+04  0.7818609E-02  0.8443299E-01
       -1   -1    0    0    0  501  0.00000000000E+00  0.00000000000E+00  0.12817171007E+04  0.12817171007E+04  0.50400001928E-02 0. -1.
        1   -1    0    0  501    0  0.00000000000E+00  0.00000000000E+00 -0.11140449548E+04  0.11140449549E+04  0.50400001928E-02 0.  1.
    10030    2    1    2    0    0  0.00000000000E+00  0.00000000000E+00  0.16767214587E+03  0.23957620556E+04  0.23898874196E+04 0.  0.
        5    1    3    3  502    0 -0.58689274130E+03  0.10225672661E+04  0.27868844624E+03  0.12115181565E+04  0.46999998093E+01 0. -1.
       -5    1    3    3    0  502  0.58689274130E+03 -0.10225672661E+04 -0.11101630037E+03  0.11842438991E+04  0.46999998093E+01 0.  1.
</event>
<event>
 5   0  0.1393026E-05  0.2394860E+04  0.7818609E-02  0.8441430E-01
        1   -1    0    0  501    0  0.00000000000E+00  0.00000000000E+00  0.15825399559E+04  0.15825399559E+04  0.50400001928E-02 0. -1.
       -1   -1    0    0    0  501  0.00000000000E+00  0.00000000000E+00 -0.90603625094E+03  0.90603625095E+03  0.50400001928E-02 0.  1.
    10030    2    1    2    0    0  0.00000000000E+00  0.00000000000E+00  0.67650370491E+03  0.24885762068E+04  0.23948599697E+04 0.  0.
        4    1    3    3  502    0 -0.38098957978E+03 -0.14234204079E+03  0.15085669622E+04  0.15624308653E+04  0.12699999809E+01 0. -1.
       -4    1    3    3    0  502  0.38098957978E+03  0.14234204079E+03 -0.83206325732E+03  0.92614534149E+03  0.12699999809E+01 0.  1.
</event>
<event>
 5   0  0.3215208E-05  0.2420072E+04  0.7818609E-02  0.8432027E-01
        2   -1    0    0  501    0  0.00000000000E+00  0.00000000000E+00  0.10698435535E+04  0.10698435535E+04  0.25500000920E-02 0. -1.
       -2   -1    0    0    0  501  0.00000000000E+00  0.00000000000E+00 -0.13685994691E+04  0.13685994691E+04  0.25500000920E-02 0.  1.
    10030    2    1    2    0    0  0.00000000000E+00  0.00000000000E+00 -0.29875591566E+03  0.24384430226E+04  0.24200721637E+04 0.  0.
        1    1    3    3  502    0 -0.44349164672E+02  0.72007052264E+03 -0.11282042477E+04  0.13391464560E+04  0.50400001928E-02 0.  1.
       -1    1    3    3    0  502  0.44349164672E+02 -0.72007052264E+03  0.82944833203E+03  0.10992965667E+04  0.50400001928E-02 0. -1.
</event>
<event>
 5   0  0.1393026E-05  0.2416452E+04  0.7818609E-02  0.8433370E-01
       -1   -1    0    0    0  501  0.00000000000E+00  0.00000000000E+00  0.94019974497E+03  0.94019974499E+03  0.50400001928E-02 0. -1.
        1   -1    0    0  501    0  0.00000000000E+00  0.00000000000E+00 -0.15526590658E+04  0.15526590659E+04  0.50400001928E-02 0.  1.
    10030    2    1    2    0    0  0.00000000000E+00  0.00000000000E+00 -0.61245932087E+03  0.24928588108E+04  0.24164516612E+04 0.  0.
        4    1    3    3  502    0 -0.58095413340E+02  0.94048974006E+03  0.47393123996E+03  0.10547551665E+04  0.12699999809E+01 0. -1.
       -4    1    3    3    0  502  0.58095413340E+02 -0.94048974006E+03 -0.10863905608E+04  0.14381036443E+04  0.12699999809E+01 0.  1.
</event>
<event>
 5   0  0.3347728E-05  0.2376741E+04  0.7818609E-02  0.8448263E-01
        2   -1    0    0  501    0  0.00000000000E+00  0.00000000000E+00  0.13975409436E+04  0.13975409436E+04  0.25500000920E-02 0.  1.
       -2   -1    0    0    0  501  0.00000000000E+00  0.00000000000E+00 -0.10105065490E+04  0.10105065490E+04  0.25500000920E-02 0. -1.
    10030    2    1    2    0    0  0.00000000000E+00  0.00000000000E+00  0.38703439460E+03  0.24080474926E+04  0.23767408576E+04 0.  0.
        3    1    3    3  502    0  0.10110896855E+04  0.33599177056E+03  0.72678792949E+03  0.12897338976E+04  0.10100000352E+00 0.  1.
       -3    1    3    3    0  502 -0.10110896855E+04 -0.33599177056E+03 -0.33975353489E+03  0.11183135950E+04  0.10100000352E+00 0. -1.
</event>
<event>
 5   0  0.3345974E-05  0.2405389E+04  0.7818609E-02  0.8437489E-01
        2   -1    0    0  501    0  0.00000000000E+00  0.00000000000E+00  0.23336101538E+04  0.23336101538E+04  0.25500000920E-02 0.  1.
       -2   -1    0    0    0  501  0.00000000000E+00  0.00000000000E+00 -0.61984376121E+03  0.61984376121E+03  0.25500000920E-02 0. -1.
    10030    2    1    2    0    0  0.00000000000E+00  0.00000000000E+00  0.17137663926E+04  0.29534539150E+04  0.24053886962E+04 0.  0.
        4    1    3    3  502    0 -0.44076233492E+03  0.52839175415E+03 -0.35427808286E+03  0.77394047228E+03  0.12699999809E+01 0. -1.
       -4    1    3    3    0  502  0.44076233492E+03 -0.52839175415E+03  0.20680444755E+04  0.21795134427E+04  0.12699999809E+01 0.  1.
</event>
<event>
 5   0  0.1393026E-05  0.2386695E+04  0.7818609E-02  0.8444502E-01
        1   -1    0    0  501    0  0.00000000000E+00  0.00000000000E+00  0.10985666067E+04  0.10985666067E+04  0.50400001928E-02 0. -1.
       -1   -1    0    0    0  501  0.00000000000E+00  0.00000000000E+00 -0.12963052686E+04  0.12963052686E+04  0.50400001928E-02 0.  1.
    10030    2    1    2    0    0  0.00000000000E+00  0.00000000000E+00 -0.19773866195E+03  0.23948718753E+04  0.23866945176E+04 0.  0.
        4    1    3    3  502    0  0.44591124912E+03 -0.43376500580E+03  0.92299460891E+03  0.11130631533E+04  0.12699999809E+01 0. -1.
       -4    1    3    3    0  502 -0.44591124912E+03  0.43376500580E+03 -0.11207332709E+04  0.12818087219E+04  0.12699999809E+01 0.  1.
</event>
<event>
 5   0  0.1407158E-05  0.2362375E+04  0.7818609E-02  0.8453726E-01
        1   -1    0    0  501    0  0.00000000000E+00  0.00000000000E+00  0.12322039783E+04  0.12322039783E+04  0.50400001928E-02 0. -1.
       -1   -1    0    0    0  501  0.00000000000E+00  0.00000000000E+00 -0.11322827748E+04  0.11322827748E+04  0.50400001928E-02 0.  1.
    10030    2    1    2    0    0  0.00000000000E+00  0.00000000000E+00  0.99921203543E+02  0.23644867531E+04  0.23623745171E+04 0.  0.
        1    1    3    3  502    0  0.37521390604E+03 -0.10201083769E+04 -0.41283444226E+03  0.11626860508E+04  0.50400001928E-02 0.  1.
       -1    1    3    3    0  502 -0.37521390604E+03  0.10201083769E+04  0.51275564581E+03  0.12018007024E+04  0.50400001928E-02 0. -1.
</event>
<event>
 5   0  0.3310037E-05  0.2421522E+04  0.7818609E-02  0.8431490E-01
        2   -1    0    0  501    0  0.00000000000E+00  0.00000000000E+00  0.10752303623E+04  0.10752303623E+04  0.25500000920E-02 0. -1.
       -2   -1    0    0    0  501  0.00000000000E+00  0.00000000000E+00 -0.13633746669E+04  0.13633746669E+04  0.25500000920E-02 0.  1.
    10030    2    1    2    0    0  0.00000000000E+00  0.00000000000E+00 -0.28814430466E+03  0.24386050292E+04  0.24215217009E+04 0.  0.
        2    1    3    3  502    0  0.10198828595E+04  0.49839422251E+03 -0.56821320313E+03  0.12694188010E+04  0.25500000920E-02 0. -1.
       -2    1    3    3    0  502 -0.10198828595E+04 -0.49839422251E+03  0.28006889847E+03  0.11691862282E+04  0.25500000920E-02 0.  1.
</event>
<event>
 5   0  0.3347728E-05  0.2293282E+04  0.7818609E-02  0.8480575E-01
        2   -1    0    0  501    0  0.00000000000E+00  0.00000000000E+00  0.11443722528E+04  0.11443722528E+04  0.25500000920E-02 0. -1.
       -2   -1    0    0    0  501  0.00000000000E+00  0.00000000000E+00 -0.11489144942E+04  0.11489144942E+04  0.25500000920E-02 0.  1.
    10030    2    1    2    0    0  0.00000000000E+00  0.00000000000E+00 -0.45422414353E+01  0.22932867469E+04  0.22932822486E+04 0.  0.
        3    1    3    3  502    0 -0.43394722778E+03 -0.30447847703E+03  0.10144749507E+04  0.11446295363E+04  0.10100000352E+00 0. -1.
       -3    1    3    3    0  502  0.43394722778E+03  0.30447847703E+03 -0.10190171922E+04  0.11486572107E+04  0.10100000352E+00 0.  1.
</event>
<event>
 5   0  0.1393026E-05  0.2431475E+04  0.7818609E-02  0.8427813E-01
       -1   -1    0    0    0  501  0.00000000000E+00  0.00000000000E+00  0.12879258268E+04  0.12879258268E+04  0.50400001928E-02 0.  1.
        1   -1    0    0  501    0  0.00000000000E+00  0.00000000000E+00 -0.11475949675E+04  0.11475949676E+04  0.50400001928E-02 0. -1.
    10030    2    1    2    0    0  0.00000000000E+00  0.00000000000E+00  0.14033085921E+03  0.24355207943E+04  0.24314746122E+04 0.  0.
        4    1    3    3  502    0 -0.52088630031E+03 -0.44621911576E+02  0.11695810572E+04  0.12811069882E+04  0.12699999809E+01 0.  1.
       -4    1    3    3    0  502  0.52088630031E+03  0.44621911576E+02 -0.10292501980E+04  0.11544138062E+04  0.12699999809E+01 0. -1.
</event>
<event>
 5   0  0.1401596E-05  0.2390552E+04  0.7818609E-02  0.8443049E-01
       -1   -1    0    0    0  501  0.00000000000E+00  0.00000000000E+00  0.16317094769E+04  0.16317094769E+04  0.50400001928E-02 0.  1.
        1   -1    0    0  501    0  0.00000000000E+00  0.00000000000E+00 -0.87557567838E+03  0.87557567839E+03  0.50400001928E-02 0. -1.
    10030    2    1    2    0    0  0.00000000000E+00  0.00000000000E+00  0.75613379854E+03  0.25072851553E+04  0.23905523481E+04 0.  0.
        2    1    3    3  502    0 -0.11790933914E+04  0.17250785104E+03  0.28043573986E+03  0.12241994889E+04  0.25500000920E-02 0. -1.
       -2    1    3    3    0  502  0.11790933914E+04 -0.17250785104E+03  0.47569805868E+03  0.12830856664E+04  0.25500000920E-02 0.  1.
</event>
<event>
 5   0  0.1407158E-05  0.2240292E+04  0.7818609E-02  0.8501843E-01
       -1   -1    0    0    0  501  0.00000000000E+00  0.00000000000E+00  0.79697300772E+03  0.79697300774E+03  0.50400001928E-02 0.  1.
        1   -1    0    0  501    0  0.00000000000E+00  0.00000000000E+00 -0.15743654090E+04  0.15743654090E+04  0.50400001928E-02 0. -1.
    10030    2    1    2    0    0  0.00000000000E+00  0.00000000000E+00 -0.77739240132E+03  0.23713384168E+04  0.22402917090E+04 0.  0.
        1    1    3    3  502    0 -0.28272653838E+03  0.85505241687E+03  0.31635850737E+03  0.95453215572E+03  0.50400001928E-02 0.  1.
       -1    1    3    3    0  502  0.28272653838E+03 -0.85505241687E+03 -0.10937509087E+04  0.14168062611E+04  0.50400001928E-02 0. -1.
</event>
<event>
 5   0  0.3310037E-05  0.2415238E+04  0.7818609E-02  0.8433821E-01
       -2   -1    0    0    0  501  0.00000000000E+00  0.00000000000E+00  0.85943988627E+03  0.85943988627E+03  0.25500000920E-02 0. -1.
        2   -1    0    0  501    0  0.00000000000E+00  0.00000000000E+00 -0.16968537998E+04  0.16968537998E+04  0.25500000920E-02 0.  1.
    10030    2    1    2    0    0  0.00000000000E+00  0.00000000000E+00 -0.83741391353E+03  0.25562936861E+04  0.24152381553E+04 0.  0.
        2    1    3    3  502    0 -0.10890625897E+04  0.43809265037E+03 -0.11867025894E+03  0.11798580953E+04  0.25500000920E-02 0.  1.
       -2    1    3    3    0  502  0.10890625897E+04 -0.43809265037E+03 -0.71874365459E+03  0.13764355908E+04  0.25500000920E-02 0. -1.
</event>
<event>
 5   0  0.1434943E-05  0.2410742E+04  0.7818609E-02  0.8435493E-01
       -1   -1    0    0    0  501  0.00000000000E+00  0.00000000000E+00  0.80745526166E+03  0.80745526168E+03  0.50400001928E-02 0. -1.
        1   -1    0    0  501    0  0.00000000000E+00  0.00000000000E+00 -0.17993802923E+04  0.17993802923E+04  0.50400001928E-02 0.  1.
    10030    2    1    2    0    0  0.00000000000E+00  0.00000000000E+00 -0.99192503061E+03  0.26068355540E+04  0.24107418649E+04 0.  0.
        5    1    3    3  502    0  0.61274983939E+03 -0.69249042114E+03 -0.13320932127E+04  0.16215732380E+04  0.46999998093E+01 0.  1.
       -5    1    3    3    0  502 -0.61274983939E+03  0.69249042114E+03  0.34016818208E+03  0.98526231591E+03  0.46999998093E+01 0. -1.
</event>
<event>
 5   0  0.1506985E-05  0.2378525E+04  0.7818609E-02  0.8447587E-01
       -1   -1    0    0    0  501  0.00000000000E+00  0.00000000000E+00  0.62268428385E+03  0.62268428387E+03  0.50400001928E-02 0.  1.
        1   -1    0    0  501    0  0.00000000000E+00  0.00000000000E+00 -0.22713682695E+04  0.22713682695E+04  0.50400001928E-02 0. -1.
    10030    2    1    2    0    0  0.00000000000E+00  0.00000000000E+00 -0.16486839856E+04  0.28940525534E+04  0.23785250256E+04 0.  0.
        3    1    3    3  502    0  0.12336519108E+03 -0.44522458379E+03  0.50903318525E+03  0.68742904671E+03  0.10100000352E+00 0.  1.
       -3    1    3    3    0  502 -0.12336519108E+03  0.44522458379E+03 -0.21577171709E+04  0.22066235067E+04  0.10100000352E+00 0. -1.
</event>
<event>
 5   0  0.3347728E-05  0.2376477E+04  0.7818609E-02  0.8448363E-01
       -2   -1    0    0    0  501  0.00000000000E+00  0.00000000000E+00  0.10635127386E+04  0.10635127386E+04  0.25500000920E-02 0.  1.
        2   -1    0    0  501    0  0.00000000000E+00  0.00000000000E+00 -0.13275917019E+04  0.13275917019E+04  0.25500000920E-02 0. -1.
    10030    2    1    2    0    0  0.00000000000E+00  0.00000000000E+00 -0.26407896329E+03  0.23911044406E+04  0.23764769611E+04 0.  0.
        3    1    3    3  502    0  0.11149521255E+04  0.38852782609E+03 -0.26642264692E+03  0.12103937999E+04  0.10100000352E+00 0. -1.
       -3    1    3    3    0  502 -0.11149521255E+04 -0.38852782609E+03  0.23436836280E+01  0.11807106407E+04  0.10100000352E+00 0.  1.
</event>
<event>
 5   0  0.3347728E-05  0.2400037E+04  0.7818609E-02  0.8439490E-01
       -2   -1    0    0    0  501  0.00000000000E+00  0.00000000000E+00  0.16617170461E+04  0.16617170461E+04  0.25500000920E-02 0.  1.
        2   -1    0    0  501    0  0.00000000000E+00  0.00000000000E+00 -0.86660010160E+03  0.86660010160E+03  0.25500000920E-02 0. -1.
    10030    2    1    2    0    0  0.00000000000E+00  0.00000000000E+00  0.79511694450E+03  0.25283171477E+04  0.24000368005E+04 0.  0.
        3    1    3    3  502    0  0.20797011923E+03 -0.63102005221E+03 -0.65515648701E+03  0.93309587367E+03  0.10100000352E+00 0. -1.
       -3    1    3    3    0  502 -0.20797011923E+03  0.63102005221E+03  0.14502734315E+04  0.15952212740E+04  0.10100000352E+00 0.  1.
</event>
<event>
 5   0  0.1407158E-05  0.2491728E+04  0.7818609E-02  0.8405939E-01
        1   -1    0    0  501    0  0.00000000000E+00  0.00000000000E+00  0.17330452620E+04  0.17330452620E+04  0.50400001928E-02 0.  1.
       -1   -1    0    0    0  501  0.00000000000E+00  0.00000000000E+00 -0.89563537590E+03  0.89563537592E+03  0.50400001928E-02 0. -1.
    10030    2    1    2    0    0  0.00000000000E+00  0.00000000000E+00  0.83740988605E+03  0.26286806379E+04  0.24917276293E+04 0.  0.
        1    1    3    3  502    0 -0.65967158023E+03  0.71144553507E+03 -0.40582500059E+03  0.10516726079E+04  0.50400001928E-02 0.  1.
       -1    1    3    3    0  502  0.65967158023E+03 -0.71144553507E+03  0.12432348866E+04  0.15770080300E+04  0.50400001928E-02 0. -1.
</event>
<event>
 5   0  0.3215208E-05  0.2409292E+04  0.7818609E-02  0.8436033E-01
        2   -1    0    0  501    0  0.00000000000E+00  0.00000000000E+00  0.12911452104E+04  0.12911452104E+04  0.25500000920E-02 0.  1.
       -2   -1    0    0    0  501  0.00000000000E+00  0.00000000000E+00 -0.11239419890E+04  0.11239419890E+04  0.25500000920E-02 0. -1.
    10030    2    1    2    0    0  0.00000000000E+00  0.00000000000E+00  0.16720322142E+03  0.24150871994E+04  0.24092922744E+04 0.  0.
        1    1    3    3  502    0  0.93521558728E+03 -0.56655412785E+03  0.59034749224E+03  0.12426270302E+04  0.50400001928E-02 0. -1.
       -1    1    3    3    0  502 -0.93521558728E+03  0.56655412785E+03 -0.42314427082E+03  0.11724601692E+04  0.50400001928E-02 0.  1.
</event>
<event>
 5   0  0.1401596E-05  0.2408660E+04  0.7818609E-02  0.8436269E-01
        1   -1    0    0  501    0  0.00000000000E+00  0.00000000000E+00  0.17743943241E+04  0.17743943241E+04  0.50400001928E-02 0. -1.
       -1   -1    0    0    0  501  0.00000000000E+00  0.00000000000E+00 -0.81741157122E+03  0.81741157124E+03  0.50400001928E-02 0.  1.
    10030    2    1    2    0    0  0.00000000000E+00  0.00000000000E+00  0.95698275291E+03  0.25918058954E+04  0.24086597539E+04 0.  0.
        2    1    3    3  502    0 -0.11053129530E+04 -0.41492538374E+03  0.73433171663E+03  0.13903678895E+04  0.25500000920E-02 0. -1.
       -2    1    3    3    0  502  0.11053129530E+04  0.41492538374E+03  0.22265103628E+03  0.12014380059E+04  0.25500000920E-02 0.  1.
</event>
<event>
 5   0  0.1407158E-05  0.2366450E+04  0.7818609E-02  0.8452172E-01
        1   -1    0    0  501    0  0.00000000000E+00  0.00000000000E+00  0.10623398519E+04  0.10623398519E+04  0.50400001928E-02 0.  1.
       -1   -1    0    0    0  501  0.00000000000E+00  0.00000000000E+00 -0.13178654942E+04  0.13178654942E+04  0.50400001928E-02 0. -1.
    10030    2    1    2    0    0  0.00000000000E+00  0.00000000000E+00 -0.25552564227E+03  0.23802053461E+04  0.23664496901E+04 0.  0.
        1    1    3    3  502    0 -0.72566847652E+03 -0.90052991096E+03  0.12363439581E+03  0.11631140624E+04  0.50400001928E-02 0.  1.
       -1    1    3    3    0  502  0.72566847652E+03  0.90052991096E+03 -0.37916003808E+03  0.12170912837E+04  0.50400001928E-02 0. -1.
</event>
<event>
 5   0  0.1147362E-05  0.2661082E+04  0.7818609E-02  0.8347744E-01
       -4   -1    0    0    0  501  0.00000000000E+00  0.00000000000E+00  0.88828008330E+03  0.88828099118E+03  0.12699999809E+01 0.  1.
        4   -1    0    0  501    0  0.00000000000E+00  0.00000000000E+00 -0.19929951666E+04  0.19929955713E+04  0.12699999809E+01 0. -1.
    10030    2    1    2    0    0  0.00000000000E+00  0.00000000000E+00 -0.11047150833E+04  0.28812765624E+04  0.26610823388E+04 0.  0.
        4    1    3    3  502    0 -0.89271096378E+03  0.37374216053E+03 -0.15409955360E+04  0.18196936341E+04  0.12699999809E+01 0. -1.
       -4    1    3    3    0  502  0.89271096378E+03 -0.37374216053E+03  0.43628045263E+03  0.10615829283E+04  0.12699999809E+01 0.  1.
</event>
<event>
 5   0  0.3215208E-05  0.2362902E+04  0.7818609E-02  0.8453524E-01
       -2   -1    0    0    0  501  0.00000000000E+00  0.00000000000E+00  0.64672537745E+03  0.64672537746E+03  0.25500000920E-02 0.  1.
        2   -1    0    0  501    0  0.00000000000E+00  0.00000000000E+00 -0.21582986668E+04  0.21582986668E+04  0.25500000920E-02 0. -1.
    10030    2    1    2    0    0  0.00000000000E+00  0.00000000000E+00 -0.15115732893E+04  0.28050240442E+04  0.23629020462E+04 0.  0.
        1    1    3    3  502    0 -0.10664353673E+04 -0.19662863626E+03 -0.19913557329E+03  0.11025435093E+04  0.50400001928E-02 0.  1.
       -1    1    3    3    0  502  0.10664353673E+04  0.19662863626E+03 -0.13124377161E+04  0.17024805349E+04  0.50400001928E-02 0. -1.
</event>
<event>
 5   0  0.1401596E-05  0.2390265E+04  0.7818609E-02  0.8443157E-01
        1   -1    0    0  501    0  0.00000000000E+00  0.00000000000E+00  0.10101248889E+04  0.10101248889E+04  0.50400001928E-02 0.  1.
       -1   -1    0    0    0  501  0.00000000000E+00  0.00000000000E+00 -0.14140247243E+04  0.14140247243E+04  0.50400001928E-02 0. -1.
    10030    2    1    2    0    0  0.00000000000E+00  0.00000000000E+00 -0.40389983547E+03  0.24241496132E+04  0.23902648954E+04 0.  0.
        2    1    3    3  502    0 -0.11818158371E+04  0.17084320821E+03 -0.25230754612E+03  0.12204651459E+04  0.25500000920E-02 0. -1.
       -2    1    3    3    0  502  0.11818158371E+04 -0.17084320821E+03 -0.15159228935E+03  0.12036844673E+04  0.25500000920E-02 0.  1.
</event>
<event>
 5   0  0.1401596E-05  0.2404806E+04  0.7818609E-02  0.8437707E-01
        1   -1    0    0  501    0  0.00000000000E+00  0.00000000000E+00  0.15297875894E+04  0.15297875894E+04  0.50400001928E-02 0. -1.
       -1   -1    0    0    0  501  0.00000000000E+00  0.00000000000E+00 -0.94508071095E+03  0.94508071097E+03  0.50400001928E-02 0.  1.
    10030    2    1    2    0    0  0.00000000000E+00  0.00000000000E+00  0.58470687848E+03  0.24748683004E+04  0.24048058073E+04 0.  0.
        2    1    3    3  502    0  0.55732156167E+02 -0.11839913073E+04  0.50030799454E+03  0.12865650308E+04  0.25500000920E-02 0. -1.
       -2    1    3    3    0  502 -0.55732156167E+02  0.11839913073E+04  0.84398883930E+02  0.11883032696E+04  0.25500000920E-02 0.  1.
</event>
<event>
 5   0  0.3310037E-05  0.2409292E+04  0.7818609E-02  0.8436033E-01
        2   -1    0    0  501    0  0.00000000000E+00  0.00000000000E+00  0.25815867587E+04  0.25815867587E+04  0.25500000920E-02 0.  1.
       -2   -1    0    0    0  501  0.00000000000E+00  0.00000000000E+00 -0.56212427150E+03  0.56212427151E+03  0.25500000920E-02 0. -1.
    10030    2    1    2    0    0  0.00000000000E+00  0.00000000000E+00  0.20194624872E+04  0.31437110302E+04  0.24092924904E+04 0.  0.
        2    1    3    3  502    0 -0.61555593285E+03 -0.10086464962E+04  0.13154501631E+04  0.17682437593E+04  0.25500000920E-02 0.  1.
       -2    1    3    3    0  502  0.61555593285E+03  0.10086464962E+04  0.70401232410E+03  0.13754672709E+04  0.25500000920E-02 0. -1.
</event>
<event>
 5   0  0.1506985E-05  0.2439096E+04  0.7818609E-02  0.8425010E-01
        1   -1    0    0  501    0  0.00000000000E+00  0.00000000000E+00  0.12542340543E+04  0.12542340543E+04  0.50400001928E-02 0.  1.
       -1   -1    0    0    0  501  0.00000000000E+00  0.00000000000E+00 -0.11858212853E+04  0.11858212853E+04  0.50400001928E-02 0. -1.
    10030    2    1    2    0    0  0.00000000000E+00  0.00000000000E+00  0.68412769056E+02  0.24400553396E+04  0.24390960935E+04 0.  0.
        3    1    3    3  502    0 -0.12106171593E+04  0.43863423614E+02  0.17490138281E+03  0.12239723895E+04  0.10100000352E+00 0. -1.
       -3    1    3    3    0  502  0.12106171593E+04 -0.43863423614E+02 -0.10648861375E+03  0.12160829501E+04  0.10100000352E+00 0.  1.
</event>
<event>
 5   0  0.3320780E-05  0.2409945E+04  0.7818609E-02  0.8435790E-01
        2   -1    0    0  501    0  0.00000000000E+00  0.00000000000E+00  0.11770361860E+04  0.11770361860E+04  0.25500000920E-02 0. -1.
       -2   -1    0    0    0  501  0.00000000000E+00  0.00000000000E+00 -0.12335722016E+04  0.12335722016E+04  0.25500000920E-02 0.  1.
    10030    2    1    2    0    0  0.00000000000E+00  0.00000000000E+00 -0.56536015616E+02  0.24106083876E+04  0.24099453266E+04 0.  0.
        5    1    3    3  502    0  0.20501394039E+03  0.44510932612E+03  0.10728454751E+04  0.11794797715E+04  0.46999998093E+01 0. -1.
       -5    1    3    3    0  502 -0.20501394039E+03 -0.44510932612E+03 -0.11293814907E+04  0.12311286161E+04  0.46999998093E+01 0.  1.
</event>
<event>
 5   0  0.1506985E-05  0.2394044E+04  0.7818609E-02  0.8441737E-01
        1   -1    0    0  501    0  0.00000000000E+00  0.00000000000E+00  0.10299153188E+04  0.10299153188E+04  0.50400001928E-02 0.  1.
       -1   -1    0    0    0  501  0.00000000000E+00  0.00000000000E+00 -0.13912417147E+04  0.13912417147E+04  0.50400001928E-02 0. -1.
    10030    2    1    2    0    0  0.00000000000E+00  0.00000000000E+00 -0.36132639586E+03  0.24211570335E+04  0.23940435703E+04 0.  0.
        3    1    3    3  502    0  0.81160405121E+03  0.32167929112E+03 -0.10088901831E+04  0.13341806901E+04  0.10100000352E+00 0. -1.
       -3    1    3    3    0  502 -0.81160405121E+03 -0.32167929112E+03  0.64756378720E+03  0.10869763433E+04  0.10100000352E+00 0.  1.
</event>
<event>
 5   0  0.3310037E-05  0.2420800E+04  0.7818609E-02  0.8431757E-01
       -2   -1    0    0    0  501  0.00000000000E+00  0.00000000000E+00  0.96024386048E+03  0.96024386048E+03  0.25500000920E-02 0. -1.
        2   -1    0    0  501    0  0.00000000000E+00  0.00000000000E+00 -0.15257250790E+04  0.15257250790E+04  0.25500000920E-02 0.  1.
    10030    2    1    2    0    0  0.00000000000E+00  0.00000000000E+00 -0.56548121849E+03  0.24859689395E+04  0.24207999834E+04 0.  0.
        2    1    3    3  502    0 -0.33585832569E+03  0.38756989811E+03 -0.14086392714E+04  0.14990916709E+04  0.25500000920E-02 0.  1.
       -2    1    3    3    0  502  0.33585832569E+03 -0.38756989811E+03  0.84315805295E+03  0.98687726851E+03  0.25500000920E-02 0. -1.
</event>
<event>
 5   0  0.3310037E-05  0.2340827E+04  0.7818609E-02  0.8461996E-01
        2   -1    0    0  501    0  0.00000000000E+00  0.00000000000E+00  0.17773234190E+04  0.17773234190E+04  0.25500000920E-02 0. -1.
       -2   -1    0    0    0  501  0.00000000000E+00  0.00000000000E+00 -0.77074730197E+03  0.77074730198E+03  0.25500000920E-02 0.  1.
    10030    2    1    2    0    0  0.00000000000E+00  0.00000000000E+00  0.10065761170E+04  0.25480707210E+04  0.23408265463E+04 0.  0.
        2    1    3    3  502    0  0.40882188044E+03 -0.44295767740E+01  0.16970648077E+04  0.17456184900E+04  0.25500000920E-02 0. -1.
       -2    1    3    3    0  502 -0.40882188044E+03  0.44295767740E+01 -0.69048869066E+03  0.80245223099E+03  0.25500000920E-02 0.  1.
</event>
<event>
 5   0  0.1407158E-05  0.2405067E+04  0.7818609E-02  0.8437609E-01
        1   -1    0    0  501    0  0.00000000000E+00  0.00000000000E+00  0.14519182840E+04  0.14519182840E+04  0.50400001928E-02 0.  1.
       -1   -1    0    0    0  501  0.00000000000E+00  0.00000000000E+00 -0.99598389651E+03  0.99598389652E+03  0.50400001928E-02 0. -1.
    10030    2    1    2    0    0  0.00000000000E+00  0.00000000000E+00  0.45593438746E+03  0.24479021805E+04  0.24050673420E+04 0.  0.
        1    1    3    3  502    0  0.66870111809E+03  0.95607040340E+03 -0.68520473419E+02  0.11687287354E+04  0.50400001928E-02 0. -1.
       -1    1    3    3    0  502 -0.66870111809E+03 -0.95607040340E+03  0.52445486088E+03  0.12791734451E+04  0.50400001928E-02 0.  1.
</event>
<event>
 5   0  0.3347728E-05  0.2416192E+04  0.7818609E-02  0.8433466E-01
        2   -1    0    0  501    0  0.00000000000E+00  0.00000000000E+00  0.12329258805E+04  0.12329258805E+04  0.25500000920E-02 0.  1.
       -2   -1    0    0    0  501  0.00000000000E+00  0.00000000000E+00 -0.11837659843E+04  0.11837659843E+04  0.25500000920E-02 0. -1.
    10030    2    1    2    0    0  0.00000000000E+00  0.00000000000E+00  0.49159896233E+02  0.24166918648E+04  0.24161918123E+04 0.  0.
        3    1    3    3  502    0 -0.55392395854E+03 -0.10121883995E+04 -0.33345865963E+03  0.12010627777E+04  0.10100000352E+00 0. -1.
       -3    1    3    3    0  502  0.55392395854E+03  0.10121883995E+04  0.38261855586E+03  0.12156290871E+04  0.10100000352E+00 0.  1.
</event>
<event>
 5   0  0.3310037E-05  0.2162285E+04  0.7818609E-02  0.8534292E-01
        2   -1    0    0  501    0  0.00000000000E+00  0.00000000000E+00  0.18487876655E+04  0.18487876655E+04  0.25500000920E-02 0.  1.
       -2   -1    0    0    0  501  0.00000000000E+00  0.00000000000E+00 -0.63223568699E+03  0.63223568699E+03  0.25500000920E-02 0. -1.
    10030    2    1    2    0    0  0.00000000000E+00  0.00000000000E+00  0.12165519786E+04  0.24810233525E+04  0.21622854019E+04 0.  0.
        2    1    3    3  502    0  0.53363100622E+03  0.30436423426E+03 -0.41251079279E+03  0.73997621047E+03  0.25500000920E-02 0. -1.
       -2    1    3    3    0  502 -0.53363100622E+03 -0.30436423426E+03  0.16290627713E+04  0.17410471421E+04  0.25500000920E-02 0.  1.
</event>
<event>
 5   0  0.1506985E-05  0.2400655E+04  0.7818609E-02  0.8439259E-01
        1   -1    0    0  501    0  0.00000000000E+00  0.00000000000E+00  0.11526562037E+04  0.11526562037E+04  0.50400001928E-02 0. -1.
       -1   -1    0    0    0  501  0.00000000000E+00  0.00000000000E+00 -0.12499699519E+04  0.12499699519E+04  0.50400001928E-02 0.  1.
    10030    2    1    2    0    0  0.00000000000E+00  0.00000000000E+00 -0.97313748219E+02  0.24026261556E+04  0.24006545936E+04 0.  0.
        3    1    3    3  502    0 -0.62554626754E+03  0.37127693582E+03  0.90692090949E+03  0.11626092388E+04  0.10100000352E+00 0. -1.
       -3    1    3    3    0  502  0.62554626754E+03 -0.37127693582E+03 -0.10042346577E+04  0.12400169168E+04  0.10100000352E+00 0.  1.
</event>
<event>
 5   0  0.1506985E-05  0.2246253E+04  0.7818609E-02  0.8499420E-01
       -1   -1    0    0    0  501  0.00000000000E+00  0.00000000000E+00  0.12808984695E+04  0.12808984695E+04  0.50400001928E-02 0. -1.
        1   -1    0    0  501    0  0.00000000000E+00  0.00000000000E+00 -0.98478768985E+03  0.98478768986E+03  0.50400001928E-02 0.  1.
    10030    2    1    2    0    0  0.00000000000E+00  0.00000000000E+00  0.29611077962E+03  0.22656861593E+04  0.22462529196E+04 0.  0.
        3    1    3    3  502    0 -0.92823017520E+03  0.27022634335E+03  0.72464723899E+03  0.12081999694E+04  0.10100000352E+00 0. -1.
       -3    1    3    3    0  502  0.92823017520E+03 -0.27022634335E+03 -0.42853645937E+03  0.10574861900E+04  0.10100000352E+00 0.  1.
</event>
<event>
 5   0  0.1393026E-05  0.2443111E+04  0.7818609E-02  0.8423538E-01
       -1   -1    0    0    0  501  0.00000000000E+00  0.00000000000E+00  0.95777764465E+03  0.95777764466E+03  0.50400001928E-02 0. -1.
        1   -1    0    0  501    0  0.00000000000E+00  0.00000000000E+00 -0.15579793877E+04  0.15579793877E+04  0.50400001928E-02 0.  1.
    10030    2    1    2    0    0  0.00000000000E+00  0.00000000000E+00 -0.60020174308E+03  0.25157570324E+04  0.24431109909E+04 0.  0.
        4    1    3    3  502    0  0.12096464404E+03  0.11690773050E+04  0.42697333717E+02  0.11760947518E+04  0.12699999809E+01 0. -1.
       -4    1    3    3    0  502 -0.12096464404E+03 -0.11690773050E+04 -0.64289907680E+03  0.13396622806E+04  0.12699999809E+01 0.  1.
</event>
<event>
 5   0  0.3347728E-05  0.2419045E+04  0.7818609E-02  0.8432408E-01
       -2   -1    0    0    0  501  0.00000000000E+00  0.00000000000E+00  0.12825562773E+04  0.12825562773E+04  0.25500000920E-02 0.  1.
        2   -1    0    0  501    0  0.00000000000E+00  0.00000000000E+00 -0.11406474554E+04  0.11406474554E+04  0.25500000920E-02 0. -1.
    10030    2    1    2    0    0  0.00000000000E+00  0.00000000000E+00  0.14190882189E+03  0.24232037326E+04  0.24190448975E+04 0.  0.
        3    1    3    3  502    0  0.28312489037E+03 -0.11288753601E+04  0.40080042453E+03  0.12309184671E+04  0.10100000352E+00 0.  1.
       -3    1    3    3    0  502 -0.28312489037E+03  0.11288753601E+04 -0.25889160264E+03  0.11922852655E+04  0.10100000352E+00 0. -1.
</event>
<event>
 5   0  0.3310037E-05  0.2289494E+04  0.7818609E-02  0.8482075E-01
       -2   -1    0    0    0  501  0.00000000000E+00  0.00000000000E+00  0.13872269488E+04  0.13872269488E+04  0.25500000920E-02 0.  1.
        2   -1    0    0  501    0  0.00000000000E+00  0.00000000000E+00 -0.94465110868E+03  0.94465110868E+03  0.25500000920E-02 0. -1.
    10030    2    1    2    0    0  0.00000000000E+00  0.00000000000E+00  0.44257584014E+03  0.23318780575E+04  0.22894938089E+04 0.  0.
        2    1    3    3  502    0  0.10388041929E+04  0.46904275866E+03  0.32970193551E+03  0.11865153294E+04  0.25500000920E-02 0.  1.
       -2    1    3    3    0  502 -0.10388041929E+04 -0.46904275866E+03  0.11287390462E+03  0.11453627281E+04  0.25500000920E-02 0. -1.
</event>
<event>
 5   0  0.3345974E-05  0.2390363E+04  0.7818609E-02  0.8443120E-01
        2   -1    0    0  501    0  0.00000000000E+00  0.00000000000E+00  0.91544055190E+03  0.91544055190E+03  0.25500000920E-02 0. -1.
       -2   -1    0    0    0  501  0.00000000000E+00  0.00000000000E+00 -0.15604053351E+04  0.15604053351E+04  0.25500000920E-02 0.  1.
    10030    2    1    2    0    0  0.00000000000E+00  0.00000000000E+00 -0.64496478318E+03  0.24758458870E+04  0.23903625843E+04 0.  0.
        4    1    3    3  502    0 -0.14028076760E+03  0.76120742227E+02 -0.15493173144E+04  0.15575168747E+04  0.12699999809E+01 0.  1.
       -4    1    3    3    0  502  0.14028076760E+03 -0.76120742227E+02  0.90435253126E+03  0.91832901231E+03  0.12699999809E+01 0. -1.
</event>
<event>
 5   0  0.1401596E-05  0.2405752E+04  0.7818609E-02  0.8437353E-01
       -1   -1    0    0    0  501  0.00000000000E+00  0.00000000000E+00  0.88008890913E+03  0.88008890915E+03  0.50400001928E-02 0.  1.
        1   -1    0    0  501    0  0.00000000000E+00  0.00000000000E+00 -0.16440499786E+04  0.16440499786E+04  0.50400001928E-02 0. -1.
    10030    2    1    2    0    0  0.00000000000E+00  0.00000000000E+00 -0.76396106951E+03  0.25241388878E+04  0.24057515685E+04 0.  0.
        2    1    3    3  502    0  0.41245107672E+03  0.63122730789E+03  0.60134059166E+03  0.96445544847E+03  0.25500000920E-02 0.  1.
       -2    1    3    3    0  502 -0.41245107672E+03 -0.63122730789E+03 -0.13653016612E+04  0.15596834393E+04  0.25500000920E-02 0. -1.
</event>
<event>
 5   0  0.1147362E-05  0.2410535E+04  0.7818609E-02  0.8435570E-01
       -3   -1    0    0    0  501  0.00000000000E+00  0.00000000000E+00  0.12183103521E+04  0.12183103563E+04  0.10100000352E+00 0. -1.
        3   -1    0    0  501    0  0.00000000000E+00  0.00000000000E+00 -0.11923641296E+04  0.11923641338E+04  0.10100000352E+00 0.  1.
    10030    2    1    2    0    0  0.00000000000E+00  0.00000000000E+00  0.25946222587E+02  0.24106744902E+04  0.24105348558E+04 0.  0.
        5    1    3    3  502    0 -0.13817496566E+03  0.77098019385E+03 -0.90312836940E+03  0.11954771943E+04  0.46999998093E+01 0.  1.
       -5    1    3    3    0  502  0.13817496566E+03 -0.77098019385E+03  0.92907459198E+03  0.12151972959E+04  0.46999998093E+01 0. -1.
</event>
<event>
 5   0  0.3215208E-05  0.2409899E+04  0.7818609E-02  0.8435807E-01
        2   -1    0    0  501    0  0.00000000000E+00  0.00000000000E+00  0.24316675569E+04  0.24316675569E+04  0.25500000920E-02 0.  1.
       -2   -1    0    0    0  501  0.00000000000E+00  0.00000000000E+00 -0.59708139267E+03  0.59708139267E+03  0.25500000920E-02 0. -1.
    10030    2    1    2    0    0  0.00000000000E+00  0.00000000000E+00  0.18345861643E+04  0.30287489496E+04  0.24098991277E+04 0.  0.
        1    1    3    3  502    0 -0.90424060478E+03 -0.69293837080E+03  0.14106371842E+04  0.18132048760E+04  0.50400001928E-02 0.  1.
       -1    1    3    3    0  502  0.90424060478E+03  0.69293837080E+03  0.42394898010E+03  0.12155440736E+04  0.50400001928E-02 0. -1.
</event>
<event>
 5   0  0.3310037E-05  0.2053197E+04  0.7818609E-02  0.8582145E-01
       -2   -1    0    0    0  501  0.00000000000E+00  0.00000000000E+00  0.12143425670E+04  0.12143425670E+04  0.25500000920E-02 0. -1.
        2   -1    0    0  501    0  0.00000000000E+00  0.00000000000E+00 -0.86788068570E+03  0.86788068571E+03  0.25500000920E-02 0.  1.
    10030    2    1    2    0    0  0.00000000000E+00  0.00000000000E+00  0.34646188129E+03  0.20822232527E+04  0.20531969801E+04 0.  0.
        2    1    3    3  502    0 -0.50130494449E+03 -0.58984845533E+03 -0.51059879683E+03  0.92732894862E+03  0.25500000920E-02 0.  1.
       -2    1    3    3    0  502  0.50130494449E+03  0.58984845533E+03  0.85706067812E+03  0.11548943041E+04  0.25500000920E-02 0. -1.
</event>
<event>
 5   0  0.1407158E-05  0.2391003E+04  0.7818609E-02  0.8442880E-01
        1   -1    0    0  501    0  0.00000000000E+00  0.00000000000E+00  0.14015197720E+04  0.14015197720E+04  0.50400001928E-02 0. -1.
       -1   -1    0    0    0  501  0.00000000000E+00  0.00000000000E+00 -0.10197672868E+04  0.10197672868E+04  0.50400001928E-02 0.  1.
    10030    2    1    2    0    0  0.00000000000E+00  0.00000000000E+00  0.38175248522E+03  0.24212870588E+04  0.23910031495E+04 0.  0.
        1    1    3    3  502    0  0.88423036747E+02 -0.89127937886E+02  0.13948253766E+04  0.14004642994E+04  0.50400001928E-02 0. -1.
       -1    1    3    3    0  502 -0.88423036747E+02  0.89127937886E+02 -0.10130728914E+04  0.10208227594E+04  0.50400001928E-02 0.  1.
</event>
<event>
 5   0  0.1506985E-05  0.2395638E+04  0.7818609E-02  0.8441139E-01
       -1   -1    0    0    0  501  0.00000000000E+00  0.00000000000E+00  0.99713213739E+03  0.99713213741E+03  0.50400001928E-02 0. -1.
        1   -1    0    0  501    0  0.00000000000E+00  0.00000000000E+00 -0.14388965810E+04  0.14388965810E+04  0.50400001928E-02 0.  1.
    10030    2    1    2    0    0  0.00000000000E+00  0.00000000000E+00 -0.44176444357E+03  0.24360287184E+04  0.23956377216E+04 0.  0.
        3    1    3    3  502    0 -0.33162165737E+03 -0.23561565295E+03  0.92473723825E+03  0.10102606741E+04  0.10100000352E+00 0. -1.
       -3    1    3    3    0  502  0.33162165737E+03  0.23561565295E+03 -0.13665016818E+04  0.14257680443E+04  0.10100000352E+00 0.  1.
</event>
<event>
 5   0  0.1393026E-05  0.2442190E+04  0.7818609E-02  0.8423875E-01
        1   -1    0    0  501    0  0.00000000000E+00  0.00000000000E+00  0.17291082049E+04  0.17291082049E+04  0.50400001928E-02 0.  1.
       -1   -1    0    0    0  501  0.00000000000E+00  0.00000000000E+00 -0.86233620091E+03  0.86233620093E+03  0.50400001928E-02 0. -1.
    10030    2    1    2    0    0  0.00000000000E+00  0.00000000000E+00  0.86677200402E+03  0.25914444059E+04  0.24421896736E+04 0.  0.
        4    1    3    3  502    0 -0.80365132576E+03 -0.87497333921E+03  0.73283334854E+03  0.13958796966E+04  0.12699999809E+01 0.  1.
       -4    1    3    3    0  502  0.80365132576E+03  0.87497333921E+03  0.13393865547E+03  0.11955647093E+04  0.12699999809E+01 0. -1.
</event>
<event>
 5   0  0.1407158E-05  0.2396285E+04  0.7818609E-02  0.8440896E-01
        1   -1    0    0  501    0  0.00000000000E+00  0.00000000000E+00  0.19083882755E+04  0.19083882755E+04  0.50400001928E-02 0.  1.
       -1   -1    0    0    0  501  0.00000000000E+00  0.00000000000E+00 -0.75222902727E+03  0.75222902729E+03  0.50400001928E-02 0. -1.
    10030    2    1    2    0    0  0.00000000000E+00  0.00000000000E+00  0.11561592482E+04  0.26606173028E+04  0.23962846710E+04 0.  0.
        1    1    3    3  502    0 -0.26324264993E+03 -0.70500020771E+03 -0.45708548126E+03  0.88048232397E+03  0.50400001928E-02 0. -1.
       -1    1    3    3    0  502  0.26324264993E+03  0.70500020771E+03  0.16132447295E+04  0.17801349788E+04  0.50400001928E-02 0.  1.
</event>
<event>
 5   0  0.3347728E-05  0.2387321E+04  0.7818609E-02  0.8444266E-01
        2   -1    0    0  501    0  0.00000000000E+00  0.00000000000E+00  0.20922809143E+04  0.20922809143E+04  0.25500000920E-02 0.  1.
       -2   -1    0    0    0  501  0.00000000000E+00  0.00000000000E+00 -0.68099149268E+03  0.68099149268E+03  0.25500000920E-02 0. -1.
    10030    2    1    2    0    0  0.00000000000E+00  0.00000000000E+00  0.14112894216E+04  0.27732724069E+04  0.23873210952E+04 0.  0.
        3    1    3    3  502    0  0.27554264184E+03 -0.52105797423E+03 -0.50014131843E+03  0.77302426132E+03  0.10100000352E+00 0. -1.
       -3    1    3    3    0  502 -0.27554264184E+03  0.52105797423E+03  0.19114307400E+04  0.20002481456E+04  0.10100000352E+00 0.  1.
</event>
<event>
 5   0  0.1401596E-05  0.2363767E+04  0.7818609E-02  0.8453194E-01
        1   -1    0    0  501    0  0.00000000000E+00  0.00000000000E+00  0.13986171285E+04  0.13986171285E+04  0.50400001928E-02 0. -1.
       -1   -1    0    0    0  501  0.00000000000E+00  0.00000000000E+00 -0.99873590599E+03  0.99873590600E+03  0.50400001928E-02 0.  1.
    10030    2    1    2    0    0  0.00000000000E+00  0.00000000000E+00  0.39988122248E+03  0.23973530345E+04  0.23637674547E+04 0.  0.
        2    1    3    3  502    0  0.14660074681E+03 -0.45023756379E+03 -0.89833223163E+03  0.10154833535E+04  0.25500000920E-02 0.  1.
       -2    1    3    3    0  502 -0.14660074681E+03  0.45023756379E+03  0.12982134541E+04  0.13818696810E+04  0.25500000920E-02 0. -1.
</event>
<event>
 5   0  0.3215208E-05  0.2415997E+04  0.7818609E-02  0.8433539E-01
        2   -1    0    0  501    0  0.00000000000E+00  0.00000000000E+00  0.19452419370E+04  0.19452419370E+04  0.25500000920E-02 0. -1.
       -2   -1    0    0    0  501  0.00000000000E+00  0.00000000000E+00 -0.75016916354E+03  0.75016916355E+03  0.25500000920E-02 0.  1.
    10030    2    1    2    0    0  0.00000000000E+00  0.00000000000E+00  0.11950727735E+04  0.26954111006E+04  0.24159971165E+04 0.  0.
        1    1    3    3  502    0 -0.99858088144E+03 -0.11389567268E+03  0.13452098761E+04  0.16792038625E+04  0.50400001928E-02 0. -1.
       -1    1    3    3    0  502  0.99858088144E+03  0.11389567268E+03 -0.15013710266E+03  0.10162072380E+04  0.50400001928E-02 0.  1.
</event>
<event>
 5   0  0.1401596E-05  0.2444568E+04  0.7818609E-02  0.8423004E-01
       -1   -1    0    0    0  501  0.00000000000E+00  0.00000000000E+00  0.71736495960E+03  0.71736495962E+03  0.50400001928E-02 0.  1.
        1   -1    0    0  501    0  0.00000000000E+00  0.00000000000E+00 -0.20825913694E+04  0.20825913694E+04  0.50400001928E-02 0. -1.
    10030    2    1    2    0    0  0.00000000000E+00  0.00000000000E+00 -0.13652264098E+04  0.27999563291E+04  0.24445679157E+04 0.  0.
        2    1    3    3  502    0  0.27333287489E+03 -0.56093681816E+03  0.52118871347E+03  0.81301823443E+03  0.25500000920E-02 0.  1.
       -2    1    3    3    0  502 -0.27333287489E+03  0.56093681816E+03 -0.18864151233E+04  0.19869380946E+04  0.25500000920E-02 0. -1.
</event>
<event>
 5   0  0.1506985E-05  0.2390819E+04  0.7818609E-02  0.8442949E-01
        1   -1    0    0  501    0  0.00000000000E+00  0.00000000000E+00  0.18384245566E+04  0.18384245566E+04  0.50400001928E-02 0.  1.
       -1   -1    0    0    0  501  0.00000000000E+00  0.00000000000E+00 -0.77729835620E+03  0.77729835621E+03  0.50400001928E-02 0. -1.
    10030    2    1    2    0    0  0.00000000000E+00  0.00000000000E+00  0.10611262004E+04  0.26157229128E+04  0.23908194293E+04 0.  0.
        3    1    3    3  502    0 -0.69616296027E+03 -0.92068357794E+03  0.87078754372E+03  0.14458810720E+04  0.10100000352E+00 0.  1.
       -3    1    3    3    0  502  0.69616296027E+03  0.92068357794E+03  0.19033865664E+03  0.11698418407E+04  0.10100000352E+00 0. -1.
</event>
<event>
 5   0  0.3345974E-05  0.2374988E+04  0.7818609E-02  0.8448928E-01
        2   -1    0    0  501    0  0.00000000000E+00  0.00000000000E+00  0.10009670772E+04  0.10009670772E+04  0.25500000920E-02 0. -1.
       -2   -1    0    0    0  501  0.00000000000E+00  0.00000000000E+00 -0.14087790740E+04  0.14087790740E+04  0.25500000920E-02 0.  1.
    10030    2    1    2    0    0  0.00000000000E+00  0.00000000000E+00 -0.40781199681E+03  0.24097461512E+04  0.23749875554E+04 0.  0.
        4    1    3    3  502    0 -0.16090018528E+03  0.91214592687E+03 -0.95791095500E+03  0.13324766685E+04  0.12699999809E+01 0.  1.
       -4    1    3    3    0  502  0.16090018528E+03 -0.91214592687E+03  0.55009895819E+03  0.10772694826E+04  0.12699999809E+01 0. -1.
</event>
<event>
 5   0  0.1393026E-05  0.2399882E+04  0.7818609E-02  0.8439548E-01
        1   -1    0    0  501    0  0.00000000000E+00  0.00000000000E+00  0.18311855614E+04  0.18311855614E+04  0.50400001928E-02 0. -1.
       -1   -1    0    0    0  501  0.00000000000E+00  0.00000000000E+00 -0.78629814890E+03  0.78629814892E+03  0.50400001928E-02 0.  1.
    10030    2    1    2    0    0  0.00000000000E+00  0.00000000000E+00  0.10448874125E+04  0.26174837103E+04  0.23998815115E+04 0.  0.
        4    1    3    3  502    0 -0.10130479877E+04 -0.23691038152E+02  0.12233892999E+04  0.15885560999E+04  0.12699999809E+01 0. -1.
       -4    1    3    3    0  502  0.10130479877E+04  0.23691038152E+02 -0.17850188734E+03  0.10289276104E+04  0.12699999809E+01 0.  1.
</event>
<event>
 5   0  0.3310037E-05  0.2421376E+04  0.7818609E-02  0.8431544E-01
        2   -1    0    0  501    0  0.00000000000E+00  0.00000000000E+00  0.12179049913E+04  0.12179049913E+04  0.25500000920E-02 0. -1.
       -2   -1    0    0    0  501  0.00000000000E+00  0.00000000000E+00 -0.12035138674E+04  0.12035138674E+04  0.25500000920E-02 0.  1.
    10030    2    1    2    0    0  0.00000000000E+00  0.00000000000E+00  0.14391123842E+02  0.24214188587E+04  0.24213760932E+04 0.  0.
        2    1    3    3  502    0  0.54458719792E+03  0.10566312544E+04  0.23680955221E+03  0.12120740852E+04  0.25500000920E-02 0. -1.
       -2    1    3    3    0  502 -0.54458719792E+03 -0.10566312544E+04 -0.22241842837E+03  0.12093447735E+04  0.25500000920E-02 0.  1.
</event>
<event>
 5   0  0.1434943E-05  0.2398385E+04  0.7818609E-02  0.8440108E-01
       -1   -1    0    0    0  501  0.00000000000E+00  0.00000000000E+00  0.80208554145E+03  0.80208554146E+03  0.50400001928E-02 0.  1.
        1   -1    0    0  501    0  0.00000000000E+00  0.00000000000E+00 -0.17929041550E+04  0.17929041550E+04  0.50400001928E-02 0. -1.
    10030    2    1    2    0    0  0.00000000000E+00  0.00000000000E+00 -0.99081861355E+03  0.25949896965E+04  0.23983848732E+04 0.  0.
        5    1    3    3  502    0 -0.68151741390E+03 -0.98512508760E+03 -0.55568006984E+03  0.13205074228E+04  0.46999998093E+01 0.  1.
       -5    1    3    3    0  502  0.68151741390E+03  0.98512508760E+03 -0.43513854371E+03  0.12744822737E+04  0.46999998093E+01 0. -1.
</event>
<event>
 5   0  0.3347728E-05  0.2360127E+04  0.7818609E-02  0.8454584E-01
       -2   -1    0    0    0  501  0.00000000000E+00  0.00000000000E+00  0.93803263586E+03  0.93803263586E+03  0.25500000920E-02 0.  1.
        2   -1    0    0  501    0  0.00000000000E+00  0.00000000000E+00 -0.14845431892E+04  0.14845431892E+04  0.25500000920E-02 0. -1.
    10030    2    1    2    0    0  0.00000000000E+00  0.00000000000E+00 -0.54651055338E+03  0.24225758251E+04  0.23601270820E+04 0.  0.
        3    1    3    3  502    0 -0.10093110661E+04 -0.38352421717E+03  0.21552753274E+03  0.11010230610E+04  0.10100000352E+00 0.  1.
       -3    1    3    3    0  502  0.10093110661E+04  0.38352421717E+03 -0.76203808612E+03  0.13215527641E+04  0.10100000352E+00 0. -1.
</event>
<event>
 5   0  0.1401596E-05  0.2476368E+04  0.7818609E-02  0.8411453E-01
        1   -1    0    0  501    0  0.00000000000E+00  0.00000000000E+00  0.14156795941E+04  0.14156795941E+04  0.50400001928E-02 0.  1.
       -1   -1    0    0    0  501  0.00000000000E+00  0.00000000000E+00 -0.10829422370E+04  0.10829422370E+04  0.50400001928E-02 0. -1.
    10030    2    1    2    0    0  0.00000000000E+00  0.00000000000E+00  0.33273735713E+03  0.24986218311E+04  0.24763676839E+04 0.  0.
        2    1    3    3  502    0 -0.11636027018E+04  0.42244787770E+03  0.14033429159E+03  0.12458439591E+04  0.25500000920E-02 0. -1.
       -2    1    3    3    0  502  0.11636027018E+04 -0.42244787770E+03  0.19240306554E+03  0.12527778720E+04  0.25500000920E-02 0.  1.
</event>
<event>
 5   0  0.3310037E-05  0.2335702E+04  0.7818609E-02  0.8463976E-01
        2   -1    0    0  501    0  0.00000000000E+00  0.00000000000E+00  0.70699977423E+03  0.70699977424E+03  0.25500000920E-02 0. -1.
       -2   -1    0    0    0  501  0.00000000000E+00  0.00000000000E+00 -0.19291035237E+04  0.19291035237E+04  0.25500000920E-02 0.  1.
    10030    2    1    2    0    0  0.00000000000E+00  0.00000000000E+00 -0.12221037495E+04  0.26361032979E+04  0.23357018266E+04 0.  0.
        2    1    3    3  502    0  0.72063337312E+03  0.36284258716E+03 -0.15639839317E+04  0.17598332137E+04  0.25500000920E-02 0.  1.
       -2    1    3    3    0  502 -0.72063337312E+03 -0.36284258716E+03  0.34188018221E+03  0.87627008423E+03  0.25500000920E-02 0. -1.
</event>
<event>
 5   0  0.3215208E-05  0.2382717E+04  0.7818609E-02  0.8446003E-01
        2   -1    0    0  501    0  0.00000000000E+00  0.00000000000E+00  0.13652814300E+04  0.13652814300E+04  0.25500000920E-02 0.  1.
       -2   -1    0    0    0  501  0.00000000000E+00  0.00000000000E+00 -0.10395913256E+04  0.10395913256E+04  0.25500000920E-02 0. -1.
    10030    2    1    2    0    0  0.00000000000E+00  0.00000000000E+00  0.32569010435E+03  0.24048727556E+04  0.23827167114E+04 0.  0.
        1    1    3    3  502    0  0.10257783132E+04 -0.52709041500E+03  0.46443672599E+03  0.12432807108E+04  0.50400001928E-02 0.  1.
       -1    1    3    3    0  502 -0.10257783132E+04  0.52709041500E+03 -0.13874662165E+03  0.11615920448E+04  0.50400001928E-02 0. -1.
</event>
<event>
 5   0  0.1506985E-05  0.2396389E+04  0.7818609E-02  0.8440857E-01
        1   -1    0    0  501    0  0.00000000000E+00  0.00000000000E+00  0.18771460896E+04  0.18771460896E+04  0.50400001928E-02 0.  1.
       -1   -1    0    0    0  501  0.00000000000E+00  0.00000000000E+00 -0.76481534802E+03  0.76481534803E+03  0.50400001928E-02 0. -1.
    10030    2    1    2    0    0  0.00000000000E+00  0.00000000000E+00  0.11123307416E+04  0.26419614376E+04  0.23963890668E+04 0.  0.
        3    1    3    3  502    0 -0.92479737510E+03  0.18873749837E+03 -0.25757701425E+03  0.97837516156E+03  0.10100000352E+00 0. -1.
       -3    1    3    3    0  502  0.92479737510E+03 -0.18873749837E+03  0.13699077558E+04  0.16635862761E+04  0.10100000352E+00 0.  1.
</event>
<event>
 5   0  0.1393026E-05  0.2390512E+04  0.7818609E-02  0.8443064E-01
       -1   -1    0    0    0  501  0.00000000000E+00  0.00000000000E+00  0.20430412848E+04  0.20430412848E+04  0.50400001928E-02 0. -1.
        1   -1    0    0  501    0  0.00000000000E+00  0.00000000000E+00 -0.69926953715E+03  0.69926953717E+03  0.50400001928E-02 0.  1.
    10030    2    1    2    0    0  0.00000000000E+00  0.00000000000E+00  0.13437717477E+04  0.27423108220E+04  0.23905116889E+04 0.  0.
        4    1    3    3  502    0  0.22785354919E+03  0.99801694517E+03  0.13796780460E+04  0.17179837561E+04  0.12699999809E+01 0. -1.
       -4    1    3    3    0  502 -0.22785354919E+03 -0.99801694517E+03 -0.35906298353E+02  0.10243270659E+04  0.12699999809E+01 0.  1.
</event>
<event>
 5   0  0.3310037E-05  0.2388876E+04  0.7818609E-02  0.8443680E-01
        2   -1    0    0  501    0  0.00000000000E+00  0.00000000000E+00  0.81723523013E+03  0.81723523014E+03  0.25500000920E-02 0.  1.
       -2   -1    0    0    0  501  0.00000000000E+00  0.00000000000E+00 -0.17457425825E+04  0.17457425825E+04  0.25500000920E-02 0. -1.
    10030    2    1    2    0    0  0.00000000000E+00  0.00000000000E+00 -0.92850735236E+03  0.25629778126E+04  0.23888761719E+04 0.  0.
        2    1    3    3  502    0  0.14895117087E+03 -0.18152550111E+03 -0.17207352985E+04  0.17366830241E+04  0.25500000920E-02 0. -1.
       -2    1    3    3    0  502 -0.14895117087E+03  0.18152550111E+03  0.79222794613E+03  0.82629478849E+03  0.25500000920E-02 0.  1.
</event>
<event>
 5   0  0.3345974E-05  0.2335926E+04  0.7818609E-02  0.8463889E-01
        2   -1    0    0  501    0  0.00000000000E+00  0.00000000000E+00  0.13876219084E+04  0.13876219084E+04  0.25500000920E-02 0. -1.
       -2   -1    0    0    0  501  0.00000000000E+00  0.00000000000E+00 -0.98307543928E+03  0.98307543929E+03  0.25500000920E-02 0.  1.
    10030    2    1    2    0    0  0.00000000000E+00  0.00000000000E+00  0.40454646916E+03  0.23706973477E+04  0.23359255272E+04 0.  0.
        4    1    3    3  502    0  0.12984933440E+03  0.10123172980E+04 -0.37406053072E+03  0.10870004853E+04  0.12699999809E+01 0.  1.
       -4    1    3    3    0  502 -0.12984933440E+03 -0.10123172980E+04  0.77860699988E+03  0.12836968624E+04  0.12699999809E+01 0. -1.
</event>
<event>
 5   0  0.3347728E-05  0.2386987E+04  0.7818609E-02  0.8444392E-01
        2   -1    0    0  501    0  0.00000000000E+00  0.00000000000E+00  0.20446834592E+04  0.20446834592E+04  0.25500000920E-02 0. -1.
       -2   -1    0    0    0  501  0.00000000000E+00  0.00000000000E+00 -0.69664879833E+03  0.69664879833E+03  0.25500000920E-02 0.  1.
    10030    2    1    2    0    0  0.00000000000E+00  0.00000000000E+00  0.13480346609E+04  0.27413322575E+04  0.23869866148E+04 0.  0.
        3    1    3    3  502    0 -0.65908819900E+03  0.36435041775E+03 -0.38932346826E+03  0.84777429432E+03  0.10100000352E+00 0. -1.
       -3    1    3    3    0  502  0.65908819900E+03 -0.36435041775E+03  0.17373581291E+04  0.18935579632E+04  0.10100000352E+00 0.  1.
</event>
<event>
 5   0  0.3320780E-05  0.2394827E+04  0.7818609E-02  0.8441443E-01
        2   -1    0    0  501    0  0.00000000000E+00  0.00000000000E+00  0.84685722838E+03  0.84685722839E+03  0.25500000920E-02 0. -1.
       -2   -1    0    0    0  501  0.00000000000E+00  0.00000000000E+00 -0.16930830724E+04  0.16930830724E+04  0.25500000920E-02 0.  1.
    10030    2    1    2    0    0  0.00000000000E+00  0.00000000000E+00 -0.84622584403E+03  0.25399403008E+04  0.23948274578E+04 0.  0.
        5    1    3    3  502    0  0.17085748682E+03 -0.53199643720E+03  0.70009851095E+03  0.89575247978E+03  0.46999998093E+01 0. -1.
       -5    1    3    3    0  502 -0.17085748682E+03  0.53199643720E+03 -0.15463243550E+04  0.16441878210E+04  0.46999998093E+01 0.  1.
</event>
<event>
 5   0  0.1393026E-05  0.2389152E+04  0.7818609E-02  0.8443576E-01
       -1   -1    0    0    0  501  0.00000000000E+00  0.00000000000E+00  0.20062857947E+04  0.20062857947E+04  0.50400001928E-02 0.  1.
        1   -1    0    0  501    0  0.00000000000E+00  0.00000000000E+00 -0.71127062377E+03  0.71127062378E+03  0.50400001928E-02 0. -1.
    10030    2    1    2    0    0  0.00000000000E+00  0.00000000000E+00  0.12950151709E+04  0.27175564185E+04  0.23891522753E+04 0.  0.
        4    1    3    3  502    0 -0.94391558566E+03 -0.29401836444E+01 -0.18526681335E+03  0.96193070570E+03  0.12699999809E+01 0. -1.
       -4    1    3    3    0  502  0.94391558566E+03  0.29401836444E+01  0.14802819843E+04  0.17556257128E+04  0.12699999809E+01 0.  1.
</event>
<event>
 5   0  0.1434943E-05  0.2400701E+04  0.7818609E-02  0.8439241E-01
       -1   -1    0    0    0  501  0.00000000000E+00  0.00000000000E+00  0.65981142145E+03  0.65981142147E+03  0.50400001928E-02 0.  1.
        1   -1    0    0  501    0  0.00000000000E+00  0.00000000000E+00 -0.21837159606E+04  0.21837159606E+04  0.50400001928E-02 0. -1.
    10030    2    1    2    0    0  0.00000000000E+00  0.00000000000E+00 -0.15239045391E+04  0.28435273820E+04  0.24007005078E+04 0.  0.
        5    1    3    3  502    0 -0.82977341311E+02 -0.67561707622E+03 -0.19329936799E+04  0.20493487574E+04  0.46999998093E+01 0. -1.
       -5    1    3    3    0  502  0.82977341311E+02  0.67561707622E+03  0.40908914075E+03  0.79417862470E+03  0.46999998093E+01 0.  1.
</event>
<event>
 5   0  0.1407158E-05  0.2428718E+04  0.7818609E-02  0.8428829E-01
       -1   -1    0    0    0  501  0.00000000000E+00  0.00000000000E+00  0.14198524115E+04  0.14198524115E+04  0.50400001928E-02 0. -1.
        1   -1    0    0  501    0  0.00000000000E+00  0.00000000000E+00 -0.10386066682E+04  0.10386066682E+04  0.50400001928E-02 0.  1.
    10030    2    1    2    0    0  0.00000000000E+00  0.00000000000E+00  0.38124574331E+03  0.24584590796E+04  0.24287183306E+04 0.  0.
        1    1    3    3  502    0 -0.36125229361E+03 -0.91991913649E+03  0.90489366308E+03  0.13399951413E+04  0.50400001928E-02 0. -1.
       -1    1    3    3    0  502  0.36125229361E+03  0.91991913649E+03 -0.52364791978E+03  0.11184639383E+04  0.50400001928E-02 0.  1.
</event>
<event>
 5   0  0.3345974E-05  0.2420568E+04  0.7818609E-02  0.8431843E-01
       -2   -1    0    0    0  501  0.00000000000E+00  0.00000000000E+00  0.78514423453E+03  0.78514423454E+03  0.25500000920E-02 0. -1.
        2   -1    0    0  501    0  0.00000000000E+00  0.00000000000E+00 -0.18656277374E+04  0.18656277374E+04  0.25500000920E-02 0.  1.
    10030    2    1    2    0    0  0.00000000000E+00  0.00000000000E+00 -0.10804835028E+04  0.26507719719E+04  0.24205675878E+04 0.  0.
        4    1    3    3  502    0 -0.56588181400E+03  0.17115170839E+02  0.63119657729E+03  0.84789497497E+03  0.12699999809E+01 0. -1.
       -4    1    3    3    0  502  0.56588181400E+03 -0.17115170839E+02 -0.17116800801E+04  0.18028769969E+04  0.12699999809E+01 0.  1.
</event>
<event>
 5   0  0.3345974E-05  0.2404511E+04  0.7818609E-02  0.8437817E-01
       -2   -1    0    0    0  501  0.00000000000E+00  0.00000000000E+00  0.11212418935E+04  0.11212418935E+04  0.25500000920E-02 0. -1.
        2   -1    0    0  501    0  0.00000000000E+00  0.00000000000E+00 -0.12891223151E+04  0.12891223151E+04  0.25500000920E-02 0.  1.
    10030    2    1    2    0    0  0.00000000000E+00  0.00000000000E+00 -0.16788042152E+03  0.24103642086E+04  0.24045107158E+04 0.  0.
        4    1    3    3  502    0  0.65431770847E+03  0.98724778870E+03 -0.29090461208E+03  0.12195970507E+04  0.12699999809E+01 0.  1.
       -4    1    3    3    0  502 -0.65431770847E+03 -0.98724778870E+03  0.12302419056E+03  0.11907671579E+04  0.12699999809E+01 0. -1.
</event>
<event>
 5   0  0.1147362E-05  0.2425174E+04  0.7818609E-02  0.8430139E-01
       -3   -1    0    0    0  501  0.00000000000E+00  0.00000000000E+00  0.10463216767E+04  0.10463216816E+04  0.10100000352E+00 0. -1.
        3   -1    0    0  501    0  0.00000000000E+00  0.00000000000E+00 -0.14052720811E+04  0.14052720847E+04  0.10100000352E+00 0.  1.
    10030    2    1    2    0    0  0.00000000000E+00  0.00000000000E+00 -0.35895040436E+03  0.24515937663E+04  0.24251735201E+04 0.  0.
        4    1    3    3  502    0 -0.15060941689E+03 -0.90302584599E+03 -0.98326395081E+03  0.13434837122E+04  0.12699999809E+01 0.  1.
       -4    1    3    3    0  502  0.15060941689E+03  0.90302584599E+03  0.62431354645E+03  0.11081100542E+04  0.12699999809E+01 0. -1.
</event>
<event>
 5   0  0.3310037E-05  0.2423201E+04  0.7818609E-02  0.8430868E-01
        2   -1    0    0  501    0  0.00000000000E+00  0.00000000000E+00  0.13547095729E+04  0.13547095729E+04  0.25500000920E-02 0. -1.
       -2   -1    0    0    0  501  0.00000000000E+00  0.00000000000E+00 -0.10836091036E+04  0.10836091036E+04  0.25500000920E-02 0.  1.
    10030    2    1    2    0    0  0.00000000000E+00  0.00000000000E+00  0.27110046928E+03  0.24383186765E+04  0.24232008798E+04 0.  0.
        2    1    3    3  502    0  0.11233433803E+04 -0.44364861015E+03  0.38767080826E+02  0.12083986618E+04  0.25500000920E-02 0.  1.
       -2    1    3    3    0  502 -0.11233433803E+04  0.44364861015E+03  0.23233338845E+03  0.12299200147E+04  0.25500000920E-02 0. -1.
</event>
<event>
 5   0  0.1401596E-05  0.2422131E+04  0.7818609E-02  0.8431264E-01
       -1   -1    0    0    0  501  0.00000000000E+00  0.00000000000E+00  0.64461146390E+03  0.64461146392E+03  0.50400001928E-02 0.  1.
        1   -1    0    0  501    0  0.00000000000E+00  0.00000000000E+00 -0.22752929845E+04  0.22752929845E+04  0.50400001928E-02 0. -1.
    10030    2    1    2    0    0  0.00000000000E+00  0.00000000000E+00 -0.16306815206E+04  0.29199044485E+04  0.24221312447E+04 0.  0.
        2    1    3    3  502    0  0.45071773789E+03  0.86610885744E+03  0.48421468565E+02  0.97756619766E+03  0.25500000920E-02 0.  1.
       -2    1    3    3    0  502 -0.45071773789E+03 -0.86610885744E+03 -0.16791029892E+04  0.19423382508E+04  0.25500000920E-02 0. -1.
</event>
<event>
 5   0  0.1506985E-05  0.2374663E+04  0.7818609E-02  0.8449051E-01
        1   -1    0    0  501    0  0.00000000000E+00  0.00000000000E+00  0.82863690013E+03  0.82863690014E+03  0.50400001928E-02 0. -1.
       -1   -1    0    0    0  501  0.00000000000E+00  0.00000000000E+00 -0.17012954383E+04  0.17012954383E+04  0.50400001928E-02 0.  1.
    10030    2    1    2    0    0  0.00000000000E+00  0.00000000000E+00 -0.87265853816E+03  0.25299323384E+04  0.23746630735E+04 0.  0.
        3    1    3    3  502    0 -0.32166307534E+03 -0.11085159748E+04 -0.73288447098E+03  0.13672580072E+04  0.10100000352E+00 0.  1.
       -3    1    3    3    0  502  0.32166307534E+03  0.11085159748E+04 -0.13977406717E+03  0.11626743312E+04  0.10100000352E+00 0. -1.
</event>
<event>
 5   0  0.3320780E-05  0.2404631E+04  0.7818609E-02  0.8437772E-01
        2   -1    0    0  501    0  0.00000000000E+00  0.00000000000E+00  0.18593465129E+04  0.18593465129E+04  0.25500000920E-02 0. -1.
       -2   -1    0    0    0  501  0.00000000000E+00  0.00000000000E+00 -0.77745738910E+03  0.77745738911E+03  0.25500000920E-02 0.  1.
    10030    2    1    2    0    0  0.00000000000E+00  0.00000000000E+00  0.10818891238E+04  0.26368039020E+04  0.24046311030E+04 0.  0.
        5    1    3    3  502    0 -0.16542141500E+03  0.94869551382E+03 -0.24838515471E+03  0.99453742894E+03  0.46999998093E+01 0.  1.
       -5    1    3    3    0  502  0.16542141500E+03 -0.94869551382E+03  0.13302742785E+04  0.16422664731E+04  0.46999998093E+01 0. -1.
</event>
<event>
 5   0  0.3215208E-05  0.2407954E+04  0.7818609E-02  0.8436532E-01
        2   -1    0    0  501    0  0.00000000000E+00  0.00000000000E+00  0.89443643641E+03  0.89443643641E+03  0.25500000920E-02 0.  1.
       -2   -1    0    0    0  501  0.00000000000E+00  0.00000000000E+00 -0.16206406872E+04  0.16206406872E+04  0.25500000920E-02 0. -1.
    10030    2    1    2    0    0  0.00000000000E+00  0.00000000000E+00 -0.72620425084E+03  0.25150771237E+04  0.24079535552E+04 0.  0.
        1    1    3    3  502    0  0.75723689197E+03  0.80191718087E+03 -0.86736480680E+03  0.14031395453E+04  0.50400001928E-02 0. -1.
       -1    1    3    3    0  502 -0.75723689197E+03 -0.80191718087E+03  0.14116055596E+03  0.11119375783E+04  0.50400001928E-02 0.  1.
</event>
<event>
 5   0  0.1393026E-05  0.2387362E+04  0.7818609E-02  0.8444250E-01
        1   -1    0    0  501    0  0.00000000000E+00  0.00000000000E+00  0.16003223026E+04  0.16003223026E+04  0.50400001928E-02 0.  1.
       -1   -1    0    0    0  501  0.00000000000E+00  0.00000000000E+00 -0.89036716769E+03  0.89036716770E+03  0.50400001928E-02 0. -1.
    10030    2    1    2    0    0  0.00000000000E+00  0.00000000000E+00  0.70995513487E+03  0.24906894703E+04  0.23873620890E+04 0.  0.
        4    1    3    3  502    0  0.92475440864E+03 -0.67990016343E+03  0.13013876701E+02  0.11478701679E+04  0.12699999809E+01 0. -1.
       -4    1    3    3    0  502 -0.92475440864E+03  0.67990016343E+03  0.69694125817E+03  0.13428193024E+04  0.12699999809E+01 0.  1.
</event>
<event>
 5   0  0.1393026E-05  0.2284067E+04  0.7818609E-02  0.8484230E-01
        1   -1    0    0  501    0  0.00000000000E+00  0.00000000000E+00  0.13220046712E+04  0.13220046712E+04  0.50400001928E-02 0. -1.
       -1   -1    0    0    0  501  0.00000000000E+00  0.00000000000E+00 -0.98656242672E+03  0.98656242673E+03  0.50400001928E-02 0.  1.
    10030    2    1    2    0    0  0.00000000000E+00  0.00000000000E+00  0.33544224452E+03  0.23085670980E+04  0.22840666686E+04 0.  0.
        4    1    3    3  502    0 -0.82166900214E+03 -0.52690381350E+03 -0.43148803356E+03  0.10672165262E+04  0.12699999809E+01 0.  1.
       -4    1    3    3    0  502  0.82166900214E+03  0.52690381350E+03  0.76693027808E+03  0.12413505718E+04  0.12699999809E+01 0. -1.
</event>
<event>
 5   0  0.1434943E-05  0.2496533E+04  0.7818609E-02  0.8404222E-01
       -1   -1    0    0    0  501  0.00000000000E+00  0.00000000000E+00  0.14399901640E+04  0.14399901640E+04  0.50400001928E-02 0.  1.
        1   -1    0    0  501    0  0.00000000000E+00  0.00000000000E+00 -0.10820691610E+04  0.10820691610E+04  0.50400001928E-02 0. -1.
    10030    2    1    2    0    0  0.00000000000E+00  0.00000000000E+00  0.35792100308E+03  0.25220593250E+04  0.24965327545E+04 0.  0.
        5    1    3    3  502    0 -0.35917803817E+03 -0.45230874076E+01  0.13866408625E+04  0.14324190354E+04  0.46999998093E+01 0.  1.
       -5    1    3    3    0  502  0.35917803817E+03  0.45230874076E+01 -0.10287198595E+04  0.10896402896E+04  0.46999998093E+01 0. -1.
</event>
<event>
 5   0  0.3345974E-05  0.2418573E+04  0.7818609E-02  0.8432583E-01
        2   -1    0    0  501    0  0.00000000000E+00  0.00000000000E+00  0.18286739604E+04  0.18286739604E+04  0.25500000920E-02 0. -1.
       -2   -1    0    0    0  501  0.00000000000E+00  0.00000000000E+00 -0.79969070167E+03  0.79969070167E+03  0.25500000920E-02 0.  1.
    10030    2    1    2    0    0  0.00000000000E+00  0.00000000000E+00  0.10289832587E+04  0.26283646621E+04  0.24185727713E+04 0.  0.
        4    1    3    3  502    0  0.99645748784E+03 -0.44750820585E+03  0.10783220768E+04  0.15349173377E+04  0.12699999809E+01 0. -1.
       -4    1    3    3    0  502 -0.99645748784E+03  0.44750820585E+03 -0.49338818025E+02  0.10934473244E+04  0.12699999809E+01 0.  1.
</event>
<event>
 5   0  0.1434943E-05  0.2401356E+04  0.7818609E-02  0.8438996E-01
        1   -1    0    0  501    0  0.00000000000E+00  0.00000000000E+00  0.29796152743E+04  0.29796152743E+04  0.50400001928E-02 0.  1.
       -1   -1    0    0    0  501  0.00000000000E+00  0.00000000000E+00 -0.48383020868E+03  0.48383020871E+03  0.50400001928E-02 0. -1.
    10030    2    1    2    0    0  0.00000000000E+00  0.00000000000E+00  0.24957850656E+04  0.34634454830E+04  0.24013561835E+04 0.  0.
        5    1    3    3  502    0 -0.33070654871E+03 -0.10975954860E+04  0.73284627633E+03  0.13605765054E+04  0.46999998093E+01 0. -1.
       -5    1    3    3    0  502  0.33070654871E+03  0.10975954860E+04  0.17629387893E+04  0.21028689776E+04  0.46999998093E+01 0.  1.
</event>
<event>
 5   0  0.3347728E-05  0.2399842E+04  0.7818609E-02  0.8439563E-01
        2   -1    0    0  501    0  0.00000000000E+00  0.00000000000E+00  0.16034904438E+04  0.16034904438E+04  0.25500000920E-02 0. -1.
       -2   -1    0    0    0  501  0.00000000000E+00  0.00000000000E+00 -0.89792255165E+03  0.89792255165E+03  0.25500000920E-02 0.  1.
    10030    2    1    2    0    0  0.00000000000E+00  0.00000000000E+00  0.70556789211E+03  0.25014129954E+04  0.23998418538E+04 0.  0.
        3    1    3    3  502    0 -0.13746308154E+03  0.91384274343E+03  0.11505572953E+04  0.14757326175E+04  0.10100000352E+00 0. -1.
       -3    1    3    3    0  502  0.13746308154E+03 -0.91384274343E+03 -0.44498940315E+03  0.10256803779E+04  0.10100000352E+00 0.  1.
</event>
<event>
 5   0  0.3347728E-05  0.2426029E+04  0.7818609E-02  0.8429823E-01
        2   -1    0    0  501    0  0.00000000000E+00  0.00000000000E+00  0.20764483954E+04  0.20764483954E+04  0.25500000920E-02 0.  1.
       -2   -1    0    0    0  501  0.00000000000E+00  0.00000000000E+00 -0.70861558506E+03  0.70861558506E+03  0.25500000920E-02 0. -1.
    10030    2    1    2    0    0  0.00000000000E+00  0.00000000000E+00  0.13678328104E+04  0.27850639805E+04  0.24260286021E+04 0.  0.
        3    1    3    3  502    0 -0.93343534672E+03  0.70052482848E+03  0.30426709682E+03  0.12060742341E+04  0.10100000352E+00 0. -1.
       -3    1    3    3    0  502  0.93343534672E+03 -0.70052482848E+03  0.10635657136E+04  0.15789897464E+04  0.10100000352E+00 0.  1.
</event>
<event>
 5   0  0.1147362E-05  0.2379359E+04  0.7818609E-02  0.8447272E-01
        3   -1    0    0  501    0  0.00000000000E+00  0.00000000000E+00  0.14736151750E+04  0.14736151785E+04  0.10100000352E+00 0. -1.
       -3   -1    0    0    0  501  0.00000000000E+00  0.00000000000E+00 -0.96045270581E+03  0.96045271112E+03  0.10100000352E+00 0.  1.
    10030    2    1    2    0    0  0.00000000000E+00  0.00000000000E+00  0.51316246918E+03  0.24340678896E+04  0.23793593195E+04 0.  0.
        1    1    3    3  502    0 -0.67798373381E+03  0.21552100300E+03 -0.71887701254E+03  0.10113829172E+04  0.50400001928E-02 0.  1.
       -1    1    3    3    0  502  0.67798373381E+03 -0.21552100300E+03  0.12320394817E+04  0.14226849724E+04  0.50400001928E-02 0. -1.
</event>
<event>
 5   0  0.1434943E-05  0.2396938E+04  0.7818609E-02  0.8440651E-01
       -1   -1    0    0    0  501  0.00000000000E+00  0.00000000000E+00  0.12183993816E+04  0.12183993816E+04  0.50400001928E-02 0.  1.
        1   -1    0    0  501    0  0.00000000000E+00  0.00000000000E+00 -0.11788642351E+04  0.11788642351E+04  0.50400001928E-02 0. -1.
    10030    2    1    2    0    0  0.00000000000E+00  0.00000000000E+00  0.39535146489E+02  0.23972636167E+04  0.23969375920E+04 0.  0.
        5    1    3    3  502    0 -0.59233590100E+03 -0.51171991839E+03 -0.88787240468E+03  0.11836632086E+04  0.46999998093E+01 0. -1.
       -5    1    3    3    0  502  0.59233590100E+03  0.51171991839E+03  0.92740755117E+03  0.12136004081E+04  0.46999998093E+01 0.  1.
</event>
<event>
 5   0  0.3347728E-05  0.2382568E+04  0.7818609E-02  0.8446059E-01
       -2   -1    0    0    0  501  0.00000000000E+00  0.00000000000E+00  0.10882871920E+04  0.10882871920E+04  0.25500000920E-02 0. -1.
        2   -1    0    0  501    0  0.00000000000E+00  0.00000000000E+00 -0.13040290138E+04  0.13040290138E+04  0.25500000920E-02 0.  1.
    10030    2    1    2    0    0  0.00000000000E+00  0.00000000000E+00 -0.21574182177E+03  0.23923162058E+04  0.23825684240E+04 0.  0.
        3    1    3    3  502    0  0.75114793485E+03  0.21781906082E+03 -0.10101516698E+04  0.12775268175E+04  0.10100000352E+00 0.  1.
       -3    1    3    3    0  502 -0.75114793485E+03 -0.21781906082E+03  0.79440984805E+03  0.11147893883E+04  0.10100000352E+00 0. -1.
</event>
<event>
 5   0  0.1147362E-05  0.2130893E+04  0.7818609E-02  0.8547756E-01
        3   -1    0    0  501    0  0.00000000000E+00  0.00000000000E+00  0.11093977955E+04  0.11093978001E+04  0.10100000352E+00 0. -1.
       -3   -1    0    0    0  501  0.00000000000E+00  0.00000000000E+00 -0.10232362280E+04  0.10232362330E+04  0.10100000352E+00 0.  1.
    10030    2    1    2    0    0  0.00000000000E+00  0.00000000000E+00  0.86161567449E+02  0.21326340331E+04  0.21308927949E+04 0.  0.
        5    1    3    3  502    0 -0.89891408047E+03 -0.15596170512E+03  0.59378795947E+03  0.10885664005E+04  0.46999998093E+01 0. -1.
       -5    1    3    3    0  502  0.89891408047E+03  0.15596170512E+03 -0.50762639202E+03  0.10440676326E+04  0.46999998093E+01 0.  1.
</event>
<event>
 5   0  0.3310037E-05  0.2333475E+04  0.7818609E-02  0.8464838E-01
       -2   -1    0    0    0  501  0.00000000000E+00  0.00000000000E+00  0.11944688778E+04  0.11944688778E+04  0.25500000920E-02 0. -1.
        2   -1    0    0  501    0  0.00000000000E+00  0.00000000000E+00 -0.11396500020E+04  0.11396500020E+04  0.25500000920E-02 0.  1.
    10030    2    1    2    0    0  0.00000000000E+00  0.00000000000E+00  0.54818875819E+02  0.23341188798E+04  0.23334750558E+04 0.  0.
        2    1    3    3  502    0 -0.94696324246E+02 -0.11546422919E+04  0.16568738172E+03  0.11703070215E+04  0.25500000920E-02 0. -1.
       -2    1    3    3    0  502  0.94696324246E+02  0.11546422919E+04 -0.11086850590E+03  0.11638118584E+04  0.25500000920E-02 0.  1.
</event>
<event>
 5   0  0.3215208E-05  0.2438702E+04  0.7818609E-02  0.8425155E-01
       -2   -1    0    0    0  501  0.00000000000E+00  0.00000000000E+00  0.16082909705E+04  0.16082909705E+04  0.25500000920E-02 0.  1.
        2   -1    0    0  501    0  0.00000000000E+00  0.00000000000E+00 -0.92446994883E+03  0.92446994883E+03  0.25500000920E-02 0. -1.
    10030    2    1    2    0    0  0.00000000000E+00  0.00000000000E+00  0.68382102168E+03  0.25327609194E+04  0.24387018442E+04 0.  0.
        1    1    3    3  502    0  0.17777542597E+03  0.78948723703E+03  0.12891873467E+04  0.15221360696E+04  0.50400001928E-02 0.  1.
       -1    1    3    3    0  502 -0.17777542597E+03 -0.78948723703E+03 -0.60536632498E+03  0.10106248498E+04  0.50400001928E-02 0. -1.
</event>
<event>
 5   0  0.1407158E-05  0.2403584E+04  0.7818609E-02  0.8438163E-01
       -1   -1    0    0    0  501  0.00000000000E+00  0.00000000000E+00  0.90040196807E+03  0.90040196809E+03  0.50400001928E-02 0.  1.
        1   -1    0    0  501    0  0.00000000000E+00  0.00000000000E+00 -0.16040664564E+04  0.16040664564E+04  0.50400001928E-02 0. -1.
    10030    2    1    2    0    0  0.00000000000E+00  0.00000000000E+00 -0.70366448832E+03  0.25044684245E+04  0.24035844851E+04 0.  0.
        1    1    3    3  502    0  0.63557895473E+03 -0.10072431530E+04 -0.51921469743E+03  0.12992625905E+04  0.50400001928E-02 0. -1.
       -1    1    3    3    0  502 -0.63557895473E+03  0.10072431530E+04 -0.18444979088E+03  0.12052058340E+04  0.50400001928E-02 0.  1.
</event>
<event>
 5   0  0.3345974E-05  0.2441360E+04  0.7818609E-02  0.8424179E-01
        2   -1    0    0  501    0  0.00000000000E+00  0.00000000000E+00  0.14879957444E+04  0.14879957444E+04  0.25500000920E-02 0. -1.
       -2   -1    0    0    0  501  0.00000000000E+00  0.00000000000E+00 -0.10013871678E+04  0.10013871678E+04  0.25500000920E-02 0.  1.
    10030    2    1    2    0    0  0.00000000000E+00  0.00000000000E+00  0.48660857659E+03  0.24893829122E+04  0.24413601489E+04 0.  0.
        4    1    3    3  502    0  0.36995637620E+03  0.11537841357E+04  0.39445192449E+03  0.12742368248E+04  0.12699999809E+01 0. -1.
       -4    1    3    3    0  502 -0.36995637620E+03 -0.11537841357E+04  0.92156652104E+02  0.12151460873E+04  0.12699999809E+01 0.  1.
</event>
<event>
 5   0  0.3345974E-05  0.2407929E+04  0.7818609E-02  0.8436541E-01
       -2   -1    0    0    0  501  0.00000000000E+00  0.00000000000E+00  0.15121656147E+04  0.15121656147E+04  0.25500000920E-02 0. -1.
        2   -1    0    0  501    0  0.00000000000E+00  0.00000000000E+00 -0.95857914247E+03  0.95857914247E+03  0.25500000920E-02 0.  1.
    10030    2    1    2    0    0  0.00000000000E+00  0.00000000000E+00  0.55358647227E+03  0.24707447572E+04  0.24079289178E+04 0.  0.
        4    1    3    3  502    0 -0.15623488698E+03 -0.14797831821E+03 -0.93868558087E+03  0.96303642465E+03  0.12699999809E+01 0.  1.
       -4    1    3    3    0  502  0.15623488698E+03  0.14797831821E+03  0.14922720531E+04  0.15077083326E+04  0.12699999809E+01 0. -1.
</event>
<event>
 5   0  0.3347728E-05  0.2419321E+04  0.7818609E-02  0.8432305E-01
       -2   -1    0    0    0  501  0.00000000000E+00  0.00000000000E+00  0.12272411443E+04  0.12272411443E+04  0.25500000920E-02 0.  1.
        2   -1    0    0  501    0  0.00000000000E+00  0.00000000000E+00 -0.11923320654E+04  0.11923320654E+04  0.25500000920E-02 0. -1.
    10030    2    1    2    0    0  0.00000000000E+00  0.00000000000E+00  0.34909078910E+02  0.24195732097E+04  0.24193213662E+04 0.  0.
        3    1    3    3  502    0 -0.11612227571E+03 -0.11411371354E+04 -0.36677370582E+03  0.12042430428E+04  0.10100000352E+00 0. -1.
       -3    1    3    3    0  502  0.11612227571E+03  0.11411371354E+04  0.40168278473E+03  0.12153301668E+04  0.10100000352E+00 0.  1.
</event>
<event>
 5   0  0.1393026E-05  0.2422702E+04  0.7818609E-02  0.8431053E-01
        1   -1    0    0  501    0  0.00000000000E+00  0.00000000000E+00  0.22266366022E+04  0.22266366022E+04  0.50400001928E-02 0. -1.
       -1   -1    0    0    0  501  0.00000000000E+00  0.00000000000E+00 -0.65900769971E+03  0.65900769973E+03  0.50400001928E-02 0.  1.
    10030    2    1    2    0    0  0.00000000000E+00  0.00000000000E+00  0.15676289025E+04  0.28856443020E+04  0.24227015213E+04 0.  0.
        4    1    3    3  502    0 -0.75328740212E+03  0.33295030397E+03 -0.27422288001E+03  0.86804240445E+03  0.12699999809E+01 0.  1.
       -4    1    3    3    0  502  0.75328740212E+03 -0.33295030397E+03  0.18418517825E+04  0.20176018975E+04  0.12699999809E+01 0. -1.
</event>
<event>
 5   0  0.1401596E-05  0.2430528E+04  0.7818609E-02  0.8428162E-01
        1   -1    0    0  501    0  0.00000000000E+00  0.00000000000E+00  0.20003224332E+04  0.20003224332E+04  0.50400001928E-02 0.  1.
       -1   -1    0    0    0  501  0.00000000000E+00  0.00000000000E+00 -0.73831416687E+03  0.73831416689E+03  0.50400001928E-02 0. -1.
    10030    2    1    2    0    0  0.00000000000E+00  0.00000000000E+00  0.12620082663E+04  0.27386366001E+04  0.24305278363E+04 0.  0.
        2    1    3    3  502    0  0.49573833878E+02  0.14154642480E+03  0.19898549360E+04  0.19954988403E+04  0.25500000920E-02 0.  1.
       -2    1    3    3    0  502 -0.49573833878E+02 -0.14154642480E+03 -0.72784666969E+03  0.74313775975E+03  0.25500000920E-02 0. -1.
</event>
<event>
 5   0  0.3347728E-05  0.2423916E+04  0.7818609E-02  0.8430604E-01
       -2   -1    0    0    0  501  0.00000000000E+00  0.00000000000E+00  0.10352591511E+04  0.10352591511E+04  0.25500000920E-02 0. -1.
        2   -1    0    0  501    0  0.00000000000E+00  0.00000000000E+00 -0.14188154692E+04  0.14188154692E+04  0.25500000920E-02 0.  1.
    10030    2    1    2    0    0  0.00000000000E+00  0.00000000000E+00 -0.38355631808E+03  0.24540746203E+04  0.24239155911E+04 0.  0.
        3    1    3    3  502    0  0.32264994885E+03  0.56128831402E+03 -0.12290716569E+04  0.13891597132E+04  0.10100000352E+00 0.  1.
       -3    1    3    3    0  502 -0.32264994885E+03 -0.56128831402E+03  0.84551533881E+03  0.10649149071E+04  0.10100000352E+00 0. -1.
</event>
<event>
 5   0  0.3345974E-05  0.2408511E+04  0.7818609E-02  0.8436324E-01
       -2   -1    0    0    0  501  0.00000000000E+00  0.00000000000E+00  0.10904925585E+04  0.10904925585E+04  0.25500000920E-02 0.  1.
        2   -1    0    0  501    0  0.00000000000E+00  0.00000000000E+00 -0.13298865347E+04  0.13298865347E+04  0.25500000920E-02 0. -1.
    10030    2    1    2    0    0  0.00000000000E+00  0.00000000000E+00 -0.23939397621E+03  0.24203790932E+04  0.24085110502E+04 0.  0.
        4    1    3    3  502    0  0.29115841804E+03 -0.60558636853E+03 -0.11239820181E+04  0.13095210056E+04  0.12699999809E+01 0. -1.
       -4    1    3    3    0  502 -0.29115841804E+03  0.60558636853E+03  0.88458804189E+03  0.11108580877E+04  0.12699999809E+01 0.  1.
</event>
<event>
 5   0  0.3345974E-05  0.2456049E+04  0.7818609E-02  0.8418813E-01
       -2   -1    0    0    0  501  0.00000000000E+00  0.00000000000E+00  0.90203268384E+03  0.90203268384E+03  0.25500000920E-02 0.  1.
        2   -1    0    0  501    0  0.00000000000E+00  0.00000000000E+00 -0.16718285872E+04  0.16718285872E+04  0.25500000920E-02 0. -1.
    10030    2    1    2    0    0  0.00000000000E+00  0.00000000000E+00 -0.76979590340E+03  0.25738612711E+04  0.24560488818E+04 0.  0.
        4    1    3    3  502    0 -0.80705932423E+03  0.23565350846E+03 -0.13229115542E+04  0.15674737389E+04  0.12699999809E+01 0. -1.
       -4    1    3    3    0  502  0.80705932423E+03 -0.23565350846E+03  0.55311565083E+03  0.10063875322E+04  0.12699999809E+01 0.  1.
</event>
<event>
 5   0  0.1506985E-05  0.2168392E+04  0.7818609E-02  0.8531700E-01
        1   -1    0    0  501    0  0.00000000000E+00  0.00000000000E+00  0.13713259309E+04  0.13713259309E+04  0.50400001928E-02 0.  1.
       -1   -1    0    0    0  501  0.00000000000E+00  0.00000000000E+00 -0.85718561042E+03  0.85718561044E+03  0.50400001928E-02 0. -1.
    10030    2    1    2    0    0  0.00000000000E+00  0.00000000000E+00  0.51414032052E+03  0.22285115414E+04  0.21683918974E+04 0.  0.
        3    1    3    3  502    0  0.76123271876E+03  0.65168295879E+03  0.68244784026E+03  0.12123947360E+04  0.10100000352E+00 0.  1.
       -3    1    3    3    0  502 -0.76123271876E+03 -0.65168295879E+03 -0.16830751974E+03  0.10161168054E+04  0.10100000352E+00 0. -1.
</event>
<event>
 5   0  0.1407158E-05  0.2384741E+04  0.7818609E-02  0.8445238E-01
       -1   -1    0    0    0  501  0.00000000000E+00  0.00000000000E+00  0.85532235778E+03  0.85532235779E+03  0.50400001928E-02 0.  1.
        1   -1    0    0  501    0  0.00000000000E+00  0.00000000000E+00 -0.16622356290E+04  0.16622356290E+04  0.50400001928E-02 0. -1.
    10030    2    1    2    0    0  0.00000000000E+00  0.00000000000E+00 -0.80691327118E+03  0.25175579868E+04  0.23847409062E+04 0.  0.
        1    1    3    3  502    0  0.89228559576E+02  0.28992769891E+03 -0.16208182536E+04  0.16489607689E+04  0.50400001928E-02 0. -1.
       -1    1    3    3    0  502 -0.89228559576E+02 -0.28992769891E+03  0.81390498237E+03  0.86859721781E+03  0.50400001928E-02 0.  1.
</event>
<event>
 5   0  0.1401596E-05  0.2392815E+04  0.7818609E-02  0.8442198E-01
       -1   -1    0    0    0  501  0.00000000000E+00  0.00000000000E+00  0.11731085245E+04  0.11731085245E+04  0.50400001928E-02 0.  1.
        1   -1    0    0  501    0  0.00000000000E+00  0.00000000000E+00 -0.12201694332E+04  0.12201694333E+04  0.50400001928E-02 0. -1.
    10030    2    1    2    0    0  0.00000000000E+00  0.00000000000E+00 -0.47060908729E+02  0.23932779578E+04  0.23928152152E+04 0.  0.
        2    1    3    3  502    0 -0.21653966781E+02  0.10695072892E+04 -0.55942920665E+03  0.12071767780E+04  0.25500000920E-02 0. -1.
       -2    1    3    3    0  502  0.21653966781E+02 -0.10695072892E+04  0.51236829792E+03  0.11861011798E+04  0.25500000920E-02 0.  1.
</event>
<event>
 5   0  0.3215208E-05  0.2335870E+04  0.7818609E-02  0.8463911E-01
        2   -1    0    0  501    0  0.00000000000E+00  0.00000000000E+00  0.86030617086E+03  0.86030617086E+03  0.25500000920E-02 0.  1.
       -2   -1    0    0    0  501  0.00000000000E+00  0.00000000000E+00 -0.15855659998E+04  0.15855659998E+04  0.25500000920E-02 0. -1.
    10030    2    1    2    0    0  0.00000000000E+00  0.00000000000E+00 -0.72525982894E+03  0.24458721707E+04  0.23358700426E+04 0.  0.
        1    1    3    3  502    0 -0.67183872186E+03 -0.56884225498E+03  0.44105946290E+03  0.98462288673E+03  0.50400001928E-02 0.  1.
       -1    1    3    3    0  502  0.67183872186E+03  0.56884225498E+03 -0.11663192918E+04  0.14612492839E+04  0.50400001928E-02 0. -1.
</event>
<event>
 5   0  0.3345974E-05  0.2355280E+04  0.7818609E-02  0.8456438E-01
       -2   -1    0    0    0  501  0.00000000000E+00  0.00000000000E+00  0.61669810744E+03  0.61669810745E+03  0.25500000920E-02 0. -1.
        2   -1    0    0  501    0  0.00000000000E+00  0.00000000000E+00 -0.22488094572E+04  0.22488094572E+04  0.25500000920E-02 0.  1.
    10030    2    1    2    0    0  0.00000000000E+00  0.00000000000E+00 -0.16321113498E+04  0.28655075647E+04  0.23552804812E+04 0.  0.
        4    1    3    3  502    0  0.35118175623E+03 -0.26114379323E+03  0.51409010862E+03  0.67514069595E+03  0.12699999809E+01 0. -1.
       -4    1    3    3    0  502 -0.35118175623E+03  0.26114379323E+03 -0.21462014584E+04  0.21903668687E+04  0.12699999809E+01 0.  1.
</event>
<event>
 5   0  0.1434943E-05  0.2457228E+04  0.7818609E-02  0.8418384E-01
        1   -1    0    0  501    0  0.00000000000E+00  0.00000000000E+00  0.10887784201E+04  0.10887784201E+04  0.50400001928E-02 0.  1.
       -1   -1    0    0    0  501  0.00000000000E+00  0.00000000000E+00 -0.13864096407E+04  0.13864096407E+04  0.50400001928E-02 0. -1.
    10030    2    1    2    0    0  0.00000000000E+00  0.00000000000E+00 -0.29763122064E+03  0.24751880608E+04  0.24572284373E+04 0.  0.
        5    1    3    3  502    0  0.74285285516E+03  0.52088841639E+03 -0.98331233448E+03  0.13379388416E+04  0.46999998093E+01 0. -1.
       -5    1    3    3    0  502 -0.74285285516E+03 -0.52088841639E+03  0.68568111385E+03  0.11372492192E+04  0.46999998093E+01 0.  1.
</event>
<event>
 5   0  0.3215208E-05  0.2389586E+04  0.7818609E-02  0.8443413E-01
        2   -1    0    0  501    0  0.00000000000E+00  0.00000000000E+00  0.12446452580E+04  0.12446452580E+04  0.25500000920E-02 0.  1.
       -2   -1    0    0    0  501  0.00000000000E+00  0.00000000000E+00 -0.11469375266E+04  0.11469375266E+04  0.25500000920E-02 0. -1.
    10030    2    1    2    0    0  0.00000000000E+00  0.00000000000E+00  0.97707731441E+02  0.23915827846E+04  0.23895860342E+04 0.  0.
        1    1    3    3  502    0 -0.91890898971E+03  0.50794954858E+03 -0.52181894403E+03  0.11724766461E+04  0.50400001928E-02 0. -1.
       -1    1    3    3    0  502  0.91890898971E+03 -0.50794954858E+03  0.61952667548E+03  0.12191061385E+04  0.50400001928E-02 0.  1.
</event>
<event>
 5   0  0.1506985E-05  0.2419555E+04  0.7818609E-02  0.8432218E-01
        1   -1    0    0  501    0  0.00000000000E+00  0.00000000000E+00  0.11543406198E+04  0.11543406198E+04  0.50400001928E-02 0. -1.
       -1   -1    0    0    0  501  0.00000000000E+00  0.00000000000E+00 -0.12678770604E+04  0.12678770604E+04  0.50400001928E-02 0.  1.
    10030    2    1    2    0    0  0.00000000000E+00  0.00000000000E+00 -0.11353644052E+03  0.24222176802E+04  0.24195553242E+04 0.  0.
        3    1    3    3  502    0 -0.79038695500E+03  0.32801533389E+03 -0.91284446915E+03  0.12512356425E+04  0.10100000352E+00 0.  1.
       -3    1    3    3    0  502  0.79038695500E+03 -0.32801533389E+03  0.79930802863E+03  0.11709820377E+04  0.10100000352E+00 0. -1.
</event>
<event>
 5   0  0.1434943E-05  0.2402457E+04  0.7818609E-02  0.8438584E-01
        1   -1    0    0  501    0  0.00000000000E+00  0.00000000000E+00  0.13511671572E+04  0.13511671572E+04  0.50400001928E-02 0. -1.
       -1   -1    0    0    0  501  0.00000000000E+00  0.00000000000E+00 -0.10679284468E+04  0.10679284468E+04  0.50400001928E-02 0.  1.
    10030    2    1    2    0    0  0.00000000000E+00  0.00000000000E+00  0.28323871039E+03  0.24190956039E+04  0.24024569453E+04 0.  0.
        5    1    3    3  502    0  0.84513134317E+03 -0.80734068555E+03  0.42081532458E+03  0.12422373353E+04  0.46999998093E+01 0. -1.
       -5    1    3    3    0  502 -0.84513134317E+03  0.80734068555E+03 -0.13757661419E+03  0.11768582687E+04  0.46999998093E+01 0.  1.
</event>
<event>
 5   0  0.1434943E-05  0.2393987E+04  0.7818609E-02  0.8441758E-01
       -1   -1    0    0    0  501  0.00000000000E+00  0.00000000000E+00  0.11878507888E+04  0.11878507888E+04  0.50400001928E-02 0. -1.
        1   -1    0    0  501    0  0.00000000000E+00  0.00000000000E+00 -0.12062067117E+04  0.12062067117E+04  0.50400001928E-02 0.  1.
    10030    2    1    2    0    0  0.00000000000E+00  0.00000000000E+00 -0.18355922935E+02  0.23940575005E+04  0.23939871294E+04 0.  0.
        5    1    3    3  502    0  0.55769783258E+03  0.53039593369E+03  0.90759583517E+03  0.11899995836E+04  0.46999998093E+01 0. -1.
       -5    1    3    3    0  502 -0.55769783258E+03 -0.53039593369E+03 -0.92595175811E+03  0.12040579169E+04  0.46999998093E+01 0.  1.
</event>
<event>
 5   0  0.3320780E-05  0.2395433E+04  0.7818609E-02  0.8441215E-01
       -2   -1    0    0    0  501  0.00000000000E+00  0.00000000000E+00  0.19170544230E+04  0.19170544230E+04  0.25500000920E-02 0. -1.
        2   -1    0    0  501    0  0.00000000000E+00  0.00000000000E+00 -0.74829621351E+03  0.74829621351E+03  0.25500000920E-02 0.  1.
    10030    2    1    2    0    0  0.00000000000E+00  0.00000000000E+00  0.11687582095E+04  0.26653506366E+04  0.23954327925E+04 0.  0.
        5    1    3    3  502    0  0.93072854623E+03 -0.46429703839E+03  0.12451604356E+04  0.16224284166E+04  0.46999998093E+01 0. -1.
       -5    1    3    3    0  502 -0.93072854623E+03  0.46429703839E+03 -0.76402226120E+02  0.10429222199E+04  0.46999998093E+01 0.  1.
</event>
<event>
 5   0  0.3320780E-05  0.2423512E+04  0.7818609E-02  0.8430753E-01
       -2   -1    0    0    0  501  0.00000000000E+00  0.00000000000E+00  0.12545814465E+04  0.12545814465E+04  0.25500000920E-02 0.  1.
        2   -1    0    0  501    0  0.00000000000E+00  0.00000000000E+00 -0.11703928127E+04  0.11703928127E+04  0.25500000920E-02 0. -1.
    10030    2    1    2    0    0  0.00000000000E+00  0.00000000000E+00  0.84188633825E+02  0.24249742592E+04  0.24235124162E+04 0.  0.
        5    1    3    3  502    0  0.91976560164E+03 -0.78734184142E+03  0.91672974964E+02  0.12142083683E+04  0.46999998093E+01 0.  1.
       -5    1    3    3    0  502 -0.91976560164E+03  0.78734184142E+03 -0.74843411390E+01  0.12107658909E+04  0.46999998093E+01 0. -1.
</event>
<event>
 5   0  0.3345974E-05  0.2448116E+04  0.7818609E-02  0.8421706E-01
        2   -1    0    0  501    0  0.00000000000E+00  0.00000000000E+00  0.18147421502E+04  0.18147421502E+04  0.25500000920E-02 0.  1.
       -2   -1    0    0    0  501  0.00000000000E+00  0.00000000000E+00 -0.82563683297E+03  0.82563683297E+03  0.25500000920E-02 0. -1.
    10030    2    1    2    0    0  0.00000000000E+00  0.00000000000E+00  0.98910531719E+03  0.26403789831E+04  0.24481159789E+04 0.  0.
        4    1    3    3  502    0 -0.43343900933E+03  0.50339643236E+03 -0.61431517469E+03  0.90479947485E+03  0.12699999809E+01 0. -1.
       -4    1    3    3    0  502  0.43343900933E+03 -0.50339643236E+03  0.16034204919E+04  0.17355795083E+04  0.12699999809E+01 0.  1.
</event>
<event>
 5   0  0.1407158E-05  0.2255478E+04  0.7818609E-02  0.8495685E-01
       -1   -1    0    0    0  501  0.00000000000E+00  0.00000000000E+00  0.10465502517E+04  0.10465502517E+04  0.50400001928E-02 0.  1.
        1   -1    0    0  501    0  0.00000000000E+00  0.00000000000E+00 -0.12152263509E+04  0.12152263509E+04  0.50400001928E-02 0. -1.
    10030    2    1    2    0    0  0.00000000000E+00  0.00000000000E+00 -0.16867609926E+03  0.22617766026E+04  0.22554781696E+04 0.  0.
        1    1    3    3  502    0 -0.10465036276E+04  0.90231128303E+02  0.32727614182E+03  0.11001914252E+04  0.50400001928E-02 0.  1.
       -1    1    3    3    0  502  0.10465036276E+04 -0.90231128303E+02 -0.49595224108E+03  0.11615851774E+04  0.50400001928E-02 0. -1.
</event>
<event>
 5   0  0.3320780E-05  0.2390766E+04  0.7818609E-02  0.8442969E-01
        2   -1    0    0  501    0  0.00000000000E+00  0.00000000000E+00  0.67892847795E+03  0.67892847795E+03  0.25500000920E-02 0.  1.
       -2   -1    0    0    0  501  0.00000000000E+00  0.00000000000E+00 -0.21046991836E+04  0.21046991836E+04  0.25500000920E-02 0. -1.
    10030    2    1    2    0    0  0.00000000000E+00  0.00000000000E+00 -0.14257707057E+04  0.27836276616E+04  0.23907657462E+04 0.  0.
        5    1    3    3  502    0 -0.62699548826E+03  0.85781291918E+03 -0.13505610095E+04  0.17184305272E+04  0.46999998093E+01 0. -1.
       -5    1    3    3    0  502  0.62699548826E+03 -0.85781291918E+03 -0.75209696200E+02  0.10651971343E+04  0.46999998093E+01 0.  1.
</event>
<event>
 5   0  0.1434943E-05  0.2401574E+04  0.7818609E-02  0.8438915E-01
       -1   -1    0    0    0  501  0.00000000000E+00  0.00000000000E+00  0.94280080550E+03  0.94280080551E+03  0.50400001928E-02 0. -1.
        1   -1    0    0  501    0  0.00000000000E+00  0.00000000000E+00 -0.15293679183E+04  0.15293679184E+04  0.50400001928E-02 0.  1.
    10030    2    1    2    0    0  0.00000000000E+00  0.00000000000E+00 -0.58656711285E+03  0.24721687239E+04  0.24015739050E+04 0.  0.
        5    1    3    3  502    0 -0.88102003295E+03 -0.55358318563E+03 -0.91024828251E+03  0.13824704943E+04  0.46999998093E+01 0.  1.
       -5    1    3    3    0  502  0.88102003295E+03  0.55358318563E+03  0.32368116966E+03  0.10896982295E+04  0.46999998093E+01 0. -1.
</event>
<event>
 5   0  0.3347728E-05  0.2403352E+04  0.7818609E-02  0.8438250E-01
       -2   -1    0    0    0  501  0.00000000000E+00  0.00000000000E+00  0.49720732549E+03  0.49720732550E+03  0.25500000920E-02 0. -1.
        2   -1    0    0  501    0  0.00000000000E+00  0.00000000000E+00 -0.29042712907E+04  0.29042712907E+04  0.25500000920E-02 0.  1.
    10030    2    1    2    0    0  0.00000000000E+00  0.00000000000E+00 -0.24070639652E+04  0.34014786162E+04  0.24033517936E+04 0.  0.
        3    1    3    3  502    0  0.10243900156E+04 -0.34102808993E+03 -0.19502315938E+04  0.22291429612E+04  0.10100000352E+00 0.  1.
       -3    1    3    3    0  502 -0.10243900156E+04  0.34102808993E+03 -0.45683237143E+03  0.11723356550E+04  0.10100000352E+00 0. -1.
</event>
<event>
 5   0  0.3320780E-05  0.2451034E+04  0.7818609E-02  0.8420641E-01
        2   -1    0    0  501    0  0.00000000000E+00  0.00000000000E+00  0.26411846263E+04  0.26411846263E+04  0.25500000920E-02 0. -1.
       -2   -1    0    0    0  501  0.00000000000E+00  0.00000000000E+00 -0.56864306078E+03  0.56864306079E+03  0.25500000920E-02 0.  1.
    10030    2    1    2    0    0  0.00000000000E+00  0.00000000000E+00  0.20725415655E+04  0.32098276871E+04  0.24510335045E+04 0.  0.
        5    1    3    3  502    0  0.73304969649E+03 -0.50782936218E+03 -0.64569770649E+02  0.89411624742E+03  0.46999998093E+01 0.  1.
       -5    1    3    3    0  502 -0.73304969649E+03  0.50782936218E+03  0.21371113361E+04  0.23157114396E+04  0.46999998093E+01 0. -1.
</event>
<event>
 5   0  0.1393026E-05  0.2320260E+04  0.7818609E-02  0.8469976E-01
       -1   -1    0    0    0  501  0.00000000000E+00  0.00000000000E+00  0.78535906415E+03  0.78535906417E+03  0.50400001928E-02 0. -1.
        1   -1    0    0  501    0  0.00000000000E+00  0.00000000000E+00 -0.17137398104E+04  0.17137398105E+04  0.50400001928E-02 0.  1.
    10030    2    1    2    0    0  0.00000000000E+00  0.00000000000E+00 -0.92838074629E+03  0.24990988746E+04  0.23202595491E+04 0.  0.
        4    1    3    3  502    0 -0.82165322776E+03 -0.81542830579E+03 -0.38172442106E+03  0.12189144741E+04  0.12699999809E+01 0. -1.
       -4    1    3    3    0  502  0.82165322776E+03  0.81542830579E+03 -0.54665632524E+03  0.12801844005E+04  0.12699999809E+01 0.  1.
</event>
<event>
 5   0  0.3347728E-05  0.2410140E+04  0.7818609E-02  0.8435717E-01
       -2   -1    0    0    0  501  0.00000000000E+00  0.00000000000E+00  0.64541837556E+03  0.64541837556E+03  0.25500000920E-02 0.  1.
        2   -1    0    0  501    0  0.00000000000E+00  0.00000000000E+00 -0.22500029824E+04  0.22500029824E+04  0.25500000920E-02 0. -1.
    10030    2    1    2    0    0  0.00000000000E+00  0.00000000000E+00 -0.16045846069E+04  0.28954213580E+04  0.24101396391E+04 0.  0.
        3    1    3    3  502    0 -0.30004819003E+03 -0.71152994113E+02  0.59721686690E+03  0.67213068761E+03  0.10100000352E+00 0.  1.
       -3    1    3    3    0  502  0.30004819003E+03  0.71152994113E+02 -0.22018014738E+04  0.22232906704E+04  0.10100000352E+00 0. -1.
</event>
<event>
 5   0  0.3310037E-05  0.2428429E+04  0.7818609E-02  0.8428936E-01
        2   -1    0    0  501    0  0.00000000000E+00  0.00000000000E+00  0.18497038501E+04  0.18497038501E+04  0.25500000920E-02 0. -1.
       -2   -1    0    0    0  501  0.00000000000E+00  0.00000000000E+00 -0.79705584821E+03  0.79705584821E+03  0.25500000920E-02 0.  1.
    10030    2    1    2    0    0  0.00000000000E+00  0.00000000000E+00  0.10526480019E+04  0.26467596983E+04  0.24284293452E+04 0.  0.
        2    1    3    3  502    0 -0.49607743767E+03  0.10684922010E+04  0.20568250545E+03  0.11958568897E+04  0.25500000920E-02 0.  1.
       -2    1    3    3    0  502  0.49607743767E+03 -0.10684922010E+04  0.84696549641E+03  0.14509028085E+04  0.25500000920E-02 0. -1.
</event>
<event>
 5   0  0.3345974E-05  0.2367638E+04  0.7818609E-02  0.8451720E-01
       -2   -1    0    0    0  501  0.00000000000E+00  0.00000000000E+00  0.10167913645E+04  0.10167913645E+04  0.25500000920E-02 0. -1.
        2   -1    0    0  501    0  0.00000000000E+00  0.00000000000E+00 -0.13782843808E+04  0.13782843808E+04  0.25500000920E-02 0.  1.
    10030    2    1    2    0    0  0.00000000000E+00  0.00000000000E+00 -0.36149301633E+03  0.23950757453E+04  0.23676381955E+04 0.  0.
        4    1    3    3  502    0 -0.60106609247E+03 -0.39259179225E+03 -0.11329395670E+04  0.13412540544E+04  0.12699999809E+01 0.  1.
       -4    1    3    3    0  502  0.60106609247E+03  0.39259179225E+03  0.77144655071E+03  0.10538216910E+04  0.12699999809E+01 0. -1.
</event>
<event>
 5   0  0.3347728E-05  0.2376647E+04  0.7818609E-02  0.8448299E-01
       -2   -1    0    0    0  501  0.00000000000E+00  0.00000000000E+00  0.11635655071E+04  0.11635655071E+04  0.25500000920E-02 0.  1.
        2   -1    0    0  501    0  0.00000000000E+00  0.00000000000E+00 -0.12136078159E+04  0.12136078159E+04  0.25500000920E-02 0. -1.
    10030    2    1    2    0    0  0.00000000000E+00  0.00000000000E+00 -0.50042308820E+02  0.23771733230E+04  0.23766465398E+04 0.  0.
        3    1    3    3  502    0  0.11475888486E+04 -0.84849250878E+02 -0.32165496315E+03  0.11948311539E+04  0.10100000352E+00 0. -1.
       -3    1    3    3    0  502 -0.11475888486E+04  0.84849250878E+02  0.27161265433E+03  0.11823421692E+04  0.10100000352E+00 0.  1.
</event>
<event>
 5   0  0.3215208E-05  0.2389950E+04  0.7818609E-02  0.8443276E-01
       -2   -1    0    0    0  501  0.00000000000E+00  0.00000000000E+00  0.70279301391E+03  0.70279301391E+03  0.25500000920E-02 0. -1.
        2   -1    0    0  501    0  0.00000000000E+00  0.00000000000E+00 -0.20318438805E+04  0.20318438805E+04  0.25500000920E-02 0.  1.
    10030    2    1    2    0    0  0.00000000000E+00  0.00000000000E+00 -0.13290508666E+04  0.27346368944E+04  0.23899503632E+04 0.  0.
        1    1    3    3  502    0  0.39638440386E+01  0.25859456485E+03  0.67038591820E+03  0.71854306787E+03  0.50400001928E-02 0. -1.
       -1    1    3    3    0  502 -0.39638440386E+01 -0.25859456485E+03 -0.19994367848E+04  0.20160938266E+04  0.50400001928E-02 0.  1.
</event>
<event>
 5   0  0.3215208E-05  0.2392639E+04  0.7818609E-02  0.8442265E-01
        2   -1    0    0  501    0  0.00000000000E+00  0.00000000000E+00  0.15993660347E+04  0.15993660347E+04  0.25500000920E-02 0. -1.
       -2   -1    0    0    0  501  0.00000000000E+00  0.00000000000E+00 -0.89484229370E+03  0.89484229370E+03  0.25500000920E-02 0.  1.
    10030    2    1    2    0    0  0.00000000000E+00  0.00000000000E+00  0.70452374103E+03  0.24942083284E+04  0.23926390208E+04 0.  0.
        1    1    3    3  502    0 -0.26684163136E+02 -0.24460398545E+02 -0.89427125308E+03  0.89500359205E+03  0.50400001928E-02 0.  1.
       -1    1    3    3    0  502  0.26684163136E+02  0.24460398545E+02  0.15987949941E+04  0.15992047364E+04  0.50400001928E-02 0. -1.
</event>
<event>
 5   0  0.1407158E-05  0.2373821E+04  0.7818609E-02  0.8449370E-01
       -1   -1    0    0    0  501  0.00000000000E+00  0.00000000000E+00  0.11696395260E+04  0.11696395260E+04  0.50400001928E-02 0. -1.
        1   -1    0    0  501    0  0.00000000000E+00  0.00000000000E+00 -0.12044360535E+04  0.12044360535E+04  0.50400001928E-02 0.  1.
    10030    2    1    2    0    0  0.00000000000E+00  0.00000000000E+00 -0.34796527538E+02  0.23740755795E+04  0.23738205616E+04 0.  0.
        1    1    3    3  502    0 -0.65285940248E+03 -0.98647664248E+03 -0.11433364259E+03  0.11884585594E+04  0.50400001928E-02 0. -1.
       -1    1    3    3    0  502  0.65285940248E+03  0.98647664248E+03  0.79537115050E+02  0.11856170201E+04  0.50400001928E-02 0.  1.
</event>
<event>
 5   0  0.1401596E-05  0.2309842E+04  0.7818609E-02  0.8474051E-01
       -1   -1    0    0    0  501  0.00000000000E+00  0.00000000000E+00  0.14973523167E+04  0.14973523167E+04  0.50400001928E-02 0.  1.
        1   -1    0    0  501    0  0.00000000000E+00  0.00000000000E+00 -0.89080057118E+03  0.89080057119E+03  0.50400001928E-02 0. -1.
    10030    2    1    2    0    0  0.00000000000E+00  0.00000000000E+00  0.60655174549E+03  0.23881528879E+04  0.23098418119E+04 0.  0.
        2    1    3    3  502    0  0.24734006638E+03 -0.10235672373E+03 -0.85828496607E+03  0.89905900269E+03  0.25500000920E-02 0. -1.
       -2    1    3    3    0  502 -0.24734006638E+03  0.10235672373E+03  0.14648367116E+04  0.14890938852E+04  0.25500000920E-02 0.  1.
</event>
<event>
 5   0  0.3215208E-05  0.2404730E+04  0.7818609E-02  0.8437735E-01
        2   -1    0    0  501    0  0.00000000000E+00  0.00000000000E+00  0.17398944837E+04  0.17398944837E+04  0.25500000920E-02 0.  1.
       -2   -1    0    0    0  501  0.00000000000E+00  0.00000000000E+00 -0.83090214305E+03  0.83090214305E+03  0.25500000920E-02 0. -1.
    10030    2    1    2    0    0  0.00000000000E+00  0.00000000000E+00  0.90899234070E+03  0.25707966268E+04  0.24047303842E+04 0.  0.
        1    1    3    3  502    0 -0.28895137783E+03 -0.30123397740E+03 -0.75095744418E+03  0.85916930281E+03  0.50400001928E-02 0. -1.
       -1    1    3    3    0  502  0.28895137783E+03  0.30123397740E+03  0.16599497849E+04  0.17116273240E+04  0.50400001928E-02 0.  1.
</event>
<event>
 5   0  0.1434943E-05  0.2393781E+04  0.7818609E-02  0.8441836E-01
       -1   -1    0    0    0  501  0.00000000000E+00  0.00000000000E+00  0.15661913527E+04  0.15661913527E+04  0.50400001928E-02 0.  1.
        1   -1    0    0  501    0  0.00000000000E+00  0.00000000000E+00 -0.91466901599E+03  0.91466901600E+03  0.50400001928E-02 0. -1.
    10030    2    1    2    0    0  0.00000000000E+00  0.00000000000E+00  0.65152233673E+03  0.24808603687E+04  0.23937808617E+04 0.  0.
        5    1    3    3  502    0  0.10009242597E+04 -0.46443019562E+03  0.80628705838E+03  0.13666256586E+04  0.46999998093E+01 0.  1.
       -5    1    3    3    0  502 -0.10009242597E+04  0.46443019562E+03 -0.15476472165E+03  0.11142347101E+04  0.46999998093E+01 0. -1.
</event>
<event>
 5   0  0.3320780E-05  0.2420778E+04  0.7818609E-02  0.8431765E-01
       -2   -1    0    0    0  501  0.00000000000E+00  0.00000000000E+00  0.13899901253E+04  0.13899901253E+04  0.25500000920E-02 0. -1.
        2   -1    0    0  501    0  0.00000000000E+00  0.00000000000E+00 -0.10539940246E+04  0.10539940246E+04  0.25500000920E-02 0.  1.
    10030    2    1    2    0    0  0.00000000000E+00  0.00000000000E+00  0.33599610077E+03  0.24439841499E+04  0.24207777976E+04 0.  0.
        5    1    3    3  502    0  0.88000319622E+03 -0.57994041517E+03 -0.43292438922E+03  0.11393779563E+04  0.46999998093E+01 0.  1.
       -5    1    3    3    0  502 -0.88000319622E+03  0.57994041517E+03  0.76892048999E+03  0.13046061936E+04  0.46999998093E+01 0. -1.
</event>
<event>
 5   0  0.1506985E-05  0.2420628E+04  0.7818609E-02  0.8431821E-01
        1   -1    0    0  501    0  0.00000000000E+00  0.00000000000E+00  0.11801786297E+04  0.11801786297E+04  0.50400001928E-02 0. -1.
       -1   -1    0    0    0  501  0.00000000000E+00  0.00000000000E+00 -0.12412191455E+04  0.12412191455E+04  0.50400001928E-02 0.  1.
    10030    2    1    2    0    0  0.00000000000E+00  0.00000000000E+00 -0.61040515820E+02  0.24213977753E+04  0.24206282741E+04 0.  0.
        3    1    3    3  502    0 -0.65308443296E+03 -0.48782967637E+03  0.86439435885E+03  0.11881391701E+04  0.10100000352E+00 0. -1.
       -3    1    3    3    0  502  0.65308443296E+03  0.48782967637E+03 -0.92543487467E+03  0.12332586052E+04  0.10100000352E+00 0.  1.
</event>
<event>
 5   0  0.3310037E-05  0.2400910E+04  0.7818609E-02  0.8439163E-01
        2   -1    0    0  501    0  0.00000000000E+00  0.00000000000E+00  0.11662785925E+04  0.11662785925E+04  0.25500000920E-02 0. -1.
       -2   -1    0    0    0  501  0.00000000000E+00  0.00000000000E+00 -0.12356325508E+04  0.12356325508E+04  0.25500000920E-02 0.  1.
    10030    2    1    2    0    0  0.00000000000E+00  0.00000000000E+00 -0.69353958292E+02  0.24019111433E+04  0.24009096545E+04 0.  0.
        2    1    3    3  502    0 -0.25715149443E+03  0.37207168080E+03  0.10777794755E+04  0.11688339593E+04  0.25500000920E-02 0. -1.
       -2    1    3    3    0  502  0.25715149443E+03 -0.37207168080E+03 -0.11471334338E+04  0.12330771840E+04  0.25500000920E-02 0.  1.
</event>
<event>
 5   0  0.1393026E-05  0.2391389E+04  0.7818609E-02  0.8442734E-01
       -1   -1    0    0    0  501  0.00000000000E+00  0.00000000000E+00  0.12210897374E+04  0.12210897374E+04  0.50400001928E-02 0.  1.
        1   -1    0    0  501    0  0.00000000000E+00  0.00000000000E+00 -0.11708278183E+04  0.11708278183E+04  0.50400001928E-02 0. -1.
    10030    2    1    2    0    0  0.00000000000E+00  0.00000000000E+00  0.50261919167E+02  0.23919175557E+04  0.23913894147E+04 0.  0.
        4    1    3    3  502    0 -0.12423087410E+02  0.13727015137E+03  0.12131166350E+04  0.12209221968E+04  0.12699999809E+01 0.  1.
       -4    1    3    3    0  502  0.12423087410E+02 -0.13727015137E+03 -0.11628547158E+04  0.11709953589E+04  0.12699999809E+01 0. -1.
</event>
<event>
 5   0  0.1434943E-05  0.2451901E+04  0.7818609E-02  0.8420324E-01
        1   -1    0    0  501    0  0.00000000000E+00  0.00000000000E+00  0.17080637325E+04  0.17080637325E+04  0.50400001928E-02 0. -1.
       -1   -1    0    0    0  501  0.00000000000E+00  0.00000000000E+00 -0.87991693881E+03  0.87991693882E+03  0.50400001928E-02 0.  1.
    10030    2    1    2    0    0  0.00000000000E+00  0.00000000000E+00  0.82814679371E+03  0.25879806713E+04  0.24519006594E+04 0.  0.
        5    1    3    3  502    0 -0.63973582244E+03 -0.45735816612E+03 -0.57859805328E+03  0.97633816472E+03  0.46999998093E+01 0.  1.
       -5    1    3    3    0  502  0.63973582244E+03  0.45735816612E+03  0.14067448470E+04  0.16116425066E+04  0.46999998093E+01 0. -1.
</event>
<event>
 5   0  0.1407158E-05  0.2161865E+04  0.7818609E-02  0.8534470E-01
        1   -1    0    0  501    0  0.00000000000E+00  0.00000000000E+00  0.17733749348E+04  0.17733749349E+04  0.50400001928E-02 0.  1.
       -1   -1    0    0    0  501  0.00000000000E+00  0.00000000000E+00 -0.65886521272E+03  0.65886521274E+03  0.50400001928E-02 0. -1.
    10030    2    1    2    0    0  0.00000000000E+00  0.00000000000E+00  0.11145097221E+04  0.24322401476E+04  0.21618649853E+04 0.  0.
        1    1    3    3  502    0  0.23250788769E+03 -0.98474032336E+03  0.98513737729E+03  0.14121859206E+04  0.50400001928E-02 0.  1.
       -1    1    3    3    0  502 -0.23250788769E+03  0.98474032336E+03  0.12937234484E+03  0.10200542270E+04  0.50400001928E-02 0. -1.
</event>
<event>
 5   0  0.1401596E-05  0.2735505E+04  0.7818609E-02  0.8323576E-01
        1   -1    0    0  501    0  0.00000000000E+00  0.00000000000E+00  0.78591463077E+03  0.78591463079E+03  0.50400001928E-02 0. -1.
       -1   -1    0    0    0  501  0.00000000000E+00  0.00000000000E+00 -0.23803442140E+04  0.23803442140E+04  0.50400001928E-02 0.  1.
    10030    2    1    2    0    0  0.00000000000E+00  0.00000000000E+00 -0.15944295832E+04  0.31662588448E+04  0.27355053237E+04 0.  0.
        2    1    3    3  502    0 -0.73486122002E+02 -0.86910262836E+03 -0.20166868622E+04  0.21972176699E+04  0.25500000920E-02 0.  1.
       -2    1    3    3    0  502  0.73486122002E+02  0.86910262836E+03  0.42225727906E+03  0.96904117481E+03  0.25500000920E-02 0. -1.
</event>
<event>
 5   0  0.3347728E-05  0.2409182E+04  0.7818609E-02  0.8436074E-01
        2   -1    0    0  501    0  0.00000000000E+00  0.00000000000E+00  0.20538145531E+04  0.20538145531E+04  0.25500000920E-02 0.  1.
       -2   -1    0    0    0  501  0.00000000000E+00  0.00000000000E+00 -0.70650977202E+03  0.70650977202E+03  0.25500000920E-02 0. -1.
    10030    2    1    2    0    0  0.00000000000E+00  0.00000000000E+00  0.13473047811E+04  0.27603243251E+04  0.24091824769E+04 0.  0.
        3    1    3    3  502    0 -0.66923765322E+03 -0.96467725222E+03  0.36502428365E+03  0.12295218482E+04  0.10100000352E+00 0.  1.
       -3    1    3    3    0  502  0.66923765322E+03  0.96467725222E+03  0.98228049745E+03  0.15308024769E+04  0.10100000352E+00 0. -1.
</event>
<event>
 5   0  0.3215208E-05  0.2458530E+04  0.7818609E-02  0.8417910E-01
       -2   -1    0    0    0  501  0.00000000000E+00  0.00000000000E+00  0.19243500290E+04  0.19243500290E+04  0.25500000920E-02 0.  1.
        2   -1    0    0  501    0  0.00000000000E+00  0.00000000000E+00 -0.78524835965E+03  0.78524835966E+03  0.25500000920E-02 0. -1.
    10030    2    1    2    0    0  0.00000000000E+00  0.00000000000E+00  0.11391016693E+04  0.27095983886E+04  0.24585302143E+04 0.  0.
        1    1    3    3  502    0 -0.11012985256E+04  0.54521900816E+03  0.60388494975E+03  0.13692330853E+04  0.50400001928E-02 0.  1.
       -1    1    3    3    0  502  0.11012985256E+04 -0.54521900816E+03  0.53521671955E+03  0.13403653033E+04  0.50400001928E-02 0. -1.
</event>
<event>
 5   0  0.1401596E-05  0.2382986E+04  0.7818609E-02  0.8445901E-01
       -1   -1    0    0    0  501  0.00000000000E+00  0.00000000000E+00  0.72757612186E+03  0.72757612188E+03  0.50400001928E-02 0. -1.
        1   -1    0    0  501    0  0.00000000000E+00  0.00000000000E+00 -0.19512121377E+04  0.19512121377E+04  0.50400001928E-02 0.  1.
    10030    2    1    2    0    0  0.00000000000E+00  0.00000000000E+00 -0.12236360158E+04  0.26787882596E+04  0.23829858246E+04 0.  0.
        2    1    3    3  502    0  0.31542261037E+03  0.56071047797E+02  0.67825149538E+03  0.75010697672E+03  0.25500000920E-02 0. -1.
       -2    1    3    3    0  502 -0.31542261037E+03 -0.56071047797E+02 -0.19018875112E+04  0.19286812829E+04  0.25500000920E-02 0.  1.
</event>
<event>
 5   0  0.1393026E-05  0.2390932E+04  0.7818609E-02  0.8442906E-01
       -1   -1    0    0    0  501  0.00000000000E+00  0.00000000000E+00  0.10053666948E+04  0.10053666948E+04  0.50400001928E-02 0. -1.
        1   -1    0    0  501    0  0.00000000000E+00  0.00000000000E+00 -0.14215096783E+04  0.14215096783E+04  0.50400001928E-02 0.  1.
    10030    2    1    2    0    0  0.00000000000E+00  0.00000000000E+00 -0.41614298347E+03  0.24268763732E+04  0.23909316067E+04 0.  0.
        4    1    3    3  502    0  0.90849754217E+03 -0.70008250695E+03  0.13412223847E+03  0.11547613123E+04  0.12699999809E+01 0.  1.
       -4    1    3    3    0  502 -0.90849754217E+03  0.70008250695E+03 -0.55026522194E+03  0.12721150608E+04  0.12699999809E+01 0. -1.
</event>
<event>
 5   0  0.1506985E-05  0.2466366E+04  0.7818609E-02  0.8415067E-01
        1   -1    0    0  501    0  0.00000000000E+00  0.00000000000E+00  0.15008851229E+04  0.15008851229E+04  0.50400001928E-02 0.  1.
       -1   -1    0    0    0  501  0.00000000000E+00  0.00000000000E+00 -0.10132289560E+04  0.10132289560E+04  0.50400001928E-02 0. -1.
    10030    2    1    2    0    0  0.00000000000E+00  0.00000000000E+00  0.48765616694E+03  0.25141140789E+04  0.24663659632E+04 0.  0.
        3    1    3    3  502    0  0.45203671187E+03 -0.21992352762E+03  0.13916998525E+04  0.14797067401E+04  0.10100000352E+00 0.  1.
       -3    1    3    3    0  502 -0.45203671187E+03  0.21992352762E+03 -0.90404368561E+03  0.10344073388E+04  0.10100000352E+00 0. -1.
</event>
<event>
 5   0  0.1393026E-05  0.2425513E+04  0.7818609E-02  0.8430013E-01
       -1   -1    0    0    0  501  0.00000000000E+00  0.00000000000E+00  0.12297890273E+04  0.12297890273E+04  0.50400001928E-02 0. -1.
        1   -1    0    0  501    0  0.00000000000E+00  0.00000000000E+00 -0.11959594952E+04  0.11959594952E+04  0.50400001928E-02 0.  1.
    10030    2    1    2    0    0  0.00000000000E+00  0.00000000000E+00  0.33829532102E+02  0.24257485225E+04  0.24255126174E+04 0.  0.
        4    1    3    3  502    0  0.29025471417E+03 -0.11689804087E+04  0.15839674195E+03  0.12148473714E+04  0.12699999809E+01 0. -1.
       -4    1    3    3    0  502 -0.29025471417E+03  0.11689804087E+04 -0.12456720985E+03  0.12109011511E+04  0.12699999809E+01 0.  1.
</event>
<event>
 5   0  0.3310037E-05  0.2448951E+04  0.7818609E-02  0.8421401E-01
       -2   -1    0    0    0  501  0.00000000000E+00  0.00000000000E+00  0.12743887062E+04  0.12743887062E+04  0.25500000920E-02 0.  1.
        2   -1    0    0  501    0  0.00000000000E+00  0.00000000000E+00 -0.11765168025E+04  0.11765168025E+04  0.25500000920E-02 0. -1.
    10030    2    1    2    0    0  0.00000000000E+00  0.00000000000E+00  0.97871903747E+02  0.24509055087E+04  0.24489505718E+04 0.  0.
        2    1    3    3  502    0  0.33302951368E+02  0.12205107927E+04 -0.43788125038E+02  0.12217500078E+04  0.25500000920E-02 0.  1.
       -2    1    3    3    0  502 -0.33302951368E+02 -0.12205107927E+04  0.14166002879E+03  0.12291555009E+04  0.25500000920E-02 0. -1.
</event>
<event>
 5   0  0.3215208E-05  0.2373504E+04  0.7818609E-02  0.8449490E-01
       -2   -1    0    0    0  501  0.00000000000E+00  0.00000000000E+00  0.82342569913E+03  0.82342569913E+03  0.25500000920E-02 0.  1.
        2   -1    0    0  501    0  0.00000000000E+00  0.00000000000E+00 -0.17103911693E+04  0.17103911693E+04  0.25500000920E-02 0. -1.
    10030    2    1    2    0    0  0.00000000000E+00  0.00000000000E+00 -0.88696547021E+03  0.25338168685E+04  0.23735037766E+04 0.  0.
        1    1    3    3  502    0  0.92578765168E+03  0.23184608783E+03 -0.11964937529E+04  0.15305007955E+04  0.50400001928E-02 0. -1.
       -1    1    3    3    0  502 -0.92578765168E+03 -0.23184608783E+03  0.30952828265E+03  0.10033160729E+04  0.50400001928E-02 0.  1.
</event>
<event>
 5   0  0.1407158E-05  0.2434688E+04  0.7818609E-02  0.8426630E-01
        1   -1    0    0  501    0  0.00000000000E+00  0.00000000000E+00  0.31985990742E+04  0.31985990742E+04  0.50400001928E-02 0.  1.
       -1   -1    0    0    0  501  0.00000000000E+00  0.00000000000E+00 -0.46330466940E+03  0.46330466943E+03  0.50400001928E-02 0. -1.
    10030    2    1    2    0    0  0.00000000000E+00  0.00000000000E+00  0.27352944048E+04  0.36619037436E+04  0.24346875666E+04 0.  0.
        1    1    3    3  502    0  0.66704261358E+03  0.91150087295E+03  0.68475626384E+03  0.13208598830E+04  0.50400001928E-02 0. -1.
       -1    1    3    3    0  502 -0.66704261358E+03 -0.91150087295E+03  0.20505381410E+04  0.23410438606E+04  0.50400001928E-02 0.  1.
</event>
<event>
 5   0  0.3310037E-05  0.2374451E+04  0.7818609E-02  0.8449131E-01
       -2   -1    0    0    0  501  0.00000000000E+00  0.00000000000E+00  0.14246492206E+04  0.14246492206E+04  0.25500000920E-02 0. -1.
        2   -1    0    0  501    0  0.00000000000E+00  0.00000000000E+00 -0.98936963455E+03  0.98936963456E+03  0.25500000920E-02 0.  1.
    10030    2    1    2    0    0  0.00000000000E+00  0.00000000000E+00  0.43527958604E+03  0.24140188552E+04  0.23744512450E+04 0.  0.
        2    1    3    3  502    0  0.78736407422E+03  0.63373855755E+02  0.11187196483E+04  0.13694860650E+04  0.25500000920E-02 0. -1.
       -2    1    3    3    0  502 -0.78736407422E+03 -0.63373855755E+02 -0.68344006221E+03  0.10445327901E+04  0.25500000920E-02 0.  1.
</event>
<event>
 5   0  0.1506985E-05  0.2387533E+04  0.7818609E-02  0.8444186E-01
       -1   -1    0    0    0  501  0.00000000000E+00  0.00000000000E+00  0.92240082677E+03  0.92240082679E+03  0.50400001928E-02 0. -1.
        1   -1    0    0  501    0  0.00000000000E+00  0.00000000000E+00 -0.15449661437E+04  0.15449661437E+04  0.50400001928E-02 0.  1.
    10030    2    1    2    0    0  0.00000000000E+00  0.00000000000E+00 -0.62256531695E+03  0.24673669705E+04  0.23875326581E+04 0.  0.
        3    1    3    3  502    0 -0.29594644618E+03  0.99308055764E+03 -0.92379391048E+03  0.13882321464E+04  0.10100000352E+00 0.  1.
       -3    1    3    3    0  502  0.29594644618E+03 -0.99308055764E+03  0.30122859352E+03  0.10791348242E+04  0.10100000352E+00 0. -1.
</event>
<event>
 5   0  0.3215208E-05  0.2403325E+04  0.7818609E-02  0.8438260E-01
        2   -1    0    0  501    0  0.00000000000E+00  0.00000000000E+00  0.18479040587E+04  0.18479040587E+04  0.25500000920E-02 0.  1.
       -2   -1    0    0    0  501  0.00000000000E+00  0.00000000000E+00 -0.78142213378E+03  0.78142213378E+03  0.25500000920E-02 0. -1.
    10030    2    1    2    0    0  0.00000000000E+00  0.00000000000E+00  0.10664819249E+04  0.26293261924E+04  0.24033253068E+04 0.  0.
        1    1    3    3  502    0  0.73681684383E+03 -0.43533312846E+02 -0.50419141277E+03  0.89386978438E+03  0.50400001928E-02 0. -1.
       -1    1    3    3    0  502 -0.73681684383E+03  0.43533312846E+02  0.15706733376E+04  0.17354564081E+04  0.50400001928E-02 0.  1.
</event>
<event>
 5   0  0.1506985E-05  0.2405413E+04  0.7818609E-02  0.8437480E-01
       -1   -1    0    0    0  501  0.00000000000E+00  0.00000000000E+00  0.11624334355E+04  0.11624334355E+04  0.50400001928E-02 0.  1.
        1   -1    0    0  501    0  0.00000000000E+00  0.00000000000E+00 -0.12443750491E+04  0.12443750491E+04  0.50400001928E-02 0. -1.
    10030    2    1    2    0    0  0.00000000000E+00  0.00000000000E+00 -0.81941613539E+02  0.24068084846E+04  0.24054131981E+04 0.  0.
        3    1    3    3  502    0  0.11465657324E+04 -0.23256526600E+03 -0.32006552080E+03  0.12129062328E+04  0.10100000352E+00 0.  1.
       -3    1    3    3    0  502 -0.11465657324E+04  0.23256526600E+03  0.23812390726E+03  0.11939022519E+04  0.10100000352E+00 0. -1.
</event>
<event>
 5   0  0.3320780E-05  0.2668412E+04  0.7818609E-02  0.8345327E-01
       -2   -1    0    0    0  501  0.00000000000E+00  0.00000000000E+00  0.27929948280E+04  0.27929948280E+04  0.25500000920E-02 0. -1.
        2   -1    0    0  501    0  0.00000000000E+00  0.00000000000E+00 -0.63734671055E+03  0.63734671056E+03  0.25500000920E-02 0.  1.
    10030    2    1    2    0    0  0.00000000000E+00  0.00000000000E+00  0.21556481175E+04  0.34303415386E+04  0.26684123117E+04 0.  0.
        5    1    3    3  502    0 -0.14414814467E+03  0.36049728965E+03  0.27187584539E+04  0.27463442254E+04  0.46999998093E+01 0. -1.
       -5    1    3    3    0  502  0.14414814467E+03 -0.36049728965E+03 -0.56311033646E+03  0.68399731321E+03  0.46999998093E+01 0.  1.
</event>
<event>
 5   0  0.3215208E-05  0.2387597E+04  0.7818609E-02  0.8444162E-01
        2   -1    0    0  501    0  0.00000000000E+00  0.00000000000E+00  0.25364504257E+04  0.25364504257E+04  0.25500000920E-02 0. -1.
       -2   -1    0    0    0  501  0.00000000000E+00  0.00000000000E+00 -0.56186965477E+03  0.56186965477E+03  0.25500000920E-02 0.  1.
    10030    2    1    2    0    0  0.00000000000E+00  0.00000000000E+00  0.19745807710E+04  0.30983200805E+04  0.23875967206E+04 0.  0.
        1    1    3    3  502    0 -0.28063818916E+03  0.34190638747E+03  0.24261850469E+04  0.24661775388E+04  0.50400001928E-02 0. -1.
       -1    1    3    3    0  502  0.28063818916E+03 -0.34190638747E+03 -0.45160427592E+03  0.63214254173E+03  0.50400001928E-02 0.  1.
</event>
<event>
 5   0  0.1401596E-05  0.2436032E+04  0.7818609E-02  0.8426136E-01
       -1   -1    0    0    0  501  0.00000000000E+00  0.00000000000E+00  0.13007968575E+04  0.13007968575E+04  0.50400001928E-02 0. -1.
        1   -1    0    0  501    0  0.00000000000E+00  0.00000000000E+00 -0.11405030799E+04  0.11405030799E+04  0.50400001928E-02 0.  1.
    10030    2    1    2    0    0  0.00000000000E+00  0.00000000000E+00  0.16029377756E+03  0.24412999374E+04  0.24360318736E+04 0.  0.
        2    1    3    3  502    0  0.11630329483E+04 -0.34186333253E+03  0.19892173657E+03  0.12284486291E+04  0.25500000920E-02 0. -1.
       -2    1    3    3    0  502 -0.11630329483E+04  0.34186333253E+03 -0.38627959011E+02  0.12128513083E+04  0.25500000920E-02 0.  1.
</event>
<event>
 5   0  0.3310037E-05  0.2405425E+04  0.7818609E-02  0.8437475E-01
        2   -1    0    0  501    0  0.00000000000E+00  0.00000000000E+00  0.11880498257E+04  0.11880498257E+04  0.25500000920E-02 0.  1.
       -2   -1    0    0    0  501  0.00000000000E+00  0.00000000000E+00 -0.12175559085E+04  0.12175559085E+04  0.25500000920E-02 0. -1.
    10030    2    1    2    0    0  0.00000000000E+00  0.00000000000E+00 -0.29506082787E+02  0.24056057342E+04  0.24054247732E+04 0.  0.
        2    1    3    3  502    0 -0.11998677896E+04  0.55774314330E+02 -0.75778925203E+02  0.12035513833E+04  0.25500000920E-02 0.  1.
       -2    1    3    3    0  502  0.11998677896E+04 -0.55774314330E+02  0.46272842416E+02  0.12020543509E+04  0.25500000920E-02 0. -1.
</event>
<event>
 5   0  0.3215208E-05  0.2402401E+04  0.7818609E-02  0.8438605E-01
        2   -1    0    0  501    0  0.00000000000E+00  0.00000000000E+00  0.12457119313E+04  0.12457119313E+04  0.25500000920E-02 0.  1.
       -2   -1    0    0    0  501  0.00000000000E+00  0.00000000000E+00 -0.11582799319E+04  0.11582799319E+04  0.25500000920E-02 0. -1.
    10030    2    1    2    0    0  0.00000000000E+00  0.00000000000E+00  0.87431999412E+02  0.24039918631E+04  0.24024014077E+04 0.  0.
        1    1    3    3  502    0  0.71579894341E+02  0.10099578952E+04  0.69047545971E+03  0.12255182544E+04  0.50400001928E-02 0.  1.
       -1    1    3    3    0  502 -0.71579894341E+02 -0.10099578952E+04 -0.60304346030E+03  0.11784736087E+04  0.50400001928E-02 0. -1.
</event>
<event>
 5   0  0.1401596E-05  0.2387973E+04  0.7818609E-02  0.8444020E-01
        1   -1    0    0  501    0  0.00000000000E+00  0.00000000000E+00  0.11742571731E+04  0.11742571731E+04  0.50400001928E-02 0.  1.
       -1   -1    0    0    0  501  0.00000000000E+00  0.00000000000E+00 -0.12140473284E+04  0.12140473284E+04  0.50400001928E-02 0. -1.
    10030    2    1    2    0    0  0.00000000000E+00  0.00000000000E+00 -0.39790155345E+02  0.23883045015E+04  0.23879730182E+04 0.  0.
        2    1    3    3  502    0 -0.11786858223E+04  0.48347001967E+02 -0.20421955831E+03  0.11972231740E+04  0.25500000920E-02 0.  1.
       -2    1    3    3    0  502  0.11786858223E+04 -0.48347001967E+02  0.16442940296E+03  0.11910813276E+04  0.25500000920E-02 0. -1.
</event>
<event>
 5   0  0.1393026E-05  0.2327007E+04  0.7818609E-02  0.8467348E-01
        1   -1    0    0  501    0  0.00000000000E+00  0.00000000000E+00  0.14541648979E+04  0.14541648979E+04  0.50400001928E-02 0. -1.
       -1   -1    0    0    0  501  0.00000000000E+00  0.00000000000E+00 -0.93094004495E+03  0.93094004496E+03  0.50400001928E-02 0.  1.
    10030    2    1    2    0    0  0.00000000000E+00  0.00000000000E+00  0.52322485297E+03  0.23851049429E+04  0.23270069492E+04 0.  0.
        4    1    3    3  502    0 -0.82981011434E+03 -0.18451975988E+03  0.10758686541E+04  0.13711773560E+04  0.12699999809E+01 0. -1.
       -4    1    3    3    0  502  0.82981011434E+03  0.18451975988E+03 -0.55264380117E+03  0.10139275869E+04  0.12699999809E+01 0.  1.
</event>
<event>
 5   0  0.3320780E-05  0.2394010E+04  0.7818609E-02  0.8441750E-01
        2   -1    0    0  501    0  0.00000000000E+00  0.00000000000E+00  0.15466355556E+04  0.15466355556E+04  0.25500000920E-02 0. -1.
       -2   -1    0    0    0  501  0.00000000000E+00  0.00000000000E+00 -0.92641129905E+03  0.92641129906E+03  0.25500000920E-02 0.  1.
    10030    2    1    2    0    0  0.00000000000E+00  0.00000000000E+00  0.62022425652E+03  0.24730468546E+04  0.23940097362E+04 0.  0.
        5    1    3    3  502    0  0.11005783337E+04 -0.27139854617E+03 -0.87120209339E+02  0.11369001101E+04  0.46999998093E+01 0.  1.
       -5    1    3    3    0  502 -0.11005783337E+04  0.27139854617E+03  0.70734446586E+03  0.13361467445E+04  0.46999998093E+01 0. -1.
</event>
<event>
 5   0  0.1506985E-05  0.2286944E+04  0.7818609E-02  0.8483087E-01
        1   -1    0    0  501    0  0.00000000000E+00  0.00000000000E+00  0.14995885303E+04  0.14995885303E+04  0.50400001928E-02 0. -1.
       -1   -1    0    0    0  501  0.00000000000E+00  0.00000000000E+00 -0.87192452698E+03  0.87192452699E+03  0.50400001928E-02 0.  1.
    10030    2    1    2    0    0  0.00000000000E+00  0.00000000000E+00  0.62766400336E+03  0.23715130573E+04  0.22869438297E+04 0.  0.
        3    1    3    3  502    0 -0.21243337953E+03  0.65600025311E+03 -0.63207473781E+03  0.93540512998E+03  0.10100000352E+00 0.  1.
       -3    1    3    3    0  502  0.21243337953E+03 -0.65600025311E+03  0.12597387412E+04  0.14361079274E+04  0.10100000352E+00 0. -1.
</event>
<event>
 5   0  0.1506985E-05  0.2433372E+04  0.7818609E-02  0.8427114E-01
       -1   -1    0    0    0  501  0.00000000000E+00  0.00000000000E+00  0.14116849861E+04  0.14116849861E+04  0.50400001928E-02 0. -1.
        1   -1    0    0  501    0  0.00000000000E+00  0.00000000000E+00 -0.10486223906E+04  0.10486223906E+04  0.50400001928E-02 0.  1.
    10030    2    1    2    0    0  0.00000000000E+00  0.00000000000E+00  0.36306259544E+03  0.24603073767E+04  0.24333717224E+04 0.  0.
        3    1    3    3  502    0 -0.11900291188E+04 -0.23427166944E+03  0.84174429695E+02  0.12157869318E+04  0.10100000352E+00 0. -1.
       -3    1    3    3    0  502  0.11900291188E+04  0.23427166944E+03  0.27888816575E+03  0.12445204449E+04  0.10100000352E+00 0.  1.
</event>
<event>
 5   0  0.3347728E-05  0.2377999E+04  0.7818609E-02  0.8447787E-01
       -2   -1    0    0    0  501  0.00000000000E+00  0.00000000000E+00  0.68865364611E+03  0.68865364612E+03  0.25500000920E-02 0.  1.
        2   -1    0    0  501    0  0.00000000000E+00  0.00000000000E+00 -0.20528748004E+04  0.20528748004E+04  0.25500000920E-02 0. -1.
    10030    2    1    2    0    0  0.00000000000E+00  0.00000000000E+00 -0.13642211543E+04  0.27415284466E+04  0.23779989204E+04 0.  0.
        3    1    3    3  502    0 -0.88504945927E+03  0.27065337927E+03 -0.15426458855E+04  0.17989780808E+04  0.10100000352E+00 0. -1.
       -3    1    3    3    0  502  0.88504945927E+03 -0.27065337927E+03  0.17842473115E+03  0.94255036574E+03  0.10100000352E+00 0.  1.
</event>
<event>
 5   0  0.3320780E-05  0.2472457E+04  0.7818609E-02  0.8412864E-01
        2   -1    0    0  501    0  0.00000000000E+00  0.00000000000E+00  0.13260315488E+04  0.13260315488E+04  0.25500000920E-02 0. -1.
       -2   -1    0    0    0  501  0.00000000000E+00  0.00000000000E+00 -0.11525070359E+04  0.11525070359E+04  0.25500000920E-02 0.  1.
    10030    2    1    2    0    0  0.00000000000E+00  0.00000000000E+00  0.17352451293E+03  0.24785385847E+04  0.24724568266E+04 0.  0.
        5    1    3    3  502    0 -0.28111884448E+03  0.46450932242E+03  0.12000984128E+04  0.13172148670E+04  0.46999998093E+01 0. -1.
       -5    1    3    3    0  502  0.28111884448E+03 -0.46450932242E+03 -0.10265738999E+04  0.11613237177E+04  0.46999998093E+01 0.  1.
</event>
<event>
 5   0  0.1434943E-05  0.2343686E+04  0.7818609E-02  0.8460893E-01
        1   -1    0    0  501    0  0.00000000000E+00  0.00000000000E+00  0.89460207216E+03  0.89460207217E+03  0.50400001928E-02 0. -1.
       -1   -1    0    0    0  501  0.00000000000E+00  0.00000000000E+00 -0.15350020630E+04  0.15350020630E+04  0.50400001928E-02 0.  1.
    10030    2    1    2    0    0  0.00000000000E+00  0.00000000000E+00 -0.64039999084E+03  0.24296041352E+04  0.23436860083E+04 0.  0.
        5    1    3    3  502    0  0.68146042839E+03  0.26147655133E+03  0.63016037853E+03  0.96430415068E+03  0.46999998093E+01 0. -1.
       -5    1    3    3    0  502 -0.68146042839E+03 -0.26147655133E+03 -0.12705603694E+04  0.14652999845E+04  0.46999998093E+01 0.  1.
</event>
<event>
 5   0  0.1401596E-05  0.2394857E+04  0.7818609E-02  0.8441431E-01
        1   -1    0    0  501    0  0.00000000000E+00  0.00000000000E+00  0.10156833148E+04  0.10156833148E+04  0.50400001928E-02 0.  1.
       -1   -1    0    0    0  501  0.00000000000E+00  0.00000000000E+00 -0.14116952008E+04  0.14116952008E+04  0.50400001928E-02 0. -1.
    10030    2    1    2    0    0  0.00000000000E+00  0.00000000000E+00 -0.39601188604E+03  0.24273785157E+04  0.23948572075E+04 0.  0.
        2    1    3    3  502    0  0.65903284961E+03  0.61721933743E+03 -0.99516635993E+03  0.13437410805E+04  0.25500000920E-02 0. -1.
       -2    1    3    3    0  502 -0.65903284961E+03 -0.61721933743E+03  0.59915447390E+03  0.10836374352E+04  0.25500000920E-02 0.  1.
</event>
<event>
 5   0  0.3345974E-05  0.2415542E+04  0.7818609E-02  0.8433708E-01
        2   -1    0    0  501    0  0.00000000000E+00  0.00000000000E+00  0.21942797337E+04  0.21942797337E+04  0.25500000920E-02 0.  1.
       -2   -1    0    0    0  501  0.00000000000E+00  0.00000000000E+00 -0.66477867568E+03  0.66477867569E+03  0.25500000920E-02 0. -1.
    10030    2    1    2    0    0  0.00000000000E+00  0.00000000000E+00  0.15295010580E+04  0.28590584094E+04  0.24155416581E+04 0.  0.
        4    1    3    3  502    0  0.32904614043E+03  0.13547648871E+03  0.21308245242E+04  0.21603333094E+04  0.12699999809E+01 0.  1.
       -4    1    3    3    0  502 -0.32904614043E+03 -0.13547648871E+03 -0.60132346621E+03  0.69872510004E+03  0.12699999809E+01 0. -1.
</event>
<event>
 5   0  0.3320780E-05  0.2401064E+04  0.7818609E-02  0.8439105E-01
        2   -1    0    0  501    0  0.00000000000E+00  0.00000000000E+00  0.16334270801E+04  0.16334270801E+04  0.25500000920E-02 0.  1.
       -2   -1    0    0    0  501  0.00000000000E+00  0.00000000000E+00 -0.88236391958E+03  0.88236391958E+03  0.25500000920E-02 0. -1.
    10030    2    1    2    0    0  0.00000000000E+00  0.00000000000E+00  0.75106316049E+03  0.25157909997E+04  0.24010640314E+04 0.  0.
        5    1    3    3  502    0 -0.40062874352E+03 -0.10518974199E+04 -0.61863588489E+02  0.11273157347E+04  0.46999998093E+01 0. -1.
       -5    1    3    3    0  502  0.40062874352E+03  0.10518974199E+04  0.81292674898E+03  0.13884752649E+04  0.46999998093E+01 0.  1.
</event>
<event>
 5   0  0.1407158E-05  0.2379120E+04  0.7818609E-02  0.8447362E-01
       -1   -1    0    0    0  501  0.00000000000E+00  0.00000000000E+00  0.15386803749E+04  0.15386803749E+04  0.50400001928E-02 0.  1.
        1   -1    0    0  501    0  0.00000000000E+00  0.00000000000E+00 -0.91965356492E+03  0.91965356493E+03  0.50400001928E-02 0. -1.
    10030    2    1    2    0    0  0.00000000000E+00  0.00000000000E+00  0.61902681001E+03  0.24583339399E+04  0.23791199147E+04 0.  0.
        1    1    3    3  502    0  0.10886663391E+03  0.11444035359E+03 -0.90876977011E+03  0.92239418559E+03  0.50400001928E-02 0. -1.
       -1    1    3    3    0  502 -0.10886663391E+03 -0.11444035359E+03  0.15277965801E+04  0.15359397543E+04  0.50400001928E-02 0.  1.
</event>
<event>
 5   0  0.3310037E-05  0.2414285E+04  0.7818609E-02  0.8434175E-01
       -2   -1    0    0    0  501  0.00000000000E+00  0.00000000000E+00  0.87131850299E+03  0.87131850299E+03  0.25500000920E-02 0.  1.
        2   -1    0    0  501    0  0.00000000000E+00  0.00000000000E+00 -0.16723993109E+04  0.16723993109E+04  0.25500000920E-02 0. -1.
    10030    2    1    2    0    0  0.00000000000E+00  0.00000000000E+00 -0.80108080792E+03  0.25437178139E+04  0.24142845433E+04 0.  0.
        2    1    3    3  502    0  0.92322424592E+03 -0.35709210556E+03  0.32739354370E+03  0.10426141724E+04  0.25500000920E-02 0.  1.
       -2    1    3    3    0  502 -0.92322424592E+03  0.35709210556E+03 -0.11284743516E+04  0.15011036415E+04  0.25500000920E-02 0. -1.
</event>
<event>
 5   0  0.1401596E-05  0.2401033E+04  0.7818609E-02  0.8439117E-01
        1   -1    0    0  501    0  0.00000000000E+00  0.00000000000E+00  0.14360283841E+04  0.14360283841E+04  0.50400001928E-02 0.  1.
       -1   -1    0    0    0  501  0.00000000000E+00  0.00000000000E+00 -0.10036293299E+04  0.10036293299E+04  0.50400001928E-02 0. -1.
    10030    2    1    2    0    0  0.00000000000E+00  0.00000000000E+00  0.43239905426E+03  0.24396577140E+04  0.24010332816E+04 0.  0.
        2    1    3    3  502    0  0.25820256766E+03 -0.80593011067E+03  0.10813948972E+04  0.13731739995E+04  0.25500000920E-02 0.  1.
       -2    1    3    3    0  502 -0.25820256766E+03  0.80593011067E+03 -0.64899584292E+03  0.10664837145E+04  0.25500000920E-02 0. -1.
</event>
<event>
 5   0  0.3215208E-05  0.2359703E+04  0.7818609E-02  0.8454746E-01
       -2   -1    0    0    0  501  0.00000000000E+00  0.00000000000E+00  0.59257360737E+03  0.59257360738E+03  0.25500000920E-02 0. -1.
        2   -1    0    0  501    0  0.00000000000E+00  0.00000000000E+00 -0.23491598084E+04  0.23491598084E+04  0.25500000920E-02 0.  1.
    10030    2    1    2    0    0  0.00000000000E+00  0.00000000000E+00 -0.17565862011E+04  0.29417334158E+04  0.23597034576E+04 0.  0.
        1    1    3    3  502    0  0.22253351087E+03 -0.86984468283E+03  0.75946256645E+02  0.90106535259E+03  0.50400001928E-02 0. -1.
       -1    1    3    3    0  502 -0.22253351087E+03  0.86984468283E+03 -0.18325324577E+04  0.20406680632E+04  0.50400001928E-02 0.  1.
</event>
<event>
 5   0  0.1506985E-05  0.2386683E+04  0.7818609E-02  0.8444506E-01
        1   -1    0    0  501    0  0.00000000000E+00  0.00000000000E+00  0.17964352629E+04  0.17964352629E+04  0.50400001928E-02 0.  1.
       -1   -1    0    0    0  501  0.00000000000E+00  0.00000000000E+00 -0.79271661076E+03  0.79271661078E+03  0.50400001928E-02 0. -1.
    10030    2    1    2    0    0  0.00000000000E+00  0.00000000000E+00  0.10037186522E+04  0.25891518737E+04  0.23866831152E+04 0.  0.
        3    1    3    3  502    0 -0.28044952519E+03 -0.19000396208E+03  0.17431803491E+04  0.17757902978E+04  0.10100000352E+00 0.  1.
       -3    1    3    3    0  502  0.28044952519E+03  0.19000396208E+03 -0.73946169696E+03  0.81336157597E+03  0.10100000352E+00 0. -1.
</event>
<event>
 5   0  0.1506985E-05  0.2431790E+04  0.7818609E-02  0.8427697E-01
        1   -1    0    0  501    0  0.00000000000E+00  0.00000000000E+00  0.55004124714E+03  0.55004124717E+03  0.50400001928E-02 0. -1.
       -1   -1    0    0    0  501  0.00000000000E+00  0.00000000000E+00 -0.26877991680E+04  0.26877991680E+04  0.50400001928E-02 0.  1.
    10030    2    1    2    0    0  0.00000000000E+00  0.00000000000E+00 -0.21377579208E+04  0.32378404151E+04  0.24317897989E+04 0.  0.
        3    1    3    3  502    0  0.19714961051E+03 -0.83110728178E+03 -0.22210324199E+04  0.23796202015E+04  0.10100000352E+00 0.  1.
       -3    1    3    3    0  502 -0.19714961051E+03  0.83110728178E+03  0.83274499083E+02  0.85822021367E+03  0.10100000352E+00 0. -1.
</event>
<event>
 5   0  0.3345974E-05  0.2351360E+04  0.7818609E-02  0.8457941E-01
        2   -1    0    0  501    0  0.00000000000E+00  0.00000000000E+00  0.15995773328E+04  0.15995773328E+04  0.25500000920E-02 0.  1.
       -2   -1    0    0    0  501  0.00000000000E+00  0.00000000000E+00 -0.86411806104E+03  0.86411806104E+03  0.25500000920E-02 0. -1.
    10030    2    1    2    0    0  0.00000000000E+00  0.00000000000E+00  0.73545927173E+03  0.24636953938E+04  0.23513601709E+04 0.  0.
        4    1    3    3  502    0 -0.11064208166E+04  0.39753545564E+03  0.36297540776E+03  0.12304284707E+04  0.12699999809E+01 0. -1.
       -4    1    3    3    0  502  0.11064208166E+04 -0.39753545564E+03  0.37248386397E+03  0.12332669231E+04  0.12699999809E+01 0.  1.
</event>
<event>
 5   0  0.3215208E-05  0.2410572E+04  0.7818609E-02  0.8435556E-01
        2   -1    0    0  501    0  0.00000000000E+00  0.00000000000E+00  0.15288278357E+04  0.15288278357E+04  0.25500000920E-02 0. -1.
       -2   -1    0    0    0  501  0.00000000000E+00  0.00000000000E+00 -0.95021480196E+03  0.95021480197E+03  0.25500000920E-02 0.  1.
    10030    2    1    2    0    0  0.00000000000E+00  0.00000000000E+00  0.57861303371E+03  0.24790426376E+04  0.24105724126E+04 0.  0.
        1    1    3    3  502    0  0.49986000641E+03  0.53198798866E+03  0.12756332588E+04  0.14697317637E+04  0.50400001928E-02 0. -1.
       -1    1    3    3    0  502 -0.49986000641E+03 -0.53198798866E+03 -0.69702022512E+03  0.10093108740E+04  0.50400001928E-02 0.  1.
</event>
<event>
 5   0  0.1147362E-05  0.2413206E+04  0.7818609E-02  0.8434576E-01
       -4   -1    0    0    0  501  0.00000000000E+00  0.00000000000E+00  0.16381128688E+04  0.16381133611E+04  0.12699999809E+01 0. -1.
        4   -1    0    0  501    0  0.00000000000E+00  0.00000000000E+00 -0.88876003762E+03  0.88876094501E+03  0.12699999809E+01 0.  1.
    10030    2    1    2    0    0  0.00000000000E+00  0.00000000000E+00  0.74935283121E+03  0.25268743061E+04  0.24132061854E+04 0.  0.
        4    1    3    3  502    0 -0.61227002552E+03 -0.80062826897E+03 -0.31990008964E+03  0.10574582211E+04  0.12699999809E+01 0.  1.
       -4    1    3    3    0  502  0.61227002552E+03  0.80062826897E+03  0.10692529208E+04  0.14694160850E+04  0.12699999809E+01 0. -1.
</event>
<event>
 5   0  0.1393026E-05  0.2571333E+04  0.7818609E-02  0.8378004E-01
        1   -1    0    0  501    0  0.00000000000E+00  0.00000000000E+00  0.32400514918E+04  0.32400514918E+04  0.50400001928E-02 0.  1.
       -1   -1    0    0    0  501  0.00000000000E+00  0.00000000000E+00 -0.51015804416E+03  0.51015804418E+03  0.50400001928E-02 0. -1.
    10030    2    1    2    0    0  0.00000000000E+00  0.00000000000E+00  0.27298934476E+04  0.37502095360E+04  0.25713329867E+04 0.  0.
        4    1    3    3  502    0  0.10842921316E+04  0.64363475898E+03  0.17309660533E+04  0.21415415523E+04  0.12699999809E+01 0.  1.
       -4    1    3    3    0  502 -0.10842921316E+04 -0.64363475898E+03  0.99892739427E+03  0.16086679836E+04  0.12699999809E+01 0. -1.
</event>
<event>
 5   0  0.1434943E-05  0.2386354E+04  0.7818609E-02  0.8444630E-01
        1   -1    0    0  501    0  0.00000000000E+00  0.00000000000E+00  0.15670724964E+04  0.15670724964E+04  0.50400001928E-02 0. -1.
       -1   -1    0    0    0  501  0.00000000000E+00  0.00000000000E+00 -0.90849092319E+03  0.90849092320E+03  0.50400001928E-02 0.  1.
    10030    2    1    2    0    0  0.00000000000E+00  0.00000000000E+00  0.65858157323E+03  0.24755634196E+04  0.23863538204E+04 0.  0.
        5    1    3    3  502    0  0.71874070787E+03 -0.89309080395E+03  0.67249011431E+03  0.13290840580E+04  0.46999998093E+01 0. -1.
       -5    1    3    3    0  502 -0.71874070787E+03  0.89309080395E+03 -0.13908541078E+02  0.11464793617E+04  0.46999998093E+01 0.  1.
</event>
<event>
 5   0  0.3310037E-05  0.2272031E+04  0.7818609E-02  0.8489031E-01
        2   -1    0    0  501    0  0.00000000000E+00  0.00000000000E+00  0.16346574632E+04  0.16346574632E+04  0.25500000920E-02 0.  1.
       -2   -1    0    0    0  501  0.00000000000E+00  0.00000000000E+00 -0.78948109354E+03  0.78948109355E+03  0.25500000920E-02 0. -1.
    10030    2    1    2    0    0  0.00000000000E+00  0.00000000000E+00  0.84517636964E+03  0.24241385567E+04  0.22720309519E+04 0.  0.
        2    1    3    3  502    0  0.72540896126E+03  0.46327105557E+03 -0.36846060632E+03  0.93626996663E+03  0.25500000920E-02 0. -1.
       -2    1    3    3    0  502 -0.72540896126E+03 -0.46327105557E+03  0.12136369760E+04  0.14878685901E+04  0.25500000920E-02 0.  1.
</event>
<event>
 5   0  0.1393026E-05  0.2048576E+04  0.7818609E-02  0.8584241E-01
        1   -1    0    0  501    0  0.00000000000E+00  0.00000000000E+00  0.16819654874E+04  0.16819654874E+04  0.50400001928E-02 0.  1.
       -1   -1    0    0    0  501  0.00000000000E+00  0.00000000000E+00 -0.62377365198E+03  0.62377365200E+03  0.50400001928E-02 0. -1.
    10030    2    1    2    0    0  0.00000000000E+00  0.00000000000E+00  0.10581918354E+04  0.23057391394E+04  0.20485758513E+04 0.  0.
        4    1    3    3  502    0 -0.45103793230E+03  0.42244078318E+03  0.14485071487E+04  0.15748225310E+04  0.12699999809E+01 0.  1.
       -4    1    3    3    0  502  0.45103793230E+03 -0.42244078318E+03 -0.39031531327E+03  0.73091660834E+03  0.12699999809E+01 0. -1.
</event>
<event>
 5   0  0.3320780E-05  0.2388980E+04  0.7818609E-02  0.8443641E-01
        2   -1    0    0  501    0  0.00000000000E+00  0.00000000000E+00  0.93363992250E+03  0.93363992250E+03  0.25500000920E-02 0. -1.
       -2   -1    0    0    0  501  0.00000000000E+00  0.00000000000E+00 -0.15282189064E+04  0.15282189064E+04  0.25500000920E-02 0.  1.
    10030    2    1    2    0    0  0.00000000000E+00  0.00000000000E+00 -0.59457898389E+03  0.24618588289E+04  0.23889798503E+04 0.  0.
        5    1    3    3  502    0 -0.81955844344E+02 -0.92700414464E+03  0.47437373587E+03  0.10445601830E+04  0.46999998093E+01 0. -1.
       -5    1    3    3    0  502  0.81955844344E+02  0.92700414464E+03 -0.10689527198E+04  0.14172986459E+04  0.46999998093E+01 0.  1.
</event>
<event>
 5   0  0.1434943E-05  0.2394166E+04  0.7818609E-02  0.8441691E-01
       -1   -1    0    0    0  501  0.00000000000E+00  0.00000000000E+00  0.65148140865E+03  0.65148140867E+03  0.50400001928E-02 0.  1.
        1   -1    0    0  501    0  0.00000000000E+00  0.00000000000E+00 -0.21996140194E+04  0.21996140194E+04  0.50400001928E-02 0. -1.
    10030    2    1    2    0    0  0.00000000000E+00  0.00000000000E+00 -0.15481326108E+04  0.28510954281E+04  0.23941659424E+04 0.  0.
        5    1    3    3  502    0  0.25480171481E+03  0.66531129496E+03  0.37151926916E+03  0.80349965179E+03  0.46999998093E+01 0.  1.
       -5    1    3    3    0  502 -0.25480171481E+03 -0.66531129496E+03 -0.19196518799E+04  0.20475957763E+04  0.46999998093E+01 0. -1.
</event>
<event>
 5   0  0.1407158E-05  0.2401192E+04  0.7818609E-02  0.8439057E-01
        1   -1    0    0  501    0  0.00000000000E+00  0.00000000000E+00  0.20987831630E+04  0.20987831631E+04  0.50400001928E-02 0. -1.
       -1   -1    0    0    0  501  0.00000000000E+00  0.00000000000E+00 -0.68679350115E+03  0.68679350117E+03  0.50400001928E-02 0.  1.
    10030    2    1    2    0    0  0.00000000000E+00  0.00000000000E+00  0.14119896619E+04  0.27855766642E+04  0.24011919013E+04 0.  0.
        1    1    3    3  502    0 -0.82840438840E+03  0.84640337916E+03  0.93443982881E+03  0.15085855311E+04  0.50400001928E-02 0.  1.
       -1    1    3    3    0  502  0.82840438840E+03 -0.84640337916E+03  0.47754983308E+03  0.12769911331E+04  0.50400001928E-02 0. -1.
</event>
<event>
 5   0  0.3310037E-05  0.2326147E+04  0.7818609E-02  0.8467682E-01
        2   -1    0    0  501    0  0.00000000000E+00  0.00000000000E+00  0.11324972245E+04  0.11324972245E+04  0.25500000920E-02 0. -1.
       -2   -1    0    0    0  501  0.00000000000E+00  0.00000000000E+00 -0.11944757758E+04  0.11944757758E+04  0.25500000920E-02 0.  1.
    10030    2    1    2    0    0  0.00000000000E+00  0.00000000000E+00 -0.61978551237E+02  0.23269730003E+04  0.23261474595E+04 0.  0.
        2    1    3    3  502    0  0.79932632656E+03 -0.65247028975E+02 -0.87364251381E+03  0.11859304335E+04  0.25500000920E-02 0.  1.
       -2    1    3    3    0  502 -0.79932632656E+03  0.65247028975E+02  0.81166396257E+03  0.11410425668E+04  0.25500000920E-02 0. -1.
</event>
<event>
 5   0  0.1434943E-05  0.2381118E+04  0.7818609E-02  0.8446607E-01
        1   -1    0    0  501    0  0.00000000000E+00  0.00000000000E+00  0.89764184239E+03  0.89764184241E+03  0.50400001928E-02 0.  1.
       -1   -1    0    0    0  501  0.00000000000E+00  0.00000000000E+00 -0.15790608680E+04  0.15790608681E+04  0.50400001928E-02 0. -1.
    10030    2    1    2    0    0  0.00000000000E+00  0.00000000000E+00 -0.68141902566E+03  0.24767027105E+04  0.23811183145E+04 0.  0.
        5    1    3    3  502    0 -0.61918323471E+03  0.10040103314E+04 -0.50837713049E+03  0.12844820047E+04  0.46999998093E+01 0. -1.
       -5    1    3    3    0  502  0.61918323471E+03 -0.10040103314E+04 -0.17304189517E+03  0.11922207057E+04  0.46999998093E+01 0.  1.
</event>
<event>
 5   0  0.3215208E-05  0.2399642E+04  0.7818609E-02  0.8439638E-01
       -2   -1    0    0    0  501  0.00000000000E+00  0.00000000000E+00  0.14257586983E+04  0.14257586983E+04  0.25500000920E-02 0.  1.
        2   -1    0    0  501    0  0.00000000000E+00  0.00000000000E+00 -0.10096871084E+04  0.10096871084E+04  0.25500000920E-02 0. -1.
    10030    2    1    2    0    0  0.00000000000E+00  0.00000000000E+00  0.41607158989E+03  0.24354458066E+04  0.23996417877E+04 0.  0.
        1    1    3    3  502    0  0.36179967810E+03  0.68210371930E+03 -0.72403803916E+03  0.10584873987E+04  0.50400001928E-02 0. -1.
       -1    1    3    3    0  502 -0.36179967810E+03 -0.68210371930E+03  0.11401096291E+04  0.13769584080E+04  0.50400001928E-02 0.  1.
</event>
<event>
 5   0  0.1407158E-05  0.2665396E+04  0.7818609E-02  0.8346321E-01
        1   -1    0    0  501    0  0.00000000000E+00  0.00000000000E+00  0.21733812820E+04  0.21733812820E+04  0.50400001928E-02 0.  1.
       -1   -1    0    0    0  501  0.00000000000E+00  0.00000000000E+00 -0.81719867831E+03  0.81719867833E+03  0.50400001928E-02 0. -1.
    10030    2    1    2    0    0  0.00000000000E+00  0.00000000000E+00  0.13561826037E+04  0.29905799603E+04  0.26653962641E+04 0.  0.
        1    1    3    3  502    0 -0.35779913354E+03  0.82806656383E+03  0.17787803367E+04  0.19944357448E+04  0.50400001928E-02 0.  1.
       -1    1    3    3    0  502  0.35779913354E+03 -0.82806656383E+03 -0.42259773300E+03  0.99614421549E+03  0.50400001928E-02 0. -1.
</event>
<event>
 5   0  0.1401596E-05  0.2418385E+04  0.7818609E-02  0.8432653E-01
       -1   -1    0    0    0  501  0.00000000000E+00  0.00000000000E+00  0.11596680149E+04  0.11596680149E+04  0.50400001928E-02 0. -1.
        1   -1    0    0  501    0  0.00000000000E+00  0.00000000000E+00 -0.12608317058E+04  0.12608317058E+04  0.50400001928E-02 0.  1.
    10030    2    1    2    0    0  0.00000000000E+00  0.00000000000E+00 -0.10116369089E+03  0.24204997207E+04  0.24183847513E+04 0.  0.
        2    1    3    3  502    0  0.30449934966E+03  0.10717642371E+04 -0.52083075938E+03  0.12299037010E+04  0.25500000920E-02 0.  1.
       -2    1    3    3    0  502 -0.30449934966E+03 -0.10717642371E+04  0.41966706849E+03  0.11905960197E+04  0.25500000920E-02 0. -1.
</event>
<event>
 5   0  0.3345974E-05  0.2424343E+04  0.7818609E-02  0.8430446E-01
       -2   -1    0    0    0  501  0.00000000000E+00  0.00000000000E+00  0.12875388501E+04  0.12875388501E+04  0.25500000920E-02 0. -1.
        2   -1    0    0  501    0  0.00000000000E+00  0.00000000000E+00 -0.11412154748E+04  0.11412154748E+04  0.25500000920E-02 0.  1.
    10030    2    1    2    0    0  0.00000000000E+00  0.00000000000E+00  0.14632337531E+03  0.24287543249E+04  0.24243425996E+04 0.  0.
        4    1    3    3  502    0 -0.74120097007E+03 -0.60970812685E+03 -0.66861448998E+03  0.11696879187E+04  0.12699999809E+01 0.  1.
       -4    1    3    3    0  502  0.74120097007E+03  0.60970812685E+03  0.81493786529E+03  0.12590664062E+04  0.12699999809E+01 0. -1.
</event>
<event>
 5   0  0.3310037E-05  0.2351983E+04  0.7818609E-02  0.8457702E-01
        2   -1    0    0  501    0  0.00000000000E+00  0.00000000000E+00  0.18566405270E+04  0.18566405270E+04  0.25500000920E-02 0.  1.
       -2   -1    0    0    0  501  0.00000000000E+00  0.00000000000E+00 -0.74486994534E+03  0.74486994535E+03  0.25500000920E-02 0. -1.
    10030    2    1    2    0    0  0.00000000000E+00  0.00000000000E+00  0.11117705817E+04  0.26015104724E+04  0.23519827618E+04 0.  0.
        2    1    3    3  502    0 -0.10904758545E+04 -0.37726296399E+03  0.80687518823E+03  0.14080172239E+04  0.25500000920E-02 0.  1.
       -2    1    3    3    0  502  0.10904758545E+04  0.37726296399E+03  0.30489539346E+03  0.11934932485E+04  0.25500000920E-02 0. -1.
</event>
<event>
 5   0  0.3345974E-05  0.2206236E+04  0.7818609E-02  0.8515837E-01
       -2   -1    0    0    0  501  0.00000000000E+00  0.00000000000E+00  0.12641471183E+04  0.12641471183E+04  0.25500000920E-02 0.  1.
        2   -1    0    0  501    0  0.00000000000E+00  0.00000000000E+00 -0.96260106450E+03  0.96260106451E+03  0.25500000920E-02 0. -1.
    10030    2    1    2    0    0  0.00000000000E+00  0.00000000000E+00  0.30154605375E+03  0.22267481828E+04  0.22062360361E+04 0.  0.
        4    1    3    3  502    0 -0.86534377003E+03 -0.26479828066E+03  0.78745470601E+03  0.11995934714E+04  0.12699999809E+01 0.  1.
       -4    1    3    3    0  502  0.86534377003E+03  0.26479828066E+03 -0.48590865226E+03  0.10271547113E+04  0.12699999809E+01 0. -1.
</event>
<event>
 5   0  0.1401596E-05  0.2372890E+04  0.7818609E-02  0.8449723E-01
        1   -1    0    0  501    0  0.00000000000E+00  0.00000000000E+00  0.12970975805E+04  0.12970975806E+04  0.50400001928E-02 0. -1.
       -1   -1    0    0    0  501  0.00000000000E+00  0.00000000000E+00 -0.10852319627E+04  0.10852319627E+04  0.50400001928E-02 0.  1.
    10030    2    1    2    0    0  0.00000000000E+00  0.00000000000E+00  0.21186561783E+03  0.23823295433E+04  0.23728900128E+04 0.  0.
        2    1    3    3  502    0 -0.41304255469E+02 -0.54621459243E+03 -0.95067736014E+03  0.10971981888E+04  0.25500000920E-02 0.  1.
       -2    1    3    3    0  502  0.41304255469E+02  0.54621459243E+03  0.11625429780E+04  0.12851313544E+04  0.25500000920E-02 0. -1.
</event>
<event>
 5   0  0.3215208E-05  0.2430353E+04  0.7818609E-02  0.8428227E-01
       -2   -1    0    0    0  501  0.00000000000E+00  0.00000000000E+00  0.11865900166E+04  0.11865900166E+04  0.25500000920E-02 0.  1.
        2   -1    0    0  501    0  0.00000000000E+00  0.00000000000E+00 -0.12444516552E+04  0.12444516552E+04  0.25500000920E-02 0. -1.
    10030    2    1    2    0    0  0.00000000000E+00  0.00000000000E+00 -0.57861638607E+02  0.24310416719E+04  0.24303529869E+04 0.  0.
        1    1    3    3  502    0 -0.14044676329E+03  0.11273435859E+04 -0.46035925872E+03  0.12257893380E+04  0.50400001928E-02 0.  1.
       -1    1    3    3    0  502  0.14044676329E+03 -0.11273435859E+04  0.40249762011E+03  0.12052523339E+04  0.50400001928E-02 0. -1.
</event>
<event>
 5   0  0.1393026E-05  0.2403493E+04  0.7818609E-02  0.8438197E-01
       -1   -1    0    0    0  501  0.00000000000E+00  0.00000000000E+00  0.72164710372E+03  0.72164710373E+03  0.50400001928E-02 0.  1.
        1   -1    0    0  501    0  0.00000000000E+00  0.00000000000E+00 -0.20012484788E+04  0.20012484788E+04  0.50400001928E-02 0. -1.
    10030    2    1    2    0    0  0.00000000000E+00  0.00000000000E+00 -0.12796013751E+04  0.27228955825E+04  0.24034934313E+04 0.  0.
        4    1    3    3  502    0  0.24835033607E+03 -0.11011988971E+04 -0.17286733234E+03  0.11420164744E+04  0.12699999809E+01 0.  1.
       -4    1    3    3    0  502 -0.24835033607E+03  0.11011988971E+04 -0.11067340427E+04  0.15808791081E+04  0.12699999809E+01 0. -1.
</event>
<event>
 5   0  0.1401596E-05  0.2381502E+04  0.7818609E-02  0.8446461E-01
       -1   -1    0    0    0  501  0.00000000000E+00  0.00000000000E+00  0.99443134702E+03  0.99443134704E+03  0.50400001928E-02 0.  1.
        1   -1    0    0  501    0  0.00000000000E+00  0.00000000000E+00 -0.14258282270E+04  0.14258282270E+04  0.50400001928E-02 0. -1.
    10030    2    1    2    0    0  0.00000000000E+00  0.00000000000E+00 -0.43139687999E+03  0.24202595741E+04  0.23815022859E+04 0.  0.
        2    1    3    3  502    0 -0.82293491302E+03 -0.58460320496E+03 -0.85756678708E+03  0.13245390038E+04  0.25500000920E-02 0. -1.
       -2    1    3    3    0  502  0.82293491302E+03  0.58460320496E+03  0.42616990710E+03  0.10957205702E+04  0.25500000920E-02 0.  1.
</event>
<event>
 5   0  0.1407158E-05  0.2397200E+04  0.7818609E-02  0.8440553E-01
        1   -1    0    0  501    0  0.00000000000E+00  0.00000000000E+00  0.10105766743E+04  0.10105766743E+04  0.50400001928E-02 0.  1.
       -1   -1    0    0    0  501  0.00000000000E+00  0.00000000000E+00 -0.14216056858E+04  0.14216056858E+04  0.50400001928E-02 0. -1.
    10030    2    1    2    0    0  0.00000000000E+00  0.00000000000E+00 -0.41102901157E+03  0.24321823601E+04  0.23971996547E+04 0.  0.
        1    1    3    3  502    0 -0.55993214225E+03  0.10430815454E+04 -0.39559422607E+03  0.12482138863E+04  0.50400001928E-02 0.  1.
       -1    1    3    3    0  502  0.55993214225E+03 -0.10430815454E+04 -0.15434785498E+02  0.11839684738E+04  0.50400001928E-02 0. -1.
</event>
<event>
 5   0  0.3215208E-05  0.2367957E+04  0.7818609E-02  0.8451598E-01
        2   -1    0    0  501    0  0.00000000000E+00  0.00000000000E+00  0.16167583952E+04  0.16167583952E+04  0.25500000920E-02 0.  1.
       -2   -1    0    0    0  501  0.00000000000E+00  0.00000000000E+00 -0.86704667023E+03  0.86704667023E+03  0.25500000920E-02 0. -1.
    10030    2    1    2    0    0  0.00000000000E+00  0.00000000000E+00  0.74971172500E+03  0.24838050655E+04  0.23679569111E+04 0.  0.
        1    1    3    3  502    0 -0.13468241515E+03  0.53765737750E+03 -0.72255558398E+03  0.91065985994E+03  0.50400001928E-02 0. -1.
       -1    1    3    3    0  502  0.13468241515E+03 -0.53765737750E+03  0.14722673090E+04  0.15731452055E+04  0.50400001928E-02 0.  1.
</event>
<event>
 5   0  0.1506985E-05  0.2404583E+04  0.7818609E-02  0.8437790E-01
        1   -1    0    0  501    0  0.00000000000E+00  0.00000000000E+00  0.17474248102E+04  0.17474248102E+04  0.50400001928E-02 0. -1.
       -1   -1    0    0    0  501  0.00000000000E+00  0.00000000000E+00 -0.82722036796E+03  0.82722036798E+03  0.50400001928E-02 0.  1.
    10030    2    1    2    0    0  0.00000000000E+00  0.00000000000E+00  0.92020444222E+03  0.25746451782E+04  0.24045834521E+04 0.  0.
        3    1    3    3  502    0 -0.61152760867E+03 -0.12370007158E+03 -0.64031747677E+03  0.89402136727E+03  0.10100000352E+00 0.  1.
       -3    1    3    3    0  502  0.61152760867E+03  0.12370007158E+03  0.15605219190E+04  0.16806238109E+04  0.10100000352E+00 0. -1.
</event>
<event>
 5   0  0.1434943E-05  0.2562120E+04  0.7818609E-02  0.8381183E-01
        1   -1    0    0  501    0  0.00000000000E+00  0.00000000000E+00  0.27007817841E+04  0.27007817841E+04  0.50400001928E-02 0. -1.
       -1   -1    0    0    0  501  0.00000000000E+00  0.00000000000E+00 -0.60764410909E+03  0.60764410912E+03  0.50400001928E-02 0.  1.
    10030    2    1    2    0    0  0.00000000000E+00  0.00000000000E+00  0.20931376750E+04  0.33084258932E+04  0.25621195453E+04 0.  0.
        5    1    3    3  502    0 -0.39329294553E+03 -0.21013881793E+03  0.25973230015E+04  0.26353266454E+04  0.46999998093E+01 0. -1.
       -5    1    3    3    0  502  0.39329294553E+03  0.21013881793E+03 -0.50418532657E+03  0.67309924775E+03  0.46999998093E+01 0.  1.
</event>
<event>
 5   0  0.1506985E-05  0.2403051E+04  0.7818609E-02  0.8438362E-01
        1   -1    0    0  501    0  0.00000000000E+00  0.00000000000E+00  0.12537774095E+04  0.12537774095E+04  0.50400001928E-02 0. -1.
       -1   -1    0    0    0  501  0.00000000000E+00  0.00000000000E+00 -0.11514509858E+04  0.11514509859E+04  0.50400001928E-02 0.  1.
    10030    2    1    2    0    0  0.00000000000E+00  0.00000000000E+00  0.10232642361E+03  0.24052283953E+04  0.24030507562E+04 0.  0.
        3    1    3    3  502    0 -0.54199702370E+03 -0.10684698143E+04 -0.39884633481E+02  0.11987407192E+04  0.10100000352E+00 0.  1.
       -3    1    3    3    0  502  0.54199702370E+03  0.10684698143E+04  0.14221105709E+03  0.12064876761E+04  0.10100000352E+00 0. -1.
</event>
<event>
 5   0  0.3310037E-05  0.2416877E+04  0.7818609E-02  0.8433212E-01
       -2   -1    0    0    0  501  0.00000000000E+00  0.00000000000E+00  0.12176820537E+04  0.12176820537E+04  0.25500000920E-02 0. -1.
        2   -1    0    0  501    0  0.00000000000E+00  0.00000000000E+00 -0.11992647583E+04  0.11992647583E+04  0.25500000920E-02 0.  1.
    10030    2    1    2    0    0  0.00000000000E+00  0.00000000000E+00  0.18417295407E+02  0.24169468120E+04  0.24168766405E+04 0.  0.
        2    1    3    3  502    0  0.78035927798E+03  0.74204891195E+03 -0.53919216025E+03  0.12042945554E+04  0.25500000920E-02 0.  1.
       -2    1    3    3    0  502 -0.78035927798E+03 -0.74204891195E+03  0.55760945566E+03  0.12126522566E+04  0.25500000920E-02 0. -1.
</event>
<event>
 5   0  0.3310037E-05  0.2317896E+04  0.7818609E-02  0.8470898E-01
        2   -1    0    0  501    0  0.00000000000E+00  0.00000000000E+00  0.24177420965E+04  0.24177420965E+04  0.25500000920E-02 0.  1.
       -2   -1    0    0    0  501  0.00000000000E+00  0.00000000000E+00 -0.55554350864E+03  0.55554350864E+03  0.25500000920E-02 0. -1.
    10030    2    1    2    0    0  0.00000000000E+00  0.00000000000E+00  0.18621985879E+04  0.29732856052E+04  0.23178963974E+04 0.  0.
        2    1    3    3  502    0  0.10127361763E+04 -0.52624425787E+03  0.11895454225E+04  0.16485102043E+04  0.25500000920E-02 0.  1.
       -2    1    3    3    0  502 -0.10127361763E+04  0.52624425787E+03  0.67265316545E+03  0.13247754009E+04  0.25500000920E-02 0. -1.
</event>
<event>
 5   0  0.3345974E-05  0.2514876E+04  0.7818609E-02  0.8397705E-01
       -2   -1    0    0    0  501  0.00000000000E+00  0.00000000000E+00  0.88717200283E+03  0.88717200283E+03  0.25500000920E-02 0.  1.
        2   -1    0    0  501    0  0.00000000000E+00  0.00000000000E+00 -0.17822365033E+04  0.17822365033E+04  0.25500000920E-02 0. -1.
    10030    2    1    2    0    0  0.00000000000E+00  0.00000000000E+00 -0.89506450050E+03  0.26694085062E+04  0.25148760034E+04 0.  0.
        4    1    3    3  502    0 -0.83696325701E+03  0.92965021012E+03 -0.31163502973E+03  0.12891373129E+04  0.12699999809E+01 0.  1.
       -4    1    3    3    0  502  0.83696325701E+03 -0.92965021012E+03 -0.58342947077E+03  0.13802711933E+04  0.12699999809E+01 0. -1.
</event>
<event>
 5   0  0.1147362E-05  0.2444391E+04  0.7818609E-02  0.8423069E-01
        3   -1    0    0  501    0  0.00000000000E+00  0.00000000000E+00  0.11937844540E+04  0.11937844583E+04  0.10100000352E+00 0. -1.
       -3   -1    0    0    0  501  0.00000000000E+00  0.00000000000E+00 -0.12512823779E+04  0.12512823820E+04  0.10100000352E+00 0.  1.
    10030    2    1    2    0    0  0.00000000000E+00  0.00000000000E+00 -0.57497923923E+02  0.24450668403E+04  0.24443906893E+04 0.  0.
        1    1    3    3  502    0 -0.29115773067E+03  0.96974026032E+03 -0.71347645341E+03  0.12386353968E+04  0.50400001928E-02 0.  1.
       -1    1    3    3    0  502  0.29115773067E+03 -0.96974026032E+03  0.65597852948E+03  0.12064314435E+04  0.50400001928E-02 0. -1.
</event>
<event>
 5   0  0.1506985E-05  0.2399402E+04  0.7818609E-02  0.8439727E-01
        1   -1    0    0  501    0  0.00000000000E+00  0.00000000000E+00  0.19953201549E+04  0.19953201549E+04  0.50400001928E-02 0. -1.
       -1   -1    0    0    0  501  0.00000000000E+00  0.00000000000E+00 -0.72132911569E+03  0.72132911571E+03  0.50400001928E-02 0.  1.
    10030    2    1    2    0    0  0.00000000000E+00  0.00000000000E+00  0.12739910392E+04  0.27166492706E+04  0.23994020279E+04 0.  0.
        3    1    3    3  502    0 -0.83455225006E+03  0.57702632628E+03 -0.87842105622E+02  0.10184071313E+04  0.10100000352E+00 0.  1.
       -3    1    3    3    0  502  0.83455225006E+03 -0.57702632628E+03  0.13618331449E+04  0.16982421394E+04  0.10100000352E+00 0. -1.
</event>
<event>
 5   0  0.1393026E-05  0.2376425E+04  0.7818609E-02  0.8448383E-01
        1   -1    0    0  501    0  0.00000000000E+00  0.00000000000E+00  0.17441497144E+04  0.17441497144E+04  0.50400001928E-02 0. -1.
       -1   -1    0    0    0  501  0.00000000000E+00  0.00000000000E+00 -0.80947717175E+03  0.80947717177E+03  0.50400001928E-02 0.  1.
    10030    2    1    2    0    0  0.00000000000E+00  0.00000000000E+00  0.93467254267E+03  0.25536268862E+04  0.23764253643E+04 0.  0.
        4    1    3    3  502    0 -0.28961363319E+03  0.10190188372E+04 -0.11090859318E+03  0.10651656097E+04  0.12699999809E+01 0.  1.
       -4    1    3    3    0  502  0.28961363319E+03 -0.10190188372E+04  0.10455811359E+04  0.14884612765E+04  0.12699999809E+01 0. -1.
</event>
<event>
 5   0  0.3320780E-05  0.2473407E+04  0.7818609E-02  0.8412521E-01
       -2   -1    0    0    0  501  0.00000000000E+00  0.00000000000E+00  0.50706814057E+03  0.50706814057E+03  0.25500000920E-02 0. -1.
        2   -1    0    0  501    0  0.00000000000E+00  0.00000000000E+00 -0.30162337743E+04  0.30162337743E+04  0.25500000920E-02 0.  1.
    10030    2    1    2    0    0  0.00000000000E+00  0.00000000000E+00 -0.25091656337E+04  0.35233019149E+04  0.24734074080E+04 0.  0.
        5    1    3    3  502    0 -0.63805477460E+03  0.10217723626E+04 -0.16531332003E+04  0.20454838363E+04  0.46999998093E+01 0.  1.
       -5    1    3    3    0  502  0.63805477460E+03 -0.10217723626E+04 -0.85603243337E+03  0.14778180786E+04  0.46999998093E+01 0. -1.
</event>
<event>
 5   0  0.1434943E-05  0.2073676E+04  0.7818609E-02  0.8572929E-01
        1   -1    0    0  501    0  0.00000000000E+00  0.00000000000E+00  0.78981808696E+03  0.78981808698E+03  0.50400001928E-02 0.  1.
       -1   -1    0    0    0  501  0.00000000000E+00  0.00000000000E+00 -0.13611153156E+04  0.13611153157E+04  0.50400001928E-02 0. -1.
    10030    2    1    2    0    0  0.00000000000E+00  0.00000000000E+00 -0.57129722869E+03  0.21509334026E+04  0.20736764403E+04 0.  0.
        5    1    3    3  502    0 -0.61886299815E+03  0.83185662941E+03 -0.27955237151E+03  0.10738475128E+04  0.46999998093E+01 0. -1.
       -5    1    3    3    0  502  0.61886299815E+03 -0.83185662941E+03 -0.29174485717E+03  0.10770858898E+04  0.46999998093E+01 0.  1.
</event>
<event>
 5   0  0.1401596E-05  0.2136696E+04  0.7818609E-02  0.8545248E-01
        1   -1    0    0  501    0  0.00000000000E+00  0.00000000000E+00  0.11366358180E+04  0.11366358180E+04  0.50400001928E-02 0. -1.
       -1   -1    0    0    0  501  0.00000000000E+00  0.00000000000E+00 -0.10041630024E+04  0.10041630024E+04  0.50400001928E-02 0.  1.
    10030    2    1    2    0    0  0.00000000000E+00  0.00000000000E+00  0.13247281554E+03  0.21407988204E+04  0.21366961746E+04 0.  0.
        2    1    3    3  502    0  0.82244666234E+03 -0.47024678643E+03  0.56096288042E+03  0.11010131270E+04  0.25500000920E-02 0. -1.
       -2    1    3    3    0  502 -0.82244666234E+03  0.47024678643E+03 -0.42849006488E+03  0.10397856934E+04  0.25500000920E-02 0.  1.
</event>
<event>
 5   0  0.3347728E-05  0.2397755E+04  0.7818609E-02  0.8440345E-01
       -2   -1    0    0    0  501  0.00000000000E+00  0.00000000000E+00  0.51747107107E+03  0.51747107108E+03  0.25500000920E-02 0. -1.
        2   -1    0    0  501    0  0.00000000000E+00  0.00000000000E+00 -0.27775597505E+04  0.27775597505E+04  0.25500000920E-02 0.  1.
    10030    2    1    2    0    0  0.00000000000E+00  0.00000000000E+00 -0.22600886794E+04  0.32950308216E+04  0.23977546322E+04 0.  0.
        3    1    3    3  502    0  0.11089513060E+04 -0.45530134979E+03 -0.11510878215E+04  0.16619493076E+04  0.10100000352E+00 0.  1.
       -3    1    3    3    0  502 -0.11089513060E+04  0.45530134979E+03 -0.11090008580E+04  0.16330815140E+04  0.10100000352E+00 0. -1.
</event>
<event>
 5   0  0.1506985E-05  0.2231369E+04  0.7818609E-02  0.8505484E-01
        1   -1    0    0  501    0  0.00000000000E+00  0.00000000000E+00  0.12013105678E+04  0.12013105678E+04  0.50400001928E-02 0.  1.
       -1   -1    0    0    0  501  0.00000000000E+00  0.00000000000E+00 -0.10361615301E+04  0.10361615301E+04  0.50400001928E-02 0. -1.
    10030    2    1    2    0    0  0.00000000000E+00  0.00000000000E+00  0.16514903773E+03  0.22374720979E+04  0.22313689037E+04 0.  0.
        3    1    3    3  502    0 -0.23772633386E+03 -0.56264881979E+03 -0.85360875333E+03  0.10496358503E+04  0.10100000352E+00 0. -1.
       -3    1    3    3    0  502  0.23772633386E+03  0.56264881979E+03  0.10187577911E+04  0.11878362477E+04  0.10100000352E+00 0.  1.
</event>
<event>
 5   0  0.1506985E-05  0.2399037E+04  0.7818609E-02  0.8439864E-01
        1   -1    0    0  501    0  0.00000000000E+00  0.00000000000E+00  0.84259440201E+03  0.84259440203E+03  0.50400001928E-02 0.  1.
       -1   -1    0    0    0  501  0.00000000000E+00  0.00000000000E+00 -0.17076359928E+04  0.17076359928E+04  0.50400001928E-02 0. -1.
    10030    2    1    2    0    0  0.00000000000E+00  0.00000000000E+00 -0.86504159076E+03  0.25502303948E+04  0.23990369136E+04 0.  0.
        3    1    3    3  502    0  0.96004792962E+03 -0.65114359766E+03 -0.10805588978E+03  0.11650562636E+04  0.10100000352E+00 0.  1.
       -3    1    3    3    0  502 -0.96004792962E+03  0.65114359766E+03 -0.75698570098E+03  0.13851741312E+04  0.10100000352E+00 0. -1.
</event>
<event>
 5   0  0.1506985E-05  0.2397429E+04  0.7818609E-02  0.8440467E-01
        1   -1    0    0  501    0  0.00000000000E+00  0.00000000000E+00  0.10565446285E+04  0.10565446285E+04  0.50400001928E-02 0. -1.
       -1   -1    0    0    0  501  0.00000000000E+00  0.00000000000E+00 -0.13600148853E+04  0.13600148853E+04  0.50400001928E-02 0.  1.
    10030    2    1    2    0    0  0.00000000000E+00  0.00000000000E+00 -0.30347025677E+03  0.24165595138E+04  0.23974289744E+04 0.  0.
        3    1    3    3  502    0  0.92058988595E+03 -0.69695187744E+03  0.17284174563E+03  0.11675195659E+04  0.10100000352E+00 0. -1.
       -3    1    3    3    0  502 -0.92058988595E+03  0.69695187744E+03 -0.47631200240E+03  0.12490399479E+04  0.10100000352E+00 0.  1.
</event>
<event>
 5   0  0.1147362E-05  0.2417776E+04  0.7818609E-02  0.8432878E-01
        4   -1    0    0  501    0  0.00000000000E+00  0.00000000000E+00  0.10028100286E+04  0.10028108328E+04  0.12699999809E+01 0. -1.
       -4   -1    0    0    0  501  0.00000000000E+00  0.00000000000E+00 -0.14573132341E+04  0.14573137875E+04  0.12699999809E+01 0.  1.
    10030    2    1    2    0    0  0.00000000000E+00  0.00000000000E+00 -0.45450320553E+03  0.24601246202E+04  0.24177758340E+04 0.  0.
        1    1    3    3  502    0  0.91263583437E+03  0.22162413927E+03 -0.10017598323E+04  0.13731511887E+04  0.50400001928E-02 0.  1.
       -1    1    3    3    0  502 -0.91263583437E+03 -0.22162413927E+03  0.54725662682E+03  0.10869734316E+04  0.50400001928E-02 0. -1.
</event>
<event>
 5   0  0.1393026E-05  0.2172979E+04  0.7818609E-02  0.8529760E-01
       -1   -1    0    0    0  501  0.00000000000E+00  0.00000000000E+00  0.12242732854E+04  0.12242732854E+04  0.50400001928E-02 0.  1.
        1   -1    0    0  501    0  0.00000000000E+00  0.00000000000E+00 -0.96421230324E+03  0.96421230326E+03  0.50400001928E-02 0. -1.
    10030    2    1    2    0    0  0.00000000000E+00  0.00000000000E+00  0.26006098215E+03  0.21884855887E+04  0.21729789362E+04 0.  0.
        4    1    3    3  502    0  0.94349031637E+03  0.12098022115E+03  0.65879859646E+03  0.11570770910E+04  0.12699999809E+01 0.  1.
       -4    1    3    3    0  502 -0.94349031637E+03 -0.12098022115E+03 -0.39873761432E+03  0.10314084976E+04  0.12699999809E+01 0. -1.
</event>
<event>
 5   0  0.1393026E-05  0.2408346E+04  0.7818609E-02  0.8436386E-01
        1   -1    0    0  501    0  0.00000000000E+00  0.00000000000E+00  0.11007753327E+04  0.11007753327E+04  0.50400001928E-02 0.  1.
       -1   -1    0    0    0  501  0.00000000000E+00  0.00000000000E+00 -0.13172830600E+04  0.13172830600E+04  0.50400001928E-02 0. -1.
    10030    2    1    2    0    0  0.00000000000E+00  0.00000000000E+00 -0.21650772737E+03  0.24180583927E+04  0.24083460703E+04 0.  0.
        4    1    3    3  502    0  0.58541753693E+03  0.51800298796E+03 -0.10279118782E+04  0.12913733892E+04  0.12699999809E+01 0. -1.
       -4    1    3    3    0  502 -0.58541753693E+03 -0.51800298796E+03  0.81140415087E+03  0.11266850035E+04  0.12699999809E+01 0.  1.
</event>
<event>
 5   0  0.3347728E-05  0.2407460E+04  0.7818609E-02  0.8436716E-01
       -2   -1    0    0    0  501  0.00000000000E+00  0.00000000000E+00  0.12617767606E+04  0.12617767606E+04  0.25500000920E-02 0.  1.
        2   -1    0    0  501    0  0.00000000000E+00  0.00000000000E+00 -0.11483533992E+04  0.11483533992E+04  0.25500000920E-02 0. -1.
    10030    2    1    2    0    0  0.00000000000E+00  0.00000000000E+00  0.11342336137E+03  0.24101301598E+04  0.24074597667E+04 0.  0.
        3    1    3    3  502    0 -0.98834912757E+03 -0.47166813372E+03  0.55692659276E+03  0.12286057408E+04  0.10100000352E+00 0. -1.
       -3    1    3    3    0  502  0.98834912757E+03  0.47166813372E+03 -0.44350323139E+03  0.11815244190E+04  0.10100000352E+00 0.  1.
</event>
<event>
 5   0  0.3345974E-05  0.2432537E+04  0.7818609E-02  0.8427422E-01
       -2   -1    0    0    0  501  0.00000000000E+00  0.00000000000E+00  0.74212135831E+03  0.74212135831E+03  0.25500000920E-02 0.  1.
        2   -1    0    0  501    0  0.00000000000E+00  0.00000000000E+00 -0.19933524945E+04  0.19933524945E+04  0.25500000920E-02 0. -1.
    10030    2    1    2    0    0  0.00000000000E+00  0.00000000000E+00 -0.12512311362E+04  0.27354738528E+04  0.24325373262E+04 0.  0.
        4    1    3    3  502    0  0.10399104709E+04  0.34621198578E+03 -0.32663051456E+02  0.10965149404E+04  0.12699999809E+01 0.  1.
       -4    1    3    3    0  502 -0.10399104709E+04 -0.34621198578E+03 -0.12185680847E+04  0.16389589124E+04  0.12699999809E+01 0. -1.
</event>
<event>
 5   0  0.3345974E-05  0.2419741E+04  0.7818609E-02  0.8432150E-01
        2   -1    0    0  501    0  0.00000000000E+00  0.00000000000E+00  0.24153816104E+04  0.24153816104E+04  0.25500000920E-02 0.  1.
       -2   -1    0    0    0  501  0.00000000000E+00  0.00000000000E+00 -0.60602719734E+03  0.60602719734E+03  0.25500000920E-02 0. -1.
    10030    2    1    2    0    0  0.00000000000E+00  0.00000000000E+00  0.18093544131E+04  0.30214088078E+04  0.24197412654E+04 0.  0.
        4    1    3    3  502    0 -0.11574159577E+04  0.38799913565E+02  0.13420044782E+04  0.17725954882E+04  0.12699999809E+01 0.  1.
       -4    1    3    3    0  502  0.11574159577E+04 -0.38799913565E+02  0.46734993489E+03  0.12488133195E+04  0.12699999809E+01 0. -1.
</event>
<event>
 5   0  0.1434943E-05  0.2371689E+04  0.7818609E-02  0.8450179E-01
       -1   -1    0    0    0  501  0.00000000000E+00  0.00000000000E+00  0.97202548034E+03  0.97202548035E+03  0.50400001928E-02 0.  1.
        1   -1    0    0  501    0  0.00000000000E+00  0.00000000000E+00 -0.14466983561E+04  0.14466983561E+04  0.50400001928E-02 0. -1.
    10030    2    1    2    0    0  0.00000000000E+00  0.00000000000E+00 -0.47467287580E+03  0.24187238365E+04  0.23716894102E+04 0.  0.
        5    1    3    3  502    0 -0.69785154955E+03  0.53255319770E+03  0.57571684404E+03  0.10498007754E+04  0.46999998093E+01 0.  1.
       -5    1    3    3    0  502  0.69785154955E+03 -0.53255319770E+03 -0.10503897198E+04  0.13689230611E+04  0.46999998093E+01 0. -1.
</event>
<event>
 5   0  0.1506985E-05  0.2416210E+04  0.7818609E-02  0.8433460E-01
       -1   -1    0    0    0  501  0.00000000000E+00  0.00000000000E+00  0.82978117681E+03  0.82978117683E+03  0.50400001928E-02 0.  1.
        1   -1    0    0  501    0  0.00000000000E+00  0.00000000000E+00 -0.17589187907E+04  0.17589187907E+04  0.50400001928E-02 0. -1.
    10030    2    1    2    0    0  0.00000000000E+00  0.00000000000E+00 -0.92913761391E+03  0.25886999676E+04  0.24162100108E+04 0.  0.
        3    1    3    3  502    0  0.40678770571E+03  0.64905857888E+03 -0.14654800205E+04  0.16535975862E+04  0.10100000352E+00 0. -1.
       -3    1    3    3    0  502 -0.40678770571E+03 -0.64905857888E+03  0.53634240660E+03  0.93510238137E+03  0.10100000352E+00 0.  1.
</event>
<event>
 5   0  0.3345974E-05  0.2391392E+04  0.7818609E-02  0.8442733E-01
        2   -1    0    0  501    0  0.00000000000E+00  0.00000000000E+00  0.10464215087E+04  0.10464215087E+04  0.25500000920E-02 0. -1.
       -2   -1    0    0    0  501  0.00000000000E+00  0.00000000000E+00 -0.13662650848E+04  0.13662650848E+04  0.25500000920E-02 0.  1.
    10030    2    1    2    0    0  0.00000000000E+00  0.00000000000E+00 -0.31984357609E+03  0.24126865935E+04  0.23913922065E+04 0.  0.
        4    1    3    3  502    0  0.74939163401E+03 -0.50711330951E+03 -0.94850567526E+03  0.13108838082E+04  0.12699999809E+01 0.  1.
       -4    1    3    3    0  502 -0.74939163401E+03  0.50711330951E+03  0.62866209917E+03  0.11018027853E+04  0.12699999809E+01 0. -1.
</event>
<event>
 5   0  0.3320780E-05  0.2368613E+04  0.7818609E-02  0.8451349E-01
        2   -1    0    0  501    0  0.00000000000E+00  0.00000000000E+00  0.13338653304E+04  0.13338653304E+04  0.25500000920E-02 0.  1.
       -2   -1    0    0    0  501  0.00000000000E+00  0.00000000000E+00 -0.10515166053E+04  0.10515166053E+04  0.25500000920E-02 0. -1.
    10030    2    1    2    0    0  0.00000000000E+00  0.00000000000E+00  0.28234872510E+03  0.23853819357E+04  0.23686127114E+04 0.  0.
        5    1    3    3  502    0  0.68621392840E+03 -0.63924295997E+03 -0.58715971697E+03  0.11064807909E+04  0.46999998093E+01 0. -1.
       -5    1    3    3    0  502 -0.68621392840E+03  0.63924295997E+03  0.86950844207E+03  0.12789011448E+04  0.46999998093E+01 0.  1.
</event>
<event>
 5   0  0.1434943E-05  0.2383178E+04  0.7818609E-02  0.8445829E-01
       -1   -1    0    0    0  501  0.00000000000E+00  0.00000000000E+00  0.14650531353E+04  0.14650531353E+04  0.50400001928E-02 0.  1.
        1   -1    0    0  501    0  0.00000000000E+00  0.00000000000E+00 -0.96916890835E+03  0.96916890836E+03  0.50400001928E-02 0. -1.
    10030    2    1    2    0    0  0.00000000000E+00  0.00000000000E+00  0.49588422697E+03  0.24342220437E+04  0.23831776668E+04 0.  0.
        5    1    3    3  502    0 -0.69941007631E+03  0.14723598962E+01  0.12333253794E+04  0.14178470313E+04  0.46999998093E+01 0.  1.
       -5    1    3    3    0  502  0.69941007631E+03 -0.14723598962E+01 -0.73744115238E+03  0.10163750124E+04  0.46999998093E+01 0. -1.
</event>
<event>
 5   0  0.1506985E-05  0.2419178E+04  0.7818609E-02  0.8432359E-01
        1   -1    0    0  501    0  0.00000000000E+00  0.00000000000E+00  0.28896901352E+04  0.28896901352E+04  0.50400001928E-02 0.  1.
       -1   -1    0    0    0  501  0.00000000000E+00  0.00000000000E+00 -0.50631899069E+03  0.50631899072E+03  0.50400001928E-02 0. -1.
    10030    2    1    2    0    0  0.00000000000E+00  0.00000000000E+00  0.23833711446E+04  0.33960091260E+04  0.24191775402E+04 0.  0.
        3    1    3    3  502    0  0.99340097970E+03  0.68905454936E+03  0.12453848444E+04  0.17356915335E+04  0.10100000352E+00 0. -1.
       -3    1    3    3    0  502 -0.99340097970E+03 -0.68905454936E+03  0.11379863002E+04  0.16603175925E+04  0.10100000352E+00 0.  1.
</event>
<event>
 5   0  0.3310037E-05  0.2440025E+04  0.7818609E-02  0.8424669E-01
        2   -1    0    0  501    0  0.00000000000E+00  0.00000000000E+00  0.15656231933E+04  0.15656231933E+04  0.25500000920E-02 0.  1.
       -2   -1    0    0    0  501  0.00000000000E+00  0.00000000000E+00 -0.95069548075E+03  0.95069548076E+03  0.25500000920E-02 0. -1.
    10030    2    1    2    0    0  0.00000000000E+00  0.00000000000E+00  0.61492771250E+03  0.25163186740E+04  0.24400253231E+04 0.  0.
        2    1    3    3  502    0 -0.77230781640E+03  0.72825992329E+03  0.92760555083E+03  0.14097070395E+04  0.25500000920E-02 0.  1.
       -2    1    3    3    0  502  0.77230781640E+03 -0.72825992329E+03 -0.31267783833E+03  0.11066116346E+04  0.25500000920E-02 0. -1.
</event>
<event>
 5   0  0.3320780E-05  0.2327003E+04  0.7818609E-02  0.8467350E-01
        2   -1    0    0  501    0  0.00000000000E+00  0.00000000000E+00  0.18033195006E+04  0.18033195006E+04  0.25500000920E-02 0. -1.
       -2   -1    0    0    0  501  0.00000000000E+00  0.00000000000E+00 -0.75069086459E+03  0.75069086459E+03  0.25500000920E-02 0.  1.
    10030    2    1    2    0    0  0.00000000000E+00  0.00000000000E+00  0.10526286361E+04  0.25540103652E+04  0.23270027719E+04 0.  0.
        5    1    3    3  502    0  0.34096348999E+03  0.41504129948E+02  0.17463945040E+04  0.17798580134E+04  0.46999998093E+01 0. -1.
       -5    1    3    3    0  502 -0.34096348999E+03 -0.41504129948E+02 -0.69376586794E+03  0.77415235182E+03  0.46999998093E+01 0.  1.
</event>
<event>
 5   0  0.3215208E-05  0.2415816E+04  0.7818609E-02  0.8433606E-01
        2   -1    0    0  501    0  0.00000000000E+00  0.00000000000E+00  0.11160817311E+04  0.11160817311E+04  0.25500000920E-02 0.  1.
       -2   -1    0    0    0  501  0.00000000000E+00  0.00000000000E+00 -0.13072888707E+04  0.13072888707E+04  0.25500000920E-02 0. -1.
    10030    2    1    2    0    0  0.00000000000E+00  0.00000000000E+00 -0.19120713961E+03  0.24233706017E+04  0.24158155772E+04 0.  0.
        1    1    3    3  502    0 -0.10511771150E+03  0.10781771556E+03  0.11066296993E+04  0.11168275088E+04  0.50400001928E-02 0.  1.
       -1    1    3    3    0  502  0.10511771150E+03 -0.10781771556E+03 -0.12978368389E+04  0.13065430929E+04  0.50400001928E-02 0. -1.
</event>
<event>
 5   0  0.3345974E-05  0.2459444E+04  0.7818609E-02  0.8417578E-01
        2   -1    0    0  501    0  0.00000000000E+00  0.00000000000E+00  0.12042776738E+04  0.12042776738E+04  0.25500000920E-02 0.  1.
       -2   -1    0    0    0  501  0.00000000000E+00  0.00000000000E+00 -0.12557043095E+04  0.12557043095E+04  0.25500000920E-02 0. -1.
    10030    2    1    2    0    0  0.00000000000E+00  0.00000000000E+00 -0.51426635634E+02  0.24599819833E+04  0.24594443802E+04 0.  0.
        4    1    3    3  502    0 -0.64722217185E+02 -0.11876563739E+04 -0.33802894753E+03  0.12365200403E+04  0.12699999809E+01 0.  1.
       -4    1    3    3    0  502  0.64722217185E+02  0.11876563739E+04  0.28660231189E+03  0.12234619430E+04  0.12699999809E+01 0. -1.
</event>
<event>
 5   0  0.3320780E-05  0.2381456E+04  0.7818609E-02  0.8446479E-01
        2   -1    0    0  501    0  0.00000000000E+00  0.00000000000E+00  0.89919933376E+03  0.89919933376E+03  0.25500000920E-02 0. -1.
       -2   -1    0    0    0  501  0.00000000000E+00  0.00000000000E+00 -0.15767727697E+04  0.15767727697E+04  0.25500000920E-02 0.  1.
    10030    2    1    2    0    0  0.00000000000E+00  0.00000000000E+00 -0.67757343594E+03  0.24759721035E+04  0.23814558774E+04 0.  0.
        5    1    3    3  502    0  0.32004602406E+03  0.23497760015E+03  0.82833798066E+03  0.91859122045E+03  0.46999998093E+01 0. -1.
       -5    1    3    3    0  502 -0.32004602406E+03 -0.23497760015E+03 -0.15059114166E+04  0.15573808830E+04  0.46999998093E+01 0.  1.
</event>
<event>
 5   0  0.3347728E-05  0.2405803E+04  0.7818609E-02  0.8437334E-01
        2   -1    0    0  501    0  0.00000000000E+00  0.00000000000E+00  0.86024819925E+03  0.86024819926E+03  0.25500000920E-02 0.  1.
       -2   -1    0    0    0  501  0.00000000000E+00  0.00000000000E+00 -0.16820395590E+04  0.16820395590E+04  0.25500000920E-02 0. -1.
    10030    2    1    2    0    0  0.00000000000E+00  0.00000000000E+00 -0.82179135978E+03  0.25422877583E+04  0.24058025702E+04 0.  0.
        3    1    3    3  502    0  0.46636796706E+02 -0.66001806501E+03  0.65067144029E+03  0.92799362625E+03  0.10100000352E+00 0.  1.
       -3    1    3    3    0  502 -0.46636796706E+02  0.66001806501E+03 -0.14724628001E+04  0.16142941320E+04  0.10100000352E+00 0. -1.
</event>
<event>
 5   0  0.1393026E-05  0.2336591E+04  0.7818609E-02  0.8463632E-01
       -1   -1    0    0    0  501  0.00000000000E+00  0.00000000000E+00  0.10633819166E+04  0.10633819166E+04  0.50400001928E-02 0.  1.
        1   -1    0    0  501    0  0.00000000000E+00  0.00000000000E+00 -0.12835601413E+04  0.12835601413E+04  0.50400001928E-02 0. -1.
    10030    2    1    2    0    0  0.00000000000E+00  0.00000000000E+00 -0.22017822470E+03  0.23469420580E+04  0.23365912293E+04 0.  0.
        4    1    3    3  502    0  0.26723658673E+03  0.11285619751E+04  0.31409019976E+02  0.11601963904E+04  0.12699999809E+01 0. -1.
       -4    1    3    3    0  502 -0.26723658673E+03 -0.11285619751E+04 -0.25158724468E+03  0.11867456676E+04  0.12699999809E+01 0.  1.
</event>
<event>
 5   0  0.3320780E-05  0.2391866E+04  0.7818609E-02  0.8442555E-01
       -2   -1    0    0    0  501  0.00000000000E+00  0.00000000000E+00  0.67549051616E+03  0.67549051616E+03  0.25500000920E-02 0. -1.
        2   -1    0    0  501    0  0.00000000000E+00  0.00000000000E+00 -0.21173579164E+04  0.21173579164E+04  0.25500000920E-02 0.  1.
    10030    2    1    2    0    0  0.00000000000E+00  0.00000000000E+00 -0.14418674003E+04  0.27928484326E+04  0.23918655413E+04 0.  0.
        5    1    3    3  502    0 -0.14176869820E+03  0.22297660631E+03 -0.20828377081E+04  0.20995361247E+04  0.46999998093E+01 0.  1.
       -5    1    3    3    0  502  0.14176869820E+03 -0.22297660631E+03  0.64097030782E+03  0.69331230788E+03  0.46999998093E+01 0. -1.
</event>
<event>
 5   0  0.1434943E-05  0.1940401E+04  0.7818609E-02  0.8635004E-01
        1   -1    0    0  501    0  0.00000000000E+00  0.00000000000E+00  0.72214401794E+03  0.72214401796E+03  0.50400001928E-02 0. -1.
       -1   -1    0    0    0  501  0.00000000000E+00  0.00000000000E+00 -0.13034641427E+04  0.13034641427E+04  0.50400001928E-02 0.  1.
    10030    2    1    2    0    0  0.00000000000E+00  0.00000000000E+00 -0.58132012476E+03  0.20256081607E+04  0.19404008176E+04 0.  0.
        5    1    3    3  502    0 -0.31544704628E+03 -0.24234268599E+03  0.63308721087E+03  0.74770202824E+03  0.46999998093E+01 0. -1.
       -5    1    3    3    0  502  0.31544704628E+03  0.24234268599E+03 -0.12144073356E+04  0.12779061324E+04  0.46999998093E+01 0.  1.
</event>
<event>
 5   0  0.1434943E-05  0.2424131E+04  0.7818609E-02  0.8430524E-01
       -1   -1    0    0    0  501  0.00000000000E+00  0.00000000000E+00  0.97766519242E+03  0.97766519243E+03  0.50400001928E-02 0.  1.
        1   -1    0    0  501    0  0.00000000000E+00  0.00000000000E+00 -0.15026640549E+04  0.15026640549E+04  0.50400001928E-02 0. -1.
    10030    2    1    2    0    0  0.00000000000E+00  0.00000000000E+00 -0.52499886252E+03  0.24803292474E+04  0.24241306421E+04 0.  0.
        5    1    3    3  502    0  0.82136195115E+03 -0.78658345848E+03  0.16642207772E+03  0.11493769573E+04  0.46999998093E+01 0.  1.
       -5    1    3    3    0  502 -0.82136195115E+03  0.78658345848E+03 -0.69142094024E+03  0.13309522901E+04  0.46999998093E+01 0. -1.
</event>
<event>
 5   0  0.1434943E-05  0.2368773E+04  0.7818609E-02  0.8451288E-01
        1   -1    0    0  501    0  0.00000000000E+00  0.00000000000E+00  0.16107678202E+04  0.16107678202E+04  0.50400001928E-02 0.  1.
       -1   -1    0    0    0  501  0.00000000000E+00  0.00000000000E+00 -0.87087137078E+03  0.87087137079E+03  0.50400001928E-02 0. -1.
    10030    2    1    2    0    0  0.00000000000E+00  0.00000000000E+00  0.73989644939E+03  0.24816391910E+04  0.23687731673E+04 0.  0.
        5    1    3    3  502    0 -0.61672106990E+03 -0.61304251008E+03 -0.47246945067E+03  0.98965421690E+03  0.46999998093E+01 0. -1.
       -5    1    3    3    0  502  0.61672106990E+03  0.61304251008E+03  0.12123659001E+04  0.14919849741E+04  0.46999998093E+01 0.  1.
</event>
<event>
 5   0  0.1407158E-05  0.2425014E+04  0.7818609E-02  0.8430198E-01
        1   -1    0    0  501    0  0.00000000000E+00  0.00000000000E+00  0.92326344963E+03  0.92326344964E+03  0.50400001928E-02 0.  1.
       -1   -1    0    0    0  501  0.00000000000E+00  0.00000000000E+00 -0.15923654011E+04  0.15923654011E+04  0.50400001928E-02 0. -1.
    10030    2    1    2    0    0  0.00000000000E+00  0.00000000000E+00 -0.66910195147E+03  0.25156288507E+04  0.24250136274E+04 0.  0.
        1    1    3    3  502    0  0.10678718551E+04  0.41533973095E+03 -0.74600183951E+03  0.13672513067E+04  0.50400001928E-02 0. -1.
       -1    1    3    3    0  502 -0.10678718551E+04 -0.41533973095E+03  0.76899888037E+02  0.11483775441E+04  0.50400001928E-02 0.  1.
</event>
<event>
 5   0  0.3347728E-05  0.2399188E+04  0.7818609E-02  0.8439808E-01
       -2   -1    0    0    0  501  0.00000000000E+00  0.00000000000E+00  0.19712733821E+04  0.19712733821E+04  0.25500000920E-02 0. -1.
        2   -1    0    0  501    0  0.00000000000E+00  0.00000000000E+00 -0.72999824426E+03  0.72999824426E+03  0.25500000920E-02 0.  1.
    10030    2    1    2    0    0  0.00000000000E+00  0.00000000000E+00  0.12412751378E+04  0.27012716263E+04  0.23991882860E+04 0.  0.
        3    1    3    3  502    0  0.82620665021E+03  0.71962263713E+03  0.11705523471E+04  0.16033299648E+04  0.10100000352E+00 0.  1.
       -3    1    3    3    0  502 -0.82620665021E+03 -0.71962263713E+03  0.70722790745E+02  0.10979416615E+04  0.10100000352E+00 0. -1.
</event>
<event>
 5   0  0.3320780E-05  0.2415330E+04  0.7818609E-02  0.8433786E-01
        2   -1    0    0  501    0  0.00000000000E+00  0.00000000000E+00  0.14506470085E+04  0.14506470085E+04  0.25500000920E-02 0.  1.
       -2   -1    0    0    0  501  0.00000000000E+00  0.00000000000E+00 -0.10053824051E+04  0.10053824051E+04  0.25500000920E-02 0. -1.
    10030    2    1    2    0    0  0.00000000000E+00  0.00000000000E+00  0.44526460338E+03  0.24560294136E+04  0.24153301873E+04 0.  0.
        5    1    3    3  502    0  0.71860356822E+03  0.30097060356E+03 -0.71566138889E+03  0.10579072294E+04  0.46999998093E+01 0. -1.
       -5    1    3    3    0  502 -0.71860356822E+03 -0.30097060356E+03  0.11609259923E+04  0.13981221842E+04  0.46999998093E+01 0.  1.
</event>
<event>
 5   0  0.1393026E-05  0.2384333E+04  0.7818609E-02  0.8445392E-01
       -1   -1    0    0    0  501  0.00000000000E+00  0.00000000000E+00  0.10244189010E+04  0.10244189011E+04  0.50400001928E-02 0.  1.
        1   -1    0    0  501    0  0.00000000000E+00  0.00000000000E+00 -0.13873825049E+04  0.13873825049E+04  0.50400001928E-02 0. -1.
    10030    2    1    2    0    0  0.00000000000E+00  0.00000000000E+00 -0.36296360387E+03  0.24118014060E+04  0.23843329139E+04 0.  0.
        4    1    3    3  502    0 -0.11557972127E+04  0.82853017396E+02  0.10197399209E+03  0.11632420760E+04  0.12699999809E+01 0.  1.
       -4    1    3    3    0  502  0.11557972127E+04 -0.82853017396E+02 -0.46493759596E+03  0.12485593300E+04  0.12699999809E+01 0. -1.
</event>
<event>
 5   0  0.3310037E-05  0.2549478E+04  0.7818609E-02  0.8385568E-01
       -2   -1    0    0    0  501  0.00000000000E+00  0.00000000000E+00  0.12303257982E+04  0.12303257982E+04  0.25500000920E-02 0.  1.
        2   -1    0    0  501    0  0.00000000000E+00  0.00000000000E+00 -0.13207550517E+04  0.13207550517E+04  0.25500000920E-02 0. -1.
    10030    2    1    2    0    0  0.00000000000E+00  0.00000000000E+00 -0.90429253506E+02  0.25510808499E+04  0.25494776039E+04 0.  0.
        2    1    3    3  502    0 -0.11316538623E+04 -0.25071930327E+03  0.48564550857E+03  0.12567227988E+04  0.25500000920E-02 0.  1.
       -2    1    3    3    0  502  0.11316538623E+04  0.25071930327E+03 -0.57607476208E+03  0.12943580511E+04  0.25500000920E-02 0. -1.
</event>
<event>
 5   0  0.3310037E-05  0.2418636E+04  0.7818609E-02  0.8432559E-01
       -2   -1    0    0    0  501  0.00000000000E+00  0.00000000000E+00  0.14751455586E+04  0.14751455586E+04  0.25500000920E-02 0.  1.
        2   -1    0    0  501    0  0.00000000000E+00  0.00000000000E+00 -0.99139345539E+03  0.99139345539E+03  0.25500000920E-02 0. -1.
    10030    2    1    2    0    0  0.00000000000E+00  0.00000000000E+00  0.48375210316E+03  0.24665390140E+04  0.24186356919E+04 0.  0.
        2    1    3    3  502    0  0.77745100375E+03 -0.69298607802E+03  0.86869583443E+03  0.13562050805E+04  0.25500000920E-02 0.  1.
       -2    1    3    3    0  502 -0.77745100375E+03  0.69298607802E+03 -0.38494373126E+03  0.11103339335E+04  0.25500000920E-02 0. -1.
</event>
<event>
 5   0  0.1407158E-05  0.2417454E+04  0.7818609E-02  0.8432998E-01
        1   -1    0    0  501    0  0.00000000000E+00  0.00000000000E+00  0.20770517965E+04  0.20770517965E+04  0.50400001928E-02 0.  1.
       -1   -1    0    0    0  501  0.00000000000E+00  0.00000000000E+00 -0.70341110492E+03  0.70341110494E+03  0.50400001928E-02 0. -1.
    10030    2    1    2    0    0  0.00000000000E+00  0.00000000000E+00  0.13736406916E+04  0.27804629014E+04  0.24174542802E+04 0.  0.
        1    1    3    3  502    0 -0.54387614427E+03  0.10678030240E+04  0.86873772895E+03  0.14801046585E+04  0.50400001928E-02 0.  1.
       -1    1    3    3    0  502  0.54387614427E+03 -0.10678030240E+04  0.50490296262E+03  0.13003582429E+04  0.50400001928E-02 0. -1.
</event>
<event>
 5   0  0.3320780E-05  0.2391625E+04  0.7818609E-02  0.8442646E-01
        2   -1    0    0  501    0  0.00000000000E+00  0.00000000000E+00  0.24730071203E+04  0.24730071203E+04  0.25500000920E-02 0. -1.
       -2   -1    0    0    0  501  0.00000000000E+00  0.00000000000E+00 -0.57823024812E+03  0.57823024813E+03  0.25500000920E-02 0.  1.
    10030    2    1    2    0    0  0.00000000000E+00  0.00000000000E+00  0.18947768722E+04  0.30512373684E+04  0.23916249880E+04 0.  0.
        5    1    3    3  502    0 -0.90907353964E+03 -0.77409695748E+03  0.10310933325E+04  0.15775982855E+04  0.46999998093E+01 0. -1.
       -5    1    3    3    0  502  0.90907353964E+03  0.77409695748E+03  0.86368353966E+03  0.14736390829E+04  0.46999998093E+01 0.  1.
</event>
<event>
 5   0  0.1506985E-05  0.2411316E+04  0.7818609E-02  0.8435279E-01
        1   -1    0    0  501    0  0.00000000000E+00  0.00000000000E+00  0.13977754138E+04  0.13977754138E+04  0.50400001928E-02 0.  1.
       -1   -1    0    0    0  501  0.00000000000E+00  0.00000000000E+00 -0.10399463184E+04  0.10399463184E+04  0.50400001928E-02 0. -1.
    10030    2    1    2    0    0  0.00000000000E+00  0.00000000000E+00  0.35782909533E+03  0.24377217322E+04  0.24113161515E+04 0.  0.
        3    1    3    3  502    0  0.69682136119E+03  0.66216472422E+03  0.91461251476E+03  0.13268527400E+04  0.10100000352E+00 0. -1.
       -3    1    3    3    0  502 -0.69682136119E+03 -0.66216472422E+03 -0.55678341943E+03  0.11108689922E+04  0.10100000352E+00 0.  1.
</event>
<event>
 5   0  0.3345974E-05  0.2457182E+04  0.7818609E-02  0.8418400E-01
        2   -1    0    0  501    0  0.00000000000E+00  0.00000000000E+00  0.13211264030E+04  0.13211264030E+04  0.25500000920E-02 0.  1.
       -2   -1    0    0    0  501  0.00000000000E+00  0.00000000000E+00 -0.11425368908E+04  0.11425368908E+04  0.25500000920E-02 0. -1.
    10030    2    1    2    0    0  0.00000000000E+00  0.00000000000E+00  0.17858951215E+03  0.24636632938E+04  0.24571818434E+04 0.  0.
        4    1    3    3  502    0 -0.35202403000E+03  0.73123909960E+03 -0.83552784471E+03  0.11647917971E+04  0.12699999809E+01 0.  1.
       -4    1    3    3    0  502  0.35202403000E+03 -0.73123909960E+03  0.10141173569E+04  0.12988714967E+04  0.12699999809E+01 0. -1.
</event>
<event>
 5   0  0.3320780E-05  0.2408301E+04  0.7818609E-02  0.8436402E-01
       -2   -1    0    0    0  501  0.00000000000E+00  0.00000000000E+00  0.12062693346E+04  0.12062693346E+04  0.25500000920E-02 0. -1.
        2   -1    0    0  501    0  0.00000000000E+00  0.00000000000E+00 -0.12020353544E+04  0.12020353544E+04  0.25500000920E-02 0.  1.
    10030    2    1    2    0    0  0.00000000000E+00  0.00000000000E+00  0.42339802298E+01  0.24083046890E+04  0.24083009672E+04 0.  0.
        5    1    3    3  502    0 -0.75538800580E+03 -0.91138014278E+03  0.22286943933E+03  0.12045404439E+04  0.46999998093E+01 0.  1.
       -5    1    3    3    0  502  0.75538800580E+03  0.91138014278E+03 -0.21863545910E+03  0.12037642452E+04  0.46999998093E+01 0. -1.
</event>
<event>
 5   0  0.1407158E-05  0.2421094E+04  0.7818609E-02  0.8431648E-01
       -1   -1    0    0    0  501  0.00000000000E+00  0.00000000000E+00  0.22789421097E+04  0.22789421097E+04  0.50400001928E-02 0.  1.
        1   -1    0    0  501    0  0.00000000000E+00  0.00000000000E+00 -0.64302829652E+03  0.64302829654E+03  0.50400001928E-02 0. -1.
    10030    2    1    2    0    0  0.00000000000E+00  0.00000000000E+00  0.16359138132E+04  0.29219704063E+04  0.24210941846E+04 0.  0.
        1    1    3    3  502    0 -0.47355935420E+03 -0.10164417383E+04  0.13683947904E+04  0.17691570229E+04  0.50400001928E-02 0. -1.
       -1    1    3    3    0  502  0.47355935420E+03  0.10164417383E+04  0.26751902276E+03  0.11528133833E+04  0.50400001928E-02 0.  1.
</event>
<event>
 5   0  0.1407158E-05  0.2361274E+04  0.7818609E-02  0.8454146E-01
       -1   -1    0    0    0  501  0.00000000000E+00  0.00000000000E+00  0.10526121526E+04  0.10526121526E+04  0.50400001928E-02 0. -1.
        1   -1    0    0  501    0  0.00000000000E+00  0.00000000000E+00 -0.13242324298E+04  0.13242324299E+04  0.50400001928E-02 0.  1.
    10030    2    1    2    0    0  0.00000000000E+00  0.00000000000E+00 -0.27162027723E+03  0.23768445825E+04  0.23612735111E+04 0.  0.
        1    1    3    3  502    0 -0.74100455387E+03  0.90699306884E+03 -0.28571827446E+03  0.12055534448E+04  0.50400001928E-02 0.  1.
       -1    1    3    3    0  502  0.74100455387E+03 -0.90699306884E+03  0.14097997234E+02  0.11712911377E+04  0.50400001928E-02 0. -1.
</event>
<event>
 5   0  0.1506985E-05  0.2271368E+04  0.7818609E-02  0.8489297E-01
       -1   -1    0    0    0  501  0.00000000000E+00  0.00000000000E+00  0.14182145167E+04  0.14182145167E+04  0.50400001928E-02 0. -1.
        1   -1    0    0  501    0  0.00000000000E+00  0.00000000000E+00 -0.90943816889E+03  0.90943816891E+03  0.50400001928E-02 0.  1.
    10030    2    1    2    0    0  0.00000000000E+00  0.00000000000E+00  0.50877634776E+03  0.23276526856E+04  0.22713682336E+04 0.  0.
        3    1    3    3  502    0  0.11226542094E+04  0.16984908893E+01  0.78606161083E+02  0.11254040597E+04  0.10100000352E+00 0.  1.
       -3    1    3    3    0  502 -0.11226542094E+04 -0.16984908893E+01  0.43017018668E+03  0.12022486259E+04  0.10100000352E+00 0. -1.
</event>
<event>
 5   0  0.3345974E-05  0.2391084E+04  0.7818609E-02  0.8442849E-01
        2   -1    0    0  501    0  0.00000000000E+00  0.00000000000E+00  0.15269902076E+04  0.15269902076E+04  0.25500000920E-02 0. -1.
       -2   -1    0    0    0  501  0.00000000000E+00  0.00000000000E+00 -0.93603820967E+03  0.93603820967E+03  0.25500000920E-02 0.  1.
    10030    2    1    2    0    0  0.00000000000E+00  0.00000000000E+00  0.59095199789E+03  0.24630284172E+04  0.23910844235E+04 0.  0.
        4    1    3    3  502    0  0.93792606099E+03  0.19536445998E+03  0.10321491294E+04  0.14082634719E+04  0.12699999809E+01 0. -1.
       -4    1    3    3    0  502 -0.93792606099E+03 -0.19536445998E+03 -0.44119713151E+03  0.10547649453E+04  0.12699999809E+01 0.  1.
</event>
<event>
 5   0  0.3215208E-05  0.2410637E+04  0.7818609E-02  0.8435532E-01
        2   -1    0    0  501    0  0.00000000000E+00  0.00000000000E+00  0.13852080817E+04  0.13852080817E+04  0.25500000920E-02 0. -1.
       -2   -1    0    0    0  501  0.00000000000E+00  0.00000000000E+00 -0.10487904459E+04  0.10487904459E+04  0.25500000920E-02 0.  1.
    10030    2    1    2    0    0  0.00000000000E+00  0.00000000000E+00  0.33641763581E+03  0.24339985275E+04  0.24106372615E+04 0.  0.
        1    1    3    3  502    0  0.65226056792E+03 -0.79692024398E+03 -0.46417316320E+03  0.11295939311E+04  0.50400001928E-02 0.  1.
       -1    1    3    3    0  502 -0.65226056792E+03  0.79692024398E+03  0.80059079901E+03  0.13044045964E+04  0.50400001928E-02 0. -1.
</event>
<event>
 5   0  0.1147362E-05  0.2449511E+04  0.7818609E-02  0.8421196E-01
        4   -1    0    0  501    0  0.00000000000E+00  0.00000000000E+00  0.13324304016E+04  0.13324310069E+04  0.12699999809E+01 0.  1.
       -4   -1    0    0    0  501  0.00000000000E+00  0.00000000000E+00 -0.11257810457E+04  0.11257817621E+04  0.12699999809E+01 0. -1.
    10030    2    1    2    0    0  0.00000000000E+00  0.00000000000E+00  0.20664935591E+03  0.24582127690E+04  0.24495113923E+04 0.  0.
        2    1    3    3  502    0  0.33850184860E+03  0.56537704735E+03  0.11393638962E+04  0.13162008947E+04  0.25500000920E-02 0.  1.
       -2    1    3    3    0  502 -0.33850184860E+03 -0.56537704735E+03 -0.93271454033E+03  0.11420118743E+04  0.25500000920E-02 0. -1.
</event>
<event>
 5   0  0.1401596E-05  0.2372807E+04  0.7818609E-02  0.8449755E-01
        1   -1    0    0  501    0  0.00000000000E+00  0.00000000000E+00  0.11299866546E+04  0.11299866546E+04  0.50400001928E-02 0.  1.
       -1   -1    0    0    0  501  0.00000000000E+00  0.00000000000E+00 -0.12456373595E+04  0.12456373595E+04  0.50400001928E-02 0. -1.
    10030    2    1    2    0    0  0.00000000000E+00  0.00000000000E+00 -0.11565070492E+03  0.23756240141E+04  0.23728072764E+04 0.  0.
        2    1    3    3  502    0 -0.10824069154E+04  0.74224055052E+02 -0.53843650731E+03  0.12112092359E+04  0.25500000920E-02 0.  1.
       -2    1    3    3    0  502  0.10824069154E+04 -0.74224055052E+02  0.42278580239E+03  0.11644147781E+04  0.25500000920E-02 0. -1.
</event>
<event>
 5   0  0.1147362E-05  0.2396942E+04  0.7818609E-02  0.8440649E-01
        3   -1    0    0  501    0  0.00000000000E+00  0.00000000000E+00  0.10273057794E+04  0.10273057844E+04  0.10100000352E+00 0. -1.
       -3   -1    0    0    0  501  0.00000000000E+00  0.00000000000E+00 -0.13981547790E+04  0.13981547826E+04  0.10100000352E+00 0.  1.
    10030    2    1    2    0    0  0.00000000000E+00  0.00000000000E+00 -0.37084899957E+03  0.24254605670E+04  0.23969417977E+04 0.  0.
        2    1    3    3  502    0  0.88180954531E+03  0.39561470354E+03 -0.90254070573E+03  0.13223761921E+04  0.25500000920E-02 0.  1.
       -2    1    3    3    0  502 -0.88180954531E+03 -0.39561470354E+03  0.53169170616E+03  0.11030843750E+04  0.25500000920E-02 0. -1.
</event>
<event>
 5   0  0.3345974E-05  0.2385839E+04  0.7818609E-02  0.8444824E-01
        2   -1    0    0  501    0  0.00000000000E+00  0.00000000000E+00  0.73460939246E+03  0.73460939246E+03  0.25500000920E-02 0.  1.
       -2   -1    0    0    0  501  0.00000000000E+00  0.00000000000E+00 -0.19371606873E+04  0.19371606873E+04  0.25500000920E-02 0. -1.
    10030    2    1    2    0    0  0.00000000000E+00  0.00000000000E+00 -0.12025512948E+04  0.26717700797E+04  0.23858385826E+04 0.  0.
        4    1    3    3  502    0  0.15942705850E+03 -0.84468027522E+03  0.32498809427E+03  0.91897803491E+03  0.12699999809E+01 0.  1.
       -4    1    3    3    0  502 -0.15942705850E+03  0.84468027522E+03 -0.15275393891E+04  0.17527920448E+04  0.12699999809E+01 0. -1.
</event>
<event>
 5   0  0.1506985E-05  0.2400540E+04  0.7818609E-02  0.8439301E-01
       -1   -1    0    0    0  501  0.00000000000E+00  0.00000000000E+00  0.75798334123E+03  0.75798334125E+03  0.50400001928E-02 0.  1.
        1   -1    0    0  501    0  0.00000000000E+00  0.00000000000E+00 -0.19006332939E+04  0.19006332939E+04  0.50400001928E-02 0. -1.
    10030    2    1    2    0    0  0.00000000000E+00  0.00000000000E+00 -0.11426499526E+04  0.26586166351E+04  0.24005402513E+04 0.  0.
        3    1    3    3  502    0 -0.20095793727E+03  0.92719411597E+03 -0.13856069895E+04  0.16792795362E+04  0.10100000352E+00 0. -1.
       -3    1    3    3    0  502  0.20095793727E+03 -0.92719411597E+03  0.24295703690E+03  0.97933709887E+03  0.10100000352E+00 0.  1.
</event>
<event>
 5   0  0.3345974E-05  0.2383817E+04  0.7818609E-02  0.8445587E-01
       -2   -1    0    0    0  501  0.00000000000E+00  0.00000000000E+00  0.11104058582E+04  0.11104058583E+04  0.25500000920E-02 0.  1.
        2   -1    0    0  501    0  0.00000000000E+00  0.00000000000E+00 -0.12793932081E+04  0.12793932081E+04  0.25500000920E-02 0. -1.
    10030    2    1    2    0    0  0.00000000000E+00  0.00000000000E+00 -0.16898734990E+03  0.23897990664E+04  0.23838168666E+04 0.  0.
        4    1    3    3  502    0  0.60027691166E+03 -0.92827549219E+03 -0.53127600280E+03  0.12264923824E+04  0.12699999809E+01 0. -1.
       -4    1    3    3    0  502 -0.60027691166E+03  0.92827549219E+03  0.36228865291E+03  0.11633066840E+04  0.12699999809E+01 0.  1.
</event>
<event>
 5   0  0.1506985E-05  0.2382872E+04  0.7818609E-02  0.8445944E-01
       -1   -1    0    0    0  501  0.00000000000E+00  0.00000000000E+00  0.12323654398E+04  0.12323654398E+04  0.50400001928E-02 0. -1.
        1   -1    0    0  501    0  0.00000000000E+00  0.00000000000E+00 -0.11518662568E+04  0.11518662568E+04  0.50400001928E-02 0.  1.
    10030    2    1    2    0    0  0.00000000000E+00  0.00000000000E+00  0.80499182964E+02  0.23842316966E+04  0.23828723559E+04 0.  0.
        3    1    3    3  502    0 -0.14151959582E+03  0.59949055451E+03  0.10606859955E+04  0.12265690002E+04  0.10100000352E+00 0. -1.
       -3    1    3    3    0  502  0.14151959582E+03 -0.59949055451E+03 -0.98018681254E+03  0.11576626964E+04  0.10100000352E+00 0.  1.
</event>
<event>
 5   0  0.1407158E-05  0.2305701E+04  0.7818609E-02  0.8475677E-01
        1   -1    0    0  501    0  0.00000000000E+00  0.00000000000E+00  0.14379290392E+04  0.14379290393E+04  0.50400001928E-02 0.  1.
       -1   -1    0    0    0  501  0.00000000000E+00  0.00000000000E+00 -0.92429080027E+03  0.92429080028E+03  0.50400001928E-02 0. -1.
    10030    2    1    2    0    0  0.00000000000E+00  0.00000000000E+00  0.51363823898E+03  0.23622198395E+04  0.23057012664E+04 0.  0.
        1    1    3    3  502    0  0.78656366038E+03  0.17637221472E+03  0.11012033239E+04  0.13647118050E+04  0.50400001928E-02 0.  1.
       -1    1    3    3    0  502 -0.78656366038E+03 -0.17637221472E+03 -0.58756508495E+03  0.99750803457E+03  0.50400001928E-02 0. -1.
</event>
<event>
 5   0  0.3345974E-05  0.2402820E+04  0.7818609E-02  0.8438449E-01
        2   -1    0    0  501    0  0.00000000000E+00  0.00000000000E+00  0.13105221763E+04  0.13105221763E+04  0.25500000920E-02 0.  1.
       -2   -1    0    0    0  501  0.00000000000E+00  0.00000000000E+00 -0.11013820849E+04  0.11013820849E+04  0.25500000920E-02 0. -1.
    10030    2    1    2    0    0  0.00000000000E+00  0.00000000000E+00  0.20914009144E+03  0.24119042612E+04  0.24028197159E+04 0.  0.
        4    1    3    3  502    0  0.17567513740E+03 -0.64982661640E+02  0.12957747387E+04  0.13092434023E+04  0.12699999809E+01 0.  1.
       -4    1    3    3    0  502 -0.17567513740E+03  0.64982661640E+02 -0.10866346472E+04  0.11026608589E+04  0.12699999809E+01 0. -1.
</event>
<event>
 5   0  0.3215208E-05  0.2378152E+04  0.7818609E-02  0.8447729E-01
        2   -1    0    0  501    0  0.00000000000E+00  0.00000000000E+00  0.94916583142E+03  0.94916583142E+03  0.25500000920E-02 0.  1.
       -2   -1    0    0    0  501  0.00000000000E+00  0.00000000000E+00 -0.14896255987E+04  0.14896255987E+04  0.25500000920E-02 0. -1.
    10030    2    1    2    0    0  0.00000000000E+00  0.00000000000E+00 -0.54045976725E+03  0.24387914301E+04  0.23781519883E+04 0.  0.
        1    1    3    3  502    0  0.91791891522E+03 -0.58932576264E+03  0.21514816014E+03  0.11118312463E+04  0.50400001928E-02 0.  1.
       -1    1    3    3    0  502 -0.91791891522E+03  0.58932576264E+03 -0.75560792738E+03  0.13269601838E+04  0.50400001928E-02 0. -1.
</event>
<event>
 5   0  0.3310037E-05  0.2338155E+04  0.7818609E-02  0.8463027E-01
        2   -1    0    0  501    0  0.00000000000E+00  0.00000000000E+00  0.17785385638E+04  0.17785385638E+04  0.25500000920E-02 0.  1.
       -2   -1    0    0    0  501  0.00000000000E+00  0.00000000000E+00 -0.76846377239E+03  0.76846377239E+03  0.25500000920E-02 0. -1.
    10030    2    1    2    0    0  0.00000000000E+00  0.00000000000E+00  0.10100747915E+04  0.25470023362E+04  0.23381552165E+04 0.  0.
        2    1    3    3  502    0  0.22920013204E+03 -0.99916760123E+03  0.11172649162E+04  0.15162946576E+04  0.25500000920E-02 0.  1.
       -2    1    3    3    0  502 -0.22920013204E+03  0.99916760123E+03 -0.10719012471E+03  0.10307076786E+04  0.25500000920E-02 0. -1.
</event>
<event>
 5   0  0.3345974E-05  0.2366335E+04  0.7818609E-02  0.8452216E-01
        2   -1    0    0  501    0  0.00000000000E+00  0.00000000000E+00  0.12458821407E+04  0.12458821407E+04  0.25500000920E-02 0. -1.
       -2   -1    0    0    0  501  0.00000000000E+00  0.00000000000E+00 -0.11236100124E+04  0.11236100125E+04  0.25500000920E-02 0.  1.
    10030    2    1    2    0    0  0.00000000000E+00  0.00000000000E+00  0.12227212825E+03  0.23694921531E+04  0.23663352659E+04 0.  0.
        4    1    3    3  502    0 -0.17737488304E+03 -0.62018652974E+03  0.10543216066E+04  0.12359971051E+04  0.12699999809E+01 0. -1.
       -4    1    3    3    0  502  0.17737488304E+03  0.62018652974E+03 -0.93204947838E+03  0.11334950480E+04  0.12699999809E+01 0.  1.
</event>
<event>
 5   0  0.1407158E-05  0.2442588E+04  0.7818609E-02  0.8423729E-01
       -1   -1    0    0    0  501  0.00000000000E+00  0.00000000000E+00  0.10461934368E+04  0.10461934368E+04  0.50400001928E-02 0.  1.
        1   -1    0    0  501    0  0.00000000000E+00  0.00000000000E+00 -0.14257014019E+04  0.14257014019E+04  0.50400001928E-02 0. -1.
    10030    2    1    2    0    0  0.00000000000E+00  0.00000000000E+00 -0.37950796512E+03  0.24718948387E+04  0.24425883398E+04 0.  0.
        1    1    3    3  502    0  0.25398085070E+03 -0.87528040648E+03 -0.10124887886E+04  0.13622612120E+04  0.50400001928E-02 0. -1.
       -1    1    3    3    0  502 -0.25398085070E+03  0.87528040648E+03  0.63298082353E+03  0.11096336267E+04  0.50400001928E-02 0.  1.
</event>
<event>
 5   0  0.1506985E-05  0.2388662E+04  0.7818609E-02  0.8443760E-01
       -1   -1    0    0    0  501  0.00000000000E+00  0.00000000000E+00  0.91949191054E+03  0.91949191056E+03  0.50400001928E-02 0.  1.
        1   -1    0    0  501    0  0.00000000000E+00  0.00000000000E+00 -0.15513209049E+04  0.15513209050E+04  0.50400001928E-02 0. -1.
    10030    2    1    2    0    0  0.00000000000E+00  0.00000000000E+00 -0.63182899440E+03  0.24708128155E+04  0.23886624063E+04 0.  0.
        3    1    3    3  502    0 -0.77339340089E+02 -0.82650944600E+03  0.57229490818E+03  0.10082761080E+04  0.10100000352E+00 0.  1.
       -3    1    3    3    0  502  0.77339340089E+02  0.82650944600E+03 -0.12041239026E+04  0.14625367075E+04  0.10100000352E+00 0. -1.
</event>
<event>
 5   0  0.3310037E-05  0.2375065E+04  0.7818609E-02  0.8448898E-01
        2   -1    0    0  501    0  0.00000000000E+00  0.00000000000E+00  0.21459242921E+04  0.21459242921E+04  0.25500000920E-02 0. -1.
       -2   -1    0    0    0  501  0.00000000000E+00  0.00000000000E+00 -0.65716847559E+03  0.65716847559E+03  0.25500000920E-02 0.  1.
    10030    2    1    2    0    0  0.00000000000E+00  0.00000000000E+00  0.14887558165E+04  0.28030927676E+04  0.23750653008E+04 0.  0.
        2    1    3    3  502    0 -0.51095961663E+03 -0.44138554361E+03  0.18973315803E+04  0.20138937543E+04  0.25500000920E-02 0. -1.
       -2    1    3    3    0  502  0.51095961663E+03  0.44138554361E+03 -0.40857576382E+03  0.78919901338E+03  0.25500000920E-02 0.  1.
</event>
<event>
 5   0  0.1401596E-05  0.2430316E+04  0.7818609E-02  0.8428240E-01
        1   -1    0    0  501    0  0.00000000000E+00  0.00000000000E+00  0.18529985486E+04  0.18529985486E+04  0.50400001928E-02 0. -1.
       -1   -1    0    0    0  501  0.00000000000E+00  0.00000000000E+00 -0.79687566353E+03  0.79687566355E+03  0.50400001928E-02 0.  1.
    10030    2    1    2    0    0  0.00000000000E+00  0.00000000000E+00  0.10561228851E+04  0.26498742122E+04  0.24303163975E+04 0.  0.
        2    1    3    3  502    0 -0.90045723706E+03 -0.71402323885E+03  0.95865240954E+03  0.14965516576E+04  0.25500000920E-02 0. -1.
       -2    1    3    3    0  502  0.90045723706E+03  0.71402323885E+03  0.97470475552E+02  0.11533225546E+04  0.25500000920E-02 0.  1.
</event>
<event>
 5   0  0.1393026E-05  0.2326261E+04  0.7818609E-02  0.8467638E-01
       -1   -1    0    0    0  501  0.00000000000E+00  0.00000000000E+00  0.86701884876E+03  0.86701884878E+03  0.50400001928E-02 0. -1.
        1   -1    0    0  501    0  0.00000000000E+00  0.00000000000E+00 -0.15603728292E+04  0.15603728292E+04  0.50400001928E-02 0.  1.
    10030    2    1    2    0    0  0.00000000000E+00  0.00000000000E+00 -0.69335398042E+03  0.24273916780E+04  0.23262610808E+04 0.  0.
        4    1    3    3  502    0  0.15673067810E+03  0.26719767512E+03  0.82318284181E+03  0.87954005423E+03  0.12699999809E+01 0. -1.
       -4    1    3    3    0  502 -0.15673067810E+03 -0.26719767512E+03 -0.15165368222E+04  0.15478516237E+04  0.12699999809E+01 0.  1.
</event>
<event>
 5   0  0.1393026E-05  0.2417760E+04  0.7818609E-02  0.8432884E-01
       -1   -1    0    0    0  501  0.00000000000E+00  0.00000000000E+00  0.65690978492E+03  0.65690978494E+03  0.50400001928E-02 0. -1.
        1   -1    0    0  501    0  0.00000000000E+00  0.00000000000E+00 -0.22246439433E+04  0.22246439433E+04  0.50400001928E-02 0.  1.
    10030    2    1    2    0    0  0.00000000000E+00  0.00000000000E+00 -0.15677341583E+04  0.28815537282E+04  0.24177596029E+04 0.  0.
        4    1    3    3  502    0 -0.82754676035E+03 -0.34826200193E+03 -0.17486360258E+04  0.19656677303E+04  0.12699999809E+01 0.  1.
       -4    1    3    3    0  502  0.82754676035E+03  0.34826200193E+03  0.18090186743E+03  0.91588599787E+03  0.12699999809E+01 0. -1.
</event>
<event>
 5   0  0.3310037E-05  0.2406030E+04  0.7818609E-02  0.8437250E-01
        2   -1    0    0  501    0  0.00000000000E+00  0.00000000000E+00  0.13746928351E+04  0.13746928351E+04  0.25500000920E-02 0. -1.
       -2   -1    0    0    0  501  0.00000000000E+00  0.00000000000E+00 -0.10527767106E+04  0.10527767106E+04  0.25500000920E-02 0.  1.
    10030    2    1    2    0    0  0.00000000000E+00  0.00000000000E+00  0.32191612455E+03  0.24274695457E+04  0.24060295934E+04 0.  0.
        2    1    3    3  502    0 -0.49734024549E+03 -0.74987707995E+03  0.96656042030E+03  0.13205688172E+04  0.25500000920E-02 0. -1.
       -2    1    3    3    0  502  0.49734024549E+03  0.74987707995E+03 -0.64464429575E+03  0.11069007285E+04  0.25500000920E-02 0.  1.
</event>
<event>
 5   0  0.1407158E-05  0.2488975E+04  0.7818609E-02  0.8406924E-01
        1   -1    0    0  501    0  0.00000000000E+00  0.00000000000E+00  0.19158675284E+04  0.19158675284E+04  0.50400001928E-02 0. -1.
       -1   -1    0    0    0  501  0.00000000000E+00  0.00000000000E+00 -0.80838036671E+03  0.80838036672E+03  0.50400001928E-02 0.  1.
    10030    2    1    2    0    0  0.00000000000E+00  0.00000000000E+00  0.11074871617E+04  0.27242478951E+04  0.24889754480E+04 0.  0.
        1    1    3    3  502    0 -0.21645803034E+03 -0.36153876064E+03  0.18354073046E+04  0.18831580730E+04  0.50400001928E-02 0. -1.
       -1    1    3    3    0  502  0.21645803034E+03  0.36153876064E+03 -0.72792014290E+03  0.84108982208E+03  0.50400001928E-02 0.  1.
</event>
<event>
 5   0  0.3310037E-05  0.2404927E+04  0.7818609E-02  0.8437661E-01
       -2   -1    0    0    0  501  0.00000000000E+00  0.00000000000E+00  0.12602722704E+04  0.12602722704E+04  0.25500000920E-02 0.  1.
        2   -1    0    0  501    0  0.00000000000E+00  0.00000000000E+00 -0.11473060751E+04  0.11473060751E+04  0.25500000920E-02 0. -1.
    10030    2    1    2    0    0  0.00000000000E+00  0.00000000000E+00  0.11296619521E+03  0.24075783455E+04  0.24049266368E+04 0.  0.
        2    1    3    3  502    0  0.61831994888E+02 -0.31426479138E+03  0.12167832606E+04  0.12582317187E+04  0.25500000920E-02 0.  1.
       -2    1    3    3    0  502 -0.61831994888E+02  0.31426479138E+03 -0.11038170654E+04  0.11493466268E+04  0.25500000920E-02 0. -1.
</event>
<event>
 5   0  0.3310037E-05  0.2401216E+04  0.7818609E-02  0.8439049E-01
       -2   -1    0    0    0  501  0.00000000000E+00  0.00000000000E+00  0.89857354417E+03  0.89857354417E+03  0.25500000920E-02 0.  1.
        2   -1    0    0  501    0  0.00000000000E+00  0.00000000000E+00 -0.16041636787E+04  0.16041636787E+04  0.25500000920E-02 0. -1.
    10030    2    1    2    0    0  0.00000000000E+00  0.00000000000E+00 -0.70559013457E+03  0.25027372229E+04  0.24012155607E+04 0.  0.
        2    1    3    3  502    0  0.11803091397E+04  0.26777669171E+01 -0.58191215589E+03  0.13159629907E+04  0.25500000920E-02 0. -1.
       -2    1    3    3    0  502 -0.11803091397E+04 -0.26777669171E+01 -0.12367797868E+03  0.11867742322E+04  0.25500000920E-02 0.  1.
</event>
<event>
 5   0  0.3310037E-05  0.2403552E+04  0.7818609E-02  0.8438175E-01
        2   -1    0    0  501    0  0.00000000000E+00  0.00000000000E+00  0.14546954817E+04  0.14546954817E+04  0.25500000920E-02 0.  1.
       -2   -1    0    0    0  501  0.00000000000E+00  0.00000000000E+00 -0.99282975162E+03  0.99282975162E+03  0.25500000920E-02 0. -1.
    10030    2    1    2    0    0  0.00000000000E+00  0.00000000000E+00  0.46186573004E+03  0.24475252333E+04  0.24035515004E+04 0.  0.
        2    1    3    3  502    0  0.11563968393E+04 -0.32686880091E+03  0.24413504602E+03  0.12262539638E+04  0.25500000920E-02 0.  1.
       -2    1    3    3    0  502 -0.11563968393E+04  0.32686880091E+03  0.21773068402E+03  0.12212712695E+04  0.25500000920E-02 0. -1.
</event>
<event>
 5   0  0.3215208E-05  0.2374034E+04  0.7818609E-02  0.8449289E-01
       -2   -1    0    0    0  501  0.00000000000E+00  0.00000000000E+00  0.90601166465E+03  0.90601166466E+03  0.25500000920E-02 0.  1.
        2   -1    0    0  501    0  0.00000000000E+00  0.00000000000E+00 -0.15551785517E+04  0.15551785517E+04  0.25500000920E-02 0. -1.
    10030    2    1    2    0    0  0.00000000000E+00  0.00000000000E+00 -0.64916688701E+03  0.24611902163E+04  0.23740344635E+04 0.  0.
        1    1    3    3  502    0  0.64382492630E+03  0.43906759984E+03 -0.12528426238E+04  0.14754340151E+04  0.50400001928E-02 0. -1.
       -1    1    3    3    0  502 -0.64382492630E+03 -0.43906759984E+03  0.60367573681E+03  0.98575620119E+03  0.50400001928E-02 0.  1.
</event>
<event>
 5   0  0.1401596E-05  0.2410170E+04  0.7818609E-02  0.8435706E-01
       -1   -1    0    0    0  501  0.00000000000E+00  0.00000000000E+00  0.99848798606E+03  0.99848798607E+03  0.50400001928E-02 0.  1.
        1   -1    0    0  501    0  0.00000000000E+00  0.00000000000E+00 -0.14544284672E+04  0.14544284673E+04  0.50400001928E-02 0. -1.
    10030    2    1    2    0    0  0.00000000000E+00  0.00000000000E+00 -0.45594048118E+03  0.24529164533E+04  0.24101695801E+04 0.  0.
        2    1    3    3  502    0  0.16102422443E+03  0.25349575971E+03 -0.14157342414E+04  0.14472361049E+04  0.25500000920E-02 0. -1.
       -2    1    3    3    0  502 -0.16102422443E+03 -0.25349575971E+03  0.95979376022E+03  0.10056803484E+04  0.25500000920E-02 0.  1.
</event>
<event>
 5   0  0.3345974E-05  0.2389522E+04  0.7818609E-02  0.8443437E-01
        2   -1    0    0  501    0  0.00000000000E+00  0.00000000000E+00  0.13465766752E+04  0.13465766752E+04  0.25500000920E-02 0.  1.
       -2   -1    0    0    0  501  0.00000000000E+00  0.00000000000E+00 -0.10600614136E+04  0.10600614136E+04  0.25500000920E-02 0. -1.
    10030    2    1    2    0    0  0.00000000000E+00  0.00000000000E+00  0.28651526158E+03  0.24066380888E+04  0.23895221061E+04 0.  0.
        4    1    3    3  502    0 -0.65723187345E+03 -0.29069397528E+03  0.11045552838E+04  0.13177635260E+04  0.12699999809E+01 0.  1.
       -4    1    3    3    0  502  0.65723187345E+03  0.29069397528E+03 -0.81804002218E+03  0.10888745628E+04  0.12699999809E+01 0. -1.
</event>
<event>
 5   0  0.3320780E-05  0.2459552E+04  0.7818609E-02  0.8417539E-01
        2   -1    0    0  501    0  0.00000000000E+00  0.00000000000E+00  0.11707963688E+04  0.11707963688E+04  0.25500000920E-02 0. -1.
       -2   -1    0    0    0  501  0.00000000000E+00  0.00000000000E+00 -0.12917262446E+04  0.12917262446E+04  0.25500000920E-02 0.  1.
    10030    2    1    2    0    0  0.00000000000E+00  0.00000000000E+00 -0.12092987589E+03  0.24625226134E+04  0.24595515011E+04 0.  0.
        5    1    3    3  502    0 -0.49565150623E+03 -0.24445416877E+03 -0.11603811401E+04  0.12852761324E+04  0.46999998093E+01 0.  1.
       -5    1    3    3    0  502  0.49565150623E+03  0.24445416877E+03  0.10394512642E+04  0.11772464810E+04  0.46999998093E+01 0. -1.
</event>
<event>
 5   0  0.1506985E-05  0.2427634E+04  0.7818609E-02  0.8429230E-01
        1   -1    0    0  501    0  0.00000000000E+00  0.00000000000E+00  0.21270202652E+04  0.21270202652E+04  0.50400001928E-02 0.  1.
       -1   -1    0    0    0  501  0.00000000000E+00  0.00000000000E+00 -0.69268340320E+03  0.69268340321E+03  0.50400001928E-02 0. -1.
    10030    2    1    2    0    0  0.00000000000E+00  0.00000000000E+00  0.14343368620E+04  0.28197036684E+04  0.24276339395E+04 0.  0.
        3    1    3    3  502    0 -0.87394068626E+03 -0.82801702551E+03  0.89698432934E+03  0.15013212231E+04  0.10100000352E+00 0. -1.
       -3    1    3    3    0  502  0.87394068626E+03  0.82801702551E+03  0.53735253269E+03  0.13183824454E+04  0.10100000352E+00 0.  1.
</event>
<event>
 5   0  0.3320780E-05  0.2389937E+04  0.7818609E-02  0.8443281E-01
        2   -1    0    0  501    0  0.00000000000E+00  0.00000000000E+00  0.20436376822E+04  0.20436376822E+04  0.25500000920E-02 0. -1.
       -2   -1    0    0    0  501  0.00000000000E+00  0.00000000000E+00 -0.69872953800E+03  0.69872953801E+03  0.25500000920E-02 0.  1.
    10030    2    1    2    0    0  0.00000000000E+00  0.00000000000E+00  0.13449081442E+04  0.27423672202E+04  0.23899372490E+04 0.  0.
        5    1    3    3  502    0 -0.10062672521E+04  0.62999417675E+03  0.82836348852E+03  0.14476445021E+04  0.46999998093E+01 0. -1.
       -5    1    3    3    0  502  0.10062672521E+04 -0.62999417675E+03  0.51654465563E+03  0.12947227181E+04  0.46999998093E+01 0.  1.
</event>
<event>
 5   0  0.1434943E-05  0.2398574E+04  0.7818609E-02  0.8440037E-01
        1   -1    0    0  501    0  0.00000000000E+00  0.00000000000E+00  0.98166748387E+03  0.98166748388E+03  0.50400001928E-02 0. -1.
       -1   -1    0    0    0  501  0.00000000000E+00  0.00000000000E+00 -0.14651497448E+04  0.14651497448E+04  0.50400001928E-02 0.  1.
    10030    2    1    2    0    0  0.00000000000E+00  0.00000000000E+00 -0.48348226090E+03  0.24468172287E+04  0.23985744629E+04 0.  0.
        5    1    3    3  502    0  0.55042420641E+03 -0.54111975865E+03 -0.11780751394E+04  0.14084248380E+04  0.46999998093E+01 0.  1.
       -5    1    3    3    0  502 -0.55042420641E+03  0.54111975865E+03  0.69459287848E+03  0.10383923907E+04  0.46999998093E+01 0. -1.
</event>
<event>
 5   0  0.3320780E-05  0.2298239E+04  0.7818609E-02  0.8478616E-01
        2   -1    0    0  501    0  0.00000000000E+00  0.00000000000E+00  0.17785549190E+04  0.17785549190E+04  0.25500000920E-02 0.  1.
       -2   -1    0    0    0  501  0.00000000000E+00  0.00000000000E+00 -0.74244317444E+03  0.74244317445E+03  0.25500000920E-02 0. -1.
    10030    2    1    2    0    0  0.00000000000E+00  0.00000000000E+00  0.10361117445E+04  0.25209980934E+04  0.22982392913E+04 0.  0.
        5    1    3    3  502    0  0.94646147895E+03  0.64828962039E+03  0.44541728876E+03  0.12306451211E+04  0.46999998093E+01 0. -1.
       -5    1    3    3    0  502 -0.94646147895E+03 -0.64828962039E+03  0.59069445577E+03  0.12903529723E+04  0.46999998093E+01 0.  1.
</event>
<event>
 5   0  0.3310037E-05  0.2246429E+04  0.7818609E-02  0.8499348E-01
        2   -1    0    0  501    0  0.00000000000E+00  0.00000000000E+00  0.13572249326E+04  0.13572249326E+04  0.25500000920E-02 0. -1.
       -2   -1    0    0    0  501  0.00000000000E+00  0.00000000000E+00 -0.92955156972E+03  0.92955156972E+03  0.25500000920E-02 0.  1.
    10030    2    1    2    0    0  0.00000000000E+00  0.00000000000E+00  0.42767336285E+03  0.22867765023E+04  0.22464287806E+04 0.  0.
        2    1    3    3  502    0  0.10048600691E+04 -0.33708731138E+03 -0.16464623691E+03  0.10726043060E+04  0.25500000920E-02 0.  1.
       -2    1    3    3    0  502 -0.10048600691E+04  0.33708731138E+03  0.59231959976E+03  0.12141721963E+04  0.25500000920E-02 0. -1.
</event>
<event>
 5   0  0.1407158E-05  0.2368179E+04  0.7818609E-02  0.8451514E-01
       -1   -1    0    0    0  501  0.00000000000E+00  0.00000000000E+00  0.25081192603E+04  0.25081192603E+04  0.50400001928E-02 0.  1.
        1   -1    0    0  501    0  0.00000000000E+00  0.00000000000E+00 -0.55901186166E+03  0.55901186168E+03  0.50400001928E-02 0. -1.
    10030    2    1    2    0    0  0.00000000000E+00  0.00000000000E+00  0.19491073986E+04  0.30671311220E+04  0.23681793994E+04 0.  0.
        1    1    3    3  502    0  0.57993307150E+03 -0.51698363212E+03 -0.18275209167E+03  0.79811826839E+03  0.50400001928E-02 0. -1.
       -1    1    3    3    0  502 -0.57993307150E+03  0.51698363212E+03  0.21318594903E+04  0.22690128536E+04  0.50400001928E-02 0.  1.
</event>
<event>
 5   0  0.1506985E-05  0.2363614E+04  0.7818609E-02  0.8453253E-01
        1   -1    0    0  501    0  0.00000000000E+00  0.00000000000E+00  0.78634355466E+03  0.78634355468E+03  0.50400001928E-02 0.  1.
       -1   -1    0    0    0  501  0.00000000000E+00  0.00000000000E+00 -0.17761546758E+04  0.17761546758E+04  0.50400001928E-02 0. -1.
    10030    2    1    2    0    0  0.00000000000E+00  0.00000000000E+00 -0.98981112112E+03  0.25624982305E+04  0.23636139968E+04 0.  0.
        3    1    3    3  502    0  0.11255833995E+04 -0.10656963111E+03 -0.86790896002E+03  0.14253284003E+04  0.10100000352E+00 0.  1.
       -3    1    3    3    0  502 -0.11255833995E+04  0.10656963111E+03 -0.12190216110E+03  0.11371698302E+04  0.10100000352E+00 0. -1.
</event>
<event>
 5   0  0.3345974E-05  0.2428957E+04  0.7818609E-02  0.8428741E-01
       -2   -1    0    0    0  501  0.00000000000E+00  0.00000000000E+00  0.12424594202E+04  0.12424594202E+04  0.25500000920E-02 0.  1.
        2   -1    0    0  501    0  0.00000000000E+00  0.00000000000E+00 -0.11871279679E+04  0.11871279679E+04  0.25500000920E-02 0. -1.
    10030    2    1    2    0    0  0.00000000000E+00  0.00000000000E+00  0.55331452253E+02  0.24295873881E+04  0.24289572468E+04 0.  0.
        4    1    3    3  502    0  0.74577109833E+03  0.91249535877E+03  0.32122849649E+03  0.12214792961E+04  0.12699999809E+01 0.  1.
       -4    1    3    3    0  502 -0.74577109833E+03 -0.91249535877E+03 -0.26589704424E+03  0.12081080920E+04  0.12699999809E+01 0. -1.
</event>
<event>
 5   0  0.3345974E-05  0.2324961E+04  0.7818609E-02  0.8468144E-01
        2   -1    0    0  501    0  0.00000000000E+00  0.00000000000E+00  0.29154182470E+04  0.29154182470E+04  0.25500000920E-02 0.  1.
       -2   -1    0    0    0  501  0.00000000000E+00  0.00000000000E+00 -0.46352231710E+03  0.46352231711E+03  0.25500000920E-02 0. -1.
    10030    2    1    2    0    0  0.00000000000E+00  0.00000000000E+00  0.24518959299E+04  0.33789405642E+04  0.23249614373E+04 0.  0.
        4    1    3    3  502    0 -0.15155828424E+02  0.96161968864E+03  0.27691258766E+03  0.10008118299E+04  0.12699999809E+01 0. -1.
       -4    1    3    3    0  502  0.15155828424E+02 -0.96161968864E+03  0.21749833423E+04  0.23781287343E+04  0.12699999809E+01 0.  1.
</event>
<event>
 5   0  0.3215208E-05  0.2404952E+04  0.7818609E-02  0.8437652E-01
       -2   -1    0    0    0  501  0.00000000000E+00  0.00000000000E+00  0.72347165980E+03  0.72347165980E+03  0.25500000920E-02 0.  1.
        2   -1    0    0  501    0  0.00000000000E+00  0.00000000000E+00 -0.19986244739E+04  0.19986244739E+04  0.25500000920E-02 0. -1.
    10030    2    1    2    0    0  0.00000000000E+00  0.00000000000E+00 -0.12751528141E+04  0.27220961337E+04  0.24049516963E+04 0.  0.
        1    1    3    3  502    0  0.33400891556E+03  0.10707299391E+04 -0.11282444471E+04  0.15908991453E+04  0.50400001928E-02 0. -1.
       -1    1    3    3    0  502 -0.33400891556E+03 -0.10707299391E+04 -0.14690836699E+03  0.11311969884E+04  0.50400001928E-02 0.  1.
</event>
<event>
 5   0  0.3320780E-05  0.2431239E+04  0.7818609E-02  0.8427900E-01
        2   -1    0    0  501    0  0.00000000000E+00  0.00000000000E+00  0.14953785284E+04  0.14953785284E+04  0.25500000920E-02 0.  1.
       -2   -1    0    0    0  501  0.00000000000E+00  0.00000000000E+00 -0.98819841735E+03  0.98819841736E+03  0.25500000920E-02 0. -1.
    10030    2    1    2    0    0  0.00000000000E+00  0.00000000000E+00  0.50718011103E+03  0.24835769457E+04  0.24312389394E+04 0.  0.
        5    1    3    3  502    0 -0.14054833653E+03 -0.52896191607E+03  0.13623844438E+04  0.14682193318E+04  0.46999998093E+01 0.  1.
       -5    1    3    3    0  502  0.14054833653E+03  0.52896191607E+03 -0.85520433273E+03  0.10153576140E+04  0.46999998093E+01 0. -1.
</event>
<event>
 5   0  0.1506985E-05  0.2404572E+04  0.7818609E-02  0.8437794E-01
        1   -1    0    0  501    0  0.00000000000E+00  0.00000000000E+00  0.16499102397E+04  0.16499102397E+04  0.50400001928E-02 0.  1.
       -1   -1    0    0    0  501  0.00000000000E+00  0.00000000000E+00 -0.87610338189E+03  0.87610338191E+03  0.50400001928E-02 0. -1.
    10030    2    1    2    0    0  0.00000000000E+00  0.00000000000E+00  0.77380685778E+03  0.25260136216E+04  0.24045722620E+04 0.  0.
        3    1    3    3  502    0 -0.18339475037E+03 -0.89323924193E+03  0.12100471279E+04  0.15151646906E+04  0.10100000352E+00 0.  1.
       -3    1    3    3    0  502  0.18339475037E+03  0.89323924193E+03 -0.43624027010E+03  0.10108489310E+04  0.10100000352E+00 0. -1.
</event>
<event>
 5   0  0.1407158E-05  0.2432943E+04  0.7818609E-02  0.8427272E-01
        1   -1    0    0  501    0  0.00000000000E+00  0.00000000000E+00  0.95996791587E+03  0.95996791589E+03  0.50400001928E-02 0. -1.
       -1   -1    0    0    0  501  0.00000000000E+00  0.00000000000E+00 -0.15415123014E+04  0.15415123014E+04  0.50400001928E-02 0.  1.
    10030    2    1    2    0    0  0.00000000000E+00  0.00000000000E+00 -0.58154438555E+03  0.25014802173E+04  0.24329425405E+04 0.  0.
        1    1    3    3  502    0 -0.40824495599E+03 -0.77399846925E+03  0.57805624189E+03  0.10487547823E+04  0.50400001928E-02 0. -1.
       -1    1    3    3    0  502  0.40824495599E+03  0.77399846925E+03 -0.11596006274E+04  0.14527254351E+04  0.50400001928E-02 0.  1.
</event>
<event>
 5   0  0.3310037E-05  0.2400034E+04  0.7818609E-02  0.8439491E-01
        2   -1    0    0  501    0  0.00000000000E+00  0.00000000000E+00  0.18422532243E+04  0.18422532243E+04  0.25500000920E-02 0. -1.
       -2   -1    0    0    0  501  0.00000000000E+00  0.00000000000E+00 -0.78167358301E+03  0.78167358302E+03  0.25500000920E-02 0.  1.
    10030    2    1    2    0    0  0.00000000000E+00  0.00000000000E+00  0.10605796413E+04  0.26239268074E+04  0.24000338987E+04 0.  0.
        2    1    3    3  502    0 -0.64318354404E+03 -0.49742244067E+02 -0.57597512172E+03  0.86481599373E+03  0.25500000920E-02 0.  1.
       -2    1    3    3    0  502  0.64318354404E+03  0.49742244067E+02  0.16365547630E+04  0.17591108136E+04  0.25500000920E-02 0. -1.
</event>
<event>
 5   0  0.1434943E-05  0.2399865E+04  0.7818609E-02  0.8439554E-01
        1   -1    0    0  501    0  0.00000000000E+00  0.00000000000E+00  0.11543472800E+04  0.11543472800E+04  0.50400001928E-02 0. -1.
       -1   -1    0    0    0  501  0.00000000000E+00  0.00000000000E+00 -0.12473177430E+04  0.12473177430E+04  0.50400001928E-02 0.  1.
    10030    2    1    2    0    0  0.00000000000E+00  0.00000000000E+00 -0.92970463055E+02  0.24016650230E+04  0.23998648662E+04 0.  0.
        5    1    3    3  502    0 -0.46941239212E+03 -0.85923701854E+03  0.64770613230E+03  0.11739597828E+04  0.46999998093E+01 0. -1.
       -5    1    3    3    0  502  0.46941239212E+03  0.85923701854E+03 -0.74067659536E+03  0.12277052402E+04  0.46999998093E+01 0.  1.
</event>
<event>
 5   0  0.1407158E-05  0.2413372E+04  0.7818609E-02  0.8434514E-01
       -1   -1    0    0    0  501  0.00000000000E+00  0.00000000000E+00  0.21461511046E+04  0.21461511046E+04  0.50400001928E-02 0.  1.
        1   -1    0    0  501    0  0.00000000000E+00  0.00000000000E+00 -0.67846605729E+03  0.67846605731E+03  0.50400001928E-02 0. -1.
    10030    2    1    2    0    0  0.00000000000E+00  0.00000000000E+00  0.14676850473E+04  0.28246171619E+04  0.24133716484E+04 0.  0.
        1    1    3    3  502    0 -0.10045026530E+04  0.61562187996E+03  0.42847097458E+03  0.12536360137E+04  0.50400001928E-02 0. -1.
       -1    1    3    3    0  502  0.10045026530E+04 -0.61562187996E+03  0.10392140727E+04  0.15709811481E+04  0.50400001928E-02 0.  1.
</event>
<event>
 5   0  0.1401596E-05  0.2426178E+04  0.7818609E-02  0.8429767E-01
       -1   -1    0    0    0  501  0.00000000000E+00  0.00000000000E+00  0.15928973950E+04  0.15928973950E+04  0.50400001928E-02 0. -1.
        1   -1    0    0  501    0  0.00000000000E+00  0.00000000000E+00 -0.92384198852E+03  0.92384198854E+03  0.50400001928E-02 0.  1.
    10030    2    1    2    0    0  0.00000000000E+00  0.00000000000E+00  0.66905540648E+03  0.25167393835E+04  0.24261784740E+04 0.  0.
        2    1    3    3  502    0 -0.16223085553E+03 -0.21660118269E+03  0.15611858080E+04  0.15844671186E+04  0.25500000920E-02 0. -1.
       -2    1    3    3    0  502  0.16223085553E+03  0.21660118269E+03 -0.89213040147E+03  0.93227226499E+03  0.25500000920E-02 0.  1.
</event>
<event>
 5   0  0.3310037E-05  0.2401075E+04  0.7818609E-02  0.8439101E-01
       -2   -1    0    0    0  501  0.00000000000E+00  0.00000000000E+00  0.11041129865E+04  0.11041129865E+04  0.25500000920E-02 0. -1.
        2   -1    0    0  501    0  0.00000000000E+00  0.00000000000E+00 -0.13053831917E+04  0.13053831917E+04  0.25500000920E-02 0.  1.
    10030    2    1    2    0    0  0.00000000000E+00  0.00000000000E+00 -0.20127020515E+03  0.24094961782E+04  0.24010752044E+04 0.  0.
        2    1    3    3  502    0 -0.10165307738E+04  0.50342496108E+03  0.29383261196E+03  0.11717973841E+04  0.25500000920E-02 0.  1.
       -2    1    3    3    0  502  0.10165307738E+04 -0.50342496108E+03 -0.49510281711E+03  0.12376987941E+04  0.25500000920E-02 0. -1.
</event>
<event>
 5   0  0.3347728E-05  0.2384676E+04  0.7818609E-02  0.8445263E-01
       -2   -1    0    0    0  501  0.00000000000E+00  0.00000000000E+00  0.11904473855E+04  0.11904473855E+04  0.25500000920E-02 0. -1.
        2   -1    0    0  501    0  0.00000000000E+00  0.00000000000E+00 -0.11942314780E+04  0.11942314780E+04  0.25500000920E-02 0.  1.
    10030    2    1    2    0    0  0.00000000000E+00  0.00000000000E+00 -0.37840924774E+01  0.23846788634E+04  0.23846758611E+04 0.  0.
        3    1    3    3  502    0  0.17858382574E+03  0.63444481206E+03 -0.99550153391E+03  0.11939161263E+04  0.10100000352E+00 0.  1.
       -3    1    3    3    0  502 -0.17858382574E+03 -0.63444481206E+03  0.99171744143E+03  0.11907627372E+04  0.10100000352E+00 0. -1.
</event>
<event>
 5   0  0.1434943E-05  0.2402174E+04  0.7818609E-02  0.8438690E-01
       -1   -1    0    0    0  501  0.00000000000E+00  0.00000000000E+00  0.10577369675E+04  0.10577369675E+04  0.50400001928E-02 0. -1.
        1   -1    0    0  501    0  0.00000000000E+00  0.00000000000E+00 -0.13638640971E+04  0.13638640971E+04  0.50400001928E-02 0.  1.
    10030    2    1    2    0    0  0.00000000000E+00  0.00000000000E+00 -0.30612712957E+03  0.24216010646E+04  0.24021735776E+04 0.  0.
        5    1    3    3  502    0 -0.45877859257E+03 -0.10360762654E+04 -0.55460083365E+03  0.12615609376E+04  0.46999998093E+01 0.  1.
       -5    1    3    3    0  502  0.45877859257E+03  0.10360762654E+04  0.24847370408E+03  0.11600401270E+04  0.46999998093E+01 0. -1.
</event>
<event>
 5   0  0.1407158E-05  0.2393379E+04  0.7818609E-02  0.8441986E-01
        1   -1    0    0  501    0  0.00000000000E+00  0.00000000000E+00  0.15338111816E+04  0.15338111816E+04  0.50400001928E-02 0. -1.
       -1   -1    0    0    0  501  0.00000000000E+00  0.00000000000E+00 -0.93366510355E+03  0.93366510356E+03  0.50400001928E-02 0.  1.
    10030    2    1    2    0    0  0.00000000000E+00  0.00000000000E+00  0.60014607807E+03  0.24674762852E+04  0.23933791808E+04 0.  0.
        1    1    3    3  502    0 -0.50649741902E+03 -0.10561198556E+04  0.55289398233E+03  0.12952299180E+04  0.50400001928E-02 0. -1.
       -1    1    3    3    0  502  0.50649741902E+03  0.10561198556E+04  0.47252095741E+02  0.11722463672E+04  0.50400001928E-02 0.  1.
</event>
<event>
 5   0  0.1506985E-05  0.2407960E+04  0.7818609E-02  0.8436529E-01
       -1   -1    0    0    0  501  0.00000000000E+00  0.00000000000E+00  0.67953408786E+03  0.67953408788E+03  0.50400001928E-02 0. -1.
        1   -1    0    0  501    0  0.00000000000E+00  0.00000000000E+00 -0.21331793811E+04  0.21331793812E+04  0.50400001928E-02 0.  1.
    10030    2    1    2    0    0  0.00000000000E+00  0.00000000000E+00 -0.14536452933E+04  0.28127134690E+04  0.24079602198E+04 0.  0.
        3    1    3    3  502    0  0.71204204278E+03  0.22288673712E+03 -0.18305813094E+04  0.19767929353E+04  0.10100000352E+00 0.  1.
       -3    1    3    3    0  502 -0.71204204278E+03 -0.22288673712E+03  0.37693601616E+03  0.83592053375E+03  0.10100000352E+00 0. -1.
</event>
<event>
 5   0  0.3320780E-05  0.2394393E+04  0.7818609E-02  0.8441606E-01
        2   -1    0    0  501    0  0.00000000000E+00  0.00000000000E+00  0.13905041198E+04  0.13905041198E+04  0.25500000920E-02 0.  1.
       -2   -1    0    0    0  501  0.00000000000E+00  0.00000000000E+00 -0.10307628023E+04  0.10307628023E+04  0.25500000920E-02 0. -1.
    10030    2    1    2    0    0  0.00000000000E+00  0.00000000000E+00  0.35974131758E+03  0.24212669221E+04  0.23943933872E+04 0.  0.
        5    1    3    3  502    0 -0.99708352215E+03  0.91639329758E+02  0.84350185584E+03  0.13092329005E+04  0.46999998093E+01 0.  1.
       -5    1    3    3    0  502  0.99708352215E+03 -0.91639329758E+02 -0.48376053826E+03  0.11120340216E+04  0.46999998093E+01 0. -1.
</event>
<event>
 5   0  0.1147362E-05  0.2101366E+04  0.7818609E-02  0.8560642E-01
        3   -1    0    0  501    0  0.00000000000E+00  0.00000000000E+00  0.93540492361E+03  0.93540492907E+03  0.10100000352E+00 0. -1.
       -3   -1    0    0    0  501  0.00000000000E+00  0.00000000000E+00 -0.11801683118E+04  0.11801683161E+04  0.10100000352E+00 0.  1.
    10030    2    1    2    0    0  0.00000000000E+00  0.00000000000E+00 -0.24476338817E+03  0.21155732452E+04  0.21013664696E+04 0.  0.
        3    1    3    3  502    0 -0.19731778649E+03 -0.85519895053E+03 -0.70389883788E+03  0.11250658372E+04  0.10100000352E+00 0.  1.
       -3    1    3    3    0  502  0.19731778649E+03  0.85519895053E+03  0.45913544972E+03  0.99050740797E+03  0.10100000352E+00 0. -1.
</event>
<event>
 5   0  0.3310037E-05  0.2419472E+04  0.7818609E-02  0.8432249E-01
       -2   -1    0    0    0  501  0.00000000000E+00  0.00000000000E+00  0.15230264709E+04  0.15230264709E+04  0.25500000920E-02 0.  1.
        2   -1    0    0  501    0  0.00000000000E+00  0.00000000000E+00 -0.96089046804E+03  0.96089046805E+03  0.25500000920E-02 0. -1.
    10030    2    1    2    0    0  0.00000000000E+00  0.00000000000E+00  0.56213600289E+03  0.24839169390E+04  0.24194723545E+04 0.  0.
        2    1    3    3  502    0  0.80922560292E+02  0.25180588248E+03  0.14929796935E+04  0.15162265755E+04  0.25500000920E-02 0.  1.
       -2    1    3    3    0  502 -0.80922560292E+02 -0.25180588248E+03 -0.93084369058E+03  0.96769036345E+03  0.25500000920E-02 0. -1.
</event>
<event>
 5   0  0.3310037E-05  0.2445496E+04  0.7818609E-02  0.8422664E-01
        2   -1    0    0  501    0  0.00000000000E+00  0.00000000000E+00  0.24039275957E+04  0.24039275957E+04  0.25500000920E-02 0. -1.
       -2   -1    0    0    0  501  0.00000000000E+00  0.00000000000E+00 -0.62194568377E+03  0.62194568377E+03  0.25500000920E-02 0.  1.
    10030    2    1    2    0    0  0.00000000000E+00  0.00000000000E+00  0.17819819119E+04  0.30258732794E+04  0.24454957716E+04 0.  0.
        2    1    3    3  502    0 -0.71820955410E+03 -0.58466567334E+03  0.18788797699E+04  0.20947190988E+04  0.25500000920E-02 0. -1.
       -2    1    3    3    0  502  0.71820955410E+03  0.58466567334E+03 -0.96897858020E+02  0.93115418061E+03  0.25500000920E-02 0.  1.
</event>
<event>
 5   0  0.3320780E-05  0.2412401E+04  0.7818609E-02  0.8434875E-01
       -2   -1    0    0    0  501  0.00000000000E+00  0.00000000000E+00  0.87741619009E+03  0.87741619010E+03  0.25500000920E-02 0.  1.
        2   -1    0    0  501    0  0.00000000000E+00  0.00000000000E+00 -0.16581860410E+04  0.16581860410E+04  0.25500000920E-02 0. -1.
    10030    2    1    2    0    0  0.00000000000E+00  0.00000000000E+00 -0.78076985093E+03  0.25356022311E+04  0.24124006952E+04 0.  0.
        5    1    3    3  502    0  0.91792772171E+03  0.46106312701E+03  0.27414301847E+03  0.10631777810E+04  0.46999998093E+01 0.  1.
       -5    1    3    3    0  502 -0.91792772171E+03 -0.46106312701E+03 -0.10549128694E+04  0.14724244501E+04  0.46999998093E+01 0. -1.
</event>
<event>
 5   0  0.3215208E-05  0.2397406E+04  0.7818609E-02  0.8440475E-01
        2   -1    0    0  501    0  0.00000000000E+00  0.00000000000E+00  0.85524783147E+03  0.85524783148E+03  0.25500000920E-02 0.  1.
       -2   -1    0    0    0  501  0.00000000000E+00  0.00000000000E+00 -0.16800851784E+04  0.16800851784E+04  0.25500000920E-02 0. -1.
    10030    2    1    2    0    0  0.00000000000E+00  0.00000000000E+00 -0.82483734691E+03  0.25353330099E+04  0.23974062697E+04 0.  0.
        1    1    3    3  502    0  0.39687843245E+03 -0.21163305589E+03  0.76262613728E+03  0.88538108506E+03  0.50400001928E-02 0.  1.
       -1    1    3    3    0  502 -0.39687843245E+03  0.21163305589E+03 -0.15874634842E+04  0.16499519248E+04  0.50400001928E-02 0. -1.
</event>
<event>
 5   0  0.3310037E-05  0.2399587E+04  0.7818609E-02  0.8439658E-01
        2   -1    0    0  501    0  0.00000000000E+00  0.00000000000E+00  0.20311976401E+04  0.20311976401E+04  0.25500000920E-02 0.  1.
       -2   -1    0    0    0  501  0.00000000000E+00  0.00000000000E+00 -0.70869733662E+03  0.70869733662E+03  0.25500000920E-02 0. -1.
    10030    2    1    2    0    0  0.00000000000E+00  0.00000000000E+00  0.13225003035E+04  0.27398949767E+04  0.23995869292E+04 0.  0.
        2    1    3    3  502    0  0.35619322402E+03  0.48888822159E+03 -0.52185278749E+03  0.79888399525E+03  0.25500000920E-02 0. -1.
       -2    1    3    3    0  502 -0.35619322402E+03 -0.48888822159E+03  0.18443530910E+04  0.19410109815E+04  0.25500000920E-02 0.  1.
</event>
<event>
 5   0  0.3215208E-05  0.2421665E+04  0.7818609E-02  0.8431437E-01
        2   -1    0    0  501    0  0.00000000000E+00  0.00000000000E+00  0.15092176610E+04  0.15092176610E+04  0.25500000920E-02 0.  1.
       -2   -1    0    0    0  501  0.00000000000E+00  0.00000000000E+00 -0.97144056495E+03  0.97144056496E+03  0.25500000920E-02 0. -1.
    10030    2    1    2    0    0  0.00000000000E+00  0.00000000000E+00  0.53777709609E+03  0.24806582260E+04  0.24216649292E+04 0.  0.
        1    1    3    3  502    0 -0.82008114074E+03  0.20654133229E+03  0.11565565052E+04  0.14327649316E+04  0.50400001928E-02 0.  1.
       -1    1    3    3    0  502  0.82008114074E+03 -0.20654133229E+03 -0.61877940912E+03  0.10478932944E+04  0.50400001928E-02 0. -1.
</event>
<event>
 5   0  0.1393026E-05  0.2418590E+04  0.7818609E-02  0.8432576E-01
       -1   -1    0    0    0  501  0.00000000000E+00  0.00000000000E+00  0.17000745057E+04  0.17000745057E+04  0.50400001928E-02 0. -1.
        1   -1    0    0  501    0  0.00000000000E+00  0.00000000000E+00 -0.86019411865E+03  0.86019411866E+03  0.50400001928E-02 0.  1.
    10030    2    1    2    0    0  0.00000000000E+00  0.00000000000E+00  0.83988038707E+03  0.25602686244E+04  0.24185897470E+04 0.  0.
        4    1    3    3  502    0  0.20969690956E+03  0.39289699907E+03  0.16101012445E+04  0.16705593303E+04  0.12699999809E+01 0. -1.
       -4    1    3    3    0  502 -0.20969690956E+03 -0.39289699907E+03 -0.77022085744E+03  0.88970929403E+03  0.12699999809E+01 0.  1.
</event>
<event>
 5   0  0.1393026E-05  0.2403308E+04  0.7818609E-02  0.8438266E-01
        1   -1    0    0  501    0  0.00000000000E+00  0.00000000000E+00  0.10069584080E+04  0.10069584080E+04  0.50400001928E-02 0. -1.
       -1   -1    0    0    0  501  0.00000000000E+00  0.00000000000E+00 -0.14339943267E+04  0.14339943267E+04  0.50400001928E-02 0.  1.
    10030    2    1    2    0    0  0.00000000000E+00  0.00000000000E+00 -0.42703591868E+03  0.24409527347E+04  0.24033082568E+04 0.  0.
        4    1    3    3  502    0  0.43498484492E+03  0.50153241685E+03  0.80378180930E+03  0.10425034246E+04  0.12699999809E+01 0. -1.
       -4    1    3    3    0  502 -0.43498484492E+03 -0.50153241685E+03 -0.12308177280E+04  0.13984493101E+04  0.12699999809E+01 0.  1.
</event>
<event>
 5   0  0.1393026E-05  0.2399765E+04  0.7818609E-02  0.8439591E-01
        1   -1    0    0  501    0  0.00000000000E+00  0.00000000000E+00  0.14576216695E+04  0.14576216695E+04  0.50400001928E-02 0.  1.
       -1   -1    0    0    0  501  0.00000000000E+00  0.00000000000E+00 -0.98771753334E+03  0.98771753335E+03  0.50400001928E-02 0. -1.
    10030    2    1    2    0    0  0.00000000000E+00  0.00000000000E+00  0.46990413618E+03  0.24453392029E+04  0.23997653885E+04 0.  0.
        4    1    3    3  502    0  0.31497932816E+03  0.62147478954E+03 -0.76046908459E+03  0.10313863159E+04  0.12699999809E+01 0. -1.
       -4    1    3    3    0  502 -0.31497932816E+03 -0.62147478954E+03  0.12303732208E+04  0.14139528869E+04  0.12699999809E+01 0.  1.
</event>
<event>
 5   0  0.3345974E-05  0.2370656E+04  0.7818609E-02  0.8450572E-01
       -2   -1    0    0    0  501  0.00000000000E+00  0.00000000000E+00  0.78891859012E+03  0.78891859013E+03  0.25500000920E-02 0. -1.
        2   -1    0    0  501    0  0.00000000000E+00  0.00000000000E+00 -0.17809218215E+04  0.17809218215E+04  0.25500000920E-02 0.  1.
    10030    2    1    2    0    0  0.00000000000E+00  0.00000000000E+00 -0.99200323136E+03  0.25698404116E+04  0.23706558861E+04 0.  0.
        4    1    3    3  502    0 -0.40496695805E+03  0.10201413703E+04 -0.10832262014E+02  0.10976363712E+04  0.12699999809E+01 0. -1.
       -4    1    3    3    0  502  0.40496695805E+03 -0.10201413703E+04 -0.98117096934E+03  0.14722040404E+04  0.12699999809E+01 0.  1.
</event>
<event>
 5   0  0.1434943E-05  0.2385808E+04  0.7818609E-02  0.8444836E-01
       -1   -1    0    0    0  501  0.00000000000E+00  0.00000000000E+00  0.76259367769E+03  0.76259367771E+03  0.50400001928E-02 0. -1.
        1   -1    0    0  501    0  0.00000000000E+00  0.00000000000E+00 -0.18660269847E+04  0.18660269847E+04  0.50400001928E-02 0.  1.
    10030    2    1    2    0    0  0.00000000000E+00  0.00000000000E+00 -0.11034333070E+04  0.26286206625E+04  0.23858083586E+04 0.  0.
        5    1    3    3  502    0  0.11102394007E+04 -0.28751711216E+03 -0.19013900776E+03  0.11625285153E+04  0.46999998093E+01 0. -1.
       -5    1    3    3    0  502 -0.11102394007E+04  0.28751711216E+03 -0.91329429928E+03  0.14660921471E+04  0.46999998093E+01 0.  1.
</event>
<event>
 5   0  0.1401596E-05  0.2375072E+04  0.7818609E-02  0.8448896E-01
       -1   -1    0    0    0  501  0.00000000000E+00  0.00000000000E+00  0.19264928583E+04  0.19264928583E+04  0.50400001928E-02 0. -1.
        1   -1    0    0  501    0  0.00000000000E+00  0.00000000000E+00 -0.73202549395E+03  0.73202549397E+03  0.50400001928E-02 0.  1.
    10030    2    1    2    0    0  0.00000000000E+00  0.00000000000E+00  0.11944673643E+04  0.26585183523E+04  0.23750721136E+04 0.  0.
        2    1    3    3  502    0  0.50491369829E+02  0.64818592704E+03 -0.51511734890E+03  0.82948192119E+03  0.25500000920E-02 0.  1.
       -2    1    3    3    0  502 -0.50491369829E+02 -0.64818592704E+03  0.17095847132E+04  0.18290364311E+04  0.25500000920E-02 0. -1.
</event>
<event>
 5   0  0.1393026E-05  0.2044348E+04  0.7818609E-02  0.8586162E-01
       -1   -1    0    0    0  501  0.00000000000E+00  0.00000000000E+00  0.73544014685E+03  0.73544014687E+03  0.50400001928E-02 0.  1.
        1   -1    0    0  501    0  0.00000000000E+00  0.00000000000E+00 -0.14207004646E+04  0.14207004647E+04  0.50400001928E-02 0. -1.
    10030    2    1    2    0    0  0.00000000000E+00  0.00000000000E+00 -0.68526031779E+03  0.21561406115E+04  0.20443484619E+04 0.  0.
        4    1    3    3  502    0 -0.93527236332E+03 -0.14019652063E+03 -0.75171834220E+03  0.12080858980E+04  0.12699999809E+01 0. -1.
       -4    1    3    3    0  502  0.93527236332E+03  0.14019652063E+03  0.66458024403E+02  0.94805471355E+03  0.12699999809E+01 0.  1.
</event>
<event>
 5   0  0.1393026E-05  0.2391408E+04  0.7818609E-02  0.8442727E-01
       -1   -1    0    0    0  501  0.00000000000E+00  0.00000000000E+00  0.87763471348E+03  0.87763471349E+03  0.50400001928E-02 0. -1.
        1   -1    0    0  501    0  0.00000000000E+00  0.00000000000E+00 -0.16290463290E+04  0.16290463290E+04  0.50400001928E-02 0.  1.
    10030    2    1    2    0    0  0.00000000000E+00  0.00000000000E+00 -0.75141161550E+03  0.25066810425E+04  0.23914076258E+04 0.  0.
        4    1    3    3  502    0  0.27141022064E+03  0.47745380156E+03 -0.14890142051E+04  0.15870698020E+04  0.12699999809E+01 0.  1.
       -4    1    3    3    0  502 -0.27141022064E+03 -0.47745380156E+03  0.73760258962E+03  0.91961124047E+03  0.12699999809E+01 0. -1.
</event>
<event>
 5   0  0.3347728E-05  0.2410573E+04  0.7818609E-02  0.8435556E-01
       -2   -1    0    0    0  501  0.00000000000E+00  0.00000000000E+00  0.85688576018E+03  0.85688576019E+03  0.25500000920E-02 0.  1.
        2   -1    0    0  501    0  0.00000000000E+00  0.00000000000E+00 -0.16953431920E+04  0.16953431920E+04  0.25500000920E-02 0. -1.
    10030    2    1    2    0    0  0.00000000000E+00  0.00000000000E+00 -0.83845743181E+03  0.25522289522E+04  0.24105729110E+04 0.  0.
        3    1    3    3  502    0 -0.33066886458E+03  0.29582260303E+03 -0.16057360000E+04  0.16659054662E+04  0.10100000352E+00 0. -1.
       -3    1    3    3    0  502  0.33066886458E+03 -0.29582260303E+03  0.76727856816E+03  0.88632348599E+03  0.10100000352E+00 0.  1.
</event>
<event>
 5   0  0.1401596E-05  0.2363262E+04  0.7818609E-02  0.8453387E-01
       -1   -1    0    0    0  501  0.00000000000E+00  0.00000000000E+00  0.16138044865E+04  0.16138044865E+04  0.50400001928E-02 0. -1.
        1   -1    0    0  501    0  0.00000000000E+00  0.00000000000E+00 -0.86519289667E+03  0.86519289668E+03  0.50400001928E-02 0.  1.
    10030    2    1    2    0    0  0.00000000000E+00  0.00000000000E+00  0.74861158986E+03  0.24789973832E+04  0.23632623031E+04 0.  0.
        2    1    3    3  502    0 -0.51566284536E+03  0.10631657063E+04  0.36930920814E+03  0.12379898143E+04  0.25500000920E-02 0. -1.
       -2    1    3    3    0  502  0.51566284536E+03 -0.10631657063E+04  0.37930238171E+03  0.12410075689E+04  0.25500000920E-02 0.  1.
</event>
<event>
 5   0  0.3347728E-05  0.2406246E+04  0.7818609E-02  0.8437169E-01
       -2   -1    0    0    0  501  0.00000000000E+00  0.00000000000E+00  0.74781576717E+03  0.74781576718E+03  0.25500000920E-02 0.  1.
        2   -1    0    0  501    0  0.00000000000E+00  0.00000000000E+00 -0.19356431666E+04  0.19356431666E+04  0.25500000920E-02 0. -1.
    10030    2    1    2    0    0  0.00000000000E+00  0.00000000000E+00 -0.11878273995E+04  0.26834589338E+04  0.24062456065E+04 0.  0.
        3    1    3    3  502    0 -0.20063086575E+03 -0.10451078355E+04 -0.12198227027E+04  0.16187867581E+04  0.10100000352E+00 0. -1.
       -3    1    3    3    0  502  0.20063086575E+03  0.10451078355E+04  0.31995303273E+02  0.10646721757E+04  0.10100000352E+00 0.  1.
</event>
<event>
 5   0  0.1434943E-05  0.2389800E+04  0.7818609E-02  0.8443332E-01
       -1   -1    0    0    0  501  0.00000000000E+00  0.00000000000E+00  0.87967743570E+03  0.87967743571E+03  0.50400001928E-02 0.  1.
        1   -1    0    0  501    0  0.00000000000E+00  0.00000000000E+00 -0.16230792958E+04  0.16230792958E+04  0.50400001928E-02 0. -1.
    10030    2    1    2    0    0  0.00000000000E+00  0.00000000000E+00 -0.74340186010E+03  0.25027567315E+04  0.23898001865E+04 0.  0.
        5    1    3    3  502    0 -0.31681515274E+03  0.36895358182E+03  0.77133883679E+03  0.91185759726E+03  0.46999998093E+01 0.  1.
       -5    1    3    3    0  502  0.31681515274E+03 -0.36895358182E+03 -0.15147406969E+04  0.15908991343E+04  0.46999998093E+01 0. -1.
</event>
<event>
 5   0  0.3347728E-05  0.2376686E+04  0.7818609E-02  0.8448284E-01
       -2   -1    0    0    0  501  0.00000000000E+00  0.00000000000E+00  0.70592108420E+03  0.70592108421E+03  0.25500000920E-02 0.  1.
        2   -1    0    0  501    0  0.00000000000E+00  0.00000000000E+00 -0.20004489244E+04  0.20004489244E+04  0.25500000920E-02 0. -1.
    10030    2    1    2    0    0  0.00000000000E+00  0.00000000000E+00 -0.12945278402E+04  0.27063700086E+04  0.23766859899E+04 0.  0.
        3    1    3    3  502    0 -0.28713798512E+03 -0.53286749314E+03 -0.18117438766E+04  0.19101863450E+04  0.10100000352E+00 0. -1.
       -3    1    3    3    0  502  0.28713798512E+03  0.53286749314E+03  0.51721603643E+03  0.79618366366E+03  0.10100000352E+00 0.  1.
</event>
<event>
 5   0  0.1506985E-05  0.2383723E+04  0.7818609E-02  0.8445623E-01
        1   -1    0    0  501    0  0.00000000000E+00  0.00000000000E+00  0.22238364162E+04  0.22238364163E+04  0.50400001928E-02 0. -1.
       -1   -1    0    0    0  501  0.00000000000E+00  0.00000000000E+00 -0.63877599541E+03  0.63877599543E+03  0.50400001928E-02 0.  1.
    10030    2    1    2    0    0  0.00000000000E+00  0.00000000000E+00  0.15850604208E+04  0.28626124117E+04  0.23837225681E+04 0.  0.
        3    1    3    3  502    0 -0.34306081993E+03  0.86384028101E+03  0.16884873637E+04  0.19274076748E+04  0.10100000352E+00 0. -1.
       -3    1    3    3    0  502  0.34306081993E+03 -0.86384028101E+03 -0.10342694283E+03  0.93520473693E+03  0.10100000352E+00 0.  1.
</event>
<event>
 5   0  0.1434943E-05  0.2406547E+04  0.7818609E-02  0.8437057E-01
       -1   -1    0    0    0  501  0.00000000000E+00  0.00000000000E+00  0.81534898634E+03  0.81534898635E+03  0.50400001928E-02 0.  1.
        1   -1    0    0  501    0  0.00000000000E+00  0.00000000000E+00 -0.17757633768E+04  0.17757633768E+04  0.50400001928E-02 0. -1.
    10030    2    1    2    0    0  0.00000000000E+00  0.00000000000E+00 -0.96041439046E+03  0.25911123632E+04  0.24065467951E+04 0.  0.
        5    1    3    3  502    0  0.10475305175E+04  0.27473297299E+03 -0.10448774466E+04  0.15048552622E+04  0.46999998093E+01 0. -1.
       -5    1    3    3    0  502 -0.10475305175E+04 -0.27473297299E+03  0.84463056146E+02  0.10862571010E+04  0.46999998093E+01 0.  1.
</event>
<event>
 5   0  0.3320780E-05  0.2397403E+04  0.7818609E-02  0.8440476E-01
        2   -1    0    0  501    0  0.00000000000E+00  0.00000000000E+00  0.18302441328E+04  0.18302441328E+04  0.25500000920E-02 0. -1.
       -2   -1    0    0    0  501  0.00000000000E+00  0.00000000000E+00 -0.78507879408E+03  0.78507879409E+03  0.25500000920E-02 0.  1.
    10030    2    1    2    0    0  0.00000000000E+00  0.00000000000E+00  0.10451653387E+04  0.26153229269E+04  0.23974034760E+04 0.  0.
        5    1    3    3  502    0  0.24757707644E+03  0.10864236229E+04  0.40542616689E+02  0.11150230899E+04  0.46999998093E+01 0.  1.
       -5    1    3    3    0  502 -0.24757707644E+03 -0.10864236229E+04  0.10046227220E+04  0.15002998370E+04  0.46999998093E+01 0. -1.
</event>
<event>
 5   0  0.1407158E-05  0.2397864E+04  0.7818609E-02  0.8440304E-01
        1   -1    0    0  501    0  0.00000000000E+00  0.00000000000E+00  0.20446931707E+04  0.20446931708E+04  0.50400001928E-02 0.  1.
       -1   -1    0    0    0  501  0.00000000000E+00  0.00000000000E+00 -0.70300895496E+03  0.70300895498E+03  0.50400001928E-02 0. -1.
    10030    2    1    2    0    0  0.00000000000E+00  0.00000000000E+00  0.13416842158E+04  0.27477021257E+04  0.23978637236E+04 0.  0.
        1    1    3    3  502    0  0.63459411429E+02 -0.41196434939E+02  0.20419549293E+04  0.20433561061E+04  0.50400001928E-02 0.  1.
       -1    1    3    3    0  502 -0.63459411429E+02  0.41196434939E+02 -0.70027071350E+03  0.70434601962E+03  0.50400001928E-02 0. -1.
</event>
<event>
 5   0  0.1401596E-05  0.2433345E+04  0.7818609E-02  0.8427124E-01
        1   -1    0    0  501    0  0.00000000000E+00  0.00000000000E+00  0.15531880845E+04  0.15531880845E+04  0.50400001928E-02 0. -1.
       -1   -1    0    0    0  501  0.00000000000E+00  0.00000000000E+00 -0.95306692863E+03  0.95306692864E+03  0.50400001928E-02 0.  1.
    10030    2    1    2    0    0  0.00000000000E+00  0.00000000000E+00  0.60012115584E+03  0.25062550131E+04  0.24333451849E+04 0.  0.
        2    1    3    3  502    0  0.97432142062E+03  0.34280873382E+03  0.96234518802E+03  0.14117111318E+04  0.25500000920E-02 0. -1.
       -2    1    3    3    0  502 -0.97432142062E+03 -0.34280873382E+03 -0.36222403218E+03  0.10945438813E+04  0.25500000920E-02 0.  1.
</event>
<event>
 5   0  0.3310037E-05  0.2437201E+04  0.7818609E-02  0.8425706E-01
       -2   -1    0    0    0  501  0.00000000000E+00  0.00000000000E+00  0.62823722045E+03  0.62823722046E+03  0.25500000920E-02 0.  1.
        2   -1    0    0  501    0  0.00000000000E+00  0.00000000000E+00 -0.23637364943E+04  0.23637364943E+04  0.25500000920E-02 0. -1.
    10030    2    1    2    0    0  0.00000000000E+00  0.00000000000E+00 -0.17354992738E+04  0.29919737147E+04  0.24372010545E+04 0.  0.
        2    1    3    3  502    0  0.11443758097E+04 -0.17514642364E+03 -0.13347563928E+04  0.17668748942E+04  0.25500000920E-02 0. -1.
       -2    1    3    3    0  502 -0.11443758097E+04  0.17514642364E+03 -0.40074288102E+03  0.12250988206E+04  0.25500000920E-02 0.  1.
</event>
<event>
 5   0  0.3310037E-05  0.2375124E+04  0.7818609E-02  0.8448876E-01
       -2   -1    0    0    0  501  0.00000000000E+00  0.00000000000E+00  0.82095397993E+03  0.82095397994E+03  0.25500000920E-02 0. -1.
        2   -1    0    0  501    0  0.00000000000E+00  0.00000000000E+00 -0.17178830735E+04  0.17178830735E+04  0.25500000920E-02 0.  1.
    10030    2    1    2    0    0  0.00000000000E+00  0.00000000000E+00 -0.89692909356E+03  0.25388370534E+04  0.23751235305E+04 0.  0.
        2    1    3    3  502    0 -0.82413084022E+03 -0.66544945597E+03  0.12546971850E+03  0.10666570538E+04  0.25500000920E-02 0. -1.
       -2    1    3    3    0  502  0.82413084022E+03  0.66544945597E+03 -0.10223988121E+04  0.14721799996E+04  0.25500000920E-02 0.  1.
</event>
<event>
 5   0  0.3345974E-05  0.2621572E+04  0.7818609E-02  0.8360910E-01
        2   -1    0    0  501    0  0.00000000000E+00  0.00000000000E+00  0.17241144470E+04  0.17241144470E+04  0.25500000920E-02 0. -1.
       -2   -1    0    0    0  501  0.00000000000E+00  0.00000000000E+00 -0.99654637958E+03  0.99654637959E+03  0.25500000920E-02 0.  1.
    10030    2    1    2    0    0  0.00000000000E+00  0.00000000000E+00  0.72756806746E+03  0.27206608266E+04  0.26215720552E+04 0.  0.
        4    1    3    3  502    0 -0.30819865132E+00  0.11099826763E+04  0.10873430638E+04  0.15538269492E+04  0.12699999809E+01 0. -1.
       -4    1    3    3    0  502  0.30819865132E+00 -0.11099826763E+04 -0.35977499634E+03  0.11668338775E+04  0.12699999809E+01 0.  1.
</event>
<event>
 5   0  0.3215208E-05  0.2437573E+04  0.7818609E-02  0.8425569E-01
        2   -1    0    0  501    0  0.00000000000E+00  0.00000000000E+00  0.15995350860E+04  0.15995350860E+04  0.25500000920E-02 0. -1.
       -2   -1    0    0    0  501  0.00000000000E+00  0.00000000000E+00 -0.92867010734E+03  0.92867010734E+03  0.25500000920E-02 0.  1.
    10030    2    1    2    0    0  0.00000000000E+00  0.00000000000E+00  0.67086497869E+03  0.25282051934E+04  0.24375729077E+04 0.  0.
        1    1    3    3  502    0  0.17827340118E+03 -0.94657485599E+03 -0.43909623198E+03  0.10585796449E+04  0.50400001928E-02 0.  1.
       -1    1    3    3    0  502 -0.17827340118E+03  0.94657485599E+03  0.11099612107E+04  0.14696255485E+04  0.50400001928E-02 0. -1.
</event>
<event>
 5   0  0.1147362E-05  0.2429045E+04  0.7818609E-02  0.8428709E-01
       -4   -1    0    0    0  501  0.00000000000E+00  0.00000000000E+00  0.12838814410E+04  0.12838820691E+04  0.12699999809E+01 0. -1.
        4   -1    0    0  501    0  0.00000000000E+00  0.00000000000E+00 -0.11489091185E+04  0.11489098204E+04  0.12699999809E+01 0.  1.
    10030    2    1    2    0    0  0.00000000000E+00  0.00000000000E+00  0.13497232253E+03  0.24327918895E+04  0.24290448431E+04 0.  0.
        2    1    3    3  502    0  0.95847501350E+03  0.56271474471E+03 -0.42290419492E+03  0.11891888805E+04  0.25500000920E-02 0.  1.
       -2    1    3    3    0  502 -0.95847501350E+03 -0.56271474471E+03  0.55787651744E+03  0.12436030091E+04  0.25500000920E-02 0. -1.
</event>
<event>
 5   0  0.3310037E-05  0.2401731E+04  0.7818609E-02  0.8438856E-01
       -2   -1    0    0    0  501  0.00000000000E+00  0.00000000000E+00  0.13968379446E+04  0.13968379446E+04  0.25500000920E-02 0.  1.
        2   -1    0    0  501    0  0.00000000000E+00  0.00000000000E+00 -0.10323875276E+04  0.10323875276E+04  0.25500000920E-02 0. -1.
    10030    2    1    2    0    0  0.00000000000E+00  0.00000000000E+00  0.36445041692E+03  0.24292254722E+04  0.24017311024E+04 0.  0.
        2    1    3    3  502    0 -0.70043860380E+03  0.72308648611E+03  0.84440279457E+03  0.13139575273E+04  0.25500000920E-02 0.  1.
       -2    1    3    3    0  502  0.70043860380E+03 -0.72308648611E+03 -0.47995237766E+03  0.11152679449E+04  0.25500000920E-02 0. -1.
</event>
<event>
 5   0  0.3215208E-05  0.2405646E+04  0.7818609E-02  0.8437393E-01
        2   -1    0    0  501    0  0.00000000000E+00  0.00000000000E+00  0.18271902430E+04  0.18271902430E+04  0.25500000920E-02 0.  1.
       -2   -1    0    0    0  501  0.00000000000E+00  0.00000000000E+00 -0.79180764258E+03  0.79180764259E+03  0.25500000920E-02 0. -1.
    10030    2    1    2    0    0  0.00000000000E+00  0.00000000000E+00  0.10353826004E+04  0.26189978856E+04  0.24056460245E+04 0.  0.
        1    1    3    3  502    0  0.97387298066E+03  0.40900795632E+03 -0.10872267953E+03  0.10618553159E+04  0.50400001928E-02 0. -1.
       -1    1    3    3    0  502 -0.97387298066E+03 -0.40900795632E+03  0.11441052799E+04  0.15571425697E+04  0.50400001928E-02 0.  1.
</event>
<event>
 5   0  0.1147362E-05  0.2389754E+04  0.7818609E-02  0.8443350E-01
        3   -1    0    0  501    0  0.00000000000E+00  0.00000000000E+00  0.11213262710E+04  0.11213262756E+04  0.10100000352E+00 0. -1.
       -3   -1    0    0    0  501  0.00000000000E+00  0.00000000000E+00 -0.12732518216E+04  0.12732518257E+04  0.10100000352E+00 0.  1.
    10030    2    1    2    0    0  0.00000000000E+00  0.00000000000E+00 -0.15192555064E+03  0.23945781012E+04  0.23897537342E+04 0.  0.
        5    1    3    3  502    0  0.18434005365E+03 -0.10660840576E+04  0.43220219491E+03  0.11650481966E+04  0.46999998093E+01 0. -1.
       -5    1    3    3    0  502 -0.18434005365E+03  0.10660840576E+04 -0.58412774555E+03  0.12295299046E+04  0.46999998093E+01 0.  1.
</event>
<event>
 5   0  0.1147362E-05  0.2380637E+04  0.7818609E-02  0.8446788E-01
        3   -1    0    0  501    0  0.00000000000E+00  0.00000000000E+00  0.84318682489E+03  0.84318683094E+03  0.10100000352E+00 0.  1.
       -3   -1    0    0    0  501  0.00000000000E+00  0.00000000000E+00 -0.16803611975E+04  0.16803612005E+04  0.10100000352E+00 0. -1.
    10030    2    1    2    0    0  0.00000000000E+00  0.00000000000E+00 -0.83717437259E+03  0.25235480315E+04  0.23806372544E+04 0.  0.
        5    1    3    3  502    0  0.23530291932E+03  0.11477058502E+04 -0.19562731593E+03  0.11878081996E+04  0.46999998093E+01 0.  1.
       -5    1    3    3    0  502 -0.23530291932E+03 -0.11477058502E+04 -0.64154705666E+03  0.13357398318E+04  0.46999998093E+01 0. -1.
</event>
<event>
 5   0  0.1506985E-05  0.2071062E+04  0.7818609E-02  0.8574099E-01
        1   -1    0    0  501    0  0.00000000000E+00  0.00000000000E+00  0.15744531394E+04  0.15744531394E+04  0.50400001928E-02 0. -1.
       -1   -1    0    0    0  501  0.00000000000E+00  0.00000000000E+00 -0.68107712913E+03  0.68107712915E+03  0.50400001928E-02 0.  1.
    10030    2    1    2    0    0  0.00000000000E+00  0.00000000000E+00  0.89337601029E+03  0.22555302686E+04  0.20710615869E+04 0.  0.
        3    1    3    3  502    0 -0.41137113998E+02  0.39893335827E+03  0.14864409365E+04  0.15395930483E+04  0.10100000352E+00 0. -1.
       -3    1    3    3    0  502  0.41137113998E+02 -0.39893335827E+03 -0.59306492620E+03  0.71593722028E+03  0.10100000352E+00 0.  1.
</event>
<event>
 5   0  0.3320780E-05  0.2405573E+04  0.7818609E-02  0.8437420E-01
       -2   -1    0    0    0  501  0.00000000000E+00  0.00000000000E+00  0.11632318885E+04  0.11632318885E+04  0.25500000920E-02 0. -1.
        2   -1    0    0  501    0  0.00000000000E+00  0.00000000000E+00 -0.12436860548E+04  0.12436860548E+04  0.25500000920E-02 0.  1.
    10030    2    1    2    0    0  0.00000000000E+00  0.00000000000E+00 -0.80454166215E+02  0.24069179433E+04  0.24055729282E+04 0.  0.
        5    1    3    3  502    0  0.23761769273E+03  0.40586856904E+03  0.10674066570E+04  0.11664349637E+04  0.46999998093E+01 0. -1.
       -5    1    3    3    0  502 -0.23761769273E+03 -0.40586856904E+03 -0.11478608232E+04  0.12404829796E+04  0.46999998093E+01 0.  1.
</event>
<event>
 5   0  0.1393026E-05  0.2394555E+04  0.7818609E-02  0.8441545E-01
        1   -1    0    0  501    0  0.00000000000E+00  0.00000000000E+00  0.25989754665E+04  0.25989754665E+04  0.50400001928E-02 0.  1.
       -1   -1    0    0    0  501  0.00000000000E+00  0.00000000000E+00 -0.55155338445E+03  0.55155338447E+03  0.50400001928E-02 0. -1.
    10030    2    1    2    0    0  0.00000000000E+00  0.00000000000E+00  0.20474220820E+04  0.31505288510E+04  0.23945552528E+04 0.  0.
        4    1    3    3  502    0 -0.19342005195E+03  0.11803945637E+04  0.10924490425E+04  0.16199349264E+04  0.12699999809E+01 0. -1.
       -4    1    3    3    0  502  0.19342005195E+03 -0.11803945637E+04  0.95497303957E+03  0.15305939245E+04  0.12699999809E+01 0.  1.
</event>
<event>
 5   0  0.3215208E-05  0.2387721E+04  0.7818609E-02  0.8444115E-01
        2   -1    0    0  501    0  0.00000000000E+00  0.00000000000E+00  0.22132042252E+04  0.22132042252E+04  0.25500000920E-02 0.  1.
       -2   -1    0    0    0  501  0.00000000000E+00  0.00000000000E+00 -0.64399952037E+03  0.64399952038E+03  0.25500000920E-02 0. -1.
    10030    2    1    2    0    0  0.00000000000E+00  0.00000000000E+00  0.15692047048E+04  0.28572037456E+04  0.23877206365E+04 0.  0.
        1    1    3    3  502    0 -0.88594906531E+03  0.10889991632E+03  0.17332901229E+04  0.19496306286E+04  0.50400001928E-02 0.  1.
       -1    1    3    3    0  502  0.88594906531E+03 -0.10889991632E+03 -0.16408541806E+03  0.90757311692E+03  0.50400001928E-02 0. -1.
</event>
<event>
 5   0  0.3310037E-05  0.2398780E+04  0.7818609E-02  0.8439960E-01
       -2   -1    0    0    0  501  0.00000000000E+00  0.00000000000E+00  0.68043709927E+03  0.68043709927E+03  0.25500000920E-02 0. -1.
        2   -1    0    0  501    0  0.00000000000E+00  0.00000000000E+00 -0.21141357286E+04  0.21141357286E+04  0.25500000920E-02 0.  1.
    10030    2    1    2    0    0  0.00000000000E+00  0.00000000000E+00 -0.14336986293E+04  0.27945728279E+04  0.23987800088E+04 0.  0.
        2    1    3    3  502    0  0.44559305166E+03  0.27613104068E+03 -0.19736084008E+04  0.20420410474E+04  0.25500000920E-02 0.  1.
       -2    1    3    3    0  502 -0.44559305166E+03 -0.27613104068E+03  0.53990977149E+03  0.75253178051E+03  0.25500000920E-02 0. -1.
</event>
<event>
 5   0  0.1434943E-05  0.2375702E+04  0.7818609E-02  0.8448657E-01
        1   -1    0    0  501    0  0.00000000000E+00  0.00000000000E+00  0.17928026386E+04  0.17928026386E+04  0.50400001928E-02 0. -1.
       -1   -1    0    0    0  501  0.00000000000E+00  0.00000000000E+00 -0.78703005082E+03  0.78703005083E+03  0.50400001928E-02 0.  1.
    10030    2    1    2    0    0  0.00000000000E+00  0.00000000000E+00  0.10057725878E+04  0.25798326895E+04  0.23757016242E+04 0.  0.
        5    1    3    3  502    0  0.49119348134E+03 -0.75869870598E+02 -0.66867490216E+03  0.83317194393E+03  0.46999998093E+01 0.  1.
       -5    1    3    3    0  502 -0.49119348134E+03  0.75869870598E+02  0.16744474900E+04  0.17466607456E+04  0.46999998093E+01 0. -1.
</event>
<event>
 5   0  0.3345974E-05  0.2420538E+04  0.7818609E-02  0.8431854E-01
        2   -1    0    0  501    0  0.00000000000E+00  0.00000000000E+00  0.21082393569E+04  0.21082393569E+04  0.25500000920E-02 0.  1.
       -2   -1    0    0    0  501  0.00000000000E+00  0.00000000000E+00 -0.69477436151E+03  0.69477436152E+03  0.25500000920E-02 0. -1.
    10030    2    1    2    0    0  0.00000000000E+00  0.00000000000E+00  0.14134649954E+04  0.28030137185E+04  0.24205376701E+04 0.  0.
        4    1    3    3  502    0  0.55253573852E+03  0.60830155320E+03  0.17356205703E+04  0.19203403081E+04  0.12699999809E+01 0.  1.
       -4    1    3    3    0  502 -0.55253573852E+03 -0.60830155320E+03 -0.32215557490E+03  0.88267341033E+03  0.12699999809E+01 0. -1.
</event>
<event>
 5   0  0.3320780E-05  0.2407482E+04  0.7818609E-02  0.8436708E-01
        2   -1    0    0  501    0  0.00000000000E+00  0.00000000000E+00  0.10881491818E+04  0.10881491818E+04  0.25500000920E-02 0.  1.
       -2   -1    0    0    0  501  0.00000000000E+00  0.00000000000E+00 -0.13316115236E+04  0.13316115236E+04  0.25500000920E-02 0. -1.
    10030    2    1    2    0    0  0.00000000000E+00  0.00000000000E+00 -0.24346234179E+03  0.24197607055E+04  0.24074816635E+04 0.  0.
        5    1    3    3  502    0  0.91894386010E+03 -0.11087503512E+03  0.65175139639E+03  0.11320570057E+04  0.46999998093E+01 0.  1.
       -5    1    3    3    0  502 -0.91894386010E+03  0.11087503512E+03 -0.89521373818E+03  0.12877036998E+04  0.46999998093E+01 0. -1.
</event>
<event>
 5   0  0.1393026E-05  0.2420379E+04  0.7818609E-02  0.8431913E-01
       -1   -1    0    0    0  501  0.00000000000E+00  0.00000000000E+00  0.12234759271E+04  0.12234759272E+04  0.50400001928E-02 0.  1.
        1   -1    0    0  501    0  0.00000000000E+00  0.00000000000E+00 -0.11970470887E+04  0.11970470887E+04  0.50400001928E-02 0. -1.
    10030    2    1    2    0    0  0.00000000000E+00  0.00000000000E+00  0.26428838415E+02  0.24205230159E+04  0.24203787280E+04 0.  0.
        4    1    3    3  502    0  0.24924361996E+03  0.48468268388E+02  0.11965368868E+04  0.12231817893E+04  0.12699999809E+01 0.  1.
       -4    1    3    3    0  502 -0.24924361996E+03 -0.48468268388E+02 -0.11701080484E+04  0.11973412266E+04  0.12699999809E+01 0. -1.
</event>
<event>
 5   0  0.3215208E-05  0.2398525E+04  0.7818609E-02  0.8440056E-01
        2   -1    0    0  501    0  0.00000000000E+00  0.00000000000E+00  0.68195557797E+03  0.68195557797E+03  0.25500000920E-02 0. -1.
       -2   -1    0    0    0  501  0.00000000000E+00  0.00000000000E+00 -0.21089794667E+04  0.21089794667E+04  0.25500000920E-02 0.  1.
    10030    2    1    2    0    0  0.00000000000E+00  0.00000000000E+00 -0.14270238888E+04  0.27909350447E+04  0.23985248059E+04 0.  0.
        1    1    3    3  502    0  0.11063363517E+03 -0.79597923687E+03 -0.17493212800E+04  0.19250838131E+04  0.50400001928E-02 0.  1.
       -1    1    3    3    0  502 -0.11063363517E+03  0.79597923687E+03  0.32229739127E+03  0.86585123157E+03  0.50400001928E-02 0. -1.
</event>
<event>
 5   0  0.1434943E-05  0.2398502E+04  0.7818609E-02  0.8440065E-01
       -1   -1    0    0    0  501  0.00000000000E+00  0.00000000000E+00  0.74304764154E+03  0.74304764156E+03  0.50400001928E-02 0. -1.
        1   -1    0    0  501    0  0.00000000000E+00  0.00000000000E+00 -0.19355463706E+04  0.19355463706E+04  0.50400001928E-02 0.  1.
    10030    2    1    2    0    0  0.00000000000E+00  0.00000000000E+00 -0.11924987291E+04  0.26785940122E+04  0.23985021708E+04 0.  0.
        5    1    3    3  502    0 -0.83926454494E+03  0.20396126061E+03 -0.15254030723E+04  0.17529523083E+04  0.46999998093E+01 0. -1.
       -5    1    3    3    0  502  0.83926454494E+03 -0.20396126061E+03  0.33290434322E+03  0.92564170387E+03  0.46999998093E+01 0.  1.
</event>
<event>
 5   0  0.1506985E-05  0.2407017E+04  0.7818609E-02  0.8436881E-01
        1   -1    0    0  501    0  0.00000000000E+00  0.00000000000E+00  0.92462524690E+03  0.92462524691E+03  0.50400001928E-02 0.  1.
       -1   -1    0    0    0  501  0.00000000000E+00  0.00000000000E+00 -0.15665076546E+04  0.15665076546E+04  0.50400001928E-02 0. -1.
    10030    2    1    2    0    0  0.00000000000E+00  0.00000000000E+00 -0.64188240771E+03  0.24911329015E+04  0.24070168483E+04 0.  0.
        3    1    3    3  502    0 -0.48247683696E+03  0.42549791521E+03 -0.13736397775E+04  0.15168119932E+04  0.10100000352E+00 0. -1.
       -3    1    3    3    0  502  0.48247683696E+03 -0.42549791521E+03  0.73175736979E+03  0.97432090838E+03  0.10100000352E+00 0.  1.
</event>
<event>
 5   0  0.1506985E-05  0.2401968E+04  0.7818609E-02  0.8438767E-01
        1   -1    0    0  501    0  0.00000000000E+00  0.00000000000E+00  0.14160083065E+04  0.14160083065E+04  0.50400001928E-02 0. -1.
       -1   -1    0    0    0  501  0.00000000000E+00  0.00000000000E+00 -0.10186114349E+04  0.10186114349E+04  0.50400001928E-02 0.  1.
    10030    2    1    2    0    0  0.00000000000E+00  0.00000000000E+00  0.39739687167E+03  0.24346197414E+04  0.24019677374E+04 0.  0.
        3    1    3    3  502    0 -0.35158076267E+03  0.12157333415E+03  0.13561379142E+04  0.14062358126E+04  0.10100000352E+00 0. -1.
       -3    1    3    3    0  502  0.35158076267E+03 -0.12157333415E+03 -0.95874104248E+03  0.10283839288E+04  0.10100000352E+00 0.  1.
</event>
<event>
 5   0  0.1407158E-05  0.2404980E+04  0.7818609E-02  0.8437641E-01
        1   -1    0    0  501    0  0.00000000000E+00  0.00000000000E+00  0.12675879162E+04  0.12675879162E+04  0.50400001928E-02 0.  1.
       -1   -1    0    0    0  501  0.00000000000E+00  0.00000000000E+00 -0.11407352023E+04  0.11407352023E+04  0.50400001928E-02 0. -1.
    10030    2    1    2    0    0  0.00000000000E+00  0.00000000000E+00  0.12685271386E+03  0.24083231185E+04  0.24049799650E+04 0.  0.
        1    1    3    3  502    0  0.29460323499E+03 -0.10916265420E+04 -0.34646229762E+03  0.11825716456E+04  0.50400001928E-02 0.  1.
       -1    1    3    3    0  502 -0.29460323499E+03  0.10916265420E+04  0.47331501148E+03  0.12257514729E+04  0.50400001928E-02 0. -1.
</event>
<event>
 5   0  0.3347728E-05  0.2339571E+04  0.7818609E-02  0.8462480E-01
        2   -1    0    0  501    0  0.00000000000E+00  0.00000000000E+00  0.20545471895E+04  0.20545471895E+04  0.25500000920E-02 0. -1.
       -2   -1    0    0    0  501  0.00000000000E+00  0.00000000000E+00 -0.66603413902E+03  0.66603413902E+03  0.25500000920E-02 0.  1.
    10030    2    1    2    0    0  0.00000000000E+00  0.00000000000E+00  0.13885130505E+04  0.27205813285E+04  0.23395713868E+04 0.  0.
        3    1    3    3  502    0  0.47678523916E+03 -0.14491292342E+02  0.19363160954E+04  0.19942051532E+04  0.10100000352E+00 0. -1.
       -3    1    3    3    0  502 -0.47678523916E+03  0.14491292342E+02 -0.54780304488E+03  0.72637617529E+03  0.10100000352E+00 0.  1.
</event>
<event>
 5   0  0.1147362E-05  0.2398785E+04  0.7818609E-02  0.8439958E-01
       -3   -1    0    0    0  501  0.00000000000E+00  0.00000000000E+00  0.85280952285E+03  0.85280952883E+03  0.10100000352E+00 0.  1.
        3   -1    0    0  501    0  0.00000000000E+00  0.00000000000E+00 -0.16868277942E+04  0.16868277972E+04  0.10100000352E+00 0. -1.
    10030    2    1    2    0    0  0.00000000000E+00  0.00000000000E+00 -0.83401827137E+03  0.25396373261E+04  0.23987853741E+04 0.  0.
        1    1    3    3  502    0 -0.19300448200E+03 -0.94717186246E+03 -0.11687418442E+04  0.15166880911E+04  0.50400001928E-02 0. -1.
       -1    1    3    3    0  502  0.19300448200E+03  0.94717186246E+03  0.33472357288E+03  0.10229492350E+04  0.50400001928E-02 0.  1.
</event>
<event>
 5   0  0.3347728E-05  0.2395899E+04  0.7818609E-02  0.8441041E-01
       -2   -1    0    0    0  501  0.00000000000E+00  0.00000000000E+00  0.14524599336E+04  0.14524599336E+04  0.25500000920E-02 0.  1.
        2   -1    0    0  501    0  0.00000000000E+00  0.00000000000E+00 -0.98803616908E+03  0.98803616909E+03  0.25500000920E-02 0. -1.
    10030    2    1    2    0    0  0.00000000000E+00  0.00000000000E+00  0.46442376447E+03  0.24404961026E+04  0.23958989532E+04 0.  0.
        3    1    3    3  502    0  0.18825850554E+03 -0.69573293448E+03 -0.74246773911E+03  0.10347675753E+04  0.10100000352E+00 0. -1.
       -3    1    3    3    0  502 -0.18825850554E+03  0.69573293448E+03  0.12068915036E+04  0.14057285274E+04  0.10100000352E+00 0.  1.
</event>
<event>
 5   0  0.3320780E-05  0.2409273E+04  0.7818609E-02  0.8436040E-01
       -2   -1    0    0    0  501  0.00000000000E+00  0.00000000000E+00  0.97426424711E+03  0.97426424711E+03  0.25500000920E-02 0. -1.
        2   -1    0    0  501    0  0.00000000000E+00  0.00000000000E+00 -0.14894820903E+04  0.14894820903E+04  0.25500000920E-02 0.  1.
    10030    2    1    2    0    0  0.00000000000E+00  0.00000000000E+00 -0.51521784314E+03  0.24637463374E+04  0.24092730416E+04 0.  0.
        5    1    3    3  502    0 -0.22210166871E+03  0.61409730609E+03 -0.12927620760E+04  0.14483440640E+04  0.46999998093E+01 0.  1.
       -5    1    3    3    0  502  0.22210166871E+03 -0.61409730609E+03  0.77754423289E+03  0.10154022733E+04  0.46999998093E+01 0. -1.
</event>
<event>
 5   0  0.1401596E-05  0.2480886E+04  0.7818609E-02  0.8409827E-01
       -1   -1    0    0    0  501  0.00000000000E+00  0.00000000000E+00  0.79597686941E+03  0.79597686943E+03  0.50400001928E-02 0. -1.
        1   -1    0    0  501    0  0.00000000000E+00  0.00000000000E+00 -0.19330948391E+04  0.19330948391E+04  0.50400001928E-02 0.  1.
    10030    2    1    2    0    0  0.00000000000E+00  0.00000000000E+00 -0.11371179697E+04  0.27290717086E+04  0.24808859533E+04 0.  0.
        2    1    3    3  502    0 -0.66745276412E+03 -0.13321762183E+03  0.57222917716E+03  0.88920546461E+03  0.25500000920E-02 0. -1.
       -2    1    3    3    0  502  0.66745276412E+03  0.13321762183E+03 -0.17093471469E+04  0.18398662439E+04  0.25500000920E-02 0.  1.
</event>
<event>
 5   0  0.1393026E-05  0.2384728E+04  0.7818609E-02  0.8445243E-01
        1   -1    0    0  501    0  0.00000000000E+00  0.00000000000E+00  0.15920984125E+04  0.15920984125E+04  0.50400001928E-02 0. -1.
       -1   -1    0    0    0  501  0.00000000000E+00  0.00000000000E+00 -0.89299239175E+03  0.89299239176E+03  0.50400001928E-02 0.  1.
    10030    2    1    2    0    0  0.00000000000E+00  0.00000000000E+00  0.69910602072E+03  0.24850908042E+04  0.23847278832E+04 0.  0.
        4    1    3    3  502    0  0.28709904747E+03 -0.56266315395E+03 -0.70430143702E+03  0.94607495208E+03  0.12699999809E+01 0.  1.
       -4    1    3    3    0  502 -0.28709904747E+03  0.56266315395E+03  0.14034074577E+04  0.15390158522E+04  0.12699999809E+01 0. -1.
</event>
<event>
 5   0  0.3310037E-05  0.2218086E+04  0.7818609E-02  0.8510938E-01
        2   -1    0    0  501    0  0.00000000000E+00  0.00000000000E+00  0.83851099003E+03  0.83851099004E+03  0.25500000920E-02 0. -1.
       -2   -1    0    0    0  501  0.00000000000E+00  0.00000000000E+00 -0.14668583897E+04  0.14668583897E+04  0.25500000920E-02 0.  1.
    10030    2    1    2    0    0  0.00000000000E+00  0.00000000000E+00 -0.62834739967E+03  0.23053693797E+04  0.22180864551E+04 0.  0.
        2    1    3    3  502    0 -0.27677077437E+02  0.65726357652E+03  0.61383042016E+03  0.89974952868E+03  0.25500000920E-02 0. -1.
       -2    1    3    3    0  502  0.27677077437E+02 -0.65726357652E+03 -0.12421778198E+04  0.14056198511E+04  0.25500000920E-02 0.  1.
</event>
<event>
 5   0  0.3347728E-05  0.2385727E+04  0.7818609E-02  0.8444867E-01
       -2   -1    0    0    0  501  0.00000000000E+00  0.00000000000E+00  0.53185355990E+03  0.53185355990E+03  0.25500000920E-02 0. -1.
        2   -1    0    0  501    0  0.00000000000E+00  0.00000000000E+00 -0.26754040327E+04  0.26754040327E+04  0.25500000920E-02 0.  1.
    10030    2    1    2    0    0  0.00000000000E+00  0.00000000000E+00 -0.21435504728E+04  0.32072575926E+04  0.23857268569E+04 0.  0.
        3    1    3    3  502    0 -0.52366292698E+03 -0.19866274341E+03  0.34409871470E+03  0.65733833173E+03  0.10100000352E+00 0. -1.
       -3    1    3    3    0  502  0.52366292698E+03  0.19866274341E+03 -0.24876491875E+04  0.25499192609E+04  0.10100000352E+00 0.  1.
</event>
<event>
 5   0  0.1407158E-05  0.2395384E+04  0.7818609E-02  0.8441234E-01
        1   -1    0    0  501    0  0.00000000000E+00  0.00000000000E+00  0.86716079831E+03  0.86716079833E+03  0.50400001928E-02 0. -1.
       -1   -1    0    0    0  501  0.00000000000E+00  0.00000000000E+00 -0.16542098975E+04  0.16542098975E+04  0.50400001928E-02 0.  1.
    10030    2    1    2    0    0  0.00000000000E+00  0.00000000000E+00 -0.78704909914E+03  0.25213706958E+04  0.23953838734E+04 0.  0.
        1    1    3    3  502    0  0.68026546331E+03  0.97266838074E+03 -0.22503986478E+03  0.12080926373E+04  0.50400001928E-02 0.  1.
       -1    1    3    3    0  502 -0.68026546331E+03 -0.97266838074E+03 -0.56200923436E+03  0.13132780585E+04  0.50400001928E-02 0. -1.
</event>
<event>
 5   0  0.3320780E-05  0.2416790E+04  0.7818609E-02  0.8433244E-01
       -2   -1    0    0    0  501  0.00000000000E+00  0.00000000000E+00  0.52543873697E+03  0.52543873698E+03  0.25500000920E-02 0.  1.
        2   -1    0    0  501    0  0.00000000000E+00  0.00000000000E+00 -0.27790464550E+04  0.27790464550E+04  0.25500000920E-02 0. -1.
    10030    2    1    2    0    0  0.00000000000E+00  0.00000000000E+00 -0.22536077180E+04  0.33044851920E+04  0.24167901517E+04 0.  0.
        5    1    3    3  502    0 -0.30113146040E+03  0.93561589439E+03 -0.16565740018E+03  0.99675559818E+03  0.46999998093E+01 0.  1.
       -5    1    3    3    0  502  0.30113146040E+03 -0.93561589439E+03 -0.20879503178E+04  0.23077295938E+04  0.46999998093E+01 0. -1.
</event>
<event>
 5   0  0.1393026E-05  0.2391862E+04  0.7818609E-02  0.8442557E-01
        1   -1    0    0  501    0  0.00000000000E+00  0.00000000000E+00  0.89260694788E+03  0.89260694790E+03  0.50400001928E-02 0. -1.
       -1   -1    0    0    0  501  0.00000000000E+00  0.00000000000E+00 -0.16023299828E+04  0.16023299829E+04  0.50400001928E-02 0.  1.
    10030    2    1    2    0    0  0.00000000000E+00  0.00000000000E+00 -0.70972303496E+03  0.24949369307E+04  0.23918619321E+04 0.  0.
        4    1    3    3  502    0 -0.52501601226E+03 -0.18735258222E+03  0.74880220294E+03  0.93351441083E+03  0.12699999809E+01 0. -1.
       -4    1    3    3    0  502  0.52501601226E+03  0.18735258222E+03 -0.14585252379E+04  0.15614225199E+04  0.12699999809E+01 0.  1.
</event>
<event>
 5   0  0.1434943E-05  0.2469741E+04  0.7818609E-02  0.8413845E-01
        1   -1    0    0  501    0  0.00000000000E+00  0.00000000000E+00  0.11089373286E+04  0.11089373286E+04  0.50400001928E-02 0. -1.
       -1   -1    0    0    0  501  0.00000000000E+00  0.00000000000E+00 -0.13751050809E+04  0.13751050809E+04  0.50400001928E-02 0.  1.
    10030    2    1    2    0    0  0.00000000000E+00  0.00000000000E+00 -0.26616775231E+03  0.24840424095E+04  0.24697411645E+04 0.  0.
        5    1    3    3  502    0 -0.57857710179E+03  0.34076569281E+03 -0.11754297185E+04  0.13537096561E+04  0.46999998093E+01 0.  1.
       -5    1    3    3    0  502  0.57857710179E+03 -0.34076569281E+03  0.90926196615E+03  0.11303327533E+04  0.46999998093E+01 0. -1.
</event>
<event>
 5   0  0.3310037E-05  0.2432506E+04  0.7818609E-02  0.8427433E-01
        2   -1    0    0  501    0  0.00000000000E+00  0.00000000000E+00  0.14998907173E+04  0.14998907173E+04  0.25500000920E-02 0. -1.
       -2   -1    0    0    0  501  0.00000000000E+00  0.00000000000E+00 -0.98625267843E+03  0.98625267843E+03  0.25500000920E-02 0.  1.
    10030    2    1    2    0    0  0.00000000000E+00  0.00000000000E+00  0.51363803885E+03  0.24861433957E+04  0.24325058991E+04 0.  0.
        2    1    3    3  502    0  0.84623794882E+03 -0.36296519557E+03 -0.55531480811E+03  0.10752845834E+04  0.25500000920E-02 0.  1.
       -2    1    3    3    0  502 -0.84623794882E+03  0.36296519557E+03  0.10689528470E+04  0.14108588123E+04  0.25500000920E-02 0. -1.
</event>
<event>
 5   0  0.1407158E-05  0.2054966E+04  0.7818609E-02  0.8581345E-01
        1   -1    0    0  501    0  0.00000000000E+00  0.00000000000E+00  0.10523297364E+04  0.10523297364E+04  0.50400001928E-02 0.  1.
       -1   -1    0    0    0  501  0.00000000000E+00  0.00000000000E+00 -0.10032231090E+04  0.10032231090E+04  0.50400001928E-02 0. -1.
    10030    2    1    2    0    0  0.00000000000E+00  0.00000000000E+00  0.49106627344E+02  0.20555528454E+04  0.20549661894E+04 0.  0.
        1    1    3    3  502    0 -0.31541102469E+03 -0.95760314229E+03 -0.17357800994E+03  0.10230431165E+04  0.50400001928E-02 0.  1.
       -1    1    3    3    0  502  0.31541102469E+03  0.95760314229E+03  0.22268463729E+03  0.10325097289E+04  0.50400001928E-02 0. -1.
</event>
<event>
 5   0  0.1401596E-05  0.2374484E+04  0.7818609E-02  0.8449118E-01
        1   -1    0    0  501    0  0.00000000000E+00  0.00000000000E+00  0.20015230472E+04  0.20015230472E+04  0.50400001928E-02 0. -1.
       -1   -1    0    0    0  501  0.00000000000E+00  0.00000000000E+00 -0.70423576416E+03  0.70423576417E+03  0.50400001928E-02 0.  1.
    10030    2    1    2    0    0  0.00000000000E+00  0.00000000000E+00  0.12972872830E+04  0.27057588114E+04  0.23744844600E+04 0.  0.
        2    1    3    3  502    0  0.84203355876E+03  0.72031619300E+03  0.16295361752E+03  0.11200133095E+04  0.25500000920E-02 0.  1.
       -2    1    3    3    0  502 -0.84203355876E+03 -0.72031619300E+03  0.11343336655E+04  0.15857455019E+04  0.25500000920E-02 0. -1.
</event>
<event>
 5   0  0.3320780E-05  0.2121447E+04  0.7818609E-02  0.8551854E-01
        2   -1    0    0  501    0  0.00000000000E+00  0.00000000000E+00  0.54431876385E+03  0.54431876385E+03  0.25500000920E-02 0. -1.
       -2   -1    0    0    0  501  0.00000000000E+00  0.00000000000E+00 -0.20670506941E+04  0.20670506941E+04  0.25500000920E-02 0.  1.
    10030    2    1    2    0    0  0.00000000000E+00  0.00000000000E+00 -0.15227319302E+04  0.26113694579E+04  0.21214471274E+04 0.  0.
        5    1    3    3  502    0  0.90295002626E+03 -0.46795908722E+03 -0.11323011237E+04  0.15219830426E+04  0.46999998093E+01 0.  1.
       -5    1    3    3    0  502 -0.90295002626E+03  0.46795908722E+03 -0.39043080656E+03  0.10893864153E+04  0.46999998093E+01 0. -1.
</event>
<event>
 5   0  0.3345974E-05  0.2405186E+04  0.7818609E-02  0.8437565E-01
        2   -1    0    0  501    0  0.00000000000E+00  0.00000000000E+00  0.12842617177E+04  0.12842617177E+04  0.25500000920E-02 0.  1.
       -2   -1    0    0    0  501  0.00000000000E+00  0.00000000000E+00 -0.11261173995E+04  0.11261173995E+04  0.25500000920E-02 0. -1.
    10030    2    1    2    0    0  0.00000000000E+00  0.00000000000E+00  0.15814431821E+03  0.24103791171E+04  0.24051856192E+04 0.  0.
        4    1    3    3  502    0 -0.11080562697E+04 -0.38102302625E+03  0.35032357958E+03  0.12229862905E+04  0.12699999809E+01 0.  1.
       -4    1    3    3    0  502  0.11080562697E+04  0.38102302625E+03 -0.19217926137E+03  0.11873928266E+04  0.12699999809E+01 0. -1.
</event>
<event>
 5   0  0.1401596E-05  0.2295981E+04  0.7818609E-02  0.8479508E-01
        1   -1    0    0  501    0  0.00000000000E+00  0.00000000000E+00  0.14582787142E+04  0.14582787142E+04  0.50400001928E-02 0. -1.
       -1   -1    0    0    0  501  0.00000000000E+00  0.00000000000E+00 -0.90372420184E+03  0.90372420185E+03  0.50400001928E-02 0.  1.
    10030    2    1    2    0    0  0.00000000000E+00  0.00000000000E+00  0.55455451239E+03  0.23620029161E+04  0.22959806333E+04 0.  0.
        2    1    3    3  502    0  0.72353936967E+03 -0.64782701394E+03  0.90700065300E+03  0.13288488417E+04  0.25500000920E-02 0. -1.
       -2    1    3    3    0  502 -0.72353936967E+03  0.64782701394E+03 -0.35244614061E+03  0.10331540744E+04  0.25500000920E-02 0.  1.
</event>
<event>
 5   0  0.1506985E-05  0.2360729E+04  0.7818609E-02  0.8454354E-01
        1   -1    0    0  501    0  0.00000000000E+00  0.00000000000E+00  0.11735494878E+04  0.11735494878E+04  0.50400001928E-02 0. -1.
       -1   -1    0    0    0  501  0.00000000000E+00  0.00000000000E+00 -0.11872192660E+04  0.11872192660E+04  0.50400001928E-02 0.  1.
    10030    2    1    2    0    0  0.00000000000E+00  0.00000000000E+00 -0.13669778240E+02  0.23607687538E+04  0.23607291768E+04 0.  0.
        3    1    3    3  502    0  0.10341943417E+04  0.46607345832E+03 -0.33315025261E+03  0.11822738710E+04  0.10100000352E+00 0.  1.
       -3    1    3    3    0  502 -0.10341943417E+04 -0.46607345832E+03  0.31948047437E+03  0.11784948828E+04  0.10100000352E+00 0. -1.
</event>
<event>
 5   0  0.1401596E-05  0.2342984E+04  0.7818609E-02  0.8461164E-01
       -1   -1    0    0    0  501  0.00000000000E+00  0.00000000000E+00  0.11283392499E+04  0.11283392499E+04  0.50400001928E-02 0. -1.
        1   -1    0    0  501    0  0.00000000000E+00  0.00000000000E+00 -0.12162946635E+04  0.12162946635E+04  0.50400001928E-02 0.  1.
    10030    2    1    2    0    0  0.00000000000E+00  0.00000000000E+00 -0.87955413630E+02  0.23446339135E+04  0.23429835751E+04 0.  0.
        2    1    3    3  502    0  0.10533853874E+01 -0.21341663828E+03 -0.11966767516E+04  0.12155587271E+04  0.25500000920E-02 0.  1.
       -2    1    3    3    0  502 -0.10533853874E+01  0.21341663828E+03  0.11087213380E+04  0.11290751864E+04  0.25500000920E-02 0. -1.
</event>
<event>
 5   0  0.3347728E-05  0.2130877E+04  0.7818609E-02  0.8547762E-01
       -2   -1    0    0    0  501  0.00000000000E+00  0.00000000000E+00  0.19119005516E+04  0.19119005516E+04  0.25500000920E-02 0. -1.
        2   -1    0    0  501    0  0.00000000000E+00  0.00000000000E+00 -0.59373353162E+03  0.59373353162E+03  0.25500000920E-02 0.  1.
    10030    2    1    2    0    0  0.00000000000E+00  0.00000000000E+00  0.13181670199E+04  0.25056340832E+04  0.21308772528E+04 0.  0.
        3    1    3    3  502    0  0.73482346753E+03  0.24820351906E+03  0.15180231081E+04  0.17046890280E+04  0.10100000352E+00 0. -1.
       -3    1    3    3    0  502 -0.73482346753E+03 -0.24820351906E+03 -0.19985608811E+03  0.80094505521E+03  0.10100000352E+00 0.  1.
</event>
<event>
 5   0  0.1147362E-05  0.2363532E+04  0.7818609E-02  0.8453284E-01
       -3   -1    0    0    0  501  0.00000000000E+00  0.00000000000E+00  0.88124793141E+03  0.88124793720E+03  0.10100000352E+00 0.  1.
        3   -1    0    0  501    0  0.00000000000E+00  0.00000000000E+00 -0.15847651101E+04  0.15847651133E+04  0.10100000352E+00 0. -1.
    10030    2    1    2    0    0  0.00000000000E+00  0.00000000000E+00 -0.70351717865E+03  0.24660130505E+04  0.23635320909E+04 0.  0.
        2    1    3    3  502    0  0.61878830782E+03 -0.46756623308E+03 -0.12820781135E+04  0.14984129742E+04  0.25500000920E-02 0. -1.
       -2    1    3    3    0  502 -0.61878830782E+03  0.46756623308E+03  0.57856093486E+03  0.96760007625E+03  0.25500000920E-02 0.  1.
</event>
<event>
 5   0  0.1393026E-05  0.2403833E+04  0.7818609E-02  0.8438070E-01
        1   -1    0    0  501    0  0.00000000000E+00  0.00000000000E+00  0.11963388933E+04  0.11963388933E+04  0.50400001928E-02 0.  1.
       -1   -1    0    0    0  501  0.00000000000E+00  0.00000000000E+00 -0.12075199194E+04  0.12075199194E+04  0.50400001928E-02 0. -1.
    10030    2    1    2    0    0  0.00000000000E+00  0.00000000000E+00 -0.11181026136E+02  0.24038588127E+04  0.24038328095E+04 0.  0.
        4    1    3    3  502    0  0.84324882789E+03  0.21758639513E+03 -0.83396473505E+03  0.12057824088E+04  0.12699999809E+01 0. -1.
       -4    1    3    3    0  502 -0.84324882789E+03 -0.21758639513E+03  0.82278370891E+03  0.11980764039E+04  0.12699999809E+01 0.  1.
</event>
<event>
 5   0  0.1506985E-05  0.2414065E+04  0.7818609E-02  0.8434256E-01
        1   -1    0    0  501    0  0.00000000000E+00  0.00000000000E+00  0.14199318422E+04  0.14199318422E+04  0.50400001928E-02 0.  1.
       -1   -1    0    0    0  501  0.00000000000E+00  0.00000000000E+00 -0.10260547840E+04  0.10260547840E+04  0.50400001928E-02 0. -1.
    10030    2    1    2    0    0  0.00000000000E+00  0.00000000000E+00  0.39387705823E+03  0.24459866263E+04  0.24140653344E+04 0.  0.
        3    1    3    3  502    0  0.39378295594E+03  0.11125027685E+04 -0.59789923963E+02  0.11816523480E+04  0.10100000352E+00 0.  1.
       -3    1    3    3    0  502 -0.39378295594E+03 -0.11125027685E+04  0.45366698220E+03  0.12643342783E+04  0.10100000352E+00 0. -1.
</event>
<event>
 5   0  0.3215208E-05  0.2376133E+04  0.7818609E-02  0.8448493E-01
       -2   -1    0    0    0  501  0.00000000000E+00  0.00000000000E+00  0.70203855632E+03  0.70203855632E+03  0.25500000920E-02 0.  1.
        2   -1    0    0  501    0  0.00000000000E+00  0.00000000000E+00 -0.20105765621E+04  0.20105765621E+04  0.25500000920E-02 0. -1.
    10030    2    1    2    0    0  0.00000000000E+00  0.00000000000E+00 -0.13085380057E+04  0.27126151184E+04  0.23761332177E+04 0.  0.
        1    1    3    3  502    0 -0.83361389957E+02 -0.11172689377E+04 -0.11055487482E+04  0.15740003288E+04  0.50400001928E-02 0.  1.
       -1    1    3    3    0  502  0.83361389957E+02  0.11172689377E+04 -0.20298925755E+03  0.11386147896E+04  0.50400001928E-02 0. -1.
</event>
<event>
 5   0  0.1407158E-05  0.2407242E+04  0.7818609E-02  0.8436797E-01
        1   -1    0    0  501    0  0.00000000000E+00  0.00000000000E+00  0.22394490448E+04  0.22394490448E+04  0.50400001928E-02 0. -1.
       -1   -1    0    0    0  501  0.00000000000E+00  0.00000000000E+00 -0.64690198750E+03  0.64690198752E+03  0.50400001928E-02 0.  1.
    10030    2    1    2    0    0  0.00000000000E+00  0.00000000000E+00  0.15925470573E+04  0.28863510324E+04  0.24072424374E+04 0.  0.
        1    1    3    3  502    0 -0.44258254699E+03  0.27155791240E+03 -0.50569696681E+03  0.72481199835E+03  0.50400001928E-02 0.  1.
       -1    1    3    3    0  502  0.44258254699E+03 -0.27155791240E+03  0.20982440241E+04  0.21615390340E+04  0.50400001928E-02 0. -1.
</event>
<event>
 5   0  0.3347728E-05  0.2413427E+04  0.7818609E-02  0.8434494E-01
       -2   -1    0    0    0  501  0.00000000000E+00  0.00000000000E+00  0.12594218435E+04  0.12594218435E+04  0.25500000920E-02 0. -1.
        2   -1    0    0  501    0  0.00000000000E+00  0.00000000000E+00 -0.11562114766E+04  0.11562114766E+04  0.25500000920E-02 0.  1.
    10030    2    1    2    0    0  0.00000000000E+00  0.00000000000E+00  0.10321036688E+03  0.24156333200E+04  0.24134274294E+04 0.  0.
        3    1    3    3  502    0 -0.40376429464E+03  0.32648807801E+02  0.11893351272E+04  0.12564273179E+04  0.10100000352E+00 0. -1.
       -3    1    3    3    0  502  0.40376429464E+03 -0.32648807801E+02 -0.10861247603E+04  0.11592060021E+04  0.10100000352E+00 0.  1.
</event>
<event>
 5   0  0.3347728E-05  0.2394900E+04  0.7818609E-02  0.8441415E-01
       -2   -1    0    0    0  501  0.00000000000E+00  0.00000000000E+00  0.67693993074E+03  0.67693993074E+03  0.25500000920E-02 0.  1.
        2   -1    0    0  501    0  0.00000000000E+00  0.00000000000E+00 -0.21181894761E+04  0.21181894761E+04  0.25500000920E-02 0. -1.
    10030    2    1    2    0    0  0.00000000000E+00  0.00000000000E+00 -0.14412495453E+04  0.27951294068E+04  0.23949004466E+04 0.  0.
        3    1    3    3  502    0 -0.67352039762E+03 -0.44090350373E+03  0.31401086522E+03  0.86407665128E+03  0.10100000352E+00 0.  1.
       -3    1    3    3    0  502  0.67352039762E+03  0.44090350373E+03 -0.17552604106E+04  0.19310527555E+04  0.10100000352E+00 0. -1.
</event>
<event>
 5   0  0.3345974E-05  0.2424078E+04  0.7818609E-02  0.8430544E-01
        2   -1    0    0  501    0  0.00000000000E+00  0.00000000000E+00  0.18140481070E+04  0.18140481070E+04  0.25500000920E-02 0.  1.
       -2   -1    0    0    0  501  0.00000000000E+00  0.00000000000E+00 -0.80981218901E+03  0.80981218901E+03  0.25500000920E-02 0. -1.
    10030    2    1    2    0    0  0.00000000000E+00  0.00000000000E+00  0.10042359179E+04  0.26238602960E+04  0.24240777780E+04 0.  0.
        4    1    3    3  502    0 -0.10852630149E+04 -0.65596070611E+02  0.10819312825E+04  0.15338433977E+04  0.12699999809E+01 0.  1.
       -4    1    3    3    0  502  0.10852630149E+04  0.65596070611E+02 -0.77695364501E+02  0.10900168982E+04  0.12699999809E+01 0. -1.
</event>
<event>
 5   0  0.1506985E-05  0.2385321E+04  0.7818609E-02  0.8445020E-01
        1   -1    0    0  501    0  0.00000000000E+00  0.00000000000E+00  0.18240472511E+04  0.18240472511E+04  0.50400001928E-02 0. -1.
       -1   -1    0    0    0  501  0.00000000000E+00  0.00000000000E+00 -0.77982577109E+03  0.77982577111E+03  0.50400001928E-02 0.  1.
    10030    2    1    2    0    0  0.00000000000E+00  0.00000000000E+00  0.10442214800E+04  0.26038730222E+04  0.23853209882E+04 0.  0.
        3    1    3    3  502    0  0.96229598913E+03 -0.69526973952E+03  0.39752465182E+03  0.12519742171E+04  0.10100000352E+00 0.  1.
       -3    1    3    3    0  502 -0.96229598913E+03  0.69526973952E+03  0.64669682823E+03  0.13518988051E+04  0.10100000352E+00 0. -1.
</event>
<event>
 5   0  0.3345974E-05  0.2485885E+04  0.7818609E-02  0.8408031E-01
       -2   -1    0    0    0  501  0.00000000000E+00  0.00000000000E+00  0.10850440991E+04  0.10850440991E+04  0.25500000920E-02 0. -1.
        2   -1    0    0  501    0  0.00000000000E+00  0.00000000000E+00 -0.14238191388E+04  0.14238191388E+04  0.25500000920E-02 0.  1.
    10030    2    1    2    0    0  0.00000000000E+00  0.00000000000E+00 -0.33877503967E+03  0.25088632379E+04  0.24858853994E+04 0.  0.
        4    1    3    3  502    0 -0.65598805434E+03  0.42457381428E+03  0.80615027547E+03  0.11227034919E+04  0.12699999809E+01 0. -1.
       -4    1    3    3    0  502  0.65598805434E+03 -0.42457381428E+03 -0.11449253151E+04  0.13861597460E+04  0.12699999809E+01 0.  1.
</event>
<event>
 5   0  0.1434943E-05  0.2444901E+04  0.7818609E-02  0.8422882E-01
       -1   -1    0    0    0  501  0.00000000000E+00  0.00000000000E+00  0.93634056357E+03  0.93634056359E+03  0.50400001928E-02 0.  1.
        1   -1    0    0  501    0  0.00000000000E+00  0.00000000000E+00 -0.15959844240E+04  0.15959844240E+04  0.50400001928E-02 0. -1.
    10030    2    1    2    0    0  0.00000000000E+00  0.00000000000E+00 -0.65964386041E+03  0.25323249876E+04  0.24449007792E+04 0.  0.
        5    1    3    3  502    0 -0.76823118514E+03 -0.37702202397E+03 -0.12339845442E+04  0.15016872862E+04  0.46999998093E+01 0. -1.
       -5    1    3    3    0  502  0.76823118514E+03  0.37702202397E+03  0.57434068377E+03  0.10306377013E+04  0.46999998093E+01 0.  1.
</event>
<event>
 5   0  0.3215208E-05  0.2340471E+04  0.7818609E-02  0.8462133E-01
       -2   -1    0    0    0  501  0.00000000000E+00  0.00000000000E+00  0.80925390078E+03  0.80925390078E+03  0.25500000920E-02 0.  1.
        2   -1    0    0  501    0  0.00000000000E+00  0.00000000000E+00 -0.16922391038E+04  0.16922391038E+04  0.25500000920E-02 0. -1.
    10030    2    1    2    0    0  0.00000000000E+00  0.00000000000E+00 -0.88298520304E+03  0.25014930046E+04  0.23404709747E+04 0.  0.
        1    1    3    3  502    0 -0.97241500813E+03 -0.24349795994E+03  0.20384331527E+03  0.10229537144E+04  0.50400001928E-02 0.  1.
       -1    1    3    3    0  502  0.97241500813E+03  0.24349795994E+03 -0.10868285183E+04  0.14785392902E+04  0.50400001928E-02 0. -1.
</event>
<event>
 5   0  0.1401596E-05  0.2425585E+04  0.7818609E-02  0.8429987E-01
        1   -1    0    0  501    0  0.00000000000E+00  0.00000000000E+00  0.85387992333E+03  0.85387992335E+03  0.50400001928E-02 0.  1.
       -1   -1    0    0    0  501  0.00000000000E+00  0.00000000000E+00 -0.17225671274E+04  0.17225671274E+04  0.50400001928E-02 0. -1.
    10030    2    1    2    0    0  0.00000000000E+00  0.00000000000E+00 -0.86868720411E+03  0.25764470508E+04  0.24255848670E+04 0.  0.
        2    1    3    3  502    0 -0.27827516578E+03 -0.35954448959E+03 -0.16286207244E+04  0.16908917091E+04  0.25500000920E-02 0. -1.
       -2    1    3    3    0  502  0.27827516578E+03  0.35954448959E+03  0.75993352032E+03  0.88555534169E+03  0.25500000920E-02 0.  1.
</event>
<event>
 5   0  0.3320780E-05  0.2276920E+04  0.7818609E-02  0.8487077E-01
        2   -1    0    0  501    0  0.00000000000E+00  0.00000000000E+00  0.71479348158E+03  0.71479348158E+03  0.25500000920E-02 0. -1.
       -2   -1    0    0    0  501  0.00000000000E+00  0.00000000000E+00 -0.18132388691E+04  0.18132388691E+04  0.25500000920E-02 0.  1.
    10030    2    1    2    0    0  0.00000000000E+00  0.00000000000E+00 -0.10984453875E+04  0.25280323506E+04  0.22769201340E+04 0.  0.
        5    1    3    3  502    0  0.74750934275E+03  0.61384000831E+03  0.11741081440E+03  0.97435987326E+03  0.46999998093E+01 0. -1.
       -5    1    3    3    0  502 -0.74750934275E+03 -0.61384000831E+03 -0.12158562019E+04  0.15536724774E+04  0.46999998093E+01 0.  1.
</event>
<event>
 5   0  0.1506985E-05  0.2446233E+04  0.7818609E-02  0.8422395E-01
       -1   -1    0    0    0  501  0.00000000000E+00  0.00000000000E+00  0.10577320985E+04  0.10577320985E+04  0.50400001928E-02 0.  1.
        1   -1    0    0  501    0  0.00000000000E+00  0.00000000000E+00 -0.14143597022E+04  0.14143597022E+04  0.50400001928E-02 0. -1.
    10030    2    1    2    0    0  0.00000000000E+00  0.00000000000E+00 -0.35662760368E+03  0.24720918007E+04  0.24462327410E+04 0.  0.
        3    1    3    3  502    0 -0.55274960337E+03 -0.13077383192E+03  0.91636349151E+03  0.10781261419E+04  0.10100000352E+00 0.  1.
       -3    1    3    3    0  502  0.55274960337E+03  0.13077383192E+03 -0.12729910952E+04  0.13939656587E+04  0.10100000352E+00 0. -1.
</event>
<event>
 5   0  0.1506985E-05  0.2461396E+04  0.7818609E-02  0.8416869E-01
       -1   -1    0    0    0  501  0.00000000000E+00  0.00000000000E+00  0.10409201218E+04  0.10409201218E+04  0.50400001928E-02 0.  1.
        1   -1    0    0  501    0  0.00000000000E+00  0.00000000000E+00 -0.14550756959E+04  0.14550756959E+04  0.50400001928E-02 0. -1.
    10030    2    1    2    0    0  0.00000000000E+00  0.00000000000E+00 -0.41415557410E+03  0.24959958178E+04  0.24613960028E+04 0.  0.
        3    1    3    3  502    0 -0.39158433947E+03 -0.10289036170E+04  0.35077948137E+03  0.11554337725E+04  0.10100000352E+00 0. -1.
       -3    1    3    3    0  502  0.39158433947E+03  0.10289036170E+04 -0.76493505547E+03  0.13405620453E+04  0.10100000352E+00 0.  1.
</event>
<event>
 5   0  0.1147362E-05  0.1995884E+04  0.7818609E-02  0.8608547E-01
       -3   -1    0    0    0  501  0.00000000000E+00  0.00000000000E+00  0.63529552792E+03  0.63529553594E+03  0.10100000352E+00 0.  1.
        3   -1    0    0  501    0  0.00000000000E+00  0.00000000000E+00 -0.15675987737E+04  0.15675987769E+04  0.10100000352E+00 0. -1.
    10030    2    1    2    0    0  0.00000000000E+00  0.00000000000E+00 -0.93230324577E+03  0.22028943129E+04  0.19958842681E+04 0.  0.
        3    1    3    3  502    0 -0.40442207220E+03 -0.26863309889E+03 -0.14284571200E+04  0.15087116054E+04  0.10100000352E+00 0. -1.
       -3    1    3    3    0  502  0.40442207220E+03  0.26863309889E+03  0.49615387423E+03  0.69418270751E+03  0.10100000352E+00 0.  1.
</event>
<event>
 5   0  0.1407158E-05  0.2380341E+04  0.7818609E-02  0.8446900E-01
        1   -1    0    0  501    0  0.00000000000E+00  0.00000000000E+00  0.13461165281E+04  0.13461165281E+04  0.50400001928E-02 0. -1.
       -1   -1    0    0    0  501  0.00000000000E+00  0.00000000000E+00 -0.10522905686E+04  0.10522905687E+04  0.50400001928E-02 0.  1.
    10030    2    1    2    0    0  0.00000000000E+00  0.00000000000E+00  0.29382595945E+03  0.23984070968E+04  0.23803409225E+04 0.  0.
        1    1    3    3  502    0 -0.63107315747E+03 -0.77385546491E+03 -0.50561330555E+03  0.11192633405E+04  0.50400001928E-02 0.  1.
       -1    1    3    3    0  502  0.63107315747E+03  0.77385546491E+03  0.79943926501E+03  0.12791437562E+04  0.50400001928E-02 0. -1.
</event>
<event>
 5   0  0.1401596E-05  0.2395254E+04  0.7818609E-02  0.8441283E-01
        1   -1    0    0  501    0  0.00000000000E+00  0.00000000000E+00  0.16718011482E+04  0.16718011482E+04  0.50400001928E-02 0. -1.
       -1   -1    0    0    0  501  0.00000000000E+00  0.00000000000E+00 -0.85794284761E+03  0.85794284762E+03  0.50400001928E-02 0.  1.
    10030    2    1    2    0    0  0.00000000000E+00  0.00000000000E+00  0.81385830055E+03  0.25297439958E+04  0.23952535045E+04 0.  0.
        2    1    3    3  502    0  0.10607748085E+04 -0.52613179183E+03  0.21725712255E+03  0.12038515332E+04  0.25500000920E-02 0.  1.
       -2    1    3    3    0  502 -0.10607748085E+04  0.52613179183E+03  0.59660117800E+03  0.13258924626E+04  0.25500000920E-02 0. -1.
</event>
<event>
 5   0  0.1434943E-05  0.2245082E+04  0.7818609E-02  0.8499895E-01
       -1   -1    0    0    0  501  0.00000000000E+00  0.00000000000E+00  0.57667190509E+03  0.57667190511E+03  0.50400001928E-02 0. -1.
        1   -1    0    0  501    0  0.00000000000E+00  0.00000000000E+00 -0.21851223289E+04  0.21851223289E+04  0.50400001928E-02 0.  1.
    10030    2    1    2    0    0  0.00000000000E+00  0.00000000000E+00 -0.16084504238E+04  0.27617942340E+04  0.22450823204E+04 0.  0.
        5    1    3    3  502    0 -0.44194893206E+03 -0.56936864650E+03 -0.18628551556E+04  0.19974360904E+04  0.46999998093E+01 0.  1.
       -5    1    3    3    0  502  0.44194893206E+03  0.56936864650E+03  0.25440473185E+03  0.76435814364E+03  0.46999998093E+01 0. -1.
</event>
<event>
 5   0  0.3320780E-05  0.2326014E+04  0.7818609E-02  0.8467734E-01
       -2   -1    0    0    0  501  0.00000000000E+00  0.00000000000E+00  0.73484697325E+03  0.73484697326E+03  0.25500000920E-02 0.  1.
        2   -1    0    0  501    0  0.00000000000E+00  0.00000000000E+00 -0.18406357199E+04  0.18406357199E+04  0.25500000920E-02 0. -1.
    10030    2    1    2    0    0  0.00000000000E+00  0.00000000000E+00 -0.11057887467E+04  0.25754826932E+04  0.23260142628E+04 0.  0.
        5    1    3    3  502    0  0.60669228442E+03 -0.39520858542E+03 -0.15606137432E+04  0.17204077132E+04  0.46999998093E+01 0. -1.
       -5    1    3    3    0  502 -0.60669228442E+03  0.39520858542E+03  0.45482499656E+03  0.85507498002E+03  0.46999998093E+01 0.  1.
</event>
<event>
 5   0  0.1434943E-05  0.2411350E+04  0.7818609E-02  0.8435266E-01
        1   -1    0    0  501    0  0.00000000000E+00  0.00000000000E+00  0.10307293304E+04  0.10307293304E+04  0.50400001928E-02 0.  1.
       -1   -1    0    0    0  501  0.00000000000E+00  0.00000000000E+00 -0.14103146821E+04  0.14103146822E+04  0.50400001928E-02 0. -1.
    10030    2    1    2    0    0  0.00000000000E+00  0.00000000000E+00 -0.37958535171E+03  0.24410440126E+04  0.24113504167E+04 0.  0.
        5    1    3    3  502    0  0.39654404298E+03 -0.78072943395E+03  0.64917388469E+03  0.10900616724E+04  0.46999998093E+01 0.  1.
       -5    1    3    3    0  502 -0.39654404298E+03  0.78072943395E+03 -0.10287592364E+04  0.13509823402E+04  0.46999998093E+01 0. -1.
</event>
<event>
 5   0  0.3215208E-05  0.2480375E+04  0.7818609E-02  0.8410011E-01
       -2   -1    0    0    0  501  0.00000000000E+00  0.00000000000E+00  0.80199063580E+03  0.80199063581E+03  0.25500000920E-02 0.  1.
        2   -1    0    0  501    0  0.00000000000E+00  0.00000000000E+00 -0.19178087082E+04  0.19178087082E+04  0.25500000920E-02 0. -1.
    10030    2    1    2    0    0  0.00000000000E+00  0.00000000000E+00 -0.11158180724E+04  0.27197993440E+04  0.24803746694E+04 0.  0.
        1    1    3    3  502    0 -0.71071677331E+02 -0.42009873500E+03 -0.18350368338E+04  0.18838509261E+04  0.50400001928E-02 0. -1.
       -1    1    3    3    0  502  0.71071677331E+02  0.42009873500E+03  0.71921876143E+03  0.83594841784E+03  0.50400001928E-02 0.  1.
</event>
<event>
 5   0  0.1407158E-05  0.2393958E+04  0.7818609E-02  0.8441769E-01
        1   -1    0    0  501    0  0.00000000000E+00  0.00000000000E+00  0.82594992178E+03  0.82594992180E+03  0.50400001928E-02 0.  1.
       -1   -1    0    0    0  501  0.00000000000E+00  0.00000000000E+00 -0.17346801275E+04  0.17346801275E+04  0.50400001928E-02 0. -1.
    10030    2    1    2    0    0  0.00000000000E+00  0.00000000000E+00 -0.90873020573E+03  0.25606300493E+04  0.23939581581E+04 0.  0.
        1    1    3    3  502    0  0.56822348434E+02  0.11327786505E+04 -0.45183817241E+02  0.11351025626E+04  0.50400001928E-02 0.  1.
       -1    1    3    3    0  502 -0.56822348434E+02 -0.11327786505E+04 -0.86354638849E+03  0.14255274867E+04  0.50400001928E-02 0. -1.
</event>
<event>
 5   0  0.3345974E-05  0.2394099E+04  0.7818609E-02  0.8441716E-01
        2   -1    0    0  501    0  0.00000000000E+00  0.00000000000E+00  0.13552812038E+04  0.13552812038E+04  0.25500000920E-02 0. -1.
       -2   -1    0    0    0  501  0.00000000000E+00  0.00000000000E+00 -0.10572919399E+04  0.10572919399E+04  0.25500000920E-02 0.  1.
    10030    2    1    2    0    0  0.00000000000E+00  0.00000000000E+00  0.29798926386E+03  0.24125731437E+04  0.23940993239E+04 0.  0.
        4    1    3    3  502    0  0.25095336478E+03 -0.54353355625E+02 -0.10292126241E+04  0.10607601600E+04  0.12699999809E+01 0.  1.
       -4    1    3    3    0  502 -0.25095336478E+03  0.54353355625E+02  0.13272018880E+04  0.13518129837E+04  0.12699999809E+01 0. -1.
</event>
<event>
 5   0  0.3347728E-05  0.2386759E+04  0.7818609E-02  0.8444477E-01
        2   -1    0    0  501    0  0.00000000000E+00  0.00000000000E+00  0.23975221560E+04  0.23975221560E+04  0.25500000920E-02 0.  1.
       -2   -1    0    0    0  501  0.00000000000E+00  0.00000000000E+00 -0.59401108011E+03  0.59401108012E+03  0.25500000920E-02 0. -1.
    10030    2    1    2    0    0  0.00000000000E+00  0.00000000000E+00  0.18035110759E+04  0.29915332361E+04  0.23867590792E+04 0.  0.
        3    1    3    3  502    0  0.40612030086E+03 -0.11095374799E+04  0.69147169168E+03  0.13689924137E+04  0.10100000352E+00 0. -1.
       -3    1    3    3    0  502 -0.40612030086E+03  0.11095374799E+04  0.11120393842E+04  0.16225408224E+04  0.10100000352E+00 0.  1.
</event>
<event>
 5   0  0.1506985E-05  0.2259559E+04  0.7818609E-02  0.8494039E-01
        1   -1    0    0  501    0  0.00000000000E+00  0.00000000000E+00  0.22883416946E+04  0.22883416947E+04  0.50400001928E-02 0. -1.
       -1   -1    0    0    0  501  0.00000000000E+00  0.00000000000E+00 -0.55778451683E+03  0.55778451685E+03  0.50400001928E-02 0.  1.
    10030    2    1    2    0    0  0.00000000000E+00  0.00000000000E+00  0.17305571778E+04  0.28461262115E+04  0.22595588654E+04 0.  0.
        3    1    3    3  502    0  0.41682423479E+03  0.49159915026E+03  0.20340495013E+04  0.21337219949E+04  0.10100000352E+00 0. -1.
       -3    1    3    3    0  502 -0.41682423479E+03 -0.49159915026E+03 -0.30349232353E+03  0.71240421664E+03  0.10100000352E+00 0.  1.
</event>
<event>
 5   0  0.1434943E-05  0.2375844E+04  0.7818609E-02  0.8448603E-01
        1   -1    0    0  501    0  0.00000000000E+00  0.00000000000E+00  0.10058207439E+04  0.10058207440E+04  0.50400001928E-02 0.  1.
       -1   -1    0    0    0  501  0.00000000000E+00  0.00000000000E+00 -0.14029918339E+04  0.14029918339E+04  0.50400001928E-02 0. -1.
    10030    2    1    2    0    0  0.00000000000E+00  0.00000000000E+00 -0.39717108995E+03  0.24088125778E+04  0.23758436734E+04 0.  0.
        5    1    3    3  502    0  0.38740048820E+03  0.34247775084E+03 -0.12828962612E+04  0.13831901731E+04  0.46999998093E+01 0. -1.
       -5    1    3    3    0  502 -0.38740048820E+03 -0.34247775084E+03  0.88572517124E+03  0.10256224047E+04  0.46999998093E+01 0.  1.
</event>
<event>
 5   0  0.1393026E-05  0.2278784E+04  0.7818609E-02  0.8486334E-01
       -1   -1    0    0    0  501  0.00000000000E+00  0.00000000000E+00  0.65649730548E+03  0.65649730550E+03  0.50400001928E-02 0. -1.
        1   -1    0    0  501    0  0.00000000000E+00  0.00000000000E+00 -0.19774854422E+04  0.19774854422E+04  0.50400001928E-02 0.  1.
    10030    2    1    2    0    0  0.00000000000E+00  0.00000000000E+00 -0.13209881367E+04  0.26339827477E+04  0.22787837672E+04 0.  0.
        4    1    3    3  502    0  0.74022829565E+03 -0.25682829542E+03  0.29568091776E+03  0.83745299631E+03  0.12699999809E+01 0. -1.
       -4    1    3    3    0  502 -0.74022829565E+03  0.25682829542E+03 -0.16166690545E+04  0.17965297514E+04  0.12699999809E+01 0.  1.
</event>
<event>
 5   0  0.3347728E-05  0.2391359E+04  0.7818609E-02  0.8442746E-01
       -2   -1    0    0    0  501  0.00000000000E+00  0.00000000000E+00  0.95563232112E+03  0.95563232112E+03  0.25500000920E-02 0. -1.
        2   -1    0    0  501    0  0.00000000000E+00  0.00000000000E+00 -0.14960242261E+04  0.14960242261E+04  0.25500000920E-02 0.  1.
    10030    2    1    2    0    0  0.00000000000E+00  0.00000000000E+00 -0.54039190503E+03  0.24516565473E+04  0.23913586964E+04 0.  0.
        3    1    3    3  502    0 -0.34668801291E+03  0.54183316011E+03  0.76312369676E+03  0.99806489691E+03  0.10100000352E+00 0. -1.
       -3    1    3    3    0  502  0.34668801291E+03 -0.54183316011E+03 -0.13035156018E+04  0.14535916504E+04  0.10100000352E+00 0.  1.
</event>
<event>
 5   0  0.3310037E-05  0.2442452E+04  0.7818609E-02  0.8423779E-01
       -2   -1    0    0    0  501  0.00000000000E+00  0.00000000000E+00  0.89502802408E+03  0.89502802409E+03  0.25500000920E-02 0.  1.
        2   -1    0    0  501    0  0.00000000000E+00  0.00000000000E+00 -0.16663084254E+04  0.16663084254E+04  0.25500000920E-02 0. -1.
    10030    2    1    2    0    0  0.00000000000E+00  0.00000000000E+00 -0.77128040136E+03  0.25613364495E+04  0.24424518317E+04 0.  0.
        2    1    3    3  502    0  0.19264904283E+03  0.62860679153E+03 -0.14648746189E+04  0.16056518307E+04  0.25500000920E-02 0. -1.
       -2    1    3    3    0  502 -0.19264904283E+03 -0.62860679153E+03  0.69359421759E+03  0.95568461887E+03  0.25500000920E-02 0.  1.
</event>
<event>
 5   0  0.3347728E-05  0.2398527E+04  0.7818609E-02  0.8440055E-01
       -2   -1    0    0    0  501  0.00000000000E+00  0.00000000000E+00  0.91790038443E+03  0.91790038443E+03  0.25500000920E-02 0.  1.
        2   -1    0    0  501    0  0.00000000000E+00  0.00000000000E+00 -0.15668727012E+04  0.15668727012E+04  0.25500000920E-02 0. -1.
    10030    2    1    2    0    0  0.00000000000E+00  0.00000000000E+00 -0.64897231682E+03  0.24847730857E+04  0.23985270937E+04 0.  0.
        3    1    3    3  502    0 -0.11872003440E+04  0.17345186298E+02 -0.49933772252E+03  0.12880542239E+04  0.10100000352E+00 0. -1.
       -3    1    3    3    0  502  0.11872003440E+04 -0.17345186298E+02 -0.14963459430E+03  0.11967188618E+04  0.10100000352E+00 0.  1.
</event>
<event>
 5   0  0.3310037E-05  0.2404800E+04  0.7818609E-02  0.8437709E-01
       -2   -1    0    0    0  501  0.00000000000E+00  0.00000000000E+00  0.10478736760E+04  0.10478736760E+04  0.25500000920E-02 0.  1.
        2   -1    0    0  501    0  0.00000000000E+00  0.00000000000E+00 -0.13797141892E+04  0.13797141892E+04  0.25500000920E-02 0. -1.
    10030    2    1    2    0    0  0.00000000000E+00  0.00000000000E+00 -0.33184051316E+03  0.24275878652E+04  0.24048003487E+04 0.  0.
        2    1    3    3  502    0  0.21869125580E+03 -0.10977616209E+04  0.27739912375E+03  0.11531941361E+04  0.25500000920E-02 0.  1.
       -2    1    3    3    0  502 -0.21869125580E+03  0.10977616209E+04 -0.60923963691E+03  0.12743937291E+04  0.25500000920E-02 0. -1.
</event>
<event>
 5   0  0.3347728E-05  0.2399077E+04  0.7818609E-02  0.8439849E-01
        2   -1    0    0  501    0  0.00000000000E+00  0.00000000000E+00  0.17447007281E+04  0.17447007281E+04  0.25500000920E-02 0.  1.
       -2   -1    0    0    0  501  0.00000000000E+00  0.00000000000E+00 -0.82472140479E+03  0.82472140480E+03  0.25500000920E-02 0. -1.
    10030    2    1    2    0    0  0.00000000000E+00  0.00000000000E+00  0.91997932332E+03  0.25694221329E+04  0.23990765185E+04 0.  0.
        3    1    3    3  502    0  0.93226830633E+03 -0.10372586555E+03  0.12607465319E+04  0.15714213560E+04  0.10100000352E+00 0.  1.
       -3    1    3    3    0  502 -0.93226830633E+03  0.10372586555E+03 -0.34076720854E+03  0.99800077695E+03  0.10100000352E+00 0. -1.
</event>
<event>
 5   0  0.3320780E-05  0.2319462E+04  0.7818609E-02  0.8470287E-01
       -2   -1    0    0    0  501  0.00000000000E+00  0.00000000000E+00  0.66910579628E+03  0.66910579629E+03  0.25500000920E-02 0. -1.
        2   -1    0    0  501    0  0.00000000000E+00  0.00000000000E+00 -0.20101100143E+04  0.20101100144E+04  0.25500000920E-02 0.  1.
    10030    2    1    2    0    0  0.00000000000E+00  0.00000000000E+00 -0.13410042181E+04  0.26792158106E+04  0.23194622323E+04 0.  0.
        5    1    3    3  502    0  0.35601574564E+02  0.11466536873E+04 -0.47422982080E+03  0.12413694710E+04  0.46999998093E+01 0. -1.
       -5    1    3    3    0  502 -0.35601574564E+02 -0.11466536873E+04 -0.86677439726E+03  0.14378463396E+04  0.46999998093E+01 0.  1.
</event>
<event>
 5   0  0.3345974E-05  0.2425724E+04  0.7818609E-02  0.8429935E-01
       -2   -1    0    0    0  501  0.00000000000E+00  0.00000000000E+00  0.90801753541E+03  0.90801753541E+03  0.25500000920E-02 0. -1.
        2   -1    0    0  501    0  0.00000000000E+00  0.00000000000E+00 -0.16200503061E+04  0.16200503061E+04  0.25500000920E-02 0.  1.
    10030    2    1    2    0    0  0.00000000000E+00  0.00000000000E+00 -0.71203277065E+03  0.25280678415E+04  0.24257238805E+04 0.  0.
        4    1    3    3  502    0  0.74906023809E+03  0.77957654167E+03  0.21690597849E+03  0.11026697788E+04  0.12699999809E+01 0. -1.
       -4    1    3    3    0  502 -0.74906023809E+03 -0.77957654167E+03 -0.92893874914E+03  0.14253980627E+04  0.12699999809E+01 0.  1.
</event>
<event>
 5   0  0.3345974E-05  0.2386194E+04  0.7818609E-02  0.8444691E-01
       -2   -1    0    0    0  501  0.00000000000E+00  0.00000000000E+00  0.10340452813E+04  0.10340452813E+04  0.25500000920E-02 0. -1.
        2   -1    0    0  501    0  0.00000000000E+00  0.00000000000E+00 -0.13766127964E+04  0.13766127964E+04  0.25500000920E-02 0.  1.
    10030    2    1    2    0    0  0.00000000000E+00  0.00000000000E+00 -0.34256751515E+03  0.24106580777E+04  0.23861935934E+04 0.  0.
        4    1    3    3  502    0  0.59915176168E+03 -0.19808132115E+03  0.85164832765E+03  0.10599648722E+04  0.12699999809E+01 0. -1.
       -4    1    3    3    0  502 -0.59915176168E+03  0.19808132115E+03 -0.11942158428E+04  0.13506932055E+04  0.12699999809E+01 0.  1.
</event>
<event>
 5   0  0.1407158E-05  0.2406071E+04  0.7818609E-02  0.8437234E-01
        1   -1    0    0  501    0  0.00000000000E+00  0.00000000000E+00  0.24062586446E+04  0.24062586446E+04  0.50400001928E-02 0.  1.
       -1   -1    0    0    0  501  0.00000000000E+00  0.00000000000E+00 -0.60147064557E+03  0.60147064559E+03  0.50400001928E-02 0. -1.
    10030    2    1    2    0    0  0.00000000000E+00  0.00000000000E+00  0.18047879991E+04  0.30077292902E+04  0.24060706061E+04 0.  0.
        1    1    3    3  502    0  0.26246965337E+03  0.67098586384E+03 -0.30193973942E+03  0.78120416965E+03  0.50400001928E-02 0. -1.
       -1    1    3    3    0  502 -0.26246965337E+03 -0.67098586384E+03  0.21067277385E+04  0.22265251206E+04  0.50400001928E-02 0.  1.
</event>
<event>
 5   0  0.3310037E-05  0.2385369E+04  0.7818609E-02  0.8445002E-01
       -2   -1    0    0    0  501  0.00000000000E+00  0.00000000000E+00  0.10118428173E+04  0.10118428173E+04  0.25500000920E-02 0.  1.
        2   -1    0    0  501    0  0.00000000000E+00  0.00000000000E+00 -0.14058469885E+04  0.14058469885E+04  0.25500000920E-02 0. -1.
    10030    2    1    2    0    0  0.00000000000E+00  0.00000000000E+00 -0.39400417121E+03  0.24176898058E+04  0.23853688835E+04 0.  0.
        2    1    3    3  502    0 -0.47025649642E+03 -0.59906589055E+02 -0.13062562233E+04  0.13896169590E+04  0.25500000920E-02 0. -1.
       -2    1    3    3    0  502  0.47025649642E+03  0.59906589055E+02  0.91225205210E+03  0.10280728468E+04  0.25500000920E-02 0.  1.
</event>
<event>
 5   0  0.1434943E-05  0.2407555E+04  0.7818609E-02  0.8436681E-01
       -1   -1    0    0    0  501  0.00000000000E+00  0.00000000000E+00  0.61504249917E+03  0.61504249919E+03  0.50400001928E-02 0.  1.
        1   -1    0    0  501    0  0.00000000000E+00  0.00000000000E+00 -0.23560652262E+04  0.23560652263E+04  0.50400001928E-02 0. -1.
    10030    2    1    2    0    0  0.00000000000E+00  0.00000000000E+00 -0.17410227271E+04  0.29711077254E+04  0.24075549796E+04 0.  0.
        5    1    3    3  502    0 -0.35142042520E+03  0.11217165227E+04 -0.11906915882E+04  0.16731744741E+04  0.46999998093E+01 0. -1.
       -5    1    3    3    0  502  0.35142042520E+03 -0.11217165227E+04 -0.55033113888E+03  0.12979332513E+04  0.46999998093E+01 0.  1.
</event>
<event>
 5   0  0.1393026E-05  0.2475013E+04  0.7818609E-02  0.8411942E-01
        1   -1    0    0  501    0  0.00000000000E+00  0.00000000000E+00  0.89335157285E+03  0.89335157286E+03  0.50400001928E-02 0. -1.
       -1   -1    0    0    0  501  0.00000000000E+00  0.00000000000E+00 -0.17142432288E+04  0.17142432288E+04  0.50400001928E-02 0.  1.
    10030    2    1    2    0    0  0.00000000000E+00  0.00000000000E+00 -0.82089165595E+03  0.26075948017E+04  0.24750126341E+04 0.  0.
        4    1    3    3  502    0  0.26307590346E+03  0.11704941657E+04 -0.90614098376E+02  0.12031118196E+04  0.12699999809E+01 0. -1.
       -4    1    3    3    0  502 -0.26307590346E+03 -0.11704941657E+04 -0.73027755758E+03  0.14044829820E+04  0.12699999809E+01 0.  1.
</event>
<event>
 5   0  0.1434943E-05  0.2409318E+04  0.7818609E-02  0.8436023E-01
        1   -1    0    0  501    0  0.00000000000E+00  0.00000000000E+00  0.74907610518E+03  0.74907610520E+03  0.50400001928E-02 0.  1.
       -1   -1    0    0    0  501  0.00000000000E+00  0.00000000000E+00 -0.19373241905E+04  0.19373241906E+04  0.50400001928E-02 0. -1.
    10030    2    1    2    0    0  0.00000000000E+00  0.00000000000E+00 -0.11882480854E+04  0.26864002957E+04  0.24093179609E+04 0.  0.
        5    1    3    3  502    0  0.82804932999E+02  0.28177456309E+03  0.70853697640E+03  0.76700736519E+03  0.46999998093E+01 0.  1.
       -5    1    3    3    0  502 -0.82804932999E+02 -0.28177456309E+03 -0.18967850618E+04  0.19193929306E+04  0.46999998093E+01 0. -1.
</event>
<event>
 5   0  0.3215208E-05  0.2296910E+04  0.7818609E-02  0.8479141E-01
        2   -1    0    0  501    0  0.00000000000E+00  0.00000000000E+00  0.10031333175E+04  0.10031333175E+04  0.25500000920E-02 0. -1.
       -2   -1    0    0    0  501  0.00000000000E+00  0.00000000000E+00 -0.13148287116E+04  0.13148287116E+04  0.25500000920E-02 0.  1.
    10030    2    1    2    0    0  0.00000000000E+00  0.00000000000E+00 -0.31169539402E+03  0.23179620291E+04  0.22969096521E+04 0.  0.
        1    1    3    3  502    0  0.64419747119E+03  0.46148478798E+01  0.80362239205E+03  0.10299614691E+04  0.50400001928E-02 0. -1.
       -1    1    3    3    0  502 -0.64419747119E+03 -0.46148478798E+01 -0.11153177861E+04  0.12880005600E+04  0.50400001928E-02 0.  1.
</event>
<event>
 5   0  0.3347728E-05  0.2406734E+04  0.7818609E-02  0.8436987E-01
        2   -1    0    0  501    0  0.00000000000E+00  0.00000000000E+00  0.13434080587E+04  0.13434080587E+04  0.25500000920E-02 0. -1.
       -2   -1    0    0    0  501  0.00000000000E+00  0.00000000000E+00 -0.10779241042E+04  0.10779241042E+04  0.25500000920E-02 0.  1.
    10030    2    1    2    0    0  0.00000000000E+00  0.00000000000E+00  0.26548395445E+03  0.24213321629E+04  0.24067338268E+04 0.  0.
        3    1    3    3  502    0  0.46975904827E+03  0.96074340004E+03 -0.42232045861E+03  0.11498069508E+04  0.10100000352E+00 0.  1.
       -3    1    3    3    0  502 -0.46975904827E+03 -0.96074340004E+03  0.68780441305E+03  0.12715252121E+04  0.10100000352E+00 0. -1.
</event>
<event>
 5   0  0.3320780E-05  0.2389139E+04  0.7818609E-02  0.8443581E-01
       -2   -1    0    0    0  501  0.00000000000E+00  0.00000000000E+00  0.90447793905E+03  0.90447793905E+03  0.25500000920E-02 0. -1.
        2   -1    0    0  501    0  0.00000000000E+00  0.00000000000E+00 -0.15777011228E+04  0.15777011228E+04  0.25500000920E-02 0.  1.
    10030    2    1    2    0    0  0.00000000000E+00  0.00000000000E+00 -0.67322318376E+03  0.24821790619E+04  0.23891386398E+04 0.  0.
        5    1    3    3  502    0  0.25166514352E+03 -0.97130966845E+03 -0.10100807140E+04  0.14237496111E+04  0.46999998093E+01 0.  1.
       -5    1    3    3    0  502 -0.25166514352E+03  0.97130966845E+03  0.33685753021E+03  0.10584294507E+04  0.46999998093E+01 0. -1.
</event>
<event>
 5   0  0.1434943E-05  0.2369313E+04  0.7818609E-02  0.8451082E-01
        1   -1    0    0  501    0  0.00000000000E+00  0.00000000000E+00  0.95073006286E+03  0.95073006288E+03  0.50400001928E-02 0. -1.
       -1   -1    0    0    0  501  0.00000000000E+00  0.00000000000E+00 -0.14761402929E+04  0.14761402929E+04  0.50400001928E-02 0.  1.
    10030    2    1    2    0    0  0.00000000000E+00  0.00000000000E+00 -0.52541023008E+03  0.24268703558E+04  0.23693129414E+04 0.  0.
        5    1    3    3  502    0  0.10011712342E+03  0.44688925821E+03 -0.13817915635E+04  0.14557140730E+04  0.46999998093E+01 0.  1.
       -5    1    3    3    0  502 -0.10011712342E+03 -0.44688925821E+03  0.85638133338E+03  0.97115628282E+03  0.46999998093E+01 0. -1.
</event>
<event>
 5   0  0.3347728E-05  0.2404810E+04  0.7818609E-02  0.8437705E-01
        2   -1    0    0  501    0  0.00000000000E+00  0.00000000000E+00  0.15779282002E+04  0.15779282002E+04  0.25500000920E-02 0.  1.
       -2   -1    0    0    0  501  0.00000000000E+00  0.00000000000E+00 -0.91625036214E+03  0.91625036214E+03  0.25500000920E-02 0. -1.
    10030    2    1    2    0    0  0.00000000000E+00  0.00000000000E+00  0.66167783804E+03  0.24941785623E+04  0.24048095849E+04 0.  0.
        3    1    3    3  502    0  0.41324928603E+03 -0.78878166311E+03  0.11688417763E+04  0.14694021209E+04  0.10100000352E+00 0.  1.
       -3    1    3    3    0  502 -0.41324928603E+03  0.78878166311E+03 -0.50716393830E+03  0.10247764415E+04  0.10100000352E+00 0. -1.
</event>
<event>
 5   0  0.3345974E-05  0.2408742E+04  0.7818609E-02  0.8436238E-01
        2   -1    0    0  501    0  0.00000000000E+00  0.00000000000E+00  0.10757551637E+04  0.10757551637E+04  0.25500000920E-02 0. -1.
       -2   -1    0    0    0  501  0.00000000000E+00  0.00000000000E+00 -0.13483638920E+04  0.13483638920E+04  0.25500000920E-02 0.  1.
    10030    2    1    2    0    0  0.00000000000E+00  0.00000000000E+00 -0.27260872832E+03  0.24241190557E+04  0.24087419284E+04 0.  0.
        4    1    3    3  502    0 -0.94472581644E+03 -0.71009273705E+02  0.61205464272E+03  0.11279014513E+04  0.12699999809E+01 0. -1.
       -4    1    3    3    0  502  0.94472581644E+03  0.71009273705E+02 -0.88466337104E+03  0.12962176045E+04  0.12699999809E+01 0.  1.
</event>
<event>
 5   0  0.3320780E-05  0.2438012E+04  0.7818609E-02  0.8425408E-01
        2   -1    0    0  501    0  0.00000000000E+00  0.00000000000E+00  0.80233654038E+03  0.80233654038E+03  0.25500000920E-02 0.  1.
       -2   -1    0    0    0  501  0.00000000000E+00  0.00000000000E+00 -0.18520596852E+04  0.18520596852E+04  0.25500000920E-02 0. -1.
    10030    2    1    2    0    0  0.00000000000E+00  0.00000000000E+00 -0.10497231448E+04  0.26543962255E+04  0.24380116164E+04 0.  0.
        5    1    3    3  502    0  0.15872871778E+03  0.35378760148E+03 -0.17831116974E+04  0.18247931084E+04  0.46999998093E+01 0. -1.
       -5    1    3    3    0  502 -0.15872871778E+03 -0.35378760148E+03  0.73338855267E+03  0.82960311716E+03  0.46999998093E+01 0.  1.
</event>
<event>
 5   0  0.1434943E-05  0.2412062E+04  0.7818609E-02  0.8435001E-01
       -1   -1    0    0    0  501  0.00000000000E+00  0.00000000000E+00  0.12938141065E+04  0.12938141065E+04  0.50400001928E-02 0.  1.
        1   -1    0    0  501    0  0.00000000000E+00  0.00000000000E+00 -0.11242039652E+04  0.11242039652E+04  0.50400001928E-02 0. -1.
    10030    2    1    2    0    0  0.00000000000E+00  0.00000000000E+00  0.16961014126E+03  0.24180180717E+04  0.24120621458E+04 0.  0.
        5    1    3    3  502    0 -0.71860192754E+02 -0.28956842110E+03  0.12562258997E+04  0.12911775087E+04  0.46999998093E+01 0.  1.
       -5    1    3    3    0  502  0.71860192754E+02  0.28956842110E+03 -0.10866157585E+04  0.11268405630E+04  0.46999998093E+01 0. -1.
</event>
<event>
 5   0  0.3347728E-05  0.2165741E+04  0.7818609E-02  0.8532824E-01
       -2   -1    0    0    0  501  0.00000000000E+00  0.00000000000E+00  0.55218922835E+03  0.55218922836E+03  0.25500000920E-02 0. -1.
        2   -1    0    0  501    0  0.00000000000E+00  0.00000000000E+00 -0.21235631442E+04  0.21235631442E+04  0.25500000920E-02 0.  1.
    10030    2    1    2    0    0  0.00000000000E+00  0.00000000000E+00 -0.15713739159E+04  0.26757523726E+04  0.21657411609E+04 0.  0.
        3    1    3    3  502    0 -0.22108751821E+02 -0.51508061849E+03 -0.19622032902E+04  0.20288022582E+04  0.10100000352E+00 0.  1.
       -3    1    3    3    0  502  0.22108751821E+02  0.51508061849E+03  0.39082937436E+03  0.64695011439E+03  0.10100000352E+00 0. -1.
</event>
<event>
 5   0  0.3215208E-05  0.2350831E+04  0.7818609E-02  0.8458145E-01
       -2   -1    0    0    0  501  0.00000000000E+00  0.00000000000E+00  0.11399142825E+04  0.11399142825E+04  0.25500000920E-02 0. -1.
        2   -1    0    0  501    0  0.00000000000E+00  0.00000000000E+00 -0.12120219304E+04  0.12120219304E+04  0.25500000920E-02 0.  1.
    10030    2    1    2    0    0  0.00000000000E+00  0.00000000000E+00 -0.72107647933E+02  0.23519362128E+04  0.23508305844E+04 0.  0.
        1    1    3    3  502    0  0.49012123332E+03  0.72968583292E+03 -0.81676746703E+03  0.11999038850E+04  0.50400001928E-02 0.  1.
       -1    1    3    3    0  502 -0.49012123332E+03 -0.72968583292E+03  0.74465981910E+03  0.11520323278E+04  0.50400001928E-02 0. -1.
</event>
<event>
 5   0  0.3345974E-05  0.2391852E+04  0.7818609E-02  0.8442560E-01
       -2   -1    0    0    0  501  0.00000000000E+00  0.00000000000E+00  0.10549794168E+04  0.10549794168E+04  0.25500000920E-02 0. -1.
        2   -1    0    0  501    0  0.00000000000E+00  0.00000000000E+00 -0.13557033826E+04  0.13557033826E+04  0.25500000920E-02 0.  1.
    10030    2    1    2    0    0  0.00000000000E+00  0.00000000000E+00 -0.30072396580E+03  0.24106827995E+04  0.23918521393E+04 0.  0.
        4    1    3    3  502    0 -0.10083848812E+04  0.42959464522E+03  0.33178264314E+03  0.11451956004E+04  0.12699999809E+01 0.  1.
       -4    1    3    3    0  502  0.10083848812E+04 -0.42959464522E+03 -0.63250660893E+03  0.12654871991E+04  0.12699999809E+01 0. -1.
</event>
<event>
 5   0  0.3215208E-05  0.2408329E+04  0.7818609E-02  0.8436392E-01
        2   -1    0    0  501    0  0.00000000000E+00  0.00000000000E+00  0.12651897890E+04  0.12651897890E+04  0.25500000920E-02 0.  1.
       -2   -1    0    0    0  501  0.00000000000E+00  0.00000000000E+00 -0.11460827243E+04  0.11460827243E+04  0.25500000920E-02 0. -1.
    10030    2    1    2    0    0  0.00000000000E+00  0.00000000000E+00  0.11910706464E+03  0.24112725133E+04  0.24083290142E+04 0.  0.
        1    1    3    3  502    0 -0.10888184371E+03 -0.84627787616E+03 -0.79117353776E+03  0.11636137961E+04  0.50400001928E-02 0. -1.
       -1    1    3    3    0  502  0.10888184371E+03  0.84627787616E+03  0.91028060240E+03  0.12476587172E+04  0.50400001928E-02 0.  1.
</event>
<event>
 5   0  0.3347728E-05  0.2398839E+04  0.7818609E-02  0.8439938E-01
        2   -1    0    0  501    0  0.00000000000E+00  0.00000000000E+00  0.21413950082E+04  0.21413950082E+04  0.25500000920E-02 0.  1.
       -2   -1    0    0    0  501  0.00000000000E+00  0.00000000000E+00 -0.67180855379E+03  0.67180855379E+03  0.25500000920E-02 0. -1.
    10030    2    1    2    0    0  0.00000000000E+00  0.00000000000E+00  0.14695864545E+04  0.28132035620E+04  0.23988392890E+04 0.  0.
        3    1    3    3  502    0 -0.62623519935E+03  0.39141955849E+03  0.18431538583E+04  0.19855971271E+04  0.10100000352E+00 0.  1.
       -3    1    3    3    0  502  0.62623519935E+03 -0.39141955849E+03 -0.37356740385E+03  0.82760643490E+03  0.10100000352E+00 0. -1.
</event>
<event>
 5   0  0.3310037E-05  0.2409396E+04  0.7818609E-02  0.8435994E-01
       -2   -1    0    0    0  501  0.00000000000E+00  0.00000000000E+00  0.57493253746E+03  0.57493253746E+03  0.25500000920E-02 0. -1.
        2   -1    0    0  501    0  0.00000000000E+00  0.00000000000E+00 -0.25242909338E+04  0.25242909338E+04  0.25500000920E-02 0.  1.
    10030    2    1    2    0    0  0.00000000000E+00  0.00000000000E+00 -0.19493583963E+04  0.30992234713E+04  0.24093957681E+04 0.  0.
        2    1    3    3  502    0 -0.70642322801E+03 -0.94369017036E+03 -0.65513581319E+03  0.13486244282E+04  0.25500000920E-02 0. -1.
       -2    1    3    3    0  502  0.70642322801E+03  0.94369017036E+03 -0.12942225832E+04  0.17505990430E+04  0.25500000920E-02 0.  1.
</event>
<event>
 5   0  0.3215208E-05  0.2376437E+04  0.7818609E-02  0.8448378E-01
        2   -1    0    0  501    0  0.00000000000E+00  0.00000000000E+00  0.11347229609E+04  0.11347229609E+04  0.25500000920E-02 0. -1.
       -2   -1    0    0    0  501  0.00000000000E+00  0.00000000000E+00 -0.12442357420E+04  0.12442357420E+04  0.25500000920E-02 0.  1.
    10030    2    1    2    0    0  0.00000000000E+00  0.00000000000E+00 -0.10951278102E+03  0.23789587029E+04  0.23764367151E+04 0.  0.
        1    1    3    3  502    0  0.18187022788E+03  0.11672594087E+04  0.73017453770E+02  0.11835974212E+04  0.50400001928E-02 0. -1.
       -1    1    3    3    0  502 -0.18187022788E+03 -0.11672594087E+04 -0.18253023479E+03  0.11953612816E+04  0.50400001928E-02 0.  1.
</event>
<event>
 5   0  0.3310037E-05  0.2392781E+04  0.7818609E-02  0.8442211E-01
        2   -1    0    0  501    0  0.00000000000E+00  0.00000000000E+00  0.15609238066E+04  0.15609238066E+04  0.25500000920E-02 0. -1.
       -2   -1    0    0    0  501  0.00000000000E+00  0.00000000000E+00 -0.91698918781E+03  0.91698918781E+03  0.25500000920E-02 0.  1.
    10030    2    1    2    0    0  0.00000000000E+00  0.00000000000E+00  0.64393461880E+03  0.24779129944E+04  0.23927810210E+04 0.  0.
        2    1    3    3  502    0  0.19276273452E+03  0.74146803621E+03  0.12735834987E+04  0.14862527540E+04  0.25500000920E-02 0. -1.
       -2    1    3    3    0  502 -0.19276273452E+03 -0.74146803621E+03 -0.62964887989E+03  0.99166024045E+03  0.25500000920E-02 0.  1.
</event>
<event>
 5   0  0.1407158E-05  0.2402132E+04  0.7818609E-02  0.8438706E-01
        1   -1    0    0  501    0  0.00000000000E+00  0.00000000000E+00  0.14787575822E+04  0.14787575822E+04  0.50400001928E-02 0.  1.
       -1   -1    0    0    0  501  0.00000000000E+00  0.00000000000E+00 -0.97552106202E+03  0.97552106204E+03  0.50400001928E-02 0. -1.
    10030    2    1    2    0    0  0.00000000000E+00  0.00000000000E+00  0.50323652015E+03  0.24542786442E+04  0.24021316925E+04 0.  0.
        1    1    3    3  502    0  0.10321863325E+03 -0.87141773265E+03 -0.58626766141E+03  0.10553353599E+04  0.50400001928E-02 0. -1.
       -1    1    3    3    0  502 -0.10321863325E+03  0.87141773265E+03  0.10895041816E+04  0.13989432843E+04  0.50400001928E-02 0.  1.
</event>
<event>
 5   0  0.1401596E-05  0.2380937E+04  0.7818609E-02  0.8446675E-01
       -1   -1    0    0    0  501  0.00000000000E+00  0.00000000000E+00  0.11353505219E+04  0.11353505219E+04  0.50400001928E-02 0. -1.
        1   -1    0    0  501    0  0.00000000000E+00  0.00000000000E+00 -0.12482623129E+04  0.12482623129E+04  0.50400001928E-02 0.  1.
    10030    2    1    2    0    0  0.00000000000E+00  0.00000000000E+00 -0.11291179102E+03  0.23836128349E+04  0.23809370160E+04 0.  0.
        2    1    3    3  502    0 -0.57200239771E+03 -0.61112105816E+03  0.79099386437E+03  0.11516627042E+04  0.25500000920E-02 0. -1.
       -2    1    3    3    0  502  0.57200239771E+03  0.61112105816E+03 -0.90390565539E+03  0.12319501307E+04  0.25500000920E-02 0.  1.
</event>
<event>
 5   0  0.1393026E-05  0.2420462E+04  0.7818609E-02  0.8431882E-01
        1   -1    0    0  501    0  0.00000000000E+00  0.00000000000E+00  0.16212055307E+04  0.16212055307E+04  0.50400001928E-02 0. -1.
       -1   -1    0    0    0  501  0.00000000000E+00  0.00000000000E+00 -0.90343813251E+03  0.90343813253E+03  0.50400001928E-02 0.  1.
    10030    2    1    2    0    0  0.00000000000E+00  0.00000000000E+00  0.71776739816E+03  0.25246436632E+04  0.24204618543E+04 0.  0.
        4    1    3    3  502    0 -0.66537439002E+03  0.90304116091E+03 -0.11504193717E+03  0.11275826699E+04  0.12699999809E+01 0.  1.
       -4    1    3    3    0  502  0.66537439002E+03 -0.90304116091E+03  0.83280933533E+03  0.13970609933E+04  0.12699999809E+01 0. -1.
</event>
<event>
 5   0  0.1434943E-05  0.2149270E+04  0.7818609E-02  0.8539845E-01
       -1   -1    0    0    0  501  0.00000000000E+00  0.00000000000E+00  0.69111167399E+03  0.69111167401E+03  0.50400001928E-02 0. -1.
        1   -1    0    0  501    0  0.00000000000E+00  0.00000000000E+00 -0.16709894656E+04  0.16709894656E+04  0.50400001928E-02 0.  1.
    10030    2    1    2    0    0  0.00000000000E+00  0.00000000000E+00 -0.97987779160E+03  0.23621011396E+04  0.21492699475E+04 0.  0.
        5    1    3    3  502    0  0.85367635630E+03  0.65189000239E+03 -0.45358225749E+03  0.11659686320E+04  0.46999998093E+01 0.  1.
       -5    1    3    3    0  502 -0.85367635630E+03 -0.65189000239E+03 -0.52629553411E+03  0.11961325076E+04  0.46999998093E+01 0. -1.
</event>
<event>
 5   0  0.3347728E-05  0.2410978E+04  0.7818609E-02  0.8435405E-01
       -2   -1    0    0    0  501  0.00000000000E+00  0.00000000000E+00  0.82607152260E+03  0.82607152260E+03  0.25500000920E-02 0.  1.
        2   -1    0    0  501    0  0.00000000000E+00  0.00000000000E+00 -0.17591746255E+04  0.17591746255E+04  0.25500000920E-02 0. -1.
    10030    2    1    2    0    0  0.00000000000E+00  0.00000000000E+00 -0.93310310293E+03  0.25852461481E+04  0.24109782757E+04 0.  0.
        3    1    3    3  502    0 -0.10726931638E+04 -0.93770874650E+02 -0.10477045473E+04  0.15023809202E+04  0.10100000352E+00 0. -1.
       -3    1    3    3    0  502  0.10726931638E+04  0.93770874650E+02  0.11460144441E+03  0.10828652279E+04  0.10100000352E+00 0.  1.
</event>
<event>
 5   0  0.3347728E-05  0.2430253E+04  0.7818609E-02  0.8428263E-01
        2   -1    0    0  501    0  0.00000000000E+00  0.00000000000E+00  0.30025865316E+04  0.30025865316E+04  0.25500000920E-02 0.  1.
       -2   -1    0    0    0  501  0.00000000000E+00  0.00000000000E+00 -0.49175359544E+03  0.49175359545E+03  0.25500000920E-02 0. -1.
    10030    2    1    2    0    0  0.00000000000E+00  0.00000000000E+00  0.25108329361E+04  0.34943401270E+04  0.24302532564E+04 0.  0.
        3    1    3    3  502    0  0.43021522427E+03 -0.55547097293E+03  0.26809197271E+04  0.27714551655E+04  0.10100000352E+00 0.  1.
       -3    1    3    3    0  502 -0.43021522427E+03  0.55547097293E+03 -0.17008679096E+03  0.72288496154E+03  0.10100000352E+00 0. -1.
</event>
<event>
 5   0  0.1506985E-05  0.2405509E+04  0.7818609E-02  0.8437444E-01
        1   -1    0    0  501    0  0.00000000000E+00  0.00000000000E+00  0.12514173417E+04  0.12514173417E+04  0.50400001928E-02 0. -1.
       -1   -1    0    0    0  501  0.00000000000E+00  0.00000000000E+00 -0.11559840495E+04  0.11559840495E+04  0.50400001928E-02 0.  1.
    10030    2    1    2    0    0  0.00000000000E+00  0.00000000000E+00  0.95433292176E+02  0.24074013912E+04  0.24055090823E+04 0.  0.
        3    1    3    3  502    0 -0.52840595958E+03  0.79279697676E+03 -0.68694431623E+03  0.11745775446E+04  0.10100000352E+00 0.  1.
       -3    1    3    3    0  502  0.52840595958E+03 -0.79279697676E+03  0.78237760840E+03  0.12328238466E+04  0.10100000352E+00 0. -1.
</event>
<event>
 5   0  0.1393026E-05  0.2380383E+04  0.7818609E-02  0.8446885E-01
        1   -1    0    0  501    0  0.00000000000E+00  0.00000000000E+00  0.24151998279E+04  0.24151998279E+04  0.50400001928E-02 0.  1.
       -1   -1    0    0    0  501  0.00000000000E+00  0.00000000000E+00 -0.58651680955E+03  0.58651680957E+03  0.50400001928E-02 0. -1.
    10030    2    1    2    0    0  0.00000000000E+00  0.00000000000E+00  0.18286830183E+04  0.30017166375E+04  0.23803825722E+04 0.  0.
        4    1    3    3  502    0 -0.88773765533E+03 -0.49006364517E+03  0.12853795824E+03  0.10221370459E+04  0.12699999809E+01 0. -1.
       -4    1    3    3    0  502  0.88773765533E+03  0.49006364517E+03  0.17001450601E+04  0.19795795916E+04  0.12699999809E+01 0.  1.
</event>
<event>
 5   0  0.1434943E-05  0.2404318E+04  0.7818609E-02  0.8437889E-01
        1   -1    0    0  501    0  0.00000000000E+00  0.00000000000E+00  0.10528008317E+04  0.10528008317E+04  0.50400001928E-02 0.  1.
       -1   -1    0    0    0  501  0.00000000000E+00  0.00000000000E+00 -0.13727059212E+04  0.13727059212E+04  0.50400001928E-02 0. -1.
    10030    2    1    2    0    0  0.00000000000E+00  0.00000000000E+00 -0.31990508955E+03  0.24255067529E+04  0.24043177290E+04 0.  0.
        5    1    3    3  502    0 -0.11644020502E+04  0.13113193077E+03 -0.43090122627E+03  0.12484893570E+04  0.46999998093E+01 0. -1.
       -5    1    3    3    0  502  0.11644020502E+04 -0.13113193077E+03  0.11099613672E+03  0.11770173959E+04  0.46999998093E+01 0.  1.
</event>
<event>
 5   0  0.3345974E-05  0.2303980E+04  0.7818609E-02  0.8476354E-01
       -2   -1    0    0    0  501  0.00000000000E+00  0.00000000000E+00  0.12425911059E+04  0.12425911059E+04  0.25500000920E-02 0.  1.
        2   -1    0    0  501    0  0.00000000000E+00  0.00000000000E+00 -0.10679948991E+04  0.10679948991E+04  0.25500000920E-02 0. -1.
    10030    2    1    2    0    0  0.00000000000E+00  0.00000000000E+00  0.17459620680E+03  0.23105860050E+04  0.23039800023E+04 0.  0.
        4    1    3    3  502    0 -0.98909747279E+03  0.23141786458E+03  0.63218947405E+03  0.11964669585E+04  0.12699999809E+01 0.  1.
       -4    1    3    3    0  502  0.98909747279E+03 -0.23141786458E+03 -0.45759326725E+03  0.11141190465E+04  0.12699999809E+01 0. -1.
</event>
<event>
 5   0  0.3345974E-05  0.2364120E+04  0.7818609E-02  0.8453060E-01
        2   -1    0    0  501    0  0.00000000000E+00  0.00000000000E+00  0.11199753085E+04  0.11199753085E+04  0.25500000920E-02 0.  1.
       -2   -1    0    0    0  501  0.00000000000E+00  0.00000000000E+00 -0.12475861617E+04  0.12475861617E+04  0.25500000920E-02 0. -1.
    10030    2    1    2    0    0  0.00000000000E+00  0.00000000000E+00 -0.12761085321E+03  0.23675614701E+04  0.23641198753E+04 0.  0.
        4    1    3    3  502    0  0.38714796441E+03  0.68941920827E+01 -0.11822719167E+04  0.12440657435E+04  0.12699999809E+01 0. -1.
       -4    1    3    3    0  502 -0.38714796441E+03 -0.68941920827E+01  0.10546610634E+04  0.11234957267E+04  0.12699999809E+01 0.  1.
</event>
<event>
 5   0  0.3347728E-05  0.2392773E+04  0.7818609E-02  0.8442214E-01
       -2   -1    0    0    0  501  0.00000000000E+00  0.00000000000E+00  0.12994556233E+04  0.12994556233E+04  0.25500000920E-02 0.  1.
        2   -1    0    0  501    0  0.00000000000E+00  0.00000000000E+00 -0.11014927180E+04  0.11014927180E+04  0.25500000920E-02 0. -1.
    10030    2    1    2    0    0  0.00000000000E+00  0.00000000000E+00  0.19796290533E+03  0.24009483413E+04  0.23927732081E+04 0.  0.
        3    1    3    3  502    0  0.55548153508E+03  0.10588995182E+04  0.59951632485E+02  0.11972560853E+04  0.10100000352E+00 0.  1.
       -3    1    3    3    0  502 -0.55548153508E+03 -0.10588995182E+04  0.13801127284E+03  0.12036922559E+04  0.10100000352E+00 0. -1.
</event>
<event>
 5   0  0.1407158E-05  0.2403684E+04  0.7818609E-02  0.8438126E-01
       -1   -1    0    0    0  501  0.00000000000E+00  0.00000000000E+00  0.14930571929E+04  0.14930571929E+04  0.50400001928E-02 0. -1.
        1   -1    0    0  501    0  0.00000000000E+00  0.00000000000E+00 -0.96742737816E+03  0.96742737818E+03  0.50400001928E-02 0.  1.
    10030    2    1    2    0    0  0.00000000000E+00  0.00000000000E+00  0.52562981469E+03  0.24604845710E+04  0.24036841769E+04 0.  0.
        1    1    3    3  502    0  0.49645707093E+03 -0.97006034663E+03  0.78168323634E+03  0.13410873877E+04  0.50400001928E-02 0. -1.
       -1    1    3    3    0  502 -0.49645707093E+03  0.97006034663E+03 -0.25605342165E+03  0.11193971834E+04  0.50400001928E-02 0.  1.
</event>
<event>
 5   0  0.3345974E-05  0.2398212E+04  0.7818609E-02  0.8440173E-01
       -2   -1    0    0    0  501  0.00000000000E+00  0.00000000000E+00  0.14207097078E+04  0.14207097078E+04  0.25500000920E-02 0. -1.
        2   -1    0    0  501    0  0.00000000000E+00  0.00000000000E+00 -0.10120679489E+04  0.10120679490E+04  0.25500000920E-02 0.  1.
    10030    2    1    2    0    0  0.00000000000E+00  0.00000000000E+00  0.40864175889E+03  0.24327776568E+04  0.23982116338E+04 0.  0.
        4    1    3    3  502    0  0.96298721380E+03  0.41178670919E+03 -0.38799611967E+03  0.11168953709E+04  0.12699999809E+01 0. -1.
       -4    1    3    3    0  502 -0.96298721380E+03 -0.41178670919E+03  0.79663787856E+03  0.13158822859E+04  0.12699999809E+01 0.  1.
</event>
<event>
 5   0  0.1393026E-05  0.2399694E+04  0.7818609E-02  0.8439618E-01
       -1   -1    0    0    0  501  0.00000000000E+00  0.00000000000E+00  0.81132249904E+03  0.81132249906E+03  0.50400001928E-02 0. -1.
        1   -1    0    0  501    0  0.00000000000E+00  0.00000000000E+00 -0.17744278766E+04  0.17744278766E+04  0.50400001928E-02 0.  1.
    10030    2    1    2    0    0  0.00000000000E+00  0.00000000000E+00 -0.96310537756E+03  0.25857503757E+04  0.23996943632E+04 0.  0.
        4    1    3    3  502    0 -0.54303070612E+03 -0.62391500591E+03  0.45502103262E+03  0.94403285717E+03  0.12699999809E+01 0. -1.
       -4    1    3    3    0  502  0.54303070612E+03  0.62391500591E+03 -0.14181264102E+04  0.16417175185E+04  0.12699999809E+01 0.  1.
</event>
<event>
 5   0  0.3215208E-05  0.2396960E+04  0.7818609E-02  0.8440643E-01
        2   -1    0    0  501    0  0.00000000000E+00  0.00000000000E+00  0.18401716816E+04  0.18401716816E+04  0.25500000920E-02 0.  1.
       -2   -1    0    0    0  501  0.00000000000E+00  0.00000000000E+00 -0.78055421321E+03  0.78055421322E+03  0.25500000920E-02 0. -1.
    10030    2    1    2    0    0  0.00000000000E+00  0.00000000000E+00  0.10596174684E+04  0.26207258948E+04  0.23969595400E+04 0.  0.
        1    1    3    3  502    0  0.10668352419E+04 -0.54602032585E+03  0.53947298809E+03  0.13142704191E+04  0.50400001928E-02 0. -1.
       -1    1    3    3    0  502 -0.10668352419E+04  0.54602032585E+03  0.52014448031E+03  0.13064554757E+04  0.50400001928E-02 0.  1.
</event>
<event>
 5   0  0.3320780E-05  0.2394597E+04  0.7818609E-02  0.8441529E-01
       -2   -1    0    0    0  501  0.00000000000E+00  0.00000000000E+00  0.12471902890E+04  0.12471902890E+04  0.25500000920E-02 0. -1.
        2   -1    0    0  501    0  0.00000000000E+00  0.00000000000E+00 -0.11494029168E+04  0.11494029168E+04  0.25500000920E-02 0.  1.
    10030    2    1    2    0    0  0.00000000000E+00  0.00000000000E+00  0.97787372222E+02  0.23965932057E+04  0.23945973824E+04 0.  0.
        5    1    3    3  502    0 -0.88505894250E+03  0.55951205709E+03  0.62999710465E+03  0.12220071667E+04  0.46999998093E+01 0. -1.
       -5    1    3    3    0  502  0.88505894250E+03 -0.55951205709E+03 -0.53220973243E+03  0.11745860390E+04  0.46999998093E+01 0.  1.
</event>
<event>
 5   0  0.1407158E-05  0.2383515E+04  0.7818609E-02  0.8445701E-01
       -1   -1    0    0    0  501  0.00000000000E+00  0.00000000000E+00  0.59603069324E+03  0.59603069326E+03  0.50400001928E-02 0.  1.
        1   -1    0    0  501    0  0.00000000000E+00  0.00000000000E+00 -0.23829068024E+04  0.23829068024E+04  0.50400001928E-02 0. -1.
    10030    2    1    2    0    0  0.00000000000E+00  0.00000000000E+00 -0.17868761092E+04  0.29789374957E+04  0.23835147102E+04 0.  0.
        1    1    3    3  502    0 -0.28688843602E+03  0.83103092684E+03 -0.18990241075E+04  0.20926561918E+04  0.50400001928E-02 0. -1.
       -1    1    3    3    0  502  0.28688843602E+03 -0.83103092684E+03  0.11214799834E+03  0.88628130390E+03  0.50400001928E-02 0.  1.
</event>
<event>
 5   0  0.1407158E-05  0.2399795E+04  0.7818609E-02  0.8439580E-01
        1   -1    0    0  501    0  0.00000000000E+00  0.00000000000E+00  0.17884361364E+04  0.17884361364E+04  0.50400001928E-02 0.  1.
       -1   -1    0    0    0  501  0.00000000000E+00  0.00000000000E+00 -0.80503501654E+03  0.80503501656E+03  0.50400001928E-02 0. -1.
    10030    2    1    2    0    0  0.00000000000E+00  0.00000000000E+00  0.98340111986E+03  0.25934711530E+04  0.23997947535E+04 0.  0.
        1    1    3    3  502    0  0.95590341708E+02  0.96405380210E+03  0.12568037065E+04  0.15868499625E+04  0.50400001928E-02 0.  1.
       -1    1    3    3    0  502 -0.95590341708E+02 -0.96405380210E+03 -0.27340258661E+03  0.10066211905E+04  0.50400001928E-02 0. -1.
</event>
<event>
 5   0  0.1393026E-05  0.2388679E+04  0.7818609E-02  0.8443754E-01
        1   -1    0    0  501    0  0.00000000000E+00  0.00000000000E+00  0.25418247858E+04  0.25418247858E+04  0.50400001928E-02 0.  1.
       -1   -1    0    0    0  501  0.00000000000E+00  0.00000000000E+00 -0.56119014733E+03  0.56119014735E+03  0.50400001928E-02 0. -1.
    10030    2    1    2    0    0  0.00000000000E+00  0.00000000000E+00  0.19806346385E+04  0.31030149332E+04  0.23886791548E+04 0.  0.
        4    1    3    3  502    0  0.36467918737E+03  0.64768243380E+03 -0.22411219432E+03  0.77634485462E+03  0.12699999809E+01 0. -1.
       -4    1    3    3    0  502 -0.36467918737E+03 -0.64768243380E+03  0.22047468328E+04  0.23266700786E+04  0.12699999809E+01 0.  1.
</event>
<event>
 5   0  0.3345974E-05  0.2394402E+04  0.7818609E-02  0.8441602E-01
       -2   -1    0    0    0  501  0.00000000000E+00  0.00000000000E+00  0.47923933446E+03  0.47923933447E+03  0.25500000920E-02 0.  1.
        2   -1    0    0  501    0  0.00000000000E+00  0.00000000000E+00 -0.29907611798E+04  0.29907611798E+04  0.25500000920E-02 0. -1.
    10030    2    1    2    0    0  0.00000000000E+00  0.00000000000E+00 -0.25115218454E+04  0.34700005143E+04  0.23944021361E+04 0.  0.
        4    1    3    3  502    0  0.25531795061E+03 -0.48317699773E+03  0.28793509297E+03  0.61770178703E+03  0.12699999809E+01 0.  1.
       -4    1    3    3    0  502 -0.25531795061E+03  0.48317699773E+03 -0.27994569384E+04  0.28522987273E+04  0.12699999809E+01 0. -1.
</event>
<event>
 5   0  0.1407158E-05  0.2393413E+04  0.7818609E-02  0.8441974E-01
       -1   -1    0    0    0  501  0.00000000000E+00  0.00000000000E+00  0.89729648424E+03  0.89729648425E+03  0.50400001928E-02 0. -1.
        1   -1    0    0  501    0  0.00000000000E+00  0.00000000000E+00 -0.15960237377E+04  0.15960237377E+04  0.50400001928E-02 0.  1.
    10030    2    1    2    0    0  0.00000000000E+00  0.00000000000E+00 -0.69872725346E+03  0.24933202220E+04  0.23934130347E+04 0.  0.
        1    1    3    3  502    0 -0.39115980630E+02 -0.10622821218E+04 -0.92197448198E+03  0.14071283921E+04  0.50400001928E-02 0.  1.
       -1    1    3    3    0  502  0.39115980630E+02  0.10622821218E+04  0.22324722852E+03  0.10861918299E+04  0.50400001928E-02 0. -1.
</event>
<event>
 5   0  0.3215208E-05  0.2337156E+04  0.7818609E-02  0.8463413E-01
       -2   -1    0    0    0  501  0.00000000000E+00  0.00000000000E+00  0.55778550052E+03  0.55778550053E+03  0.25500000920E-02 0. -1.
        2   -1    0    0  501    0  0.00000000000E+00  0.00000000000E+00 -0.24482080689E+04  0.24482080689E+04  0.25500000920E-02 0.  1.
    10030    2    1    2    0    0  0.00000000000E+00  0.00000000000E+00 -0.18904225684E+04  0.30059935695E+04  0.23371563603E+04 0.  0.
        1    1    3    3  502    0 -0.89589817735E+03  0.61303995059E+03 -0.38884042812E+03  0.11531038131E+04  0.50400001928E-02 0. -1.
       -1    1    3    3    0  502  0.89589817735E+03 -0.61303995059E+03 -0.15015821403E+04  0.18528897564E+04  0.50400001928E-02 0.  1.
</event>
<event>
 5   0  0.1147362E-05  0.2411339E+04  0.7818609E-02  0.8435271E-01
       -3   -1    0    0    0  501  0.00000000000E+00  0.00000000000E+00  0.23004262768E+04  0.23004262791E+04  0.10100000352E+00 0. -1.
        3   -1    0    0  501    0  0.00000000000E+00  0.00000000000E+00 -0.63189992673E+03  0.63189993481E+03  0.10100000352E+00 0.  1.
    10030    2    1    2    0    0  0.00000000000E+00  0.00000000000E+00  0.16685263501E+04  0.29323262139E+04  0.24113392220E+04 0.  0.
        5    1    3    3  502    0 -0.91695331741E+03  0.73416142170E+03  0.11646655604E+04  0.16541657526E+04  0.46999998093E+01 0. -1.
       -5    1    3    3    0  502  0.91695331741E+03 -0.73416142170E+03  0.50386078973E+03  0.12781604613E+04  0.46999998093E+01 0.  1.
</event>
<event>
 5   0  0.1434943E-05  0.2415848E+04  0.7818609E-02  0.8433594E-01
        1   -1    0    0  501    0  0.00000000000E+00  0.00000000000E+00  0.87769949957E+03  0.87769949959E+03  0.50400001928E-02 0.  1.
       -1   -1    0    0    0  501  0.00000000000E+00  0.00000000000E+00 -0.16623922188E+04  0.16623922188E+04  0.50400001928E-02 0. -1.
    10030    2    1    2    0    0  0.00000000000E+00  0.00000000000E+00 -0.78469271922E+03  0.25400917184E+04  0.24158483550E+04 0.  0.
        5    1    3    3  502    0  0.66764159900E+03 -0.81007774497E+03  0.23595360468E+03  0.10759495579E+04  0.46999998093E+01 0.  1.
       -5    1    3    3    0  502 -0.66764159900E+03  0.81007774497E+03 -0.10206463239E+04  0.14641421605E+04  0.46999998093E+01 0. -1.
</event>
<event>
 5   0  0.3347728E-05  0.2379029E+04  0.7818609E-02  0.8447397E-01
       -2   -1    0    0    0  501  0.00000000000E+00  0.00000000000E+00  0.10357380393E+04  0.10357380393E+04  0.25500000920E-02 0.  1.
        2   -1    0    0  501    0  0.00000000000E+00  0.00000000000E+00 -0.13661219852E+04  0.13661219852E+04  0.25500000920E-02 0. -1.
    10030    2    1    2    0    0  0.00000000000E+00  0.00000000000E+00 -0.33038394592E+03  0.24018600245E+04  0.23790287988E+04 0.  0.
        3    1    3    3  502    0  0.64222238396E+03  0.25987012737E+02 -0.11757069452E+04  0.13399297543E+04  0.10100000352E+00 0.  1.
       -3    1    3    3    0  502 -0.64222238396E+03 -0.25987012737E+02  0.84532299932E+03  0.10619302702E+04  0.10100000352E+00 0. -1.
</event>
<event>
 5   0  0.1407158E-05  0.2113765E+04  0.7818609E-02  0.8555204E-01
       -1   -1    0    0    0  501  0.00000000000E+00  0.00000000000E+00  0.89846031377E+03  0.89846031378E+03  0.50400001928E-02 0.  1.
        1   -1    0    0  501    0  0.00000000000E+00  0.00000000000E+00 -0.12432388725E+04  0.12432388725E+04  0.50400001928E-02 0. -1.
    10030    2    1    2    0    0  0.00000000000E+00  0.00000000000E+00 -0.34477855871E+03  0.21416991863E+04  0.21137651596E+04 0.  0.
        1    1    3    3  502    0 -0.69106544689E+03 -0.25178623594E+03  0.59660910721E+03  0.94705342369E+03  0.50400001928E-02 0.  1.
       -1    1    3    3    0  502  0.69106544689E+03  0.25178623594E+03 -0.94138766592E+03  0.11946457626E+04  0.50400001928E-02 0. -1.
</event>
<event>
 5   0  0.1434943E-05  0.2401476E+04  0.7818609E-02  0.8438951E-01
        1   -1    0    0  501    0  0.00000000000E+00  0.00000000000E+00  0.94873639296E+03  0.94873639297E+03  0.50400001928E-02 0. -1.
       -1   -1    0    0    0  501  0.00000000000E+00  0.00000000000E+00 -0.15196761989E+04  0.15196761989E+04  0.50400001928E-02 0.  1.
    10030    2    1    2    0    0  0.00000000000E+00  0.00000000000E+00 -0.57093980596E+03  0.24684125919E+04  0.24014763088E+04 0.  0.
        5    1    3    3  502    0  0.93906046791E+03  0.53546064954E+03 -0.82272147194E+03  0.13584717075E+04  0.46999998093E+01 0.  1.
       -5    1    3    3    0  502 -0.93906046791E+03 -0.53546064954E+03  0.25178166598E+03  0.11099408844E+04  0.46999998093E+01 0. -1.
</event>
<event>
 5   0  0.3320780E-05  0.2370331E+04  0.7818609E-02  0.8450695E-01
       -2   -1    0    0    0  501  0.00000000000E+00  0.00000000000E+00  0.83060434283E+03  0.83060434283E+03  0.25500000920E-02 0. -1.
        2   -1    0    0  501    0  0.00000000000E+00  0.00000000000E+00 -0.16910788839E+04  0.16910788839E+04  0.25500000920E-02 0.  1.
    10030    2    1    2    0    0  0.00000000000E+00  0.00000000000E+00 -0.86047454106E+03  0.25216832267E+04  0.23703311710E+04 0.  0.
        5    1    3    3  502    0 -0.10972255820E+04 -0.14791491696E+03  0.19625993584E+02  0.11073346694E+04  0.46999998093E+01 0.  1.
       -5    1    3    3    0  502  0.10972255820E+04  0.14791491696E+03 -0.88010053464E+03  0.14143485573E+04  0.46999998093E+01 0. -1.
</event>
<event>
 5   0  0.1407158E-05  0.2402046E+04  0.7818609E-02  0.8438738E-01
        1   -1    0    0  501    0  0.00000000000E+00  0.00000000000E+00  0.71783531980E+03  0.71783531982E+03  0.50400001928E-02 0. -1.
       -1   -1    0    0    0  501  0.00000000000E+00  0.00000000000E+00 -0.20094530737E+04  0.20094530737E+04  0.50400001928E-02 0.  1.
    10030    2    1    2    0    0  0.00000000000E+00  0.00000000000E+00 -0.12916177539E+04  0.27272883935E+04  0.24020461193E+04 0.  0.
        1    1    3    3  502    0  0.64858131370E+03  0.91860406667E+03 -0.11247888030E+04  0.15904845183E+04  0.50400001928E-02 0. -1.
       -1    1    3    3    0  502 -0.64858131370E+03 -0.91860406667E+03 -0.16682895096E+03  0.11368038752E+04  0.50400001928E-02 0.  1.
</event>
<event>
 5   0  0.1434943E-05  0.2408398E+04  0.7818609E-02  0.8436366E-01
       -1   -1    0    0    0  501  0.00000000000E+00  0.00000000000E+00  0.84754410350E+03  0.84754410351E+03  0.50400001928E-02 0.  1.
        1   -1    0    0  501    0  0.00000000000E+00  0.00000000000E+00 -0.17109381056E+04  0.17109381056E+04  0.50400001928E-02 0. -1.
    10030    2    1    2    0    0  0.00000000000E+00  0.00000000000E+00 -0.86339400212E+03  0.25584822091E+04  0.24083982253E+04 0.  0.
        5    1    3    3  502    0 -0.77914284710E+03  0.91702966688E+03 -0.47998776905E+03  0.12955374694E+04  0.46999998093E+01 0. -1.
       -5    1    3    3    0  502  0.77914284710E+03 -0.91702966688E+03 -0.38340623308E+03  0.12629447398E+04  0.46999998093E+01 0.  1.
</event>
<event>
 5   0  0.1506985E-05  0.2438913E+04  0.7818609E-02  0.8425077E-01
       -1   -1    0    0    0  501  0.00000000000E+00  0.00000000000E+00  0.87967473466E+03  0.87967473468E+03  0.50400001928E-02 0. -1.
        1   -1    0    0  501    0  0.00000000000E+00  0.00000000000E+00 -0.16904814516E+04  0.16904814516E+04  0.50400001928E-02 0.  1.
    10030    2    1    2    0    0  0.00000000000E+00  0.00000000000E+00 -0.81080671697E+03  0.25701561863E+04  0.24389127270E+04 0.  0.
        3    1    3    3  502    0 -0.11394616270E+04 -0.31595220103E+03 -0.71956531963E+03  0.13841867114E+04  0.10100000352E+00 0.  1.
       -3    1    3    3    0  502  0.11394616270E+04  0.31595220103E+03 -0.91241397346E+02  0.11859694749E+04  0.10100000352E+00 0. -1.
</event>
<event>
 5   0  0.3345974E-05  0.2439259E+04  0.7818609E-02  0.8424950E-01
        2   -1    0    0  501    0  0.00000000000E+00  0.00000000000E+00  0.19826540111E+04  0.19826540111E+04  0.25500000920E-02 0. -1.
       -2   -1    0    0    0  501  0.00000000000E+00  0.00000000000E+00 -0.75025524163E+03  0.75025524163E+03  0.25500000920E-02 0.  1.
    10030    2    1    2    0    0  0.00000000000E+00  0.00000000000E+00  0.12323987695E+04  0.27329092528E+04  0.24392593664E+04 0.  0.
        4    1    3    3  502    0  0.11760617863E+04  0.18837285659E+02  0.97754526972E+03  0.15294026729E+04  0.12699999809E+01 0. -1.
       -4    1    3    3    0  502 -0.11760617863E+04 -0.18837285659E+02  0.25485349978E+03  0.12035065799E+04  0.12699999809E+01 0.  1.
</event>
<event>
 5   0  0.1401596E-05  0.2396780E+04  0.7818609E-02  0.8440710E-01
       -1   -1    0    0    0  501  0.00000000000E+00  0.00000000000E+00  0.82760680904E+03  0.82760680905E+03  0.50400001928E-02 0. -1.
        1   -1    0    0  501    0  0.00000000000E+00  0.00000000000E+00 -0.17352902804E+04  0.17352902804E+04  0.50400001928E-02 0.  1.
    10030    2    1    2    0    0  0.00000000000E+00  0.00000000000E+00 -0.90768347134E+03  0.25628970894E+04  0.23967795491E+04 0.  0.
        2    1    3    3  502    0 -0.89801658228E+03  0.74582957371E+03 -0.74362737037E+03  0.13840799114E+04  0.25500000920E-02 0.  1.
       -2    1    3    3    0  502  0.89801658228E+03 -0.74582957371E+03 -0.16405610097E+03  0.11788171781E+04  0.25500000920E-02 0. -1.
</event>
<event>
 5   0  0.1147362E-05  0.2297465E+04  0.7818609E-02  0.8478921E-01
       -3   -1    0    0    0  501  0.00000000000E+00  0.00000000000E+00  0.14047316405E+04  0.14047316441E+04  0.10100000352E+00 0. -1.
        3   -1    0    0  501    0  0.00000000000E+00  0.00000000000E+00 -0.93938650251E+03  0.93938650794E+03  0.10100000352E+00 0.  1.
    10030    2    1    2    0    0  0.00000000000E+00  0.00000000000E+00  0.46534513799E+03  0.23441181521E+04  0.22974646490E+04 0.  0.
        3    1    3    3  502    0  0.54265484496E+03 -0.46715017785E+03  0.11491795441E+04  0.13540004447E+04  0.10100000352E+00 0. -1.
       -3    1    3    3    0  502 -0.54265484496E+03  0.46715017785E+03 -0.68383440607E+03  0.99011770742E+03  0.10100000352E+00 0.  1.
</event>
<event>
 5   0  0.3215208E-05  0.2383362E+04  0.7818609E-02  0.8445759E-01
       -2   -1    0    0    0  501  0.00000000000E+00  0.00000000000E+00  0.10905002396E+04  0.10905002396E+04  0.25500000920E-02 0. -1.
        2   -1    0    0  501    0  0.00000000000E+00  0.00000000000E+00 -0.13022502072E+04  0.13022502072E+04  0.25500000920E-02 0.  1.
    10030    2    1    2    0    0  0.00000000000E+00  0.00000000000E+00 -0.21174996758E+03  0.23927504468E+04  0.23833624676E+04 0.  0.
        1    1    3    3  502    0  0.93461343119E+02 -0.50088806167E+02  0.10857545773E+04  0.10909202140E+04  0.50400001928E-02 0. -1.
       -1    1    3    3    0  502 -0.93461343119E+02  0.50088806167E+02 -0.12975045448E+04  0.13018302328E+04  0.50400001928E-02 0.  1.
</event>
<event>
 5   0  0.3345974E-05  0.2175464E+04  0.7818609E-02  0.8528710E-01
        2   -1    0    0  501    0  0.00000000000E+00  0.00000000000E+00  0.19721107350E+04  0.19721107350E+04  0.25500000920E-02 0. -1.
       -2   -1    0    0    0  501  0.00000000000E+00  0.00000000000E+00 -0.59994667294E+03  0.59994667294E+03  0.25500000920E-02 0.  1.
    10030    2    1    2    0    0  0.00000000000E+00  0.00000000000E+00  0.13721640621E+04  0.25720574080E+04  0.21754643405E+04 0.  0.
        4    1    3    3  502    0 -0.80750577067E+02 -0.76722417975E+03  0.15926901233E+04  0.17696940525E+04  0.12699999809E+01 0. -1.
       -4    1    3    3    0  502  0.80750577067E+02  0.76722417975E+03 -0.22052606118E+03  0.80236335550E+03  0.12699999809E+01 0.  1.
</event>
<event>
 5   0  0.3345974E-05  0.2498440E+04  0.7818609E-02  0.8403541E-01
        2   -1    0    0  501    0  0.00000000000E+00  0.00000000000E+00  0.23858362701E+04  0.23858362701E+04  0.25500000920E-02 0. -1.
       -2   -1    0    0    0  501  0.00000000000E+00  0.00000000000E+00 -0.65408967811E+03  0.65408967812E+03  0.25500000920E-02 0.  1.
    10030    2    1    2    0    0  0.00000000000E+00  0.00000000000E+00  0.17317465920E+04  0.30399259482E+04  0.24984402158E+04 0.  0.
        4    1    3    3  502    0  0.74298753484E+03 -0.74011283633E+03  0.39973132046E+02  0.10494746074E+04  0.12699999809E+01 0.  1.
       -4    1    3    3    0  502 -0.74298753484E+03  0.74011283633E+03  0.16917734599E+04  0.19904513408E+04  0.12699999809E+01 0. -1.
</event>
<event>
 5   0  0.3310037E-05  0.2373219E+04  0.7818609E-02  0.8449598E-01
       -2   -1    0    0    0  501  0.00000000000E+00  0.00000000000E+00  0.99641111455E+03  0.99641111455E+03  0.25500000920E-02 0. -1.
        2   -1    0    0  501    0  0.00000000000E+00  0.00000000000E+00 -0.14131138470E+04  0.14131138470E+04  0.25500000920E-02 0.  1.
    10030    2    1    2    0    0  0.00000000000E+00  0.00000000000E+00 -0.41670273250E+03  0.24095249616E+04  0.23732192004E+04 0.  0.
        2    1    3    3  502    0  0.76721733020E+03 -0.69691636264E+03 -0.79488047535E+03  0.13061966997E+04  0.25500000920E-02 0.  1.
       -2    1    3    3    0  502 -0.76721733020E+03  0.69691636264E+03  0.37817774285E+03  0.11033282619E+04  0.25500000920E-02 0. -1.
</event>
<event>
 5   0  0.3347728E-05  0.2320345E+04  0.7818609E-02  0.8469943E-01
       -2   -1    0    0    0  501  0.00000000000E+00  0.00000000000E+00  0.10633083422E+04  0.10633083422E+04  0.25500000920E-02 0. -1.
        2   -1    0    0  501    0  0.00000000000E+00  0.00000000000E+00 -0.12658601457E+04  0.12658601457E+04  0.25500000920E-02 0.  1.
    10030    2    1    2    0    0  0.00000000000E+00  0.00000000000E+00 -0.20255180356E+03  0.23291684879E+04  0.23203445029E+04 0.  0.
        3    1    3    3  502    0  0.40164569220E+03 -0.39958822259E+03 -0.11175536335E+04  0.12529629459E+04  0.10100000352E+00 0.  1.
       -3    1    3    3    0  502 -0.40164569220E+03  0.39958822259E+03  0.91500182996E+03  0.10762055421E+04  0.10100000352E+00 0. -1.
</event>
<event>
 5   0  0.1506985E-05  0.2414846E+04  0.7818609E-02  0.8433966E-01
       -1   -1    0    0    0  501  0.00000000000E+00  0.00000000000E+00  0.11917430449E+04  0.11917430449E+04  0.50400001928E-02 0.  1.
        1   -1    0    0  501    0  0.00000000000E+00  0.00000000000E+00 -0.12233097205E+04  0.12233097205E+04  0.50400001928E-02 0. -1.
    10030    2    1    2    0    0  0.00000000000E+00  0.00000000000E+00 -0.31566675605E+02  0.24150527654E+04  0.24148464557E+04 0.  0.
        3    1    3    3  502    0  0.10154481805E+04  0.44062775360E+03 -0.49809315440E+03  0.12138305587E+04  0.10100000352E+00 0. -1.
       -3    1    3    3    0  502 -0.10154481805E+04 -0.44062775360E+03  0.46652647879E+03  0.12012222068E+04  0.10100000352E+00 0.  1.
</event>
<event>
 5   0  0.1393026E-05  0.2438933E+04  0.7818609E-02  0.8425070E-01
        1   -1    0    0  501    0  0.00000000000E+00  0.00000000000E+00  0.12659634313E+04  0.12659634313E+04  0.50400001928E-02 0.  1.
       -1   -1    0    0    0  501  0.00000000000E+00  0.00000000000E+00 -0.11746771613E+04  0.11746771613E+04  0.50400001928E-02 0. -1.
    10030    2    1    2    0    0  0.00000000000E+00  0.00000000000E+00  0.91286269993E+02  0.24406405926E+04  0.24389328238E+04 0.  0.
        4    1    3    3  502    0 -0.53573631673E+03 -0.69772025404E+03  0.89078749662E+03  0.12519308811E+04  0.12699999809E+01 0.  1.
       -4    1    3    3    0  502  0.53573631673E+03  0.69772025404E+03 -0.79950122663E+03  0.11887097115E+04  0.12699999809E+01 0. -1.
</event>
<event>
 5   0  0.3347728E-05  0.2334588E+04  0.7818609E-02  0.8464407E-01
        2   -1    0    0  501    0  0.00000000000E+00  0.00000000000E+00  0.18785908224E+04  0.18785908224E+04  0.25500000920E-02 0.  1.
       -2   -1    0    0    0  501  0.00000000000E+00  0.00000000000E+00 -0.72531797634E+03  0.72531797634E+03  0.25500000920E-02 0. -1.
    10030    2    1    2    0    0  0.00000000000E+00  0.00000000000E+00  0.11532728461E+04  0.26039087988E+04  0.23345883523E+04 0.  0.
        3    1    3    3  502    0  0.11067181801E+04 -0.30726137114E+03  0.34443496926E+03  0.11991122293E+04  0.10100000352E+00 0. -1.
       -3    1    3    3    0  502 -0.11067181801E+04  0.30726137114E+03  0.80883787683E+03  0.14047965694E+04  0.10100000352E+00 0.  1.
</event>
<event>
 5   0  0.3310037E-05  0.2353769E+04  0.7818609E-02  0.8457018E-01
       -2   -1    0    0    0  501  0.00000000000E+00  0.00000000000E+00  0.14003638505E+04  0.14003638505E+04  0.25500000920E-02 0.  1.
        2   -1    0    0  501    0  0.00000000000E+00  0.00000000000E+00 -0.98906920112E+03  0.98906920113E+03  0.25500000920E-02 0. -1.
    10030    2    1    2    0    0  0.00000000000E+00  0.00000000000E+00  0.41129464937E+03  0.23894330516E+04  0.23537686844E+04 0.  0.
        2    1    3    3  502    0  0.77155902873E+03 -0.17945147624E+03 -0.67791442385E+03  0.10426284732E+04  0.25500000920E-02 0. -1.
       -2    1    3    3    0  502 -0.77155902873E+03  0.17945147624E+03  0.10892090732E+04  0.13468045784E+04  0.25500000920E-02 0.  1.
</event>
<event>
 5   0  0.1407158E-05  0.2398391E+04  0.7818609E-02  0.8440106E-01
        1   -1    0    0  501    0  0.00000000000E+00  0.00000000000E+00  0.12414758096E+04  0.12414758096E+04  0.50400001928E-02 0. -1.
       -1   -1    0    0    0  501  0.00000000000E+00  0.00000000000E+00 -0.11583552571E+04  0.11583552571E+04  0.50400001928E-02 0.  1.
    10030    2    1    2    0    0  0.00000000000E+00  0.00000000000E+00  0.83120552469E+02  0.23998310667E+04  0.23983911529E+04 0.  0.
        1    1    3    3  502    0 -0.54534652054E+03  0.36238041160E+03 -0.96370583841E+03  0.11650971347E+04  0.50400001928E-02 0.  1.
       -1    1    3    3    0  502  0.54534652054E+03 -0.36238041160E+03  0.10468263909E+04  0.12347339320E+04  0.50400001928E-02 0. -1.
</event>
<event>
 5   0  0.3215208E-05  0.2404142E+04  0.7818609E-02  0.8437954E-01
       -2   -1    0    0    0  501  0.00000000000E+00  0.00000000000E+00  0.12207224624E+04  0.12207224624E+04  0.25500000920E-02 0. -1.
        2   -1    0    0  501    0  0.00000000000E+00  0.00000000000E+00 -0.11837049721E+04  0.11837049721E+04  0.25500000920E-02 0.  1.
    10030    2    1    2    0    0  0.00000000000E+00  0.00000000000E+00  0.37017490309E+02  0.24044274345E+04  0.24041424653E+04 0.  0.
        1    1    3    3  502    0  0.14603993170E+03 -0.15937413207E+03 -0.11641065634E+04  0.11840067005E+04  0.50400001928E-02 0.  1.
       -1    1    3    3    0  502 -0.14603993170E+03  0.15937413207E+03  0.12011240538E+04  0.12204207341E+04  0.50400001928E-02 0. -1.
</event>
<event>
 5   0  0.1401596E-05  0.2397474E+04  0.7818609E-02  0.8440450E-01
        1   -1    0    0  501    0  0.00000000000E+00  0.00000000000E+00  0.85250344279E+03  0.85250344280E+03  0.50400001928E-02 0. -1.
       -1   -1    0    0    0  501  0.00000000000E+00  0.00000000000E+00 -0.16855885945E+04  0.16855885945E+04  0.50400001928E-02 0.  1.
    10030    2    1    2    0    0  0.00000000000E+00  0.00000000000E+00 -0.83308515173E+03  0.25380920373E+04  0.23974737371E+04 0.  0.
        2    1    3    3  502    0  0.32336276361E+03 -0.25945220870E+03  0.77419050069E+03  0.87820832201E+03  0.25500000920E-02 0. -1.
       -2    1    3    3    0  502 -0.32336276361E+03  0.25945220870E+03 -0.16072756524E+04  0.16598837153E+04  0.25500000920E-02 0.  1.
</event>
<event>
 5   0  0.3320780E-05  0.2387846E+04  0.7818609E-02  0.8444068E-01
       -2   -1    0    0    0  501  0.00000000000E+00  0.00000000000E+00  0.70443056411E+03  0.70443056411E+03  0.25500000920E-02 0.  1.
        2   -1    0    0  501    0  0.00000000000E+00  0.00000000000E+00 -0.20235530217E+04  0.20235530217E+04  0.25500000920E-02 0. -1.
    10030    2    1    2    0    0  0.00000000000E+00  0.00000000000E+00 -0.13191224576E+04  0.27279835858E+04  0.23878463909E+04 0.  0.
        5    1    3    3  502    0 -0.50093548309E+03  0.63483376946E+03  0.34389346579E+03  0.87876907028E+03  0.46999998093E+01 0.  1.
       -5    1    3    3    0  502  0.50093548309E+03 -0.63483376946E+03 -0.16630159234E+04  0.18492145156E+04  0.46999998093E+01 0. -1.
</event>
<event>
 5   0  0.1401596E-05  0.2371656E+04  0.7818609E-02  0.8450192E-01
        1   -1    0    0  501    0  0.00000000000E+00  0.00000000000E+00  0.69747270852E+03  0.69747270854E+03  0.50400001928E-02 0.  1.
       -1   -1    0    0    0  501  0.00000000000E+00  0.00000000000E+00 -0.20161191857E+04  0.20161191857E+04  0.50400001928E-02 0. -1.
    10030    2    1    2    0    0  0.00000000000E+00  0.00000000000E+00 -0.13186464771E+04  0.27135918942E+04  0.23716560536E+04 0.  0.
        2    1    3    3  502    0  0.30746024243E+03  0.82938909100E+03  0.24433681421E+03  0.91767017154E+03  0.25500000920E-02 0.  1.
       -2    1    3    3    0  502 -0.30746024243E+03 -0.82938909100E+03 -0.15629832914E+04  0.17959217227E+04  0.25500000920E-02 0. -1.
</event>
<event>
 5   0  0.1506985E-05  0.2401347E+04  0.7818609E-02  0.8438999E-01
        1   -1    0    0  501    0  0.00000000000E+00  0.00000000000E+00  0.14435094240E+04  0.14435094240E+04  0.50400001928E-02 0. -1.
       -1   -1    0    0    0  501  0.00000000000E+00  0.00000000000E+00 -0.99868905004E+03  0.99868905005E+03  0.50400001928E-02 0.  1.
    10030    2    1    2    0    0  0.00000000000E+00  0.00000000000E+00  0.44482037391E+03  0.24421984740E+04  0.24013471680E+04 0.  0.
        3    1    3    3  502    0  0.10290604346E+04  0.60841275333E+03  0.33605000115E+03  0.12417975157E+04  0.10100000352E+00 0.  1.
       -3    1    3    3    0  502 -0.10290604346E+04 -0.60841275333E+03  0.10877037277E+03  0.12004009583E+04  0.10100000352E+00 0. -1.
</event>
<event>
 5   0  0.1434943E-05  0.2374110E+04  0.7818609E-02  0.8449260E-01
       -1   -1    0    0    0  501  0.00000000000E+00  0.00000000000E+00  0.54772251453E+03  0.54772251455E+03  0.50400001928E-02 0. -1.
        1   -1    0    0  501    0  0.00000000000E+00  0.00000000000E+00 -0.25726521378E+04  0.25726521378E+04  0.50400001928E-02 0.  1.
    10030    2    1    2    0    0  0.00000000000E+00  0.00000000000E+00 -0.20249296233E+04  0.31203746524E+04  0.23741099368E+04 0.  0.
        5    1    3    3  502    0 -0.10451749949E+04 -0.26277798169E+03 -0.35841416893E+03  0.11357490234E+04  0.46999998093E+01 0. -1.
       -5    1    3    3    0  502  0.10451749949E+04  0.26277798169E+03 -0.16665154544E+04  0.19846256290E+04  0.46999998093E+01 0.  1.
</event>
<event>
 5   0  0.3215208E-05  0.2274130E+04  0.7818609E-02  0.8488192E-01
       -2   -1    0    0    0  501  0.00000000000E+00  0.00000000000E+00  0.67623228754E+03  0.67623228754E+03  0.25500000920E-02 0.  1.
        2   -1    0    0  501    0  0.00000000000E+00  0.00000000000E+00 -0.19119423895E+04  0.19119423895E+04  0.25500000920E-02 0. -1.
    10030    2    1    2    0    0  0.00000000000E+00  0.00000000000E+00 -0.12357101020E+04  0.25881746770E+04  0.22741303179E+04 0.  0.
        1    1    3    3  502    0 -0.16470970527E+03 -0.48599630672E+02 -0.18970983023E+04  0.19048551598E+04  0.50400001928E-02 0. -1.
       -1    1    3    3    0  502  0.16470970527E+03  0.48599630672E+02  0.66138820033E+03  0.68331951727E+03  0.50400001928E-02 0.  1.
</event>
<event>
 5   0  0.1506985E-05  0.2436910E+04  0.7818609E-02  0.8425813E-01
       -1   -1    0    0    0  501  0.00000000000E+00  0.00000000000E+00  0.12831469551E+04  0.12831469551E+04  0.50400001928E-02 0. -1.
        1   -1    0    0  501    0  0.00000000000E+00  0.00000000000E+00 -0.11570249990E+04  0.11570249990E+04  0.50400001928E-02 0.  1.
    10030    2    1    2    0    0  0.00000000000E+00  0.00000000000E+00  0.12612195612E+03  0.24401719541E+04  0.24369104246E+04 0.  0.
        3    1    3    3  502    0 -0.15949286437E+03 -0.38665752180E+03 -0.10828880498E+04  0.11608568179E+04  0.10100000352E+00 0.  1.
       -3    1    3    3    0  502  0.15949286437E+03  0.38665752180E+03  0.12090100060E+04  0.12793151362E+04  0.10100000352E+00 0. -1.
</event>
<event>
 5   0  0.3310037E-05  0.2408093E+04  0.7818609E-02  0.8436480E-01
        2   -1    0    0  501    0  0.00000000000E+00  0.00000000000E+00  0.10560868368E+04  0.10560868368E+04  0.25500000920E-02 0.  1.
       -2   -1    0    0    0  501  0.00000000000E+00  0.00000000000E+00 -0.13727354965E+04  0.13727354965E+04  0.25500000920E-02 0. -1.
    10030    2    1    2    0    0  0.00000000000E+00  0.00000000000E+00 -0.31664865970E+03  0.24288223333E+04  0.24080929287E+04 0.  0.
        2    1    3    3  502    0 -0.43117624864E+03 -0.11177454418E+04 -0.37039208784E+02  0.11985990710E+04  0.25500000920E-02 0.  1.
       -2    1    3    3    0  502  0.43117624864E+03  0.11177454418E+04 -0.27960945091E+03  0.12302232623E+04  0.25500000920E-02 0. -1.
</event>
<event>
 5   0  0.1393026E-05  0.2407963E+04  0.7818609E-02  0.8436529E-01
       -1   -1    0    0    0  501  0.00000000000E+00  0.00000000000E+00  0.11091098712E+04  0.11091098712E+04  0.50400001928E-02 0.  1.
        1   -1    0    0  501    0  0.00000000000E+00  0.00000000000E+00 -0.13069677843E+04  0.13069677843E+04  0.50400001928E-02 0. -1.
    10030    2    1    2    0    0  0.00000000000E+00  0.00000000000E+00 -0.19785791303E+03  0.24160776555E+04  0.24079625171E+04 0.  0.
        4    1    3    3  502    0 -0.85095828814E+03 -0.83319286202E+03 -0.27624153350E+03  0.12225593447E+04  0.12699999809E+01 0. -1.
       -4    1    3    3    0  502  0.85095828814E+03  0.83319286202E+03  0.78383620474E+02  0.11935183108E+04  0.12699999809E+01 0.  1.
</event>
<event>
 5   0  0.1434943E-05  0.2373314E+04  0.7818609E-02  0.8449562E-01
       -1   -1    0    0    0  501  0.00000000000E+00  0.00000000000E+00  0.17981113478E+04  0.17981113478E+04  0.50400001928E-02 0.  1.
        1   -1    0    0  501    0  0.00000000000E+00  0.00000000000E+00 -0.78313020245E+03  0.78313020246E+03  0.50400001928E-02 0. -1.
    10030    2    1    2    0    0  0.00000000000E+00  0.00000000000E+00  0.10149811453E+04  0.25812415502E+04  0.23733143945E+04 0.  0.
        5    1    3    3  502    0 -0.41411300550E+03  0.46318078852E+03  0.16070573150E+04  0.17229861659E+04  0.46999998093E+01 0.  1.
       -5    1    3    3    0  502  0.41411300550E+03 -0.46318078852E+03 -0.59207616963E+03  0.85825538438E+03  0.46999998093E+01 0. -1.
</event>
<event>
 5   0  0.3320780E-05  0.2382150E+04  0.7818609E-02  0.8446217E-01
       -2   -1    0    0    0  501  0.00000000000E+00  0.00000000000E+00  0.76844864493E+03  0.76844864494E+03  0.25500000920E-02 0.  1.
        2   -1    0    0  501    0  0.00000000000E+00  0.00000000000E+00 -0.18461342673E+04  0.18461342673E+04  0.25500000920E-02 0. -1.
    10030    2    1    2    0    0  0.00000000000E+00  0.00000000000E+00 -0.10776856224E+04  0.26145829123E+04  0.23821497653E+04 0.  0.
        5    1    3    3  502    0  0.89645240018E+03 -0.72616950520E+03 -0.86385826295E+03  0.14412571750E+04  0.46999998093E+01 0. -1.
       -5    1    3    3    0  502 -0.89645240018E+03  0.72616950520E+03 -0.21382735946E+03  0.11733257373E+04  0.46999998093E+01 0.  1.
</event>
<event>
 5   0  0.1434943E-05  0.2406433E+04  0.7818609E-02  0.8437099E-01
        1   -1    0    0  501    0  0.00000000000E+00  0.00000000000E+00  0.17426122837E+04  0.17426122838E+04  0.50400001928E-02 0. -1.
       -1   -1    0    0    0  501  0.00000000000E+00  0.00000000000E+00 -0.83078113065E+03  0.83078113067E+03  0.50400001928E-02 0.  1.
    10030    2    1    2    0    0  0.00000000000E+00  0.00000000000E+00  0.91183115309E+03  0.25733934144E+04  0.24064325492E+04 0.  0.
        5    1    3    3  502    0  0.68212954841E+03  0.77620460366E+03  0.11150508793E+04  0.15202482892E+04  0.46999998093E+01 0.  1.
       -5    1    3    3    0  502 -0.68212954841E+03 -0.77620460366E+03 -0.20321972620E+03  0.10531451252E+04  0.46999998093E+01 0. -1.
</event>
<event>
 5   0  0.1401596E-05  0.2409029E+04  0.7818609E-02  0.8436131E-01
        1   -1    0    0  501    0  0.00000000000E+00  0.00000000000E+00  0.14105464657E+04  0.14105464657E+04  0.50400001928E-02 0.  1.
       -1   -1    0    0    0  501  0.00000000000E+00  0.00000000000E+00 -0.10285768776E+04  0.10285768776E+04  0.50400001928E-02 0. -1.
    10030    2    1    2    0    0  0.00000000000E+00  0.00000000000E+00  0.38196958813E+03  0.24391233433E+04  0.24090292480E+04 0.  0.
        2    1    3    3  502    0  0.72782972204E+03  0.69110646647E+03  0.86525536730E+03  0.13251532375E+04  0.25500000920E-02 0.  1.
       -2    1    3    3    0  502 -0.72782972204E+03 -0.69110646647E+03 -0.48328577917E+03  0.11139701058E+04  0.25500000920E-02 0. -1.
</event>
<event>
 5   0  0.3215208E-05  0.2380843E+04  0.7818609E-02  0.8446711E-01
        2   -1    0    0  501    0  0.00000000000E+00  0.00000000000E+00  0.27484847628E+04  0.27484847628E+04  0.25500000920E-02 0.  1.
       -2   -1    0    0    0  501  0.00000000000E+00  0.00000000000E+00 -0.51559438391E+03  0.51559438391E+03  0.25500000920E-02 0. -1.
    10030    2    1    2    0    0  0.00000000000E+00  0.00000000000E+00  0.22328903789E+04  0.32640791467E+04  0.23808429667E+04 0.  0.
        1    1    3    3  502    0 -0.78672152391E+02  0.35608666450E+03  0.26700197696E+04  0.26948084515E+04  0.50400001928E-02 0.  1.
       -1    1    3    3    0  502  0.78672152391E+02 -0.35608666450E+03 -0.43712939070E+03  0.56927069522E+03  0.50400001928E-02 0. -1.
</event>
<event>
 5   0  0.1393026E-05  0.2428169E+04  0.7818609E-02  0.8429032E-01
       -1   -1    0    0    0  501  0.00000000000E+00  0.00000000000E+00  0.14619178917E+04  0.14619178917E+04  0.50400001928E-02 0.  1.
        1   -1    0    0  501    0  0.00000000000E+00  0.00000000000E+00 -0.10082654500E+04  0.10082654501E+04  0.50400001928E-02 0. -1.
    10030    2    1    2    0    0  0.00000000000E+00  0.00000000000E+00  0.45365244162E+03  0.24701833417E+04  0.24281691053E+04 0.  0.
        4    1    3    3  502    0  0.82037876879E+03 -0.51735823039E+03  0.96974907138E+03  0.13715304361E+04  0.12699999809E+01 0.  1.
       -4    1    3    3    0  502 -0.82037876879E+03  0.51735823039E+03 -0.51609662977E+03  0.10986529056E+04  0.12699999809E+01 0. -1.
</event>
<event>
 5   0  0.3215208E-05  0.2402486E+04  0.7818609E-02  0.8438574E-01
       -2   -1    0    0    0  501  0.00000000000E+00  0.00000000000E+00  0.95187507362E+03  0.95187507362E+03  0.25500000920E-02 0.  1.
        2   -1    0    0  501    0  0.00000000000E+00  0.00000000000E+00 -0.15159388564E+04  0.15159388564E+04  0.25500000920E-02 0. -1.
    10030    2    1    2    0    0  0.00000000000E+00  0.00000000000E+00 -0.56406378278E+03  0.24678139300E+04  0.24024857215E+04 0.  0.
        1    1    3    3  502    0  0.17136459573E+03 -0.73390952553E+03  0.67881564202E+03  0.10142877758E+04  0.50400001928E-02 0.  1.
       -1    1    3    3    0  502 -0.17136459573E+03  0.73390952553E+03 -0.12428794248E+04  0.14535261542E+04  0.50400001928E-02 0. -1.
</event>
<event>
 5   0  0.3215208E-05  0.2427498E+04  0.7818609E-02  0.8429280E-01
       -2   -1    0    0    0  501  0.00000000000E+00  0.00000000000E+00  0.93157566972E+03  0.93157566972E+03  0.25500000920E-02 0. -1.
        2   -1    0    0  501    0  0.00000000000E+00  0.00000000000E+00 -0.15813920447E+04  0.15813920447E+04  0.25500000920E-02 0.  1.
    10030    2    1    2    0    0  0.00000000000E+00  0.00000000000E+00 -0.64981637493E+03  0.25129677144E+04  0.24274977677E+04 0.  0.
        1    1    3    3  502    0 -0.26746338228E+03  0.11686165942E+03  0.89470388522E+03  0.94111016919E+03  0.50400001928E-02 0. -1.
       -1    1    3    3    0  502  0.26746338228E+03 -0.11686165942E+03 -0.15445202602E+04  0.15718575452E+04  0.50400001928E-02 0.  1.
</event>
<event>
 5   0  0.1393026E-05  0.2391371E+04  0.7818609E-02  0.8442741E-01
       -1   -1    0    0    0  501  0.00000000000E+00  0.00000000000E+00  0.11681275435E+04  0.11681275435E+04  0.50400001928E-02 0.  1.
        1   -1    0    0  501    0  0.00000000000E+00  0.00000000000E+00 -0.12238938079E+04  0.12238938079E+04  0.50400001928E-02 0. -1.
    10030    2    1    2    0    0  0.00000000000E+00  0.00000000000E+00 -0.55766264380E+02  0.23920213514E+04  0.23913712111E+04 0.  0.
        4    1    3    3  502    0 -0.18099592863E+03  0.11746343898E+04  0.10306074098E+03  0.11929579226E+04  0.12699999809E+01 0. -1.
       -4    1    3    3    0  502  0.18099592863E+03 -0.11746343898E+04 -0.15882700536E+03  0.11990634288E+04  0.12699999809E+01 0.  1.
</event>
<event>
 5   0  0.1506985E-05  0.2411496E+04  0.7818609E-02  0.8435212E-01
       -1   -1    0    0    0  501  0.00000000000E+00  0.00000000000E+00  0.10278425109E+04  0.10278425109E+04  0.50400001928E-02 0. -1.
        1   -1    0    0  501    0  0.00000000000E+00  0.00000000000E+00 -0.14144461923E+04  0.14144461923E+04  0.50400001928E-02 0.  1.
    10030    2    1    2    0    0  0.00000000000E+00  0.00000000000E+00 -0.38660368144E+03  0.24422887032E+04  0.24114957398E+04 0.  0.
        3    1    3    3  502    0 -0.78109041089E+03  0.91557498361E+03 -0.26805583988E+03  0.12329775846E+04  0.10100000352E+00 0.  1.
       -3    1    3    3    0  502  0.78109041089E+03 -0.91557498361E+03 -0.11854784156E+03  0.12093111186E+04  0.10100000352E+00 0. -1.
</event>
<event>
 5   0  0.3345974E-05  0.2362440E+04  0.7818609E-02  0.8453701E-01
        2   -1    0    0  501    0  0.00000000000E+00  0.00000000000E+00  0.89303565744E+03  0.89303565744E+03  0.25500000920E-02 0.  1.
       -2   -1    0    0    0  501  0.00000000000E+00  0.00000000000E+00 -0.15624015625E+04  0.15624015625E+04  0.25500000920E-02 0. -1.
    10030    2    1    2    0    0  0.00000000000E+00  0.00000000000E+00 -0.66936590504E+03  0.24554372199E+04  0.23624396767E+04 0.  0.
        4    1    3    3  502    0 -0.10399667183E+04 -0.41602269785E+03 -0.72451140405E+03  0.13339880239E+04  0.12699999809E+01 0. -1.
       -4    1    3    3    0  502  0.10399667183E+04  0.41602269785E+03  0.55145499018E+02  0.11214491960E+04  0.12699999809E+01 0.  1.
</event>
<event>
 5   0  0.1393026E-05  0.2404554E+04  0.7818609E-02  0.8437801E-01
       -1   -1    0    0    0  501  0.00000000000E+00  0.00000000000E+00  0.76068546183E+03  0.76068546185E+03  0.50400001928E-02 0.  1.
        1   -1    0    0  501    0  0.00000000000E+00  0.00000000000E+00 -0.19002201522E+04  0.19002201522E+04  0.50400001928E-02 0. -1.
    10030    2    1    2    0    0  0.00000000000E+00  0.00000000000E+00 -0.11395346903E+04  0.26609056140E+04  0.24045538830E+04 0.  0.
        4    1    3    3  502    0 -0.81704637455E+03  0.98863444548E+02  0.40009962833E+03  0.91510659725E+03  0.12699999809E+01 0.  1.
       -4    1    3    3    0  502  0.81704637455E+03 -0.98863444548E+02 -0.15396343187E+04  0.17457990168E+04  0.12699999809E+01 0. -1.
</event>
<event>
 5   0  0.1407158E-05  0.2417306E+04  0.7818609E-02  0.8433053E-01
       -1   -1    0    0    0  501  0.00000000000E+00  0.00000000000E+00  0.16124718253E+04  0.16124718253E+04  0.50400001928E-02 0.  1.
        1   -1    0    0  501    0  0.00000000000E+00  0.00000000000E+00 -0.90596424839E+03  0.90596424840E+03  0.50400001928E-02 0. -1.
    10030    2    1    2    0    0  0.00000000000E+00  0.00000000000E+00  0.70650757689E+03  0.25184360737E+04  0.24173057939E+04 0.  0.
        1    1    3    3  502    0  0.77035141765E+03 -0.80781756709E+03  0.83614367921E+03  0.13946851905E+04  0.50400001928E-02 0.  1.
       -1    1    3    3    0  502 -0.77035141765E+03  0.80781756709E+03 -0.12963610232E+03  0.11237508832E+04  0.50400001928E-02 0. -1.
</event>
<event>
 5   0  0.1434943E-05  0.2438648E+04  0.7818609E-02  0.8425174E-01
        1   -1    0    0  501    0  0.00000000000E+00  0.00000000000E+00  0.19024107106E+04  0.19024107106E+04  0.50400001928E-02 0. -1.
       -1   -1    0    0    0  501  0.00000000000E+00  0.00000000000E+00 -0.78150905757E+03  0.78150905759E+03  0.50400001928E-02 0.  1.
    10030    2    1    2    0    0  0.00000000000E+00  0.00000000000E+00  0.11209016530E+04  0.26839197682E+04  0.24386481514E+04 0.  0.
        5    1    3    3  502    0 -0.90887118232E+03  0.80892877688E+03  0.47298079082E+03  0.13054292438E+04  0.46999998093E+01 0. -1.
       -5    1    3    3    0  502  0.90887118232E+03 -0.80892877688E+03  0.64792086220E+03  0.13784905244E+04  0.46999998093E+01 0.  1.
</event>
<event>
 5   0  0.3345974E-05  0.2397106E+04  0.7818609E-02  0.8440588E-01
       -2   -1    0    0    0  501  0.00000000000E+00  0.00000000000E+00  0.15018686895E+04  0.15018686895E+04  0.25500000920E-02 0.  1.
        2   -1    0    0  501    0  0.00000000000E+00  0.00000000000E+00 -0.95649430953E+03  0.95649430954E+03  0.25500000920E-02 0. -1.
    10030    2    1    2    0    0  0.00000000000E+00  0.00000000000E+00  0.54537437994E+03  0.24583629990E+04  0.23971056340E+04 0.  0.
        4    1    3    3  502    0 -0.98277473290E+03  0.38327900450E+03  0.85624339062E+03  0.13586402496E+04  0.12699999809E+01 0.  1.
       -4    1    3    3    0  502  0.98277473290E+03 -0.38327900450E+03 -0.31086901068E+03  0.10997227494E+04  0.12699999809E+01 0. -1.
</event>
<event>
 5   0  0.3310037E-05  0.2348233E+04  0.7818609E-02  0.8459143E-01
        2   -1    0    0  501    0  0.00000000000E+00  0.00000000000E+00  0.74188452276E+03  0.74188452277E+03  0.25500000920E-02 0.  1.
       -2   -1    0    0    0  501  0.00000000000E+00  0.00000000000E+00 -0.18581722328E+04  0.18581722328E+04  0.25500000920E-02 0. -1.
    10030    2    1    2    0    0  0.00000000000E+00  0.00000000000E+00 -0.11162877101E+04  0.26000567556E+04  0.23482327143E+04 0.  0.
        2    1    3    3  502    0  0.78780815727E+03  0.62778873269E+03 -0.12259745508E+04  0.15867495028E+04  0.25500000920E-02 0. -1.
       -2    1    3    3    0  502 -0.78780815727E+03 -0.62778873269E+03  0.10968684068E+03  0.10133072528E+04  0.25500000920E-02 0.  1.
</event>
<event>
 5   0  0.1434943E-05  0.2422757E+04  0.7818609E-02  0.8431033E-01
       -1   -1    0    0    0  501  0.00000000000E+00  0.00000000000E+00  0.23738434028E+04  0.23738434028E+04  0.50400001928E-02 0.  1.
        1   -1    0    0  501    0  0.00000000000E+00  0.00000000000E+00 -0.61816944421E+03  0.61816944423E+03  0.50400001928E-02 0. -1.
    10030    2    1    2    0    0  0.00000000000E+00  0.00000000000E+00  0.17556739586E+04  0.29920128470E+04  0.24227566588E+04 0.  0.
        5    1    3    3  502    0  0.67861643412E+03 -0.71106943277E+03  0.34738441342E+01  0.98294158549E+03  0.46999998093E+01 0. -1.
       -5    1    3    3    0  502 -0.67861643412E+03  0.71106943277E+03  0.17522001145E+04  0.20090712616E+04  0.46999998093E+01 0.  1.
</event>
<event>
 5   0  0.1407158E-05  0.2425888E+04  0.7818609E-02  0.8429875E-01
       -1   -1    0    0    0  501  0.00000000000E+00  0.00000000000E+00  0.11573723441E+04  0.11573723441E+04  0.50400001928E-02 0.  1.
        1   -1    0    0  501    0  0.00000000000E+00  0.00000000000E+00 -0.12711837860E+04  0.12711837860E+04  0.50400001928E-02 0. -1.
    10030    2    1    2    0    0  0.00000000000E+00  0.00000000000E+00 -0.11381144192E+03  0.24285561300E+04  0.24258878442E+04 0.  0.
        1    1    3    3  502    0 -0.24023590917E+03 -0.25143910332E+03 -0.12202071094E+04  0.12687948237E+04  0.50400001928E-02 0. -1.
       -1    1    3    3    0  502  0.24023590917E+03  0.25143910332E+03  0.11063956675E+04  0.11597613064E+04  0.50400001928E-02 0.  1.
</event>
<event>
 5   0  0.3347728E-05  0.2402391E+04  0.7818609E-02  0.8438609E-01
        2   -1    0    0  501    0  0.00000000000E+00  0.00000000000E+00  0.17494137845E+04  0.17494137845E+04  0.25500000920E-02 0. -1.
       -2   -1    0    0    0  501  0.00000000000E+00  0.00000000000E+00 -0.82477409508E+03  0.82477409508E+03  0.25500000920E-02 0.  1.
    10030    2    1    2    0    0  0.00000000000E+00  0.00000000000E+00  0.92463968941E+03  0.25741878796E+04  0.24023914511E+04 0.  0.
        3    1    3    3  502    0  0.92545564601E+03  0.71301420439E+03  0.76160284659E+03  0.13945953946E+04  0.10100000352E+00 0. -1.
       -3    1    3    3    0  502 -0.92545564601E+03 -0.71301420439E+03  0.16303684283E+03  0.11795924850E+04  0.10100000352E+00 0.  1.
</event>
<event>
 5   0  0.3345974E-05  0.2387222E+04  0.7818609E-02  0.8444303E-01
        2   -1    0    0  501    0  0.00000000000E+00  0.00000000000E+00  0.21542223529E+04  0.21542223529E+04  0.25500000920E-02 0. -1.
       -2   -1    0    0    0  501  0.00000000000E+00  0.00000000000E+00 -0.66135553836E+03  0.66135553836E+03  0.25500000920E-02 0.  1.
    10030    2    1    2    0    0  0.00000000000E+00  0.00000000000E+00  0.14928668145E+04  0.28155778912E+04  0.23872217190E+04 0.  0.
        4    1    3    3  502    0  0.10691802376E+04  0.14887870010E+03  0.14573736324E+03  0.10892897869E+04  0.12699999809E+01 0.  1.
       -4    1    3    3    0  502 -0.10691802376E+04 -0.14887870010E+03  0.13471294513E+04  0.17262881043E+04  0.12699999809E+01 0. -1.
</event>
<event>
 5   0  0.3345974E-05  0.2417516E+04  0.7818609E-02  0.8432975E-01
       -2   -1    0    0    0  501  0.00000000000E+00  0.00000000000E+00  0.90957501014E+03  0.90957501014E+03  0.25500000920E-02 0. -1.
        2   -1    0    0  501    0  0.00000000000E+00  0.00000000000E+00 -0.16063496021E+04  0.16063496021E+04  0.25500000920E-02 0.  1.
    10030    2    1    2    0    0  0.00000000000E+00  0.00000000000E+00 -0.69677459194E+03  0.25159246122E+04  0.24175156302E+04 0.  0.
        4    1    3    3  502    0 -0.18280204774E+03  0.28227092459E+03  0.85990871073E+03  0.92332987995E+03  0.12699999809E+01 0. -1.
       -4    1    3    3    0  502  0.18280204774E+03 -0.28227092459E+03 -0.15566833027E+04  0.15925947323E+04  0.12699999809E+01 0.  1.
</event>
<event>
 5   0  0.1506985E-05  0.2392379E+04  0.7818609E-02  0.8442362E-01
       -1   -1    0    0    0  501  0.00000000000E+00  0.00000000000E+00  0.12085989288E+04  0.12085989288E+04  0.50400001928E-02 0.  1.
        1   -1    0    0  501    0  0.00000000000E+00  0.00000000000E+00 -0.11839079588E+04  0.11839079588E+04  0.50400001928E-02 0. -1.
    10030    2    1    2    0    0  0.00000000000E+00  0.00000000000E+00  0.24690969995E+02  0.23925068876E+04  0.23923794773E+04 0.  0.
        3    1    3    3  502    0 -0.66030740791E+03 -0.84326580025E+03 -0.52038054551E+03  0.11907556446E+04  0.10100000352E+00 0. -1.
       -3    1    3    3    0  502  0.66030740791E+03  0.84326580025E+03  0.54507151551E+03  0.12017512430E+04  0.10100000352E+00 0.  1.
</event>
<event>
 5   0  0.1506985E-05  0.2449006E+04  0.7818609E-02  0.8421381E-01
       -1   -1    0    0    0  501  0.00000000000E+00  0.00000000000E+00  0.10284483984E+04  0.10284483984E+04  0.50400001928E-02 0.  1.
        1   -1    0    0  501    0  0.00000000000E+00  0.00000000000E+00 -0.14579318439E+04  0.14579318439E+04  0.50400001928E-02 0. -1.
    10030    2    1    2    0    0  0.00000000000E+00  0.00000000000E+00 -0.42948344550E+03  0.24863802423E+04  0.24490060595E+04 0.  0.
        3    1    3    3  502    0  0.98264954445E+03 -0.52855298664E+03 -0.72685939070E+03  0.13316504688E+04  0.10100000352E+00 0. -1.
       -3    1    3    3    0  502 -0.98264954445E+03  0.52855298664E+03  0.29737594520E+03  0.11547297735E+04  0.10100000352E+00 0.  1.
</event>
<event>
 5   0  0.1407158E-05  0.2364081E+04  0.7818609E-02  0.8453075E-01
       -1   -1    0    0    0  501  0.00000000000E+00  0.00000000000E+00  0.15787409411E+04  0.15787409411E+04  0.50400001928E-02 0.  1.
        1   -1    0    0  501    0  0.00000000000E+00  0.00000000000E+00 -0.88502125339E+03  0.88502125341E+03  0.50400001928E-02 0. -1.
    10030    2    1    2    0    0  0.00000000000E+00  0.00000000000E+00  0.69371968774E+03  0.24637621945E+04  0.23640806133E+04 0.  0.
        1    1    3    3  502    0 -0.83730986807E+03  0.83369716360E+03  0.38111697981E+03  0.12415268535E+04  0.50400001928E-02 0.  1.
       -1    1    3    3    0  502  0.83730986807E+03 -0.83369716360E+03  0.31260270793E+03  0.12222353410E+04  0.50400001928E-02 0. -1.
</event>
<event>
 5   0  0.1401596E-05  0.2358062E+04  0.7818609E-02  0.8455373E-01
       -1   -1    0    0    0  501  0.00000000000E+00  0.00000000000E+00  0.83642908994E+03  0.83642908995E+03  0.50400001928E-02 0.  1.
        1   -1    0    0  501    0  0.00000000000E+00  0.00000000000E+00 -0.16619635637E+04  0.16619635637E+04  0.50400001928E-02 0. -1.
    10030    2    1    2    0    0  0.00000000000E+00  0.00000000000E+00 -0.82553447375E+03  0.24983926536E+04  0.23580624853E+04 0.  0.
        2    1    3    3  502    0  0.67108800426E+03 -0.21752462334E+03 -0.14136761535E+04  0.15799228900E+04  0.25500000920E-02 0. -1.
       -2    1    3    3    0  502 -0.67108800426E+03  0.21752462334E+03  0.58814167980E+03  0.91846976365E+03  0.25500000920E-02 0.  1.
</event>
<event>
 5   0  0.3347728E-05  0.2482739E+04  0.7818609E-02  0.8409161E-01
        2   -1    0    0  501    0  0.00000000000E+00  0.00000000000E+00  0.15270519821E+04  0.15270519821E+04  0.25500000920E-02 0.  1.
       -2   -1    0    0    0  501  0.00000000000E+00  0.00000000000E+00 -0.10091324514E+04  0.10091324514E+04  0.25500000920E-02 0. -1.
    10030    2    1    2    0    0  0.00000000000E+00  0.00000000000E+00  0.51791953067E+03  0.25361844335E+04  0.24827385767E+04 0.  0.
        3    1    3    3  502    0 -0.30727463569E+03 -0.35057983097E+03  0.14342369988E+04  0.15080980401E+04  0.10100000352E+00 0.  1.
       -3    1    3    3    0  502  0.30727463569E+03  0.35057983097E+03 -0.91631746814E+03  0.10280863934E+04  0.10100000352E+00 0. -1.
</event>
<event>
 5   0  0.3347728E-05  0.2402532E+04  0.7818609E-02  0.8438556E-01
        2   -1    0    0  501    0  0.00000000000E+00  0.00000000000E+00  0.19437511424E+04  0.19437511425E+04  0.25500000920E-02 0. -1.
       -2   -1    0    0    0  501  0.00000000000E+00  0.00000000000E+00 -0.74239946043E+03  0.74239946043E+03  0.25500000920E-02 0.  1.
    10030    2    1    2    0    0  0.00000000000E+00  0.00000000000E+00  0.12013516820E+04  0.26861506029E+04  0.24025318307E+04 0.  0.
        3    1    3    3  502    0  0.59052543302E+03  0.35896900058E+03 -0.49789614804E+03  0.85175091127E+03  0.10100000352E+00 0.  1.
       -3    1    3    3    0  502 -0.59052543302E+03 -0.35896900058E+03  0.16992478301E+04  0.18343996916E+04  0.10100000352E+00 0. -1.
</event>
<event>
 5   0  0.1506985E-05  0.2222444E+04  0.7818609E-02  0.8509144E-01
       -1   -1    0    0    0  501  0.00000000000E+00  0.00000000000E+00  0.15911550713E+04  0.15911550713E+04  0.50400001928E-02 0.  1.
        1   -1    0    0  501    0  0.00000000000E+00  0.00000000000E+00 -0.77604876528E+03  0.77604876530E+03  0.50400001928E-02 0. -1.
    10030    2    1    2    0    0  0.00000000000E+00  0.00000000000E+00  0.81510630605E+03  0.23672038366E+04  0.22224436357E+04 0.  0.
        3    1    3    3  502    0  0.26275923747E+03  0.27926100020E+03  0.15184568002E+04  0.15661226604E+04  0.10100000352E+00 0.  1.
       -3    1    3    3    0  502 -0.26275923747E+03 -0.27926100020E+03 -0.70335049416E+03  0.80108117625E+03  0.10100000352E+00 0. -1.
</event>
<event>
 5   0  0.3310037E-05  0.2398189E+04  0.7818609E-02  0.8440182E-01
        2   -1    0    0  501    0  0.00000000000E+00  0.00000000000E+00  0.19855125201E+04  0.19855125201E+04  0.25500000920E-02 0.  1.
       -2   -1    0    0    0  501  0.00000000000E+00  0.00000000000E+00 -0.72415948051E+03  0.72415948051E+03  0.25500000920E-02 0. -1.
    10030    2    1    2    0    0  0.00000000000E+00  0.00000000000E+00  0.12613530396E+04  0.27096720006E+04  0.23981890794E+04 0.  0.
        2    1    3    3  502    0  0.69187736999E+03 -0.57619278618E+03 -0.26409864996E+03  0.93831791993E+03  0.25500000920E-02 0. -1.
       -2    1    3    3    0  502 -0.69187736999E+03  0.57619278618E+03  0.15254516895E+04  0.17713540806E+04  0.25500000920E-02 0.  1.
</event>
<event>
 5   0  0.3215208E-05  0.2340766E+04  0.7818609E-02  0.8462019E-01
        2   -1    0    0  501    0  0.00000000000E+00  0.00000000000E+00  0.17397545330E+04  0.17397545330E+04  0.25500000920E-02 0.  1.
       -2   -1    0    0    0  501  0.00000000000E+00  0.00000000000E+00 -0.78735007933E+03  0.78735007934E+03  0.25500000920E-02 0. -1.
    10030    2    1    2    0    0  0.00000000000E+00  0.00000000000E+00  0.95240445366E+03  0.25271046123E+04  0.23407655753E+04 0.  0.
        1    1    3    3  502    0 -0.96112020145E+03  0.66786432855E+03  0.47508726919E+03  0.12631321057E+04  0.50400001928E-02 0. -1.
       -1    1    3    3    0  502  0.96112020145E+03 -0.66786432855E+03  0.47731718447E+03  0.12639725067E+04  0.50400001928E-02 0.  1.
</event>
<event>
 5   0  0.3345974E-05  0.2365110E+04  0.7818609E-02  0.8452683E-01
        2   -1    0    0  501    0  0.00000000000E+00  0.00000000000E+00  0.11545127832E+04  0.11545127832E+04  0.25500000920E-02 0.  1.
       -2   -1    0    0    0  501  0.00000000000E+00  0.00000000000E+00 -0.12112782268E+04  0.12112782268E+04  0.25500000920E-02 0. -1.
    10030    2    1    2    0    0  0.00000000000E+00  0.00000000000E+00 -0.56765443547E+02  0.23657910100E+04  0.23651098890E+04 0.  0.
        4    1    3    3  502    0 -0.81183283752E+03 -0.76718023015E+03  0.36005438985E+03  0.11735752375E+04  0.12699999809E+01 0. -1.
       -4    1    3    3    0  502  0.81183283752E+03  0.76718023015E+03 -0.41681983339E+03  0.11922157724E+04  0.12699999809E+01 0.  1.
</event>
<event>
 5   0  0.1434943E-05  0.2565621E+04  0.7818609E-02  0.8379974E-01
        1   -1    0    0  501    0  0.00000000000E+00  0.00000000000E+00  0.96055266167E+03  0.96055266168E+03  0.50400001928E-02 0.  1.
       -1   -1    0    0    0  501  0.00000000000E+00  0.00000000000E+00 -0.17131826931E+04  0.17131826931E+04  0.50400001928E-02 0. -1.
    10030    2    1    2    0    0  0.00000000000E+00  0.00000000000E+00 -0.75263003139E+03  0.26737353547E+04  0.25656205454E+04 0.  0.
        5    1    3    3  502    0 -0.70398250779E+03  0.63258184878E+03  0.52610162018E+03  0.10828463286E+04  0.46999998093E+01 0.  1.
       -5    1    3    3    0  502  0.70398250779E+03 -0.63258184878E+03 -0.12787316516E+04  0.15908890261E+04  0.46999998093E+01 0. -1.
</event>
<event>
 5   0  0.3215208E-05  0.2389590E+04  0.7818609E-02  0.8443411E-01
       -2   -1    0    0    0  501  0.00000000000E+00  0.00000000000E+00  0.12146962290E+04  0.12146962290E+04  0.25500000920E-02 0. -1.
        2   -1    0    0  501    0  0.00000000000E+00  0.00000000000E+00 -0.11752202361E+04  0.11752202361E+04  0.25500000920E-02 0.  1.
    10030    2    1    2    0    0  0.00000000000E+00  0.00000000000E+00  0.39475992964E+02  0.23899164651E+04  0.23895904160E+04 0.  0.
        1    1    3    3  502    0 -0.90655144870E+03  0.10065202170E+03  0.79157461593E+03  0.12077072208E+04  0.50400001928E-02 0. -1.
       -1    1    3    3    0  502  0.90655144870E+03 -0.10065202170E+03 -0.75209862296E+03  0.11822092443E+04  0.50400001928E-02 0.  1.
</event>
<event>
 5   0  0.3347728E-05  0.2396637E+04  0.7818609E-02  0.8440764E-01
        2   -1    0    0  501    0  0.00000000000E+00  0.00000000000E+00  0.19347506409E+04  0.19347506409E+04  0.25500000920E-02 0.  1.
       -2   -1    0    0    0  501  0.00000000000E+00  0.00000000000E+00 -0.74219777835E+03  0.74219777836E+03  0.25500000920E-02 0. -1.
    10030    2    1    2    0    0  0.00000000000E+00  0.00000000000E+00  0.11925528625E+04  0.26769484193E+04  0.23966373337E+04 0.  0.
        3    1    3    3  502    0  0.12841501274E+02 -0.81346503179E+03  0.15789965883E+04  0.17762658861E+04  0.10100000352E+00 0.  1.
       -3    1    3    3    0  502 -0.12841501274E+02  0.81346503179E+03 -0.38644372577E+03  0.90068253313E+03  0.10100000352E+00 0. -1.
</event>
<event>
 5   0  0.1393026E-05  0.2397864E+04  0.7818609E-02  0.8440304E-01
        1   -1    0    0  501    0  0.00000000000E+00  0.00000000000E+00  0.15054090915E+04  0.15054090915E+04  0.50400001928E-02 0. -1.
       -1   -1    0    0    0  501  0.00000000000E+00  0.00000000000E+00 -0.95484863948E+03  0.95484863950E+03  0.50400001928E-02 0.  1.
    10030    2    1    2    0    0  0.00000000000E+00  0.00000000000E+00  0.55056045201E+03  0.24602577310E+04  0.23978639018E+04 0.  0.
        4    1    3    3  502    0 -0.53597427634E+03  0.70095116774E+03  0.11080874576E+04  0.14164958140E+04  0.12699999809E+01 0. -1.
       -4    1    3    3    0  502  0.53597427634E+03 -0.70095116774E+03 -0.55752700562E+03  0.10437619170E+04  0.12699999809E+01 0.  1.
</event>
<event>
 5   0  0.3320780E-05  0.2411604E+04  0.7818609E-02  0.8435172E-01
       -2   -1    0    0    0  501  0.00000000000E+00  0.00000000000E+00  0.66730170580E+03  0.66730170580E+03  0.25500000920E-02 0.  1.
        2   -1    0    0  501    0  0.00000000000E+00  0.00000000000E+00 -0.21788629449E+04  0.21788629449E+04  0.25500000920E-02 0. -1.
    10030    2    1    2    0    0  0.00000000000E+00  0.00000000000E+00 -0.15115612391E+04  0.28461646507E+04  0.24116044119E+04 0.  0.
        5    1    3    3  502    0 -0.66309695455E+03  0.92470673070E+03 -0.12266131886E+04  0.16731354139E+04  0.46999998093E+01 0. -1.
       -5    1    3    3    0  502  0.66309695455E+03 -0.92470673070E+03 -0.28494805056E+03  0.11730292368E+04  0.46999998093E+01 0.  1.
</event>
<event>
 5   0  0.3310037E-05  0.2388470E+04  0.7818609E-02  0.8443833E-01
       -2   -1    0    0    0  501  0.00000000000E+00  0.00000000000E+00  0.60914846371E+03  0.60914846372E+03  0.25500000920E-02 0. -1.
        2   -1    0    0  501    0  0.00000000000E+00  0.00000000000E+00 -0.23412958786E+04  0.23412958786E+04  0.25500000920E-02 0.  1.
    10030    2    1    2    0    0  0.00000000000E+00  0.00000000000E+00 -0.17321474149E+04  0.29504443423E+04  0.23884696252E+04 0.  0.
        2    1    3    3  502    0 -0.56724064079E+03 -0.60029004695E+03 -0.19316375506E+04  0.21007935910E+04  0.25500000920E-02 0.  1.
       -2    1    3    3    0  502  0.56724064079E+03  0.60029004695E+03  0.19949013569E+03  0.84965075135E+03  0.25500000920E-02 0. -1.
</event>
<event>
 5   0  0.3310037E-05  0.2403240E+04  0.7818609E-02  0.8438292E-01
       -2   -1    0    0    0  501  0.00000000000E+00  0.00000000000E+00  0.93794943951E+03  0.93794943951E+03  0.25500000920E-02 0.  1.
        2   -1    0    0  501    0  0.00000000000E+00  0.00000000000E+00 -0.15394117990E+04  0.15394117990E+04  0.25500000920E-02 0. -1.
    10030    2    1    2    0    0  0.00000000000E+00  0.00000000000E+00 -0.60146235946E+03  0.24773612385E+04  0.24032398416E+04 0.  0.
        2    1    3    3  502    0 -0.79640899506E+03 -0.86596816902E+03 -0.48812482831E+02  0.11775189237E+04  0.25500000920E-02 0. -1.
       -2    1    3    3    0  502  0.79640899506E+03  0.86596816902E+03 -0.55264987663E+03  0.12998423148E+04  0.25500000920E-02 0.  1.
</event>
<event>
 5   0  0.1506985E-05  0.2441111E+04  0.7818609E-02  0.8424271E-01
       -1   -1    0    0    0  501  0.00000000000E+00  0.00000000000E+00  0.82850362355E+03  0.82850362357E+03  0.50400001928E-02 0.  1.
        1   -1    0    0  501    0  0.00000000000E+00  0.00000000000E+00 -0.17981277704E+04  0.17981277705E+04  0.50400001928E-02 0. -1.
    10030    2    1    2    0    0  0.00000000000E+00  0.00000000000E+00 -0.96962414690E+03  0.26266313940E+04  0.24411107090E+04 0.  0.
        3    1    3    3  502    0 -0.70550893815E+03  0.84156831947E+03  0.88378347341E+02  0.11017217619E+04  0.10100000352E+00 0.  1.
       -3    1    3    3    0  502  0.70550893815E+03 -0.84156831947E+03 -0.10580024942E+04  0.15249096321E+04  0.10100000352E+00 0. -1.
</event>
<event>
 5   0  0.1401596E-05  0.2063685E+04  0.7818609E-02  0.8577411E-01
       -1   -1    0    0    0  501  0.00000000000E+00  0.00000000000E+00  0.13232728199E+04  0.13232728199E+04  0.50400001928E-02 0. -1.
        1   -1    0    0  501    0  0.00000000000E+00  0.00000000000E+00 -0.80459536580E+03  0.80459536581E+03  0.50400001928E-02 0.  1.
    10030    2    1    2    0    0  0.00000000000E+00  0.00000000000E+00  0.51867745412E+03  0.21278681857E+04  0.20636852266E+04 0.  0.
        2    1    3    3  502    0  0.67836280025E+03  0.76254204839E+03  0.10278540055E+03  0.10257735144E+04  0.25500000920E-02 0.  1.
       -2    1    3    3    0  502 -0.67836280025E+03 -0.76254204839E+03  0.41589205357E+03  0.11020946713E+04  0.25500000920E-02 0. -1.
</event>
<event>
 5   0  0.3215208E-05  0.2418420E+04  0.7818609E-02  0.8432639E-01
       -2   -1    0    0    0  501  0.00000000000E+00  0.00000000000E+00  0.11111791357E+04  0.11111791357E+04  0.25500000920E-02 0.  1.
        2   -1    0    0  501    0  0.00000000000E+00  0.00000000000E+00 -0.13158897704E+04  0.13158897704E+04  0.25500000920E-02 0. -1.
    10030    2    1    2    0    0  0.00000000000E+00  0.00000000000E+00 -0.20471063466E+03  0.24270689061E+04  0.24184203586E+04 0.  0.
        1    1    3    3  502    0  0.10898262754E+04  0.51916193651E+03 -0.31827182521E+02  0.12075857718E+04  0.50400001928E-02 0.  1.
       -1    1    3    3    0  502 -0.10898262754E+04 -0.51916193651E+03 -0.17288345214E+03  0.12194831343E+04  0.50400001928E-02 0. -1.
</event>
<event>
 5   0  0.1401596E-05  0.2502402E+04  0.7818609E-02  0.8402130E-01
        1   -1    0    0  501    0  0.00000000000E+00  0.00000000000E+00  0.12510861126E+04  0.12510861126E+04  0.50400001928E-02 0.  1.
       -1   -1    0    0    0  501  0.00000000000E+00  0.00000000000E+00 -0.12513160390E+04  0.12513160391E+04  0.50400001928E-02 0. -1.
    10030    2    1    2    0    0  0.00000000000E+00  0.00000000000E+00 -0.22992641963E+00  0.25024021517E+04  0.25024021411E+04 0.  0.
        2    1    3    3  502    0 -0.13112315787E+03  0.57236827551E+03 -0.11049703401E+04  0.12513025925E+04  0.25500000920E-02 0. -1.
       -2    1    3    3    0  502  0.13112315787E+03 -0.57236827551E+03  0.11047404137E+04  0.12510995592E+04  0.25500000920E-02 0.  1.
</event>
<event>
 5   0  0.1434943E-05  0.2370872E+04  0.7818609E-02  0.8450490E-01
       -1   -1    0    0    0  501  0.00000000000E+00  0.00000000000E+00  0.91484455493E+03  0.91484455495E+03  0.50400001928E-02 0.  1.
        1   -1    0    0  501    0  0.00000000000E+00  0.00000000000E+00 -0.15360621549E+04  0.15360621549E+04  0.50400001928E-02 0. -1.
    10030    2    1    2    0    0  0.00000000000E+00  0.00000000000E+00 -0.62121759995E+03  0.24509067098E+04  0.23708716528E+04 0.  0.
        5    1    3    3  502    0  0.13533360432E+03 -0.10092542955E+04 -0.93799545040E+03  0.13844735362E+04  0.46999998093E+01 0. -1.
       -5    1    3    3    0  502 -0.13533360432E+03  0.10092542955E+04  0.31677785045E+03  0.10664331737E+04  0.46999998093E+01 0.  1.
</event>
<event>
 5   0  0.3320780E-05  0.2275442E+04  0.7818609E-02  0.8487667E-01
        2   -1    0    0  501    0  0.00000000000E+00  0.00000000000E+00  0.23089036389E+04  0.23089036389E+04  0.25500000920E-02 0.  1.
       -2   -1    0    0    0  501  0.00000000000E+00  0.00000000000E+00 -0.56061636303E+03  0.56061636304E+03  0.25500000920E-02 0. -1.
    10030    2    1    2    0    0  0.00000000000E+00  0.00000000000E+00  0.17482872758E+04  0.28695200019E+04  0.22754420763E+04 0.  0.
        5    1    3    3  502    0 -0.79809385772E+03  0.28059779792E+03  0.18334769279E+04  0.20192445779E+04  0.46999998093E+01 0.  1.
       -5    1    3    3    0  502  0.79809385772E+03 -0.28059779792E+03 -0.85189652101E+02  0.85027542406E+03  0.46999998093E+01 0. -1.
</event>
<event>
 5   0  0.1401596E-05  0.2363232E+04  0.7818609E-02  0.8453399E-01
        1   -1    0    0  501    0  0.00000000000E+00  0.00000000000E+00  0.21011850997E+04  0.21011850997E+04  0.50400001928E-02 0.  1.
       -1   -1    0    0    0  501  0.00000000000E+00  0.00000000000E+00 -0.66449004618E+03  0.66449004620E+03  0.50400001928E-02 0. -1.
    10030    2    1    2    0    0  0.00000000000E+00  0.00000000000E+00  0.14366950535E+04  0.27656751459E+04  0.23632321799E+04 0.  0.
        2    1    3    3  502    0  0.75994854706E+02  0.53359785599E+03  0.19489458405E+04  0.20221008331E+04  0.25500000920E-02 0.  1.
       -2    1    3    3    0  502 -0.75994854706E+02 -0.53359785599E+03 -0.51225078703E+03  0.74357431281E+03  0.25500000920E-02 0. -1.
</event>
<event>
 5   0  0.1506985E-05  0.2402583E+04  0.7818609E-02  0.8438537E-01
        1   -1    0    0  501    0  0.00000000000E+00  0.00000000000E+00  0.20264613026E+04  0.20264613026E+04  0.50400001928E-02 0. -1.
       -1   -1    0    0    0  501  0.00000000000E+00  0.00000000000E+00 -0.71212876970E+03  0.71212876972E+03  0.50400001928E-02 0.  1.
    10030    2    1    2    0    0  0.00000000000E+00  0.00000000000E+00  0.13143325329E+04  0.27385900723E+04  0.24025831052E+04 0.  0.
        3    1    3    3  502    0  0.64662402198E+03  0.78358582231E+03  0.13878925634E+04  0.17199927745E+04  0.10100000352E+00 0. -1.
       -3    1    3    3    0  502 -0.64662402198E+03 -0.78358582231E+03 -0.73560030519E+02  0.10185972978E+04  0.10100000352E+00 0.  1.
</event>
<event>
 5   0  0.1434943E-05  0.2410209E+04  0.7818609E-02  0.8435691E-01
        1   -1    0    0  501    0  0.00000000000E+00  0.00000000000E+00  0.22175253626E+04  0.22175253626E+04  0.50400001928E-02 0.  1.
       -1   -1    0    0    0  501  0.00000000000E+00  0.00000000000E+00 -0.65490891296E+03  0.65490891298E+03  0.50400001928E-02 0. -1.
    10030    2    1    2    0    0  0.00000000000E+00  0.00000000000E+00  0.15626164497E+04  0.28724342756E+04  0.24102092231E+04 0.  0.
        5    1    3    3  502    0  0.59462753998E+03 -0.12240205894E+03 -0.45933829449E+03  0.76130016033E+03  0.46999998093E+01 0. -1.
       -5    1    3    3    0  502 -0.59462753998E+03  0.12240205894E+03  0.20219547442E+04  0.21111341153E+04  0.46999998093E+01 0.  1.
</event>
<event>
 5   0  0.3310037E-05  0.2422424E+04  0.7818609E-02  0.8431156E-01
        2   -1    0    0  501    0  0.00000000000E+00  0.00000000000E+00  0.19925359957E+04  0.19925359957E+04  0.25500000920E-02 0. -1.
       -2   -1    0    0    0  501  0.00000000000E+00  0.00000000000E+00 -0.73626487002E+03  0.73626487003E+03  0.25500000920E-02 0.  1.
    10030    2    1    2    0    0  0.00000000000E+00  0.00000000000E+00  0.12562711257E+04  0.27288008658E+04  0.24224237911E+04 0.  0.
        2    1    3    3  502    0  0.67042837430E+03  0.73608049762E+03 -0.14884309419E+03  0.10066990468E+04  0.25500000920E-02 0.  1.
       -2    1    3    3    0  502 -0.67042837430E+03 -0.73608049762E+03  0.14051142199E+04  0.17221018190E+04  0.25500000920E-02 0. -1.
</event>
<event>
 5   0  0.3215208E-05  0.2335863E+04  0.7818609E-02  0.8463913E-01
       -2   -1    0    0    0  501  0.00000000000E+00  0.00000000000E+00  0.75635203723E+03  0.75635203723E+03  0.25500000920E-02 0.  1.
        2   -1    0    0  501    0  0.00000000000E+00  0.00000000000E+00 -0.18034783038E+04  0.18034783038E+04  0.25500000920E-02 0. -1.
    10030    2    1    2    0    0  0.00000000000E+00  0.00000000000E+00 -0.10471262665E+04  0.25598303410E+04  0.23358634285E+04 0.  0.
        1    1    3    3  502    0  0.78738216349E+03 -0.13549053157E+03  0.41002023998E+03  0.89802280191E+03  0.50400001928E-02 0.  1.
       -1    1    3    3    0  502 -0.78738216349E+03  0.13549053157E+03 -0.14571465065E+04  0.16618075391E+04  0.50400001928E-02 0. -1.
</event>
<event>
 5   0  0.1506985E-05  0.2365338E+04  0.7818609E-02  0.8452596E-01
       -1   -1    0    0    0  501  0.00000000000E+00  0.00000000000E+00  0.10892474705E+04  0.10892474705E+04  0.50400001928E-02 0. -1.
        1   -1    0    0  501    0  0.00000000000E+00  0.00000000000E+00 -0.12841034320E+04  0.12841034320E+04  0.50400001928E-02 0.  1.
    10030    2    1    2    0    0  0.00000000000E+00  0.00000000000E+00 -0.19485596149E+03  0.23733509025E+04  0.23653383819E+04 0.  0.
        3    1    3    3  502    0 -0.10324202599E+03 -0.12933394562E+03 -0.12724286517E+04  0.12831449136E+04  0.10100000352E+00 0.  1.
       -3    1    3    3    0  502  0.10324202599E+03  0.12933394562E+03  0.10775726902E+04  0.10902059889E+04  0.10100000352E+00 0. -1.
</event>
<event>
 5   0  0.3215208E-05  0.2392654E+04  0.7818609E-02  0.8442259E-01
        2   -1    0    0  501    0  0.00000000000E+00  0.00000000000E+00  0.17192037802E+04  0.17192037802E+04  0.25500000920E-02 0. -1.
       -2   -1    0    0    0  501  0.00000000000E+00  0.00000000000E+00 -0.83247725538E+03  0.83247725539E+03  0.25500000920E-02 0.  1.
    10030    2    1    2    0    0  0.00000000000E+00  0.00000000000E+00  0.88672652477E+03  0.25516810355E+04  0.23926537939E+04 0.  0.
        1    1    3    3  502    0 -0.80568307254E+03 -0.71247323229E+03  0.10020673883E+04  0.14699940037E+04  0.50400001928E-02 0. -1.
       -1    1    3    3    0  502  0.80568307254E+03  0.71247323229E+03 -0.11534086351E+03  0.10816870319E+04  0.50400001928E-02 0.  1.
</event>
<event>
 5   0  0.3215208E-05  0.2404032E+04  0.7818609E-02  0.8437996E-01
       -2   -1    0    0    0  501  0.00000000000E+00  0.00000000000E+00  0.12069443309E+04  0.12069443309E+04  0.25500000920E-02 0. -1.
        2   -1    0    0  501    0  0.00000000000E+00  0.00000000000E+00 -0.11971077600E+04  0.11971077600E+04  0.25500000920E-02 0.  1.
    10030    2    1    2    0    0  0.00000000000E+00  0.00000000000E+00  0.98365708938E+01  0.24040520909E+04  0.24040319669E+04 0.  0.
        1    1    3    3  502    0 -0.33549194091E+02 -0.96549010226E+03 -0.71031195909E+03  0.11990995644E+04  0.50400001928E-02 0.  1.
       -1    1    3    3    0  502  0.33549194091E+02  0.96549010226E+03  0.72014852999E+03  0.12049525266E+04  0.50400001928E-02 0. -1.
</event>
<event>
 5   0  0.3320780E-05  0.2400503E+04  0.7818609E-02  0.8439315E-01
        2   -1    0    0  501    0  0.00000000000E+00  0.00000000000E+00  0.10695967434E+04  0.10695967434E+04  0.25500000920E-02 0. -1.
       -2   -1    0    0    0  501  0.00000000000E+00  0.00000000000E+00 -0.13468659366E+04  0.13468659366E+04  0.25500000920E-02 0.  1.
    10030    2    1    2    0    0  0.00000000000E+00  0.00000000000E+00 -0.27726919318E+03  0.24164626801E+04  0.24005027971E+04 0.  0.
        5    1    3    3  502    0 -0.25078919240E+03  0.11629245815E+04  0.21459013932E+02  0.11898619166E+04  0.46999998093E+01 0. -1.
       -5    1    3    3    0  502  0.25078919240E+03 -0.11629245815E+04 -0.29872820712E+03  0.12266007635E+04  0.46999998093E+01 0.  1.
</event>
<event>
 5   0  0.3347728E-05  0.2390078E+04  0.7818609E-02  0.8443227E-01
       -2   -1    0    0    0  501  0.00000000000E+00  0.00000000000E+00  0.11428100514E+04  0.11428100514E+04  0.25500000920E-02 0.  1.
        2   -1    0    0  501    0  0.00000000000E+00  0.00000000000E+00 -0.12496552178E+04  0.12496552178E+04  0.25500000920E-02 0. -1.
    10030    2    1    2    0    0  0.00000000000E+00  0.00000000000E+00 -0.10684516639E+03  0.23924652691E+04  0.23900782779E+04 0.  0.
        3    1    3    3  502    0 -0.47460913261E+03  0.93061021364E+03 -0.63437220189E+03  0.12221772781E+04  0.10100000352E+00 0. -1.
       -3    1    3    3    0  502  0.47460913261E+03 -0.93061021364E+03  0.52752703550E+03  0.11702879910E+04  0.10100000352E+00 0.  1.
</event>
<event>
 5   0  0.1407158E-05  0.2457643E+04  0.7818609E-02  0.8418233E-01
       -1   -1    0    0    0  501  0.00000000000E+00  0.00000000000E+00  0.15916816217E+04  0.15916816217E+04  0.50400001928E-02 0.  1.
        1   -1    0    0  501    0  0.00000000000E+00  0.00000000000E+00 -0.94868342556E+03  0.94868342558E+03  0.50400001928E-02 0. -1.
    10030    2    1    2    0    0  0.00000000000E+00  0.00000000000E+00  0.64299819611E+03  0.25403650473E+04  0.24576427513E+04 0.  0.
        1    1    3    3  502    0  0.43030020106E+03 -0.16221122897E+03  0.14993859517E+04  0.15683204322E+04  0.50400001928E-02 0.  1.
       -1    1    3    3    0  502 -0.43030020106E+03  0.16221122897E+03 -0.85638775556E+03  0.97204461510E+03  0.50400001928E-02 0. -1.
</event>
<event>
 5   0  0.1407158E-05  0.2398033E+04  0.7818609E-02  0.8440240E-01
       -1   -1    0    0    0  501  0.00000000000E+00  0.00000000000E+00  0.16325431118E+04  0.16325431118E+04  0.50400001928E-02 0.  1.
        1   -1    0    0  501    0  0.00000000000E+00  0.00000000000E+00 -0.88061440276E+03  0.88061440277E+03  0.50400001928E-02 0. -1.
    10030    2    1    2    0    0  0.00000000000E+00  0.00000000000E+00  0.75192870902E+03  0.25131575146E+04  0.23980333420E+04 0.  0.
        1    1    3    3  502    0  0.71205665910E+03  0.13728816514E+03 -0.62474215502E+03  0.95717056282E+03  0.50400001928E-02 0. -1.
       -1    1    3    3    0  502 -0.71205665910E+03 -0.13728816514E+03  0.13766708640E+04  0.15559869517E+04  0.50400001928E-02 0.  1.
</event>
<event>
 5   0  0.1407158E-05  0.2384943E+04  0.7818609E-02  0.8445162E-01
        1   -1    0    0  501    0  0.00000000000E+00  0.00000000000E+00  0.16376871434E+04  0.16376871434E+04  0.50400001928E-02 0. -1.
       -1   -1    0    0    0  501  0.00000000000E+00  0.00000000000E+00 -0.86829078097E+03  0.86829078099E+03  0.50400001928E-02 0.  1.
    10030    2    1    2    0    0  0.00000000000E+00  0.00000000000E+00  0.76939636239E+03  0.25059779244E+04  0.23849433106E+04 0.  0.
        1    1    3    3  502    0  0.49413041514E+03  0.56036412363E+03  0.13612825300E+04  0.15528241835E+04  0.50400001928E-02 0. -1.
       -1    1    3    3    0  502 -0.49413041514E+03 -0.56036412363E+03 -0.59188616766E+03  0.95315374086E+03  0.50400001928E-02 0.  1.
</event>
<event>
 5   0  0.3320780E-05  0.2397212E+04  0.7818609E-02  0.8440548E-01
        2   -1    0    0  501    0  0.00000000000E+00  0.00000000000E+00  0.11382875923E+04  0.11382875923E+04  0.25500000920E-02 0.  1.
       -2   -1    0    0    0  501  0.00000000000E+00  0.00000000000E+00 -0.12621208555E+04  0.12621208555E+04  0.25500000920E-02 0. -1.
    10030    2    1    2    0    0  0.00000000000E+00  0.00000000000E+00 -0.12383326327E+03  0.24004084478E+04  0.23972121389E+04 0.  0.
        5    1    3    3  502    0  0.11355032183E+03 -0.65300297473E+03  0.93807796576E+03  0.11486160892E+04  0.46999998093E+01 0.  1.
       -5    1    3    3    0  502 -0.11355032183E+03  0.65300297473E+03 -0.10619112290E+04  0.12517923585E+04  0.46999998093E+01 0. -1.
</event>
<event>
 5   0  0.3215208E-05  0.2414198E+04  0.7818609E-02  0.8434207E-01
        2   -1    0    0  501    0  0.00000000000E+00  0.00000000000E+00  0.25440613162E+04  0.25440613162E+04  0.25500000920E-02 0. -1.
       -2   -1    0    0    0  501  0.00000000000E+00  0.00000000000E+00 -0.57274106572E+03  0.57274106573E+03  0.25500000920E-02 0.  1.
    10030    2    1    2    0    0  0.00000000000E+00  0.00000000000E+00  0.19713202505E+04  0.31168023819E+04  0.24141983262E+04 0.  0.
        1    1    3    3  502    0 -0.72077042528E+03 -0.77511843152E+03  0.23645128609E+03  0.10845403633E+04  0.50400001928E-02 0. -1.
       -1    1    3    3    0  502  0.72077042528E+03  0.77511843152E+03  0.17348689644E+04  0.20322620186E+04  0.50400001928E-02 0.  1.
</event>
<event>
 5   0  0.1434943E-05  0.2416226E+04  0.7818609E-02  0.8433454E-01
       -1   -1    0    0    0  501  0.00000000000E+00  0.00000000000E+00  0.61372276748E+03  0.61372276750E+03  0.50400001928E-02 0.  1.
        1   -1    0    0  501    0  0.00000000000E+00  0.00000000000E+00 -0.23781698434E+04  0.23781698434E+04  0.50400001928E-02 0. -1.
    10030    2    1    2    0    0  0.00000000000E+00  0.00000000000E+00 -0.17644470759E+04  0.29918926109E+04  0.24162259645E+04 0.  0.
        5    1    3    3  502    0  0.16344161347E+02  0.70489558725E+02  0.61102575402E+03  0.61531331172E+03  0.46999998093E+01 0.  1.
       -5    1    3    3    0  502 -0.16344161347E+02 -0.70489558725E+02 -0.23754728299E+04  0.23765792992E+04  0.46999998093E+01 0. -1.
</event>
<event>
 5   0  0.1506985E-05  0.2277134E+04  0.7818609E-02  0.8486992E-01
        1   -1    0    0  501    0  0.00000000000E+00  0.00000000000E+00  0.21111482718E+04  0.21111482718E+04  0.50400001928E-02 0.  1.
       -1   -1    0    0    0  501  0.00000000000E+00  0.00000000000E+00 -0.61404257403E+03  0.61404257405E+03  0.50400001928E-02 0. -1.
    10030    2    1    2    0    0  0.00000000000E+00  0.00000000000E+00  0.14971056977E+04  0.27251908458E+04  0.22771340927E+04 0.  0.
        3    1    3    3  502    0 -0.26259815294E+03  0.10189297960E+04  0.22805128531E+03  0.10766536667E+04  0.10100000352E+00 0. -1.
       -3    1    3    3    0  502  0.26259815294E+03 -0.10189297960E+04  0.12690544124E+04  0.16485371791E+04  0.10100000352E+00 0.  1.
</event>
<event>
 5   0  0.3215208E-05  0.2388821E+04  0.7818609E-02  0.8443701E-01
       -2   -1    0    0    0  501  0.00000000000E+00  0.00000000000E+00  0.10069009153E+04  0.10069009153E+04  0.25500000920E-02 0. -1.
        2   -1    0    0  501    0  0.00000000000E+00  0.00000000000E+00 -0.14168390120E+04  0.14168390120E+04  0.25500000920E-02 0.  1.
    10030    2    1    2    0    0  0.00000000000E+00  0.00000000000E+00 -0.40993809667E+03  0.24237399273E+04  0.23888210465E+04 0.  0.
        1    1    3    3  502    0 -0.87401280048E+03 -0.81226578902E+03 -0.14993213901E+03  0.12025613222E+04  0.50400001928E-02 0. -1.
       -1    1    3    3    0  502  0.87401280048E+03  0.81226578902E+03 -0.26000595766E+03  0.12211786051E+04  0.50400001928E-02 0.  1.
</event>
<event>
 5   0  0.1407158E-05  0.2394640E+04  0.7818609E-02  0.8441513E-01
        1   -1    0    0  501    0  0.00000000000E+00  0.00000000000E+00  0.18811752685E+04  0.18811752685E+04  0.50400001928E-02 0. -1.
       -1   -1    0    0    0  501  0.00000000000E+00  0.00000000000E+00 -0.76206373124E+03  0.76206373125E+03  0.50400001928E-02 0.  1.
    10030    2    1    2    0    0  0.00000000000E+00  0.00000000000E+00  0.11191115372E+04  0.26432389997E+04  0.23946402187E+04 0.  0.
        1    1    3    3  502    0  0.63256745988E+03 -0.87540184265E+03 -0.10920456273E+02  0.10800876047E+04  0.50400001928E-02 0.  1.
       -1    1    3    3    0  502 -0.63256745988E+03  0.87540184265E+03  0.11300319935E+04  0.15631513950E+04  0.50400001928E-02 0. -1.
</event>
<event>
 5   0  0.1401596E-05  0.2417279E+04  0.7818609E-02  0.8433063E-01
       -1   -1    0    0    0  501  0.00000000000E+00  0.00000000000E+00  0.61580292000E+03  0.61580292002E+03  0.50400001928E-02 0. -1.
        1   -1    0    0  501    0  0.00000000000E+00  0.00000000000E+00 -0.23722031942E+04  0.23722031942E+04  0.50400001928E-02 0.  1.
    10030    2    1    2    0    0  0.00000000000E+00  0.00000000000E+00 -0.17564002742E+04  0.29880061142E+04  0.24172791761E+04 0.  0.
        2    1    3    3  502    0 -0.47961128763E+03 -0.89783303373E+03 -0.16837358764E+04  0.19675105197E+04  0.25500000920E-02 0.  1.
       -2    1    3    3    0  502  0.47961128763E+03  0.89783303373E+03 -0.72664397776E+02  0.10204955945E+04  0.25500000920E-02 0. -1.
</event>
<event>
 5   0  0.1393026E-05  0.2370480E+04  0.7818609E-02  0.8450639E-01
        1   -1    0    0  501    0  0.00000000000E+00  0.00000000000E+00  0.13712904017E+04  0.13712904017E+04  0.50400001928E-02 0. -1.
       -1   -1    0    0    0  501  0.00000000000E+00  0.00000000000E+00 -0.10244321829E+04  0.10244321829E+04  0.50400001928E-02 0.  1.
    10030    2    1    2    0    0  0.00000000000E+00  0.00000000000E+00  0.34685821877E+03  0.23957225846E+04  0.23704801367E+04 0.  0.
        4    1    3    3  502    0  0.58921106247E+03  0.78692190575E+03  0.84257976947E+03  0.12947424619E+04  0.12699999809E+01 0. -1.
       -4    1    3    3    0  502 -0.58921106247E+03 -0.78692190575E+03 -0.49572155070E+03  0.11009801227E+04  0.12699999809E+01 0.  1.
</event>
<event>
 5   0  0.1393026E-05  0.2369771E+04  0.7818609E-02  0.8450908E-01
       -1   -1    0    0    0  501  0.00000000000E+00  0.00000000000E+00  0.12142558720E+04  0.12142558720E+04  0.50400001928E-02 0.  1.
        1   -1    0    0  501    0  0.00000000000E+00  0.00000000000E+00 -0.11562254197E+04  0.11562254197E+04  0.50400001928E-02 0. -1.
    10030    2    1    2    0    0  0.00000000000E+00  0.00000000000E+00  0.58030452291E+02  0.23704812917E+04  0.23697708794E+04 0.  0.
        4    1    3    3  502    0  0.65729297768E+03 -0.97754073375E+03  0.15685004572E+03  0.11883700999E+04  0.12699999809E+01 0.  1.
       -4    1    3    3    0  502 -0.65729297768E+03  0.97754073375E+03 -0.98819593430E+02  0.11821111917E+04  0.12699999809E+01 0. -1.
</event>
<event>
 5   0  0.1407158E-05  0.2446209E+04  0.7818609E-02  0.8422403E-01
        1   -1    0    0  501    0  0.00000000000E+00  0.00000000000E+00  0.16863966099E+04  0.16863966099E+04  0.50400001928E-02 0. -1.
       -1   -1    0    0    0  501  0.00000000000E+00  0.00000000000E+00 -0.88708963054E+03  0.88708963055E+03  0.50400001928E-02 0.  1.
    10030    2    1    2    0    0  0.00000000000E+00  0.00000000000E+00  0.79930697940E+03  0.25734862405E+04  0.24462092680E+04 0.  0.
        1    1    3    3  502    0 -0.10167863529E+04  0.60533472076E+03  0.74202969521E+02  0.11856604456E+04  0.50400001928E-02 0. -1.
       -1    1    3    3    0  502  0.10167863529E+04 -0.60533472076E+03  0.72510400988E+03  0.13878257948E+04  0.50400001928E-02 0.  1.
</event>
<event>
 5   0  0.1506985E-05  0.2402641E+04  0.7818609E-02  0.8438516E-01
       -1   -1    0    0    0  501  0.00000000000E+00  0.00000000000E+00  0.10896989539E+04  0.10896989539E+04  0.50400001928E-02 0.  1.
        1   -1    0    0  501    0  0.00000000000E+00  0.00000000000E+00 -0.13243756105E+04  0.13243756105E+04  0.50400001928E-02 0. -1.
    10030    2    1    2    0    0  0.00000000000E+00  0.00000000000E+00 -0.23467665664E+03  0.24140745644E+04  0.24026408116E+04 0.  0.
        3    1    3    3  502    0  0.43120084738E+03  0.69987651304E+02 -0.12417430372E+04  0.13163427451E+04  0.10100000352E+00 0. -1.
       -3    1    3    3    0  502 -0.43120084738E+03 -0.69987651304E+02  0.10070663805E+04  0.10977318193E+04  0.10100000352E+00 0.  1.
</event>
<event>
 5   0  0.1393026E-05  0.2420033E+04  0.7818609E-02  0.8432042E-01
       -1   -1    0    0    0  501  0.00000000000E+00  0.00000000000E+00  0.77515187543E+03  0.77515187545E+03  0.50400001928E-02 0.  1.
        1   -1    0    0  501    0  0.00000000000E+00  0.00000000000E+00 -0.18888420098E+04  0.18888420098E+04  0.50400001928E-02 0. -1.
    10030    2    1    2    0    0  0.00000000000E+00  0.00000000000E+00 -0.11136901343E+04  0.26639938852E+04  0.24200325835E+04 0.  0.
        4    1    3    3  502    0  0.32631761559E+03  0.10536243751E+04 -0.91659304394E+01  0.11030381395E+04  0.12699999809E+01 0. -1.
       -4    1    3    3    0  502 -0.32631761559E+03 -0.10536243751E+04 -0.11045242039E+04  0.15609557457E+04  0.12699999809E+01 0.  1.
</event>
<event>
 5   0  0.3347728E-05  0.2403363E+04  0.7818609E-02  0.8438246E-01
       -2   -1    0    0    0  501  0.00000000000E+00  0.00000000000E+00  0.95293653631E+03  0.95293653631E+03  0.25500000920E-02 0. -1.
        2   -1    0    0  501    0  0.00000000000E+00  0.00000000000E+00 -0.15153558653E+04  0.15153558653E+04  0.25500000920E-02 0.  1.
    10030    2    1    2    0    0  0.00000000000E+00  0.00000000000E+00 -0.56241932895E+03  0.24682924016E+04  0.24033626189E+04 0.  0.
        3    1    3    3  502    0 -0.10708794207E+04  0.46371222344E+03 -0.57570770753E+03  0.13012498355E+04  0.10100000352E+00 0.  1.
       -3    1    3    3    0  502  0.10708794207E+04 -0.46371222344E+03  0.13288378589E+02  0.11670425660E+04  0.10100000352E+00 0. -1.
</event>
<event>
 5   0  0.1401596E-05  0.2383962E+04  0.7818609E-02  0.8445532E-01
       -1   -1    0    0    0  501  0.00000000000E+00  0.00000000000E+00  0.16423263324E+04  0.16423263324E+04  0.50400001928E-02 0. -1.
        1   -1    0    0  501    0  0.00000000000E+00  0.00000000000E+00 -0.86512602668E+03  0.86512602669E+03  0.50400001928E-02 0.  1.
    10030    2    1    2    0    0  0.00000000000E+00  0.00000000000E+00  0.77720030575E+03  0.25074523591E+04  0.23839624615E+04 0.  0.
        2    1    3    3  502    0  0.34087172319E+03 -0.67776381253E+02  0.15878517710E+04  0.16254416065E+04  0.25500000920E-02 0. -1.
       -2    1    3    3    0  502 -0.34087172319E+03  0.67776381253E+02 -0.81065146527E+03  0.88201075259E+03  0.25500000920E-02 0.  1.
</event>
<event>
 5   0  0.1506985E-05  0.2411990E+04  0.7818609E-02  0.8435028E-01
       -1   -1    0    0    0  501  0.00000000000E+00  0.00000000000E+00  0.74919068811E+03  0.74919068813E+03  0.50400001928E-02 0. -1.
        1   -1    0    0  501    0  0.00000000000E+00  0.00000000000E+00 -0.19413260348E+04  0.19413260348E+04  0.50400001928E-02 0.  1.
    10030    2    1    2    0    0  0.00000000000E+00  0.00000000000E+00 -0.11921353466E+04  0.26905167229E+04  0.24119895421E+04 0.  0.
        3    1    3    3  502    0 -0.33559690616E+03 -0.34602400072E+03  0.63705849627E+03  0.79887510311E+03  0.10100000352E+00 0. -1.
       -3    1    3    3    0  502  0.33559690616E+03  0.34602400072E+03 -0.18291938429E+04  0.18916416198E+04  0.10100000352E+00 0.  1.
</event>
<event>
 5   0  0.1401596E-05  0.2421594E+04  0.7818609E-02  0.8431463E-01
        1   -1    0    0  501    0  0.00000000000E+00  0.00000000000E+00  0.17043522331E+04  0.17043522331E+04  0.50400001928E-02 0. -1.
       -1   -1    0    0    0  501  0.00000000000E+00  0.00000000000E+00 -0.86016840381E+03  0.86016840383E+03  0.50400001928E-02 0.  1.
    10030    2    1    2    0    0  0.00000000000E+00  0.00000000000E+00  0.84418382929E+03  0.25645206369E+04  0.24215944664E+04 0.  0.
        2    1    3    3  502    0 -0.60254925009E+03  0.81597433228E+03 -0.27810491234E+03  0.10517709123E+04  0.25500000920E-02 0.  1.
       -2    1    3    3    0  502  0.60254925009E+03 -0.81597433228E+03  0.11222887416E+04  0.15127497246E+04  0.25500000920E-02 0. -1.
</event>
<event>
 5   0  0.3215208E-05  0.2411576E+04  0.7818609E-02  0.8435182E-01
       -2   -1    0    0    0  501  0.00000000000E+00  0.00000000000E+00  0.10081948587E+04  0.10081948587E+04  0.25500000920E-02 0. -1.
        2   -1    0    0  501    0  0.00000000000E+00  0.00000000000E+00 -0.14421074116E+04  0.14421074116E+04  0.25500000920E-02 0.  1.
    10030    2    1    2    0    0  0.00000000000E+00  0.00000000000E+00 -0.43391255290E+03  0.24503022703E+04  0.24115764786E+04 0.  0.
        1    1    3    3  502    0  0.53391385442E+03  0.45504717787E+03  0.77950288825E+03  0.10486928487E+04  0.50400001928E-02 0. -1.
       -1    1    3    3    0  502 -0.53391385442E+03 -0.45504717787E+03 -0.12134154412E+04  0.14016094217E+04  0.50400001928E-02 0.  1.
</event>
<event>
 5   0  0.1407158E-05  0.2417952E+04  0.7818609E-02  0.8432813E-01
        1   -1    0    0  501    0  0.00000000000E+00  0.00000000000E+00  0.11111912723E+04  0.11111912723E+04  0.50400001928E-02 0.  1.
       -1   -1    0    0    0  501  0.00000000000E+00  0.00000000000E+00 -0.13153652633E+04  0.13153652633E+04  0.50400001928E-02 0. -1.
    10030    2    1    2    0    0  0.00000000000E+00  0.00000000000E+00 -0.20417399096E+03  0.24265565356E+04  0.24179515301E+04 0.  0.
        1    1    3    3  502    0 -0.49792377392E+03  0.63546648421E+03 -0.10052211485E+04  0.12892692871E+04  0.50400001928E-02 0. -1.
       -1    1    3    3    0  502  0.49792377392E+03 -0.63546648421E+03  0.80104715752E+03  0.11372872486E+04  0.50400001928E-02 0.  1.
</event>
<event>
 5   0  0.3310037E-05  0.2410684E+04  0.7818609E-02  0.8435515E-01
        2   -1    0    0  501    0  0.00000000000E+00  0.00000000000E+00  0.13169751494E+04  0.13169751494E+04  0.25500000920E-02 0.  1.
       -2   -1    0    0    0  501  0.00000000000E+00  0.00000000000E+00 -0.11031711813E+04  0.11031711813E+04  0.25500000920E-02 0. -1.
    10030    2    1    2    0    0  0.00000000000E+00  0.00000000000E+00  0.21380396805E+03  0.24201463307E+04  0.24106837464E+04 0.  0.
        2    1    3    3  502    0  0.29481233356E+03  0.10119508571E+01  0.12802212321E+04  0.13137281832E+04  0.25500000920E-02 0.  1.
       -2    1    3    3    0  502 -0.29481233356E+03 -0.10119508571E+01 -0.10664172641E+04  0.11064181475E+04  0.25500000920E-02 0. -1.
</event>
<event>
 5   0  0.1147362E-05  0.2406329E+04  0.7818609E-02  0.8437138E-01
       -3   -1    0    0    0  501  0.00000000000E+00  0.00000000000E+00  0.84813716326E+03  0.84813716927E+03  0.10100000352E+00 0. -1.
        3   -1    0    0  501    0  0.00000000000E+00  0.00000000000E+00 -0.17068046001E+04  0.17068046031E+04  0.10100000352E+00 0.  1.
    10030    2    1    2    0    0  0.00000000000E+00  0.00000000000E+00 -0.85866743687E+03  0.25549417724E+04  0.24063286752E+04 0.  0.
        2    1    3    3  502    0 -0.20067685995E+03 -0.77377781443E+03 -0.13840915479E+04  0.15983468714E+04  0.25500000920E-02 0.  1.
       -2    1    3    3    0  502  0.20067685995E+03  0.77377781443E+03  0.52542411103E+03  0.95659490103E+03  0.25500000920E-02 0. -1.
</event>
<event>
 5   0  0.1393026E-05  0.2341100E+04  0.7818609E-02  0.8461890E-01
        1   -1    0    0  501    0  0.00000000000E+00  0.00000000000E+00  0.95802910582E+03  0.95802910583E+03  0.50400001928E-02 0.  1.
       -1   -1    0    0    0  501  0.00000000000E+00  0.00000000000E+00 -0.14302144090E+04  0.14302144090E+04  0.50400001928E-02 0. -1.
    10030    2    1    2    0    0  0.00000000000E+00  0.00000000000E+00 -0.47218530320E+03  0.23882435149E+04  0.23410997684E+04 0.  0.
        4    1    3    3  502    0  0.79080185459E+03  0.20960295106E+03  0.61795459507E+03  0.10252660459E+04  0.12699999809E+01 0.  1.
       -4    1    3    3    0  502 -0.79080185459E+03 -0.20960295106E+03 -0.10901398983E+04  0.13629774690E+04  0.12699999809E+01 0. -1.
</event>
<event>
 5   0  0.1506985E-05  0.2371793E+04  0.7818609E-02  0.8450140E-01
       -1   -1    0    0    0  501  0.00000000000E+00  0.00000000000E+00  0.90151428109E+03  0.90151428111E+03  0.50400001928E-02 0. -1.
        1   -1    0    0  501    0  0.00000000000E+00  0.00000000000E+00 -0.15599873677E+04  0.15599873677E+04  0.50400001928E-02 0.  1.
    10030    2    1    2    0    0  0.00000000000E+00  0.00000000000E+00 -0.65847308660E+03  0.24615016488E+04  0.23717933218E+04 0.  0.
        3    1    3    3  502    0  0.10196476503E+04 -0.59850020905E+03 -0.23373963107E+03  0.12052045703E+04  0.10100000352E+00 0. -1.
       -3    1    3    3    0  502 -0.10196476503E+04  0.59850020905E+03 -0.42473345554E+03  0.12562970785E+04  0.10100000352E+00 0.  1.
</event>
<event>
 5   0  0.3347728E-05  0.2308001E+04  0.7818609E-02  0.8474773E-01
        2   -1    0    0  501    0  0.00000000000E+00  0.00000000000E+00  0.20781334900E+04  0.20781334900E+04  0.25500000920E-02 0.  1.
       -2   -1    0    0    0  501  0.00000000000E+00  0.00000000000E+00 -0.64082387004E+03  0.64082387005E+03  0.25500000920E-02 0. -1.
    10030    2    1    2    0    0  0.00000000000E+00  0.00000000000E+00  0.14373096200E+04  0.27189573601E+04  0.23080013393E+04 0.  0.
        3    1    3    3  502    0  0.22968869658E+03  0.79879320196E+03  0.16617555981E+04  0.18580256066E+04  0.10100000352E+00 0.  1.
       -3    1    3    3    0  502 -0.22968869658E+03 -0.79879320196E+03 -0.22444597811E+03  0.86093175346E+03  0.10100000352E+00 0. -1.
</event>
<event>
 5   0  0.3345974E-05  0.2420620E+04  0.7818609E-02  0.8431824E-01
       -2   -1    0    0    0  501  0.00000000000E+00  0.00000000000E+00  0.90707266884E+03  0.90707266884E+03  0.25500000920E-02 0.  1.
        2   -1    0    0  501    0  0.00000000000E+00  0.00000000000E+00 -0.16149205681E+04  0.16149205681E+04  0.25500000920E-02 0. -1.
    10030    2    1    2    0    0  0.00000000000E+00  0.00000000000E+00 -0.70784789922E+03  0.25219932369E+04  0.24206200112E+04 0.  0.
        4    1    3    3  502    0 -0.57434005673E+02  0.29022167827E+03  0.86881838097E+03  0.91780950069E+03  0.12699999809E+01 0.  1.
       -4    1    3    3    0  502  0.57434005673E+02 -0.29022167827E+03 -0.15766662802E+04  0.16041837362E+04  0.12699999809E+01 0. -1.
</event>
<event>
 5   0  0.1407158E-05  0.2398196E+04  0.7818609E-02  0.8440179E-01
       -1   -1    0    0    0  501  0.00000000000E+00  0.00000000000E+00  0.23167931634E+04  0.23167931634E+04  0.50400001928E-02 0.  1.
        1   -1    0    0  501    0  0.00000000000E+00  0.00000000000E+00 -0.62061450372E+03  0.62061450374E+03  0.50400001928E-02 0. -1.
    10030    2    1    2    0    0  0.00000000000E+00  0.00000000000E+00  0.16961786597E+04  0.29374076671E+04  0.23981955211E+04 0.  0.
        1    1    3    3  502    0 -0.51409533445E+03 -0.90741064524E+03  0.12331123872E+03  0.10501874850E+04  0.50400001928E-02 0. -1.
       -1    1    3    3    0  502  0.51409533445E+03  0.90741064524E+03  0.15728674210E+04  0.18872201822E+04  0.50400001928E-02 0.  1.
</event>
<event>
 5   0  0.1434943E-05  0.2404508E+04  0.7818609E-02  0.8437818E-01
        1   -1    0    0  501    0  0.00000000000E+00  0.00000000000E+00  0.75425824789E+03  0.75425824791E+03  0.50400001928E-02 0. -1.
       -1   -1    0    0    0  501  0.00000000000E+00  0.00000000000E+00 -0.19163399186E+04  0.19163399186E+04  0.50400001928E-02 0.  1.
    10030    2    1    2    0    0  0.00000000000E+00  0.00000000000E+00 -0.11620816707E+04  0.26705981665E+04  0.24045084232E+04 0.  0.
        5    1    3    3  502    0  0.50162767221E+03 -0.29903364254E+03 -0.17482104456E+04  0.18431802118E+04  0.46999998093E+01 0.  1.
       -5    1    3    3    0  502 -0.50162767221E+03  0.29903364254E+03  0.58612877497E+03  0.82741795469E+03  0.46999998093E+01 0. -1.
</event>
<event>
 5   0  0.3347728E-05  0.2411032E+04  0.7818609E-02  0.8435385E-01
       -2   -1    0    0    0  501  0.00000000000E+00  0.00000000000E+00  0.86176653469E+03  0.86176653470E+03  0.25500000920E-02 0.  1.
        2   -1    0    0  501    0  0.00000000000E+00  0.00000000000E+00 -0.16863832262E+04  0.16863832262E+04  0.25500000920E-02 0. -1.
    10030    2    1    2    0    0  0.00000000000E+00  0.00000000000E+00 -0.82461669154E+03  0.25481497609E+04  0.24110318364E+04 0.  0.
        3    1    3    3  502    0 -0.81282283208E+03 -0.31774049720E+03 -0.12912468454E+04  0.15585115995E+04  0.10100000352E+00 0. -1.
       -3    1    3    3    0  502  0.81282283208E+03  0.31774049720E+03  0.46663015382E+03  0.98963816144E+03  0.10100000352E+00 0.  1.
</event>
<event>
 5   0  0.1393026E-05  0.2381848E+04  0.7818609E-02  0.8446331E-01
        1   -1    0    0  501    0  0.00000000000E+00  0.00000000000E+00  0.89801433056E+03  0.89801433058E+03  0.50400001928E-02 0.  1.
       -1   -1    0    0    0  501  0.00000000000E+00  0.00000000000E+00 -0.15793733543E+04  0.15793733544E+04  0.50400001928E-02 0. -1.
    10030    2    1    2    0    0  0.00000000000E+00  0.00000000000E+00 -0.68135902378E+03  0.24773876849E+04  0.23818479427E+04 0.  0.
        4    1    3    3  502    0 -0.20619665594E+03  0.32488676765E+03 -0.15129318125E+04  0.15610998543E+04  0.12699999809E+01 0. -1.
       -4    1    3    3    0  502  0.20619665594E+03 -0.32488676765E+03  0.83157278876E+03  0.91628783066E+03  0.12699999809E+01 0.  1.
</event>
<event>
 5   0  0.3347728E-05  0.2253550E+04  0.7818609E-02  0.8496464E-01
       -2   -1    0    0    0  501  0.00000000000E+00  0.00000000000E+00  0.13105806239E+04  0.13105806239E+04  0.25500000920E-02 0. -1.
        2   -1    0    0  501    0  0.00000000000E+00  0.00000000000E+00 -0.96874804054E+03  0.96874804055E+03  0.25500000920E-02 0.  1.
    10030    2    1    2    0    0  0.00000000000E+00  0.00000000000E+00  0.34183258340E+03  0.22793286645E+04  0.22535504533E+04 0.  0.
        3    1    3    3  502    0 -0.10924806584E+04  0.34339006763E+02 -0.10594697874E+03  0.10981429455E+04  0.10100000352E+00 0. -1.
       -3    1    3    3    0  502  0.10924806584E+04 -0.34339006763E+02  0.44777956214E+03  0.11811857190E+04  0.10100000352E+00 0.  1.
</event>
<event>
 5   0  0.1434943E-05  0.2410464E+04  0.7818609E-02  0.8435596E-01
        1   -1    0    0  501    0  0.00000000000E+00  0.00000000000E+00  0.56215977880E+03  0.56215977882E+03  0.50400001928E-02 0.  1.
       -1   -1    0    0    0  501  0.00000000000E+00  0.00000000000E+00 -0.25839356001E+04  0.25839356001E+04  0.50400001928E-02 0. -1.
    10030    2    1    2    0    0  0.00000000000E+00  0.00000000000E+00 -0.20217758213E+04  0.31460953789E+04  0.24104644079E+04 0.  0.
        5    1    3    3  502    0  0.47927447368E+03  0.76149598740E+03 -0.20574637618E+04  0.22456089109E+04  0.46999998093E+01 0. -1.
       -5    1    3    3    0  502 -0.47927447368E+03 -0.76149598740E+03  0.35687940456E+02  0.90048646799E+03  0.46999998093E+01 0.  1.
</event>
<event>
 5   0  0.1401596E-05  0.2421820E+04  0.7818609E-02  0.8431379E-01
        1   -1    0    0  501    0  0.00000000000E+00  0.00000000000E+00  0.23192887825E+04  0.23192887825E+04  0.50400001928E-02 0. -1.
       -1   -1    0    0    0  501  0.00000000000E+00  0.00000000000E+00 -0.63222111619E+03  0.63222111621E+03  0.50400001928E-02 0.  1.
    10030    2    1    2    0    0  0.00000000000E+00  0.00000000000E+00  0.16870676663E+04  0.29515098987E+04  0.24218202599E+04 0.  0.
        2    1    3    3  502    0 -0.95316413171E+03  0.27113723330E+03 -0.45608918229E+01  0.99098842728E+03  0.25500000920E-02 0.  1.
       -2    1    3    3    0  502  0.95316413171E+03 -0.27113723330E+03  0.16916285581E+04  0.19605214714E+04  0.25500000920E-02 0. -1.
</event>
<event>
 5   0  0.3320780E-05  0.2407882E+04  0.7818609E-02  0.8436558E-01
       -2   -1    0    0    0  501  0.00000000000E+00  0.00000000000E+00  0.19209350377E+04  0.19209350377E+04  0.25500000920E-02 0.  1.
        2   -1    0    0  501    0  0.00000000000E+00  0.00000000000E+00 -0.75456717639E+03  0.75456717640E+03  0.25500000920E-02 0. -1.
    10030    2    1    2    0    0  0.00000000000E+00  0.00000000000E+00  0.11663678613E+04  0.26755022141E+04  0.24078824950E+04 0.  0.
        5    1    3    3  502    0  0.21679755881E+03 -0.49059989532E+03  0.17808308327E+04  0.18598575170E+04  0.46999998093E+01 0.  1.
       -5    1    3    3    0  502 -0.21679755881E+03  0.49059989532E+03 -0.61446297137E+03  0.81564469714E+03  0.46999998093E+01 0. -1.
</event>
<event>
 5   0  0.1407158E-05  0.2399206E+04  0.7818609E-02  0.8439801E-01
        1   -1    0    0  501    0  0.00000000000E+00  0.00000000000E+00  0.15990347235E+04  0.15990347235E+04  0.50400001928E-02 0.  1.
       -1   -1    0    0    0  501  0.00000000000E+00  0.00000000000E+00 -0.89994761013E+03  0.89994761014E+03  0.50400001928E-02 0. -1.
    10030    2    1    2    0    0  0.00000000000E+00  0.00000000000E+00  0.69908711341E+03  0.24989823337E+04  0.23992061003E+04 0.  0.
        1    1    3    3  502    0  0.14642960193E+03 -0.63824598796E+03 -0.69736707186E+03  0.95661925676E+03  0.50400001928E-02 0. -1.
       -1    1    3    3    0  502 -0.14642960193E+03  0.63824598796E+03  0.13964541853E+04  0.15423630769E+04  0.50400001928E-02 0.  1.
</event>
<event>
 5   0  0.1407158E-05  0.2408059E+04  0.7818609E-02  0.8436492E-01
        1   -1    0    0  501    0  0.00000000000E+00  0.00000000000E+00  0.76993162882E+03  0.76993162884E+03  0.50400001928E-02 0.  1.
       -1   -1    0    0    0  501  0.00000000000E+00  0.00000000000E+00 -0.18828780181E+04  0.18828780181E+04  0.50400001928E-02 0. -1.
    10030    2    1    2    0    0  0.00000000000E+00  0.00000000000E+00 -0.11129463893E+04  0.26528096469E+04  0.24080592512E+04 0.  0.
        1    1    3    3  502    0 -0.30134155620E+03  0.69999789434E+03 -0.15833532243E+04  0.17572168957E+04  0.50400001928E-02 0. -1.
       -1    1    3    3    0  502  0.30134155620E+03 -0.69999789434E+03  0.47040683505E+03  0.89559275123E+03  0.50400001928E-02 0.  1.
</event>
<event>
 5   0  0.3347728E-05  0.2369062E+04  0.7818609E-02  0.8451178E-01
        2   -1    0    0  501    0  0.00000000000E+00  0.00000000000E+00  0.17234558870E+04  0.17234558870E+04  0.25500000920E-02 0.  1.
       -2   -1    0    0    0  501  0.00000000000E+00  0.00000000000E+00 -0.81412821508E+03  0.81412821508E+03  0.25500000920E-02 0. -1.
    10030    2    1    2    0    0  0.00000000000E+00  0.00000000000E+00  0.90932767192E+03  0.25375841021E+04  0.23690623167E+04 0.  0.
        3    1    3    3  502    0  0.12872794745E+02  0.34654904862E+03 -0.75853575528E+03  0.83404943149E+03  0.10100000352E+00 0. -1.
       -3    1    3    3    0  502 -0.12872794745E+02 -0.34654904862E+03  0.16678634272E+04  0.17035346706E+04  0.10100000352E+00 0.  1.
</event>
<event>
 5   0  0.1393026E-05  0.2476870E+04  0.7818609E-02  0.8411272E-01
        1   -1    0    0  501    0  0.00000000000E+00  0.00000000000E+00  0.14682845605E+04  0.14682845605E+04  0.50400001928E-02 0.  1.
       -1   -1    0    0    0  501  0.00000000000E+00  0.00000000000E+00 -0.10445666748E+04  0.10445666748E+04  0.50400001928E-02 0. -1.
    10030    2    1    2    0    0  0.00000000000E+00  0.00000000000E+00  0.42371788568E+03  0.25128512353E+04  0.24768698965E+04 0.  0.
        4    1    3    3  502    0  0.94489103139E+03 -0.73593456583E+03 -0.10783902346E+03  0.12025180307E+04  0.12699999809E+01 0. -1.
       -4    1    3    3    0  502 -0.94489103139E+03  0.73593456583E+03  0.53155690914E+03  0.13103332046E+04  0.12699999809E+01 0.  1.
</event>
<event>
 5   0  0.1407158E-05  0.2355269E+04  0.7818609E-02  0.8456443E-01
        1   -1    0    0  501    0  0.00000000000E+00  0.00000000000E+00  0.10505971029E+04  0.10505971029E+04  0.50400001928E-02 0. -1.
       -1   -1    0    0    0  501  0.00000000000E+00  0.00000000000E+00 -0.13200331766E+04  0.13200331766E+04  0.50400001928E-02 0.  1.
    10030    2    1    2    0    0  0.00000000000E+00  0.00000000000E+00 -0.26943607369E+03  0.23706302795E+04  0.23552690132E+04 0.  0.
        1    1    3    3  502    0 -0.23766665514E+02 -0.69809463211E+03  0.81958065472E+03  0.10768534809E+04  0.50400001928E-02 0. -1.
       -1    1    3    3    0  502  0.23766665514E+02  0.69809463211E+03 -0.10890167284E+04  0.12937767986E+04  0.50400001928E-02 0.  1.
</event>
<event>
 5   0  0.3320780E-05  0.2414815E+04  0.7818609E-02  0.8433978E-01
        2   -1    0    0  501    0  0.00000000000E+00  0.00000000000E+00  0.18827468941E+04  0.18827468941E+04  0.25500000920E-02 0.  1.
       -2   -1    0    0    0  501  0.00000000000E+00  0.00000000000E+00 -0.77431191420E+03  0.77431191421E+03  0.25500000920E-02 0. -1.
    10030    2    1    2    0    0  0.00000000000E+00  0.00000000000E+00  0.11084349799E+04  0.26570588083E+04  0.24148153979E+04 0.  0.
        5    1    3    3  502    0 -0.75337975060E+03  0.61640729426E+03 -0.23177466285E+03  0.10006400878E+04  0.46999998093E+01 0. -1.
       -5    1    3    3    0  502  0.75337975060E+03 -0.61640729426E+03  0.13402096427E+04  0.16564187205E+04  0.46999998093E+01 0.  1.
</event>
<event>
 5   0  0.1434943E-05  0.2422187E+04  0.7818609E-02  0.8431244E-01
        1   -1    0    0  501    0  0.00000000000E+00  0.00000000000E+00  0.11470217991E+04  0.11470217991E+04  0.50400001928E-02 0.  1.
       -1   -1    0    0    0  501  0.00000000000E+00  0.00000000000E+00 -0.12787438347E+04  0.12787438347E+04  0.50400001928E-02 0. -1.
    10030    2    1    2    0    0  0.00000000000E+00  0.00000000000E+00 -0.13172203558E+03  0.24257656338E+04  0.24221866599E+04 0.  0.
        5    1    3    3  502    0  0.11528932999E+04 -0.32024560891E+03 -0.25323303787E+03  0.12230573463E+04  0.46999998093E+01 0. -1.
       -5    1    3    3    0  502 -0.11528932999E+04  0.32024560891E+03  0.12151100229E+03  0.12027082874E+04  0.46999998093E+01 0.  1.
</event>
<event>
 5   0  0.3347728E-05  0.2440563E+04  0.7818609E-02  0.8424472E-01
       -2   -1    0    0    0  501  0.00000000000E+00  0.00000000000E+00  0.98187471360E+03  0.98187471361E+03  0.25500000920E-02 0.  1.
        2   -1    0    0  501    0  0.00000000000E+00  0.00000000000E+00 -0.15165752969E+04  0.15165752969E+04  0.25500000920E-02 0. -1.
    10030    2    1    2    0    0  0.00000000000E+00  0.00000000000E+00 -0.53470058326E+03  0.24984500105E+04  0.24405629967E+04 0.  0.
        3    1    3    3  502    0  0.10190623527E+04 -0.56980834094E+03 -0.63061511487E+03  0.13269683709E+04  0.10100000352E+00 0. -1.
       -3    1    3    3    0  502 -0.10190623527E+04  0.56980834094E+03  0.95914531615E+02  0.11714816395E+04  0.10100000352E+00 0.  1.
</event>
<event>
 5   0  0.1401596E-05  0.2525869E+04  0.7818609E-02  0.8393827E-01
       -1   -1    0    0    0  501  0.00000000000E+00  0.00000000000E+00  0.12403054119E+04  0.12403054119E+04  0.50400001928E-02 0.  1.
        1   -1    0    0  501    0  0.00000000000E+00  0.00000000000E+00 -0.12859765046E+04  0.12859765046E+04  0.50400001928E-02 0. -1.
    10030    2    1    2    0    0  0.00000000000E+00  0.00000000000E+00 -0.45671092707E+02  0.25262819165E+04  0.25258690530E+04 0.  0.
        2    1    3    3  502    0 -0.10482610053E+04 -0.40310121715E+03 -0.60056470199E+03  0.12735853673E+04  0.25500000920E-02 0. -1.
       -2    1    3    3    0  502  0.10482610053E+04  0.40310121715E+03  0.55489360928E+03  0.12526965491E+04  0.25500000920E-02 0.  1.
</event>
<event>
 5   0  0.1393026E-05  0.2424910E+04  0.7818609E-02  0.8430236E-01
        1   -1    0    0  501    0  0.00000000000E+00  0.00000000000E+00  0.17856351933E+04  0.17856351933E+04  0.50400001928E-02 0.  1.
       -1   -1    0    0    0  501  0.00000000000E+00  0.00000000000E+00 -0.82326308569E+03  0.82326308571E+03  0.50400001928E-02 0. -1.
    10030    2    1    2    0    0  0.00000000000E+00  0.00000000000E+00  0.96237210764E+03  0.26088982790E+04  0.24249103400E+04 0.  0.
        4    1    3    3  502    0  0.10511329876E+04  0.60247293356E+03  0.43081798563E+03  0.12858693335E+04  0.12699999809E+01 0. -1.
       -4    1    3    3    0  502 -0.10511329876E+04 -0.60247293356E+03  0.53155412202E+03  0.13230289455E+04  0.12699999809E+01 0.  1.
</event>
<event>
 5   0  0.1407158E-05  0.2492779E+04  0.7818609E-02  0.8405563E-01
        1   -1    0    0  501    0  0.00000000000E+00  0.00000000000E+00  0.20117094267E+04  0.20117094267E+04  0.50400001928E-02 0.  1.
       -1   -1    0    0    0  501  0.00000000000E+00  0.00000000000E+00 -0.77222227383E+03  0.77222227384E+03  0.50400001928E-02 0. -1.
    10030    2    1    2    0    0  0.00000000000E+00  0.00000000000E+00  0.12394871529E+04  0.27839317006E+04  0.24927790338E+04 0.  0.
        1    1    3    3  502    0  0.45456917105E+03 -0.10202978388E+04  0.12373704827E+04  0.16669512659E+04  0.50400001928E-02 0.  1.
       -1    1    3    3    0  502 -0.45456917105E+03  0.10202978388E+04  0.21166701750E+01  0.11169804347E+04  0.50400001928E-02 0. -1.
</event>
<event>
 5   0  0.1393026E-05  0.2416744E+04  0.7818609E-02  0.8433261E-01
       -1   -1    0    0    0  501  0.00000000000E+00  0.00000000000E+00  0.10697849921E+04  0.10697849922E+04  0.50400001928E-02 0.  1.
        1   -1    0    0  501    0  0.00000000000E+00  0.00000000000E+00 -0.13649127199E+04  0.13649127199E+04  0.50400001928E-02 0. -1.
    10030    2    1    2    0    0  0.00000000000E+00  0.00000000000E+00 -0.29512772773E+03  0.24346977120E+04  0.24167442093E+04 0.  0.
        4    1    3    3  502    0 -0.49276475064E+03 -0.10767700541E+04 -0.38999795992E+03  0.12467360869E+04  0.12699999809E+01 0. -1.
       -4    1    3    3    0  502  0.49276475064E+03  0.10767700541E+04  0.94870232194E+02  0.11879616251E+04  0.12699999809E+01 0.  1.
</event>
<event>
 5   0  0.3310037E-05  0.2390759E+04  0.7818609E-02  0.8442971E-01
        2   -1    0    0  501    0  0.00000000000E+00  0.00000000000E+00  0.15436792408E+04  0.15436792408E+04  0.25500000920E-02 0.  1.
       -2   -1    0    0    0  501  0.00000000000E+00  0.00000000000E+00 -0.92566681065E+03  0.92566681065E+03  0.25500000920E-02 0. -1.
    10030    2    1    2    0    0  0.00000000000E+00  0.00000000000E+00  0.61801243018E+03  0.24693460515E+04  0.23907594103E+04 0.  0.
        2    1    3    3  502    0  0.11810192054E+03  0.49500705743E+03  0.14262043790E+04  0.15142783698E+04  0.25500000920E-02 0.  1.
       -2    1    3    3    0  502 -0.11810192054E+03 -0.49500705743E+03 -0.80819194880E+03  0.95506768171E+03  0.25500000920E-02 0. -1.
</event>
<event>
 5   0  0.3215208E-05  0.2402390E+04  0.7818609E-02  0.8438609E-01
        2   -1    0    0  501    0  0.00000000000E+00  0.00000000000E+00  0.14804106658E+04  0.14804106658E+04  0.25500000920E-02 0. -1.
       -2   -1    0    0    0  501  0.00000000000E+00  0.00000000000E+00 -0.97464150516E+03  0.97464150516E+03  0.25500000920E-02 0.  1.
    10030    2    1    2    0    0  0.00000000000E+00  0.00000000000E+00  0.50576916067E+03  0.24550521710E+04  0.24023902094E+04 0.  0.
        1    1    3    3  502    0  0.53642788113E+03  0.13850275912E+03 -0.83627948385E+03  0.10031456829E+04  0.50400001928E-02 0.  1.
       -1    1    3    3    0  502 -0.53642788113E+03 -0.13850275912E+03  0.13420486445E+04  0.14519064881E+04  0.50400001928E-02 0. -1.
</event>
<event>
 5   0  0.3347728E-05  0.2326548E+04  0.7818609E-02  0.8467527E-01
       -2   -1    0    0    0  501  0.00000000000E+00  0.00000000000E+00  0.89118345201E+03  0.89118345202E+03  0.25500000920E-02 0.  1.
        2   -1    0    0  501    0  0.00000000000E+00  0.00000000000E+00 -0.15184373181E+04  0.15184373181E+04  0.25500000920E-02 0. -1.
    10030    2    1    2    0    0  0.00000000000E+00  0.00000000000E+00 -0.62725386611E+03  0.24096207701E+04  0.23265478382E+04 0.  0.
        3    1    3    3  502    0 -0.30018722899E+03 -0.84908773854E+03 -0.10762219710E+04  0.14033232348E+04  0.10100000352E+00 0. -1.
       -3    1    3    3    0  502  0.30018722899E+03  0.84908773854E+03  0.44896810493E+03  0.10062975353E+04  0.10100000352E+00 0.  1.
</event>
<event>
 5   0  0.3215208E-05  0.2312605E+04  0.7818609E-02  0.8472968E-01
       -2   -1    0    0    0  501  0.00000000000E+00  0.00000000000E+00  0.75789193096E+03  0.75789193097E+03  0.25500000920E-02 0. -1.
        2   -1    0    0  501    0  0.00000000000E+00  0.00000000000E+00 -0.17641512025E+04  0.17641512025E+04  0.25500000920E-02 0.  1.
    10030    2    1    2    0    0  0.00000000000E+00  0.00000000000E+00 -0.10062592715E+04  0.25220431335E+04  0.23126054237E+04 0.  0.
        1    1    3    3  502    0  0.57998067110E+03  0.24999672640E+03  0.55317559539E+03  0.83957083169E+03  0.50400001928E-02 0. -1.
       -1    1    3    3    0  502 -0.57998067110E+03 -0.24999672640E+03 -0.15594348669E+04  0.16824723018E+04  0.50400001928E-02 0.  1.
</event>
<event>
 5   0  0.3345974E-05  0.2396805E+04  0.7818609E-02  0.8440701E-01
       -2   -1    0    0    0  501  0.00000000000E+00  0.00000000000E+00  0.12124359752E+04  0.12124359752E+04  0.25500000920E-02 0.  1.
        2   -1    0    0  501    0  0.00000000000E+00  0.00000000000E+00 -0.11845311239E+04  0.11845311239E+04  0.25500000920E-02 0. -1.
    10030    2    1    2    0    0  0.00000000000E+00  0.00000000000E+00  0.27904851312E+02  0.23969670991E+04  0.23968046632E+04 0.  0.
        4    1    3    3  502    0 -0.19654495992E+03  0.79652790025E+03 -0.85965123308E+03  0.11883132889E+04  0.12699999809E+01 0. -1.
       -4    1    3    3    0  502  0.19654495992E+03 -0.79652790025E+03  0.88755608440E+03  0.12086538102E+04  0.12699999809E+01 0.  1.
</event>
<event>
 5   0  0.1506985E-05  0.2365861E+04  0.7818609E-02  0.8452396E-01
       -1   -1    0    0    0  501  0.00000000000E+00  0.00000000000E+00  0.83307750852E+03  0.83307750853E+03  0.50400001928E-02 0.  1.
        1   -1    0    0  501    0  0.00000000000E+00  0.00000000000E+00 -0.16797048524E+04  0.16797048524E+04  0.50400001928E-02 0. -1.
    10030    2    1    2    0    0  0.00000000000E+00  0.00000000000E+00 -0.84662734392E+03  0.25127823610E+04  0.23658608019E+04 0.  0.
        3    1    3    3  502    0  0.64089101051E+03  0.94165620630E+03 -0.84327763591E+02  0.11421772543E+04  0.10100000352E+00 0.  1.
       -3    1    3    3    0  502 -0.64089101051E+03 -0.94165620630E+03 -0.76229958033E+03  0.13706051067E+04  0.10100000352E+00 0. -1.
</event>
<event>
 5   0  0.1407158E-05  0.2368675E+04  0.7818609E-02  0.8451325E-01
        1   -1    0    0  501    0  0.00000000000E+00  0.00000000000E+00  0.15567565925E+04  0.15567565925E+04  0.50400001928E-02 0.  1.
       -1   -1    0    0    0  501  0.00000000000E+00  0.00000000000E+00 -0.90101169025E+03  0.90101169027E+03  0.50400001928E-02 0. -1.
    10030    2    1    2    0    0  0.00000000000E+00  0.00000000000E+00  0.65574490228E+03  0.24577682828E+04  0.23686754854E+04 0.  0.
        1    1    3    3  502    0  0.33913479136E+02  0.85672253583E+03  0.11756296764E+04  0.14550700202E+04  0.50400001928E-02 0.  1.
       -1    1    3    3    0  502 -0.33913479136E+02 -0.85672253583E+03 -0.51988477416E+03  0.10026982626E+04  0.50400001928E-02 0. -1.
</event>
<event>
 5   0  0.1147362E-05  0.2468350E+04  0.7818609E-02  0.8414349E-01
       -3   -1    0    0    0  501  0.00000000000E+00  0.00000000000E+00  0.15679773456E+04  0.15679773488E+04  0.10100000352E+00 0.  1.
        3   -1    0    0  501    0  0.00000000000E+00  0.00000000000E+00 -0.97143484963E+03  0.97143485488E+03  0.10100000352E+00 0. -1.
    10030    2    1    2    0    0  0.00000000000E+00  0.00000000000E+00  0.59654249596E+03  0.25394122037E+04  0.24683499328E+04 0.  0.
        2    1    3    3  502    0  0.69425768063E+03  0.55486734841E+03  0.11792636371E+04  0.14766632071E+04  0.25500000920E-02 0.  1.
       -2    1    3    3    0  502 -0.69425768063E+03 -0.55486734841E+03 -0.58272114115E+03  0.10627489966E+04  0.25500000920E-02 0. -1.
</event>
<event>
 5   0  0.1407158E-05  0.2412479E+04  0.7818609E-02  0.8434846E-01
       -1   -1    0    0    0  501  0.00000000000E+00  0.00000000000E+00  0.17589151003E+04  0.17589151003E+04  0.50400001928E-02 0.  1.
        1   -1    0    0  501    0  0.00000000000E+00  0.00000000000E+00 -0.82722202991E+03  0.82722202992E+03  0.50400001928E-02 0. -1.
    10030    2    1    2    0    0  0.00000000000E+00  0.00000000000E+00  0.93169307041E+03  0.25861371302E+04  0.24124786588E+04 0.  0.
        1    1    3    3  502    0 -0.19345302922E+03  0.57020928405E+03  0.15862874947E+04  0.16967235243E+04  0.50400001928E-02 0.  1.
       -1    1    3    3    0  502  0.19345302922E+03 -0.57020928405E+03 -0.65459442426E+03  0.88941360594E+03  0.50400001928E-02 0. -1.
</event>
<event>
 5   0  0.1393026E-05  0.2400217E+04  0.7818609E-02  0.8439422E-01
        1   -1    0    0  501    0  0.00000000000E+00  0.00000000000E+00  0.16785411837E+04  0.16785411837E+04  0.50400001928E-02 0. -1.
       -1   -1    0    0    0  501  0.00000000000E+00  0.00000000000E+00 -0.85804314936E+03  0.85804314937E+03  0.50400001928E-02 0.  1.
    10030    2    1    2    0    0  0.00000000000E+00  0.00000000000E+00  0.82049803431E+03  0.25365843331E+04  0.24002172932E+04 0.  0.
        4    1    3    3  502    0  0.33844704823E+03  0.72624932251E+03  0.13544727653E+04  0.15737161649E+04  0.12699999809E+01 0. -1.
       -4    1    3    3    0  502 -0.33844704823E+03 -0.72624932251E+03 -0.53397473101E+03  0.96286816811E+03  0.12699999809E+01 0.  1.
</event>
<event>
 5   0  0.1506985E-05  0.2400298E+04  0.7818609E-02  0.8439392E-01
        1   -1    0    0  501    0  0.00000000000E+00  0.00000000000E+00  0.95996671234E+03  0.95996671236E+03  0.50400001928E-02 0. -1.
       -1   -1    0    0    0  501  0.00000000000E+00  0.00000000000E+00 -0.15004248476E+04  0.15004248476E+04  0.50400001928E-02 0.  1.
    10030    2    1    2    0    0  0.00000000000E+00  0.00000000000E+00 -0.54045813521E+03  0.24603915599E+04  0.24002982382E+04 0.  0.
        3    1    3    3  502    0 -0.63613242968E+03  0.33543534575E+03  0.71464659653E+03  0.10138545790E+04  0.10100000352E+00 0. -1.
       -3    1    3    3    0  502  0.63613242968E+03 -0.33543534575E+03 -0.12551047317E+04  0.14465369809E+04  0.10100000352E+00 0.  1.
</event>
<event>
 5   0  0.3345974E-05  0.2390168E+04  0.7818609E-02  0.8443194E-01
       -2   -1    0    0    0  501  0.00000000000E+00  0.00000000000E+00  0.59722289023E+03  0.59722289023E+03  0.25500000920E-02 0.  1.
        2   -1    0    0  501    0  0.00000000000E+00  0.00000000000E+00 -0.23914450115E+04  0.23914450115E+04  0.25500000920E-02 0. -1.
    10030    2    1    2    0    0  0.00000000000E+00  0.00000000000E+00 -0.17942221212E+04  0.29886679017E+04  0.23901679452E+04 0.  0.
        4    1    3    3  502    0 -0.53342358077E+03  0.56459848492E+03  0.23856123633E+03  0.81254245555E+03  0.12699999809E+01 0.  1.
       -4    1    3    3    0  502  0.53342358077E+03 -0.56459848492E+03 -0.20327833576E+04  0.21761254462E+04  0.12699999809E+01 0. -1.
</event>
<event>
 5   0  0.1401596E-05  0.1926339E+04  0.7818609E-02  0.8641856E-01
        1   -1    0    0  501    0  0.00000000000E+00  0.00000000000E+00  0.86016472124E+03  0.86016472125E+03  0.50400001928E-02 0. -1.
       -1   -1    0    0    0  501  0.00000000000E+00  0.00000000000E+00 -0.10785091814E+04  0.10785091814E+04  0.50400001928E-02 0.  1.
    10030    2    1    2    0    0  0.00000000000E+00  0.00000000000E+00 -0.21834446014E+03  0.19386739026E+04  0.19263390661E+04 0.  0.
        2    1    3    3  502    0  0.65502733979E+03 -0.16055311897E+03 -0.80122170012E+03  0.10472794912E+04  0.25500000920E-02 0.  1.
       -2    1    3    3    0  502 -0.65502733979E+03  0.16055311897E+03  0.58287723999E+03  0.89139441146E+03  0.25500000920E-02 0. -1.
</event>
<event>
 5   0  0.1506985E-05  0.2379383E+04  0.7818609E-02  0.8447263E-01
        1   -1    0    0  501    0  0.00000000000E+00  0.00000000000E+00  0.12654354190E+04  0.12654354190E+04  0.50400001928E-02 0. -1.
       -1   -1    0    0    0  501  0.00000000000E+00  0.00000000000E+00 -0.11184808603E+04  0.11184808603E+04  0.50400001928E-02 0.  1.
    10030    2    1    2    0    0  0.00000000000E+00  0.00000000000E+00  0.14695455870E+03  0.23839162793E+04  0.23793825216E+04 0.  0.
        3    1    3    3  502    0 -0.38163641497E+03  0.79263782848E+03 -0.72895090700E+03  0.11424931139E+04  0.10100000352E+00 0.  1.
       -3    1    3    3    0  502  0.38163641497E+03 -0.79263782848E+03  0.87590546570E+03  0.12414231653E+04  0.10100000352E+00 0. -1.
</event>
<event>
 5   0  0.3320780E-05  0.2395368E+04  0.7818609E-02  0.8441240E-01
        2   -1    0    0  501    0  0.00000000000E+00  0.00000000000E+00  0.22155482136E+04  0.22155482136E+04  0.25500000920E-02 0.  1.
       -2   -1    0    0    0  501  0.00000000000E+00  0.00000000000E+00 -0.64744549067E+03  0.64744549068E+03  0.25500000920E-02 0. -1.
    10030    2    1    2    0    0  0.00000000000E+00  0.00000000000E+00  0.15681027229E+04  0.28629937043E+04  0.23953677799E+04 0.  0.
        5    1    3    3  502    0  0.29463501075E+03  0.10618339785E+04  0.22328582101E+03  0.11243575212E+04  0.46999998093E+01 0. -1.
       -5    1    3    3    0  502 -0.29463501075E+03 -0.10618339785E+04  0.13448169019E+04  0.17386361831E+04  0.46999998093E+01 0.  1.
</event>
<event>
 5   0  0.1401596E-05  0.2383136E+04  0.7818609E-02  0.8445844E-01
        1   -1    0    0  501    0  0.00000000000E+00  0.00000000000E+00  0.11837285855E+04  0.11837285855E+04  0.50400001928E-02 0.  1.
       -1   -1    0    0    0  501  0.00000000000E+00  0.00000000000E+00 -0.11994597589E+04  0.11994597589E+04  0.50400001928E-02 0. -1.
    10030    2    1    2    0    0  0.00000000000E+00  0.00000000000E+00 -0.15731173397E+02  0.23831883444E+04  0.23831364240E+04 0.  0.
        2    1    3    3  502    0 -0.46916359811E+03  0.67576609289E+03  0.85416276992E+03  0.11859040145E+04  0.25500000920E-02 0.  1.
       -2    1    3    3    0  502  0.46916359811E+03 -0.67576609289E+03 -0.86989394332E+03  0.11972843299E+04  0.25500000920E-02 0. -1.
</event>
<event>
 5   0  0.1434943E-05  0.2382010E+04  0.7818609E-02  0.8446270E-01
        1   -1    0    0  501    0  0.00000000000E+00  0.00000000000E+00  0.14533312774E+04  0.14533312774E+04  0.50400001928E-02 0.  1.
       -1   -1    0    0    0  501  0.00000000000E+00  0.00000000000E+00 -0.97602877840E+03  0.97602877841E+03  0.50400001928E-02 0. -1.
    10030    2    1    2    0    0  0.00000000000E+00  0.00000000000E+00  0.47730249902E+03  0.24293600558E+04  0.23820102026E+04 0.  0.
        5    1    3    3  502    0 -0.56697342641E+03 -0.39577310712E+03 -0.75035492081E+03  0.10203674905E+04  0.46999998093E+01 0. -1.
       -5    1    3    3    0  502  0.56697342641E+03  0.39577310712E+03  0.12276574198E+04  0.14089925653E+04  0.46999998093E+01 0.  1.
</event>
<event>
 5   0  0.1434943E-05  0.2406927E+04  0.7818609E-02  0.8436915E-01
       -1   -1    0    0    0  501  0.00000000000E+00  0.00000000000E+00  0.10486468306E+04  0.10486468306E+04  0.50400001928E-02 0. -1.
        1   -1    0    0  501    0  0.00000000000E+00  0.00000000000E+00 -0.13811370068E+04  0.13811370068E+04  0.50400001928E-02 0.  1.
    10030    2    1    2    0    0  0.00000000000E+00  0.00000000000E+00 -0.33249017623E+03  0.24297838374E+04  0.24069274561E+04 0.  0.
        5    1    3    3  502    0  0.47417427354E+02  0.97862847533E+01 -0.13801441557E+04  0.13810011456E+04  0.46999998093E+01 0.  1.
       -5    1    3    3    0  502 -0.47417427354E+02 -0.97862847533E+01  0.10476539795E+04  0.10487826917E+04  0.46999998093E+01 0. -1.
</event>
<event>
 5   0  0.3310037E-05  0.2428748E+04  0.7818609E-02  0.8428818E-01
        2   -1    0    0  501    0  0.00000000000E+00  0.00000000000E+00  0.20975665444E+04  0.20975665444E+04  0.25500000920E-02 0.  1.
       -2   -1    0    0    0  501  0.00000000000E+00  0.00000000000E+00 -0.70305491348E+03  0.70305491348E+03  0.25500000920E-02 0. -1.
    10030    2    1    2    0    0  0.00000000000E+00  0.00000000000E+00  0.13945116309E+04  0.28006214579E+04  0.24287482088E+04 0.  0.
        2    1    3    3  502    0 -0.10848082847E+04  0.52772223237E+03  0.85788532869E+03  0.14802928786E+04  0.25500000920E-02 0.  1.
       -2    1    3    3    0  502  0.10848082847E+04 -0.52772223237E+03  0.53662630224E+03  0.13203285793E+04  0.25500000920E-02 0. -1.
</event>
<event>
 5   0  0.3310037E-05  0.2423474E+04  0.7818609E-02  0.8430767E-01
       -2   -1    0    0    0  501  0.00000000000E+00  0.00000000000E+00  0.10161646728E+04  0.10161646728E+04  0.25500000920E-02 0. -1.
        2   -1    0    0  501    0  0.00000000000E+00  0.00000000000E+00 -0.14449493162E+04  0.14449493162E+04  0.25500000920E-02 0.  1.
    10030    2    1    2    0    0  0.00000000000E+00  0.00000000000E+00 -0.42878464342E+03  0.24611139891E+04  0.24234739109E+04 0.  0.
        2    1    3    3  502    0 -0.10933365655E+04 -0.37698148620E+03 -0.58168151224E+03  0.12945475148E+04  0.25500000920E-02 0. -1.
       -2    1    3    3    0  502  0.10933365655E+04  0.37698148620E+03  0.15289686882E+03  0.11665664743E+04  0.25500000920E-02 0.  1.
</event>
<event>
 5   0  0.3347728E-05  0.2289793E+04  0.7818609E-02  0.8481956E-01
        2   -1    0    0  501    0  0.00000000000E+00  0.00000000000E+00  0.15871334948E+04  0.15871334948E+04  0.25500000920E-02 0.  1.
       -2   -1    0    0    0  501  0.00000000000E+00  0.00000000000E+00 -0.82588417276E+03  0.82588417277E+03  0.25500000920E-02 0. -1.
    10030    2    1    2    0    0  0.00000000000E+00  0.00000000000E+00  0.76124932208E+03  0.24130176676E+04  0.22897933823E+04 0.  0.
        3    1    3    3  502    0 -0.12403354014E+03  0.93854424689E+03  0.10591198917E+04  0.14205578403E+04  0.10100000352E+00 0.  1.
       -3    1    3    3    0  502  0.12403354014E+03 -0.93854424689E+03 -0.29787056959E+03  0.99245982733E+03  0.10100000352E+00 0. -1.
</event>
<event>
 5   0  0.3345974E-05  0.2395624E+04  0.7818609E-02  0.8441144E-01
        2   -1    0    0  501    0  0.00000000000E+00  0.00000000000E+00  0.73511780825E+03  0.73511780826E+03  0.25500000920E-02 0. -1.
       -2   -1    0    0    0  501  0.00000000000E+00  0.00000000000E+00 -0.19517331413E+04  0.19517331413E+04  0.25500000920E-02 0.  1.
    10030    2    1    2    0    0  0.00000000000E+00  0.00000000000E+00 -0.12166153331E+04  0.26868509496E+04  0.23956241685E+04 0.  0.
        4    1    3    3  502    0  0.73947559516E+03  0.18080755023E+03 -0.16455208807E+04  0.18130791786E+04  0.12699999809E+01 0.  1.
       -4    1    3    3    0  502 -0.73947559516E+03 -0.18080755023E+03  0.42890554765E+03  0.87377177098E+03  0.12699999809E+01 0. -1.
</event>
<event>
 5   0  0.1407158E-05  0.2393372E+04  0.7818609E-02  0.8441989E-01
       -1   -1    0    0    0  501  0.00000000000E+00  0.00000000000E+00  0.12928897737E+04  0.12928897737E+04  0.50400001928E-02 0.  1.
        1   -1    0    0  501    0  0.00000000000E+00  0.00000000000E+00 -0.11076409963E+04  0.11076409963E+04  0.50400001928E-02 0. -1.
    10030    2    1    2    0    0  0.00000000000E+00  0.00000000000E+00  0.18524877740E+03  0.24005307701E+04  0.23933722796E+04 0.  0.
        1    1    3    3  502    0  0.31259849251E+03  0.85861220749E+02 -0.10627618874E+04  0.11111043138E+04  0.50400001928E-02 0. -1.
       -1    1    3    3    0  502 -0.31259849251E+03 -0.85861220749E+02  0.12480106648E+04  0.12894264563E+04  0.50400001928E-02 0.  1.
</event>
<event>
 5   0  0.3345974E-05  0.2417321E+04  0.7818609E-02  0.8433047E-01
       -2   -1    0    0    0  501  0.00000000000E+00  0.00000000000E+00  0.11523459200E+04  0.11523459200E+04  0.25500000920E-02 0.  1.
        2   -1    0    0  501    0  0.00000000000E+00  0.00000000000E+00 -0.12677267617E+04  0.12677267617E+04  0.25500000920E-02 0. -1.
    10030    2    1    2    0    0  0.00000000000E+00  0.00000000000E+00 -0.11538084170E+03  0.24200726817E+04  0.24173206337E+04 0.  0.
        4    1    3    3  502    0  0.54921583876E+03 -0.10194060203E+04 -0.40454044167E+03  0.12265729712E+04  0.12699999809E+01 0. -1.
       -4    1    3    3    0  502 -0.54921583876E+03  0.10194060203E+04  0.28915959997E+03  0.11934997105E+04  0.12699999809E+01 0.  1.
</event>
<event>
 5   0  0.1393026E-05  0.2383838E+04  0.7818609E-02  0.8445579E-01
        1   -1    0    0  501    0  0.00000000000E+00  0.00000000000E+00  0.77443786841E+03  0.77443786842E+03  0.50400001928E-02 0.  1.
       -1   -1    0    0    0  501  0.00000000000E+00  0.00000000000E+00 -0.18344536937E+04  0.18344536937E+04  0.50400001928E-02 0. -1.
    10030    2    1    2    0    0  0.00000000000E+00  0.00000000000E+00 -0.10600158253E+04  0.26088915621E+04  0.23838375853E+04 0.  0.
        4    1    3    3  502    0  0.98958521667E+03 -0.63207113573E+03 -0.75396345998E+03  0.13954409101E+04  0.12699999809E+01 0. -1.
       -4    1    3    3    0  502 -0.98958521667E+03  0.63207113573E+03 -0.30605236530E+03  0.12134506520E+04  0.12699999809E+01 0.  1.
</event>
<event>
 5   0  0.3215208E-05  0.2412681E+04  0.7818609E-02  0.8434771E-01
       -2   -1    0    0    0  501  0.00000000000E+00  0.00000000000E+00  0.74453720402E+03  0.74453720402E+03  0.25500000920E-02 0.  1.
        2   -1    0    0  501    0  0.00000000000E+00  0.00000000000E+00 -0.19545804251E+04  0.19545804251E+04  0.25500000920E-02 0. -1.
    10030    2    1    2    0    0  0.00000000000E+00  0.00000000000E+00 -0.12100432210E+04  0.26991176291E+04  0.24126813670E+04 0.  0.
        1    1    3    3  502    0 -0.85954467333E+02 -0.94213477823E+02 -0.19470177203E+04  0.19511899839E+04  0.50400001928E-02 0. -1.
       -1    1    3    3    0  502  0.85954467333E+02  0.94213477823E+02  0.73697449928E+03  0.74792764522E+03  0.50400001928E-02 0.  1.
</event>
<event>
 5   0  0.1506985E-05  0.2351402E+04  0.7818609E-02  0.8457925E-01
       -1   -1    0    0    0  501  0.00000000000E+00  0.00000000000E+00  0.74864989757E+03  0.74864989758E+03  0.50400001928E-02 0. -1.
        1   -1    0    0  501    0  0.00000000000E+00  0.00000000000E+00 -0.18463549023E+04  0.18463549023E+04  0.50400001928E-02 0.  1.
    10030    2    1    2    0    0  0.00000000000E+00  0.00000000000E+00 -0.10977050047E+04  0.25950047999E+04  0.23514024823E+04 0.  0.
        3    1    3    3  502    0  0.72782297317E+03  0.45655001421E+03 -0.14345612728E+04  0.16721633447E+04  0.10100000352E+00 0.  1.
       -3    1    3    3    0  502 -0.72782297317E+03 -0.45655001421E+03  0.33685626811E+03  0.92284145514E+03  0.10100000352E+00 0. -1.
</event>
<event>
 5   0  0.3347728E-05  0.2353047E+04  0.7818609E-02  0.8457294E-01
       -2   -1    0    0    0  501  0.00000000000E+00  0.00000000000E+00  0.73519588608E+03  0.73519588608E+03  0.25500000920E-02 0.  1.
        2   -1    0    0  501    0  0.00000000000E+00  0.00000000000E+00 -0.18827731288E+04  0.18827731288E+04  0.25500000920E-02 0. -1.
    10030    2    1    2    0    0  0.00000000000E+00  0.00000000000E+00 -0.11475772428E+04  0.26179690149E+04  0.23530465858E+04 0.  0.
        3    1    3    3  502    0  0.13453047262E+03  0.98237015463E+03  0.13080269562E+03  0.10001294537E+04  0.10100000352E+00 0.  1.
       -3    1    3    3    0  502 -0.13453047262E+03 -0.98237015463E+03 -0.12783799384E+04  0.16178395612E+04  0.10100000352E+00 0. -1.
</event>
<event>
 5   0  0.1434943E-05  0.2428140E+04  0.7818609E-02  0.8429043E-01
       -1   -1    0    0    0  501  0.00000000000E+00  0.00000000000E+00  0.13271914227E+04  0.13271914227E+04  0.50400001928E-02 0.  1.
        1   -1    0    0  501    0  0.00000000000E+00  0.00000000000E+00 -0.11105907677E+04  0.11105907677E+04  0.50400001928E-02 0. -1.
    10030    2    1    2    0    0  0.00000000000E+00  0.00000000000E+00  0.21660065495E+03  0.24377821904E+04  0.24281404746E+04 0.  0.
        5    1    3    3  502    0  0.93553507912E+03 -0.51705968855E+02  0.88340550516E+03  0.12877603690E+04  0.46999998093E+01 0.  1.
       -5    1    3    3    0  502 -0.93553507912E+03  0.51705968855E+02 -0.66680485021E+03  0.11500218214E+04  0.46999998093E+01 0. -1.
</event>
<event>
 5   0  0.3215208E-05  0.2407631E+04  0.7818609E-02  0.8436652E-01
       -2   -1    0    0    0  501  0.00000000000E+00  0.00000000000E+00  0.79639849124E+03  0.79639849124E+03  0.25500000920E-02 0. -1.
        2   -1    0    0  501    0  0.00000000000E+00  0.00000000000E+00 -0.18196569587E+04  0.18196569587E+04  0.25500000920E-02 0.  1.
    10030    2    1    2    0    0  0.00000000000E+00  0.00000000000E+00 -0.10232584674E+04  0.26160554499E+04  0.24076312479E+04 0.  0.
        1    1    3    3  502    0 -0.52500803395E+03 -0.65582857046E+03 -0.14484926637E+04  0.16744776936E+04  0.50400001928E-02 0.  1.
       -1    1    3    3    0  502  0.52500803395E+03  0.65582857046E+03  0.42523419624E+03  0.94157775634E+03  0.50400001928E-02 0. -1.
</event>
<event>
 5   0  0.3347728E-05  0.2388357E+04  0.7818609E-02  0.8443876E-01
       -2   -1    0    0    0  501  0.00000000000E+00  0.00000000000E+00  0.89702929504E+03  0.89702929504E+03  0.25500000920E-02 0. -1.
        2   -1    0    0  501    0  0.00000000000E+00  0.00000000000E+00 -0.15897606828E+04  0.15897606828E+04  0.25500000920E-02 0.  1.
    10030    2    1    2    0    0  0.00000000000E+00  0.00000000000E+00 -0.69273138776E+03  0.24867899778E+04  0.23883566774E+04 0.  0.
        3    1    3    3  502    0  0.61709846119E+03  0.76806476752E+03 -0.10489558376E+04  0.14391116556E+04  0.10100000352E+00 0.  1.
       -3    1    3    3    0  502 -0.61709846119E+03 -0.76806476752E+03  0.35622444988E+03  0.10476783222E+04  0.10100000352E+00 0. -1.
</event>
<event>
 5   0  0.1147362E-05  0.2436089E+04  0.7818609E-02  0.8426115E-01
       -3   -1    0    0    0  501  0.00000000000E+00  0.00000000000E+00  0.67384358012E+03  0.67384358769E+03  0.10100000352E+00 0. -1.
        3   -1    0    0  501    0  0.00000000000E+00  0.00000000000E+00 -0.22017455844E+04  0.22017455867E+04  0.10100000352E+00 0.  1.
    10030    2    1    2    0    0  0.00000000000E+00  0.00000000000E+00 -0.15279020042E+04  0.28755891744E+04  0.24360887843E+04 0.  0.
        2    1    3    3  502    0  0.39381220324E+02  0.11901349761E+04 -0.10664222968E+04  0.15985082599E+04  0.25500000920E-02 0.  1.
       -2    1    3    3    0  502 -0.39381220324E+02 -0.11901349761E+04 -0.46147970743E+03  0.12770809145E+04  0.25500000920E-02 0. -1.
</event>
<event>
 5   0  0.1393026E-05  0.2381785E+04  0.7818609E-02  0.8446355E-01
        1   -1    0    0  501    0  0.00000000000E+00  0.00000000000E+00  0.26811151489E+04  0.26811151489E+04  0.50400001928E-02 0.  1.
       -1   -1    0    0    0  501  0.00000000000E+00  0.00000000000E+00 -0.52896828822E+03  0.52896828824E+03  0.50400001928E-02 0. -1.
    10030    2    1    2    0    0  0.00000000000E+00  0.00000000000E+00  0.21521468607E+04  0.32100834372E+04  0.23817849533E+04 0.  0.
        4    1    3    3  502    0  0.98023732964E+03 -0.65752707163E+03  0.12892426486E+04  0.17479574630E+04  0.12699999809E+01 0.  1.
       -4    1    3    3    0  502 -0.98023732964E+03  0.65752707163E+03  0.86290421206E+03  0.14621259742E+04  0.12699999809E+01 0. -1.
</event>
<event>
 5   0  0.1401596E-05  0.2418257E+04  0.7818609E-02  0.8432700E-01
        1   -1    0    0  501    0  0.00000000000E+00  0.00000000000E+00  0.17950411853E+04  0.17950411853E+04  0.50400001928E-02 0.  1.
       -1   -1    0    0    0  501  0.00000000000E+00  0.00000000000E+00 -0.81446160050E+03  0.81446160051E+03  0.50400001928E-02 0. -1.
    10030    2    1    2    0    0  0.00000000000E+00  0.00000000000E+00  0.98057958479E+03  0.26095027858E+04  0.24182573203E+04 0.  0.
        2    1    3    3  502    0  0.50336086565E+03 -0.50814799843E+03 -0.56169567322E+03  0.90944410422E+03  0.25500000920E-02 0. -1.
       -2    1    3    3    0  502 -0.50336086565E+03  0.50814799843E+03  0.15422752580E+04  0.17000586816E+04  0.25500000920E-02 0.  1.
</event>
<event>
 5   0  0.3345974E-05  0.2344003E+04  0.7818609E-02  0.8460771E-01
        2   -1    0    0  501    0  0.00000000000E+00  0.00000000000E+00  0.11818960651E+04  0.11818960651E+04  0.25500000920E-02 0. -1.
       -2   -1    0    0    0  501  0.00000000000E+00  0.00000000000E+00 -0.11621893388E+04  0.11621893388E+04  0.25500000920E-02 0.  1.
    10030    2    1    2    0    0  0.00000000000E+00  0.00000000000E+00  0.19706726331E+02  0.23440854039E+04  0.23440025652E+04 0.  0.
        4    1    3    3  502    0  0.79141057695E+03  0.69103900327E+03  0.52921725549E+03  0.11764089942E+04  0.12699999809E+01 0. -1.
       -4    1    3    3    0  502 -0.79141057695E+03 -0.69103900327E+03 -0.50951052916E+03  0.11676764096E+04  0.12699999809E+01 0.  1.
</event>
<event>
 5   0  0.3215208E-05  0.2408187E+04  0.7818609E-02  0.8436445E-01
       -2   -1    0    0    0  501  0.00000000000E+00  0.00000000000E+00  0.73325975897E+03  0.73325975898E+03  0.25500000920E-02 0.  1.
        2   -1    0    0  501    0  0.00000000000E+00  0.00000000000E+00 -0.19772552083E+04  0.19772552083E+04  0.25500000920E-02 0. -1.
    10030    2    1    2    0    0  0.00000000000E+00  0.00000000000E+00 -0.12439954493E+04  0.27105149672E+04  0.24081874324E+04 0.  0.
        1    1    3    3  502    0  0.90388519711E+03  0.45324959169E+03  0.11383277482E+03  0.10175468257E+04  0.50400001928E-02 0.  1.
       -1    1    3    3    0  502 -0.90388519711E+03 -0.45324959169E+03 -0.13578282241E+04  0.16929681415E+04  0.50400001928E-02 0. -1.
</event>
<event>
 5   0  0.1407158E-05  0.2374429E+04  0.7818609E-02  0.8449139E-01
        1   -1    0    0  501    0  0.00000000000E+00  0.00000000000E+00  0.81992968006E+03  0.81992968008E+03  0.50400001928E-02 0.  1.
       -1   -1    0    0    0  501  0.00000000000E+00  0.00000000000E+00 -0.17190240676E+04  0.17190240677E+04  0.50400001928E-02 0. -1.
    10030    2    1    2    0    0  0.00000000000E+00  0.00000000000E+00 -0.89909438759E+03  0.25389537477E+04  0.23744294926E+04 0.  0.
        1    1    3    3  502    0  0.59106443997E+03 -0.23999910657E+03  0.62109040580E+03  0.89034265065E+03  0.50400001928E-02 0.  1.
       -1    1    3    3    0  502 -0.59106443997E+03  0.23999910657E+03 -0.15201847934E+04  0.16486110971E+04  0.50400001928E-02 0. -1.
</event>
<event>
 5   0  0.3320780E-05  0.2421493E+04  0.7818609E-02  0.8431501E-01
        2   -1    0    0  501    0  0.00000000000E+00  0.00000000000E+00  0.14898255838E+04  0.14898255838E+04  0.25500000920E-02 0. -1.
       -2   -1    0    0    0  501  0.00000000000E+00  0.00000000000E+00 -0.98394537438E+03  0.98394537438E+03  0.25500000920E-02 0.  1.
    10030    2    1    2    0    0  0.00000000000E+00  0.00000000000E+00  0.50588020943E+03  0.24737709582E+04  0.24214929212E+04 0.  0.
        5    1    3    3  502    0 -0.89824899872E+03 -0.69493659098E+03  0.68163862173E+03  0.13245532944E+04  0.46999998093E+01 0. -1.
       -5    1    3    3    0  502  0.89824899872E+03  0.69493659098E+03 -0.17575841230E+03  0.11492176638E+04  0.46999998093E+01 0.  1.
</event>
<event>
 5   0  0.1393026E-05  0.2406227E+04  0.7818609E-02  0.8437176E-01
        1   -1    0    0  501    0  0.00000000000E+00  0.00000000000E+00  0.15941867928E+04  0.15941867928E+04  0.50400001928E-02 0.  1.
       -1   -1    0    0    0  501  0.00000000000E+00  0.00000000000E+00 -0.90797517343E+03  0.90797517344E+03  0.50400001928E-02 0. -1.
    10030    2    1    2    0    0  0.00000000000E+00  0.00000000000E+00  0.68621161937E+03  0.25021619662E+04  0.24062269466E+04 0.  0.
        4    1    3    3  502    0 -0.77019543321E+02 -0.47704053247E+03  0.14888422607E+04  0.15652963201E+04  0.12699999809E+01 0.  1.
       -4    1    3    3    0  502  0.77019543321E+02  0.47704053247E+03 -0.80263064130E+03  0.93686564614E+03  0.12699999809E+01 0. -1.
</event>
<event>
 5   0  0.1506985E-05  0.2425534E+04  0.7818609E-02  0.8430005E-01
       -1   -1    0    0    0  501  0.00000000000E+00  0.00000000000E+00  0.58949518686E+03  0.58949518689E+03  0.50400001928E-02 0. -1.
        1   -1    0    0  501    0  0.00000000000E+00  0.00000000000E+00 -0.24950235599E+04  0.24950235599E+04  0.50400001928E-02 0.  1.
    10030    2    1    2    0    0  0.00000000000E+00  0.00000000000E+00 -0.19055283730E+04  0.30845187467E+04  0.24255344810E+04 0.  0.
        3    1    3    3  502    0  0.66160539631E+03 -0.96066193891E+03 -0.53058867335E+03  0.12814512912E+04  0.10100000352E+00 0. -1.
       -3    1    3    3    0  502 -0.66160539631E+03  0.96066193891E+03 -0.13749396996E+04  0.18030674555E+04  0.10100000352E+00 0.  1.
</event>
<event>
 5   0  0.1401596E-05  0.2382833E+04  0.7818609E-02  0.8445959E-01
        1   -1    0    0  501    0  0.00000000000E+00  0.00000000000E+00  0.23165020343E+04  0.23165020343E+04  0.50400001928E-02 0. -1.
       -1   -1    0    0    0  501  0.00000000000E+00  0.00000000000E+00 -0.61276596621E+03  0.61276596624E+03  0.50400001928E-02 0.  1.
    10030    2    1    2    0    0  0.00000000000E+00  0.00000000000E+00  0.17037360681E+04  0.29292680006E+04  0.23828332777E+04 0.  0.
        2    1    3    3  502    0 -0.78619925372E+02  0.11662352057E+03  0.23062604745E+04  0.23105452851E+04  0.25500000920E-02 0. -1.
       -2    1    3    3    0  502  0.78619925372E+02 -0.11662352057E+03 -0.60252440644E+03  0.61872271542E+03  0.25500000920E-02 0.  1.
</event>
<event>
 5   0  0.3345974E-05  0.2423116E+04  0.7818609E-02  0.8430900E-01
       -2   -1    0    0    0  501  0.00000000000E+00  0.00000000000E+00  0.93204431134E+03  0.93204431135E+03  0.25500000920E-02 0. -1.
        2   -1    0    0  501    0  0.00000000000E+00  0.00000000000E+00 -0.15748959125E+04  0.15748959125E+04  0.25500000920E-02 0.  1.
    10030    2    1    2    0    0  0.00000000000E+00  0.00000000000E+00 -0.64285160113E+03  0.25069402238E+04  0.24231159908E+04 0.  0.
        4    1    3    3  502    0 -0.60202222868E+03  0.96238210864E+03  0.11661319555E+03  0.11411443104E+04  0.12699999809E+01 0. -1.
       -4    1    3    3    0  502  0.60202222868E+03 -0.96238210864E+03 -0.75946479668E+03  0.13657959134E+04  0.12699999809E+01 0.  1.
</event>
<event>
 5   0  0.1407158E-05  0.2381854E+04  0.7818609E-02  0.8446328E-01
        1   -1    0    0  501    0  0.00000000000E+00  0.00000000000E+00  0.58846374295E+03  0.58846374297E+03  0.50400001928E-02 0. -1.
       -1   -1    0    0    0  501  0.00000000000E+00  0.00000000000E+00 -0.24101864315E+04  0.24101864315E+04  0.50400001928E-02 0.  1.
    10030    2    1    2    0    0  0.00000000000E+00  0.00000000000E+00 -0.18217226885E+04  0.29986501744E+04  0.23818541758E+04 0.  0.
        1    1    3    3  502    0 -0.10914973746E+04  0.46857161365E+01 -0.31114494456E+03  0.11349888331E+04  0.50400001928E-02 0. -1.
       -1    1    3    3    0  502  0.10914973746E+04 -0.46857161365E+01 -0.15105777440E+04  0.18636613414E+04  0.50400001928E-02 0.  1.
</event>
<event>
 5   0  0.1506985E-05  0.2461875E+04  0.7818609E-02  0.8416695E-01
        1   -1    0    0  501    0  0.00000000000E+00  0.00000000000E+00  0.10908529678E+04  0.10908529678E+04  0.50400001928E-02 0. -1.
       -1   -1    0    0    0  501  0.00000000000E+00  0.00000000000E+00 -0.13890110218E+04  0.13890110218E+04  0.50400001928E-02 0.  1.
    10030    2    1    2    0    0  0.00000000000E+00  0.00000000000E+00 -0.29815805404E+03  0.24798639896E+04  0.24618747291E+04 0.  0.
        3    1    3    3  502    0 -0.19518097678E+03 -0.32461260304E+03 -0.13288493564E+04  0.13817776876E+04  0.10100000352E+00 0.  1.
       -3    1    3    3    0  502  0.19518097678E+03  0.32461260304E+03  0.10306913023E+04  0.10980863020E+04  0.10100000352E+00 0. -1.
</event>
<event>
 5   0  0.3310037E-05  0.2429444E+04  0.7818609E-02  0.8428562E-01
       -2   -1    0    0    0  501  0.00000000000E+00  0.00000000000E+00  0.96058870935E+03  0.96058870935E+03  0.25500000920E-02 0.  1.
        2   -1    0    0  501    0  0.00000000000E+00  0.00000000000E+00 -0.15360883437E+04  0.15360883437E+04  0.25500000920E-02 0. -1.
    10030    2    1    2    0    0  0.00000000000E+00  0.00000000000E+00 -0.57549963437E+03  0.24966770531E+04  0.24294436561E+04 0.  0.
        2    1    3    3  502    0 -0.67523845519E+03  0.20470301215E+02 -0.13252343919E+04  0.14874851926E+04  0.25500000920E-02 0. -1.
       -2    1    3    3    0  502  0.67523845519E+03 -0.20470301215E+02  0.74973475755E+03  0.10091918605E+04  0.25500000920E-02 0.  1.
</event>
<event>
 5   0  0.3345974E-05  0.2374793E+04  0.7818609E-02  0.8449001E-01
       -2   -1    0    0    0  501  0.00000000000E+00  0.00000000000E+00  0.64582581279E+03  0.64582581279E+03  0.25500000920E-02 0.  1.
        2   -1    0    0  501    0  0.00000000000E+00  0.00000000000E+00 -0.21831126462E+04  0.21831126462E+04  0.25500000920E-02 0. -1.
    10030    2    1    2    0    0  0.00000000000E+00  0.00000000000E+00 -0.15372868334E+04  0.28289384590E+04  0.23747930429E+04 0.  0.
        4    1    3    3  502    0  0.79491656048E+03 -0.16661220934E+03 -0.18004605541E+04  0.19751738623E+04  0.12699999809E+01 0.  1.
       -4    1    3    3    0  502 -0.79491656048E+03  0.16661220934E+03  0.26317372071E+03  0.85376459671E+03  0.12699999809E+01 0. -1.
</event>
<event>
 5   0  0.1434943E-05  0.2405722E+04  0.7818609E-02  0.8437364E-01
        1   -1    0    0  501    0  0.00000000000E+00  0.00000000000E+00  0.21508888811E+04  0.21508888811E+04  0.50400001928E-02 0. -1.
       -1   -1    0    0    0  501  0.00000000000E+00  0.00000000000E+00 -0.67268696197E+03  0.67268696199E+03  0.50400001928E-02 0.  1.
    10030    2    1    2    0    0  0.00000000000E+00  0.00000000000E+00  0.14782019191E+04  0.28235758431E+04  0.24057222674E+04 0.  0.
        5    1    3    3  502    0 -0.98406753841E+02  0.11939690537E+04  0.86554859729E+03  0.14779859453E+04  0.46999998093E+01 0. -1.
       -5    1    3    3    0  502  0.98406753841E+02 -0.11939690537E+04  0.61265332186E+03  0.13455898978E+04  0.46999998093E+01 0.  1.
</event>
<event>
 5   0  0.3345974E-05  0.2419237E+04  0.7818609E-02  0.8432337E-01
        2   -1    0    0  501    0  0.00000000000E+00  0.00000000000E+00  0.14988891124E+04  0.14988891124E+04  0.25500000920E-02 0.  1.
       -2   -1    0    0    0  501  0.00000000000E+00  0.00000000000E+00 -0.97617398862E+03  0.97617398863E+03  0.25500000920E-02 0. -1.
    10030    2    1    2    0    0  0.00000000000E+00  0.00000000000E+00  0.52271512382E+03  0.24750631011E+04  0.24192367089E+04 0.  0.
        4    1    3    3  502    0 -0.18827257298E+03 -0.11012970294E+03  0.14786030233E+04  0.14946048396E+04  0.12699999809E+01 0.  1.
       -4    1    3    3    0  502  0.18827257298E+03  0.11012970294E+03 -0.95588789947E+03  0.98045826146E+03  0.12699999809E+01 0. -1.
</event>
<event>
 5   0  0.1401596E-05  0.2421709E+04  0.7818609E-02  0.8431421E-01
       -1   -1    0    0    0  501  0.00000000000E+00  0.00000000000E+00  0.13071005373E+04  0.13071005373E+04  0.50400001928E-02 0. -1.
        1   -1    0    0  501    0  0.00000000000E+00  0.00000000000E+00 -0.11216949270E+04  0.11216949270E+04  0.50400001928E-02 0.  1.
    10030    2    1    2    0    0  0.00000000000E+00  0.00000000000E+00  0.18540561038E+03  0.24287954643E+04  0.24217085223E+04 0.  0.
        2    1    3    3  502    0 -0.21357687228E+03 -0.22712247775E+03  0.12661560102E+04  0.13039749777E+04  0.25500000920E-02 0. -1.
       -2    1    3    3    0  502  0.21357687228E+03  0.22712247775E+03 -0.10807503999E+04  0.11248204866E+04  0.25500000920E-02 0.  1.
</event>
<event>
 5   0  0.3320780E-05  0.2389570E+04  0.7818609E-02  0.8443419E-01
       -2   -1    0    0    0  501  0.00000000000E+00  0.00000000000E+00  0.11810392708E+04  0.11810392708E+04  0.25500000920E-02 0.  1.
        2   -1    0    0  501    0  0.00000000000E+00  0.00000000000E+00 -0.12086911379E+04  0.12086911379E+04  0.25500000920E-02 0. -1.
    10030    2    1    2    0    0  0.00000000000E+00  0.00000000000E+00 -0.27651867125E+02  0.23897304087E+04  0.23895704218E+04 0.  0.
        5    1    3    3  502    0 -0.80674400133E+02  0.56110037175E+03 -0.10656318791E+04  0.12070357815E+04  0.46999998093E+01 0. -1.
       -5    1    3    3    0  502  0.80674400133E+02 -0.56110037175E+03  0.10379800120E+04  0.11826946272E+04  0.46999998093E+01 0.  1.
</event>
<event>
 5   0  0.1393026E-05  0.2433603E+04  0.7818609E-02  0.8427029E-01
       -1   -1    0    0    0  501  0.00000000000E+00  0.00000000000E+00  0.12916822212E+04  0.12916822212E+04  0.50400001928E-02 0. -1.
        1   -1    0    0  501    0  0.00000000000E+00  0.00000000000E+00 -0.11462613949E+04  0.11462613949E+04  0.50400001928E-02 0.  1.
    10030    2    1    2    0    0  0.00000000000E+00  0.00000000000E+00  0.14542082635E+03  0.24379436161E+04  0.24336026501E+04 0.  0.
        4    1    3    3  502    0 -0.99281755026E+02 -0.99623017719E+03  0.76551643814E+03  0.12602969740E+04  0.12699999809E+01 0. -1.
       -4    1    3    3    0  502  0.99281755026E+02  0.99623017719E+03 -0.62009561179E+03  0.11776466420E+04  0.12699999809E+01 0.  1.
</event>
<event>
 5   0  0.3347728E-05  0.1965106E+04  0.7818609E-02  0.8623111E-01
       -2   -1    0    0    0  501  0.00000000000E+00  0.00000000000E+00  0.72041815770E+03  0.72041815771E+03  0.25500000920E-02 0. -1.
        2   -1    0    0  501    0  0.00000000000E+00  0.00000000000E+00 -0.13400700289E+04  0.13400700289E+04  0.25500000920E-02 0.  1.
    10030    2    1    2    0    0  0.00000000000E+00  0.00000000000E+00 -0.61965187119E+03  0.20604881866E+04  0.19651063904E+04 0.  0.
        3    1    3    3  502    0 -0.42013678451E+03  0.19382391563E+03  0.59903803937E+03  0.75692087485E+03  0.10100000352E+00 0. -1.
       -3    1    3    3    0  502  0.42013678451E+03 -0.19382391563E+03 -0.12186899106E+04  0.13035673118E+04  0.10100000352E+00 0.  1.
</event>
<event>
 5   0  0.1147362E-05  0.2370829E+04  0.7818609E-02  0.8450506E-01
        4   -1    0    0  501    0  0.00000000000E+00  0.00000000000E+00  0.12386619400E+04  0.12386625910E+04  0.12699999809E+01 0. -1.
       -4   -1    0    0    0  501  0.00000000000E+00  0.00000000000E+00 -0.11344550703E+04  0.11344557812E+04  0.12699999809E+01 0.  1.
    10030    2    1    2    0    0  0.00000000000E+00  0.00000000000E+00  0.10420686963E+03  0.23731183723E+04  0.23708293353E+04 0.  0.
        1    1    3    3  502    0 -0.71234201567E+03 -0.84859555849E+03  0.47401052990E+03  0.12050857030E+04  0.50400001928E-02 0. -1.
       -1    1    3    3    0  502  0.71234201567E+03  0.84859555849E+03 -0.36980366027E+03  0.11680326692E+04  0.50400001928E-02 0.  1.
</event>
<event>
 5   0  0.3310037E-05  0.2373490E+04  0.7818609E-02  0.8449496E-01
       -2   -1    0    0    0  501  0.00000000000E+00  0.00000000000E+00  0.72881015603E+03  0.72881015604E+03  0.25500000920E-02 0. -1.
        2   -1    0    0  501    0  0.00000000000E+00  0.00000000000E+00 -0.19324152304E+04  0.19324152304E+04  0.25500000920E-02 0.  1.
    10030    2    1    2    0    0  0.00000000000E+00  0.00000000000E+00 -0.12036050744E+04  0.26612253865E+04  0.23734901269E+04 0.  0.
        2    1    3    3  502    0 -0.24604225950E+03 -0.31341686239E+02 -0.19030293306E+04  0.19191247296E+04  0.25500000920E-02 0.  1.
       -2    1    3    3    0  502  0.24604225950E+03  0.31341686239E+02  0.69942425618E+03  0.74210065685E+03  0.25500000920E-02 0. -1.
</event>
<event>
 5   0  0.1147362E-05  0.2463391E+04  0.7818609E-02  0.8416145E-01
       -3   -1    0    0    0  501  0.00000000000E+00  0.00000000000E+00  0.16619645139E+04  0.16619645170E+04  0.10100000352E+00 0.  1.
        3   -1    0    0  501    0  0.00000000000E+00  0.00000000000E+00 -0.91281991231E+03  0.91281991790E+03  0.10100000352E+00 0. -1.
    10030    2    1    2    0    0  0.00000000000E+00  0.00000000000E+00  0.74914460160E+03  0.25747844349E+04  0.24633914127E+04 0.  0.
        1    1    3    3  502    0 -0.78735491714E+03  0.76049537892E+03 -0.21557722480E+03  0.11156856756E+04  0.50400001928E-02 0. -1.
       -1    1    3    3    0  502  0.78735491714E+03 -0.76049537892E+03  0.96472182640E+03  0.14590987593E+04  0.50400001928E-02 0.  1.
</event>
<event>
 5   0  0.3345974E-05  0.2379363E+04  0.7818609E-02  0.8447270E-01
       -2   -1    0    0    0  501  0.00000000000E+00  0.00000000000E+00  0.14227626375E+04  0.14227626376E+04  0.25500000920E-02 0.  1.
        2   -1    0    0  501    0  0.00000000000E+00  0.00000000000E+00 -0.99478437654E+03  0.99478437654E+03  0.25500000920E-02 0. -1.
    10030    2    1    2    0    0  0.00000000000E+00  0.00000000000E+00  0.42797826101E+03  0.24175470141E+04  0.23793629764E+04 0.  0.
        4    1    3    3  502    0 -0.84638534948E+03  0.63887065511E+03  0.76191750761E+03  0.13057732480E+04  0.12699999809E+01 0.  1.
       -4    1    3    3    0  502  0.84638534948E+03 -0.63887065511E+03 -0.33393924660E+03  0.11117737661E+04  0.12699999809E+01 0. -1.
</event>
<event>
 5   0  0.3320780E-05  0.2412073E+04  0.7818609E-02  0.8434997E-01
       -2   -1    0    0    0  501  0.00000000000E+00  0.00000000000E+00  0.12317812628E+04  0.12317812628E+04  0.25500000920E-02 0. -1.
        2   -1    0    0  501    0  0.00000000000E+00  0.00000000000E+00 -0.11808301211E+04  0.11808301211E+04  0.25500000920E-02 0.  1.
    10030    2    1    2    0    0  0.00000000000E+00  0.00000000000E+00  0.50951141648E+02  0.24126113839E+04  0.24120733137E+04 0.  0.
        5    1    3    3  502    0 -0.47821881061E+03 -0.20783505273E+03  0.11131985901E+04  0.12292769545E+04  0.46999998093E+01 0. -1.
       -5    1    3    3    0  502  0.47821881061E+03  0.20783505273E+03 -0.10622474484E+04  0.11833344293E+04  0.46999998093E+01 0.  1.
</event>
<event>
 5   0  0.1393026E-05  0.2387153E+04  0.7818609E-02  0.8444329E-01
        1   -1    0    0  501    0  0.00000000000E+00  0.00000000000E+00  0.13185727004E+04  0.13185727004E+04  0.50400001928E-02 0.  1.
       -1   -1    0    0    0  501  0.00000000000E+00  0.00000000000E+00 -0.10804297535E+04  0.10804297535E+04  0.50400001928E-02 0. -1.
    10030    2    1    2    0    0  0.00000000000E+00  0.00000000000E+00  0.23814294696E+03  0.23990024539E+04  0.23871532650E+04 0.  0.
        4    1    3    3  502    0  0.14315703305E+03  0.11095139848E+04  0.53719960961E+03  0.12410077566E+04  0.12699999809E+01 0.  1.
       -4    1    3    3    0  502 -0.14315703305E+03 -0.11095139848E+04 -0.29905666265E+03  0.11579946973E+04  0.12699999809E+01 0. -1.
</event>
<event>
 5   0  0.1401596E-05  0.2396128E+04  0.7818609E-02  0.8440955E-01
       -1   -1    0    0    0  501  0.00000000000E+00  0.00000000000E+00  0.86712507953E+03  0.86712507954E+03  0.50400001928E-02 0. -1.
        1   -1    0    0  501    0  0.00000000000E+00  0.00000000000E+00 -0.16553055769E+04  0.16553055770E+04  0.50400001928E-02 0.  1.
    10030    2    1    2    0    0  0.00000000000E+00  0.00000000000E+00 -0.78818049742E+03  0.25224306565E+04  0.23961276928E+04 0.  0.
        2    1    3    3  502    0  0.98308767730E+01  0.10261849694E+04 -0.10449048880E+04  0.14645744988E+04  0.25500000920E-02 0.  1.
       -2    1    3    3    0  502 -0.98308767730E+01 -0.10261849694E+04  0.25672439053E+03  0.10578561577E+04  0.25500000920E-02 0. -1.
</event>
<event>
 5   0  0.3320780E-05  0.2412417E+04  0.7818609E-02  0.8434870E-01
        2   -1    0    0  501    0  0.00000000000E+00  0.00000000000E+00  0.12043273502E+04  0.12043273502E+04  0.25500000920E-02 0. -1.
       -2   -1    0    0    0  501  0.00000000000E+00  0.00000000000E+00 -0.12080921872E+04  0.12080921872E+04  0.25500000920E-02 0.  1.
    10030    2    1    2    0    0  0.00000000000E+00  0.00000000000E+00 -0.37648370107E+01  0.24124195373E+04  0.24124165996E+04 0.  0.
        5    1    3    3  502    0 -0.66752923690E+03  0.49235534198E+03 -0.87761592560E+03  0.12075764439E+04  0.46999998093E+01 0.  1.
       -5    1    3    3    0  502  0.66752923690E+03 -0.49235534198E+03  0.87385108859E+03  0.12048430935E+04  0.46999998093E+01 0. -1.
</event>
<event>
 5   0  0.1506985E-05  0.2395683E+04  0.7818609E-02  0.8441122E-01
       -1   -1    0    0    0  501  0.00000000000E+00  0.00000000000E+00  0.68311075636E+03  0.68311075638E+03  0.50400001928E-02 0. -1.
        1   -1    0    0  501    0  0.00000000000E+00  0.00000000000E+00 -0.21004261556E+04  0.21004261556E+04  0.50400001928E-02 0.  1.
    10030    2    1    2    0    0  0.00000000000E+00  0.00000000000E+00 -0.14173153992E+04  0.27835369119E+04  0.23956825331E+04 0.  0.
        3    1    3    3  502    0  0.31102856856E+03  0.86431219863E+03 -0.16019211978E+04  0.18465984624E+04  0.10100000352E+00 0.  1.
       -3    1    3    3    0  502 -0.31102856856E+03 -0.86431219863E+03  0.18460579859E+03  0.93693844955E+03  0.10100000352E+00 0. -1.
</event>
<event>
 5   0  0.3215208E-05  0.2381133E+04  0.7818609E-02  0.8446601E-01
        2   -1    0    0  501    0  0.00000000000E+00  0.00000000000E+00  0.16623592441E+04  0.16623592441E+04  0.25500000920E-02 0. -1.
       -2   -1    0    0    0  501  0.00000000000E+00  0.00000000000E+00 -0.85267298065E+03  0.85267298066E+03  0.25500000920E-02 0.  1.
    10030    2    1    2    0    0  0.00000000000E+00  0.00000000000E+00  0.80968626343E+03  0.25150322247E+04  0.23811331853E+04 0.  0.
        1    1    3    3  502    0 -0.83348291588E+03  0.67718922669E+03  0.94772013272E+03  0.14322892410E+04  0.50400001928E-02 0. -1.
       -1    1    3    3    0  502  0.83348291588E+03 -0.67718922669E+03 -0.13803386929E+03  0.10827429838E+04  0.50400001928E-02 0.  1.
</event>
<event>
 5   0  0.1407158E-05  0.2430561E+04  0.7818609E-02  0.8428150E-01
        1   -1    0    0  501    0  0.00000000000E+00  0.00000000000E+00  0.14562101388E+04  0.14562101388E+04  0.50400001928E-02 0. -1.
       -1   -1    0    0    0  501  0.00000000000E+00  0.00000000000E+00 -0.10142122374E+04  0.10142122374E+04  0.50400001928E-02 0.  1.
    10030    2    1    2    0    0  0.00000000000E+00  0.00000000000E+00  0.44199790141E+03  0.24704223761E+04  0.24305605468E+04 0.  0.
        1    1    3    3  502    0  0.58475564925E+03  0.97311409093E+03  0.66171828456E+03  0.13140628948E+04  0.50400001928E-02 0. -1.
       -1    1    3    3    0  502 -0.58475564925E+03 -0.97311409093E+03 -0.21972038315E+03  0.11563594813E+04  0.50400001928E-02 0.  1.
</event>
<event>
 5   0  0.3215208E-05  0.2396066E+04  0.7818609E-02  0.8440978E-01
        2   -1    0    0  501    0  0.00000000000E+00  0.00000000000E+00  0.16924604939E+04  0.16924604939E+04  0.25500000920E-02 0.  1.
       -2   -1    0    0    0  501  0.00000000000E+00  0.00000000000E+00 -0.84804517632E+03  0.84804517632E+03  0.25500000920E-02 0. -1.
    10030    2    1    2    0    0  0.00000000000E+00  0.00000000000E+00  0.84441531759E+03  0.25405056702E+04  0.23960659073E+04 0.  0.
        1    1    3    3  502    0 -0.85516252285E+02  0.11944586263E+04  0.45952173475E+03  0.12826553177E+04  0.50400001928E-02 0.  1.
       -1    1    3    3    0  502  0.85516252285E+02 -0.11944586263E+04  0.38489358284E+03  0.12578503525E+04  0.50400001928E-02 0. -1.
</event>
<event>
 5   0  0.3215208E-05  0.2383251E+04  0.7818609E-02  0.8445801E-01
        2   -1    0    0  501    0  0.00000000000E+00  0.00000000000E+00  0.15401543190E+04  0.15401543190E+04  0.25500000920E-02 0.  1.
       -2   -1    0    0    0  501  0.00000000000E+00  0.00000000000E+00 -0.92196656150E+03  0.92196656150E+03  0.25500000920E-02 0. -1.
    10030    2    1    2    0    0  0.00000000000E+00  0.00000000000E+00  0.61818775752E+03  0.24621208805E+04  0.23832505380E+04 0.  0.
        1    1    3    3  502    0 -0.84845438022E+03  0.44858328310E+03 -0.42058692908E+03  0.10478526433E+04  0.50400001928E-02 0. -1.
       -1    1    3    3    0  502  0.84845438022E+03 -0.44858328310E+03  0.10387746866E+04  0.14142682372E+04  0.50400001928E-02 0.  1.
</event>
<event>
 5   0  0.3320780E-05  0.2359022E+04  0.7818609E-02  0.8455006E-01
        2   -1    0    0  501    0  0.00000000000E+00  0.00000000000E+00  0.61054190115E+03  0.61054190116E+03  0.25500000920E-02 0.  1.
       -2   -1    0    0    0  501  0.00000000000E+00  0.00000000000E+00 -0.22787079813E+04  0.22787079813E+04  0.25500000920E-02 0. -1.
    10030    2    1    2    0    0  0.00000000000E+00  0.00000000000E+00 -0.16681660801E+04  0.28892498824E+04  0.23590224272E+04 0.  0.
        5    1    3    3  502    0  0.29500219311E+03  0.10186585837E+04 -0.14663908349E+04  0.18097004655E+04  0.46999998093E+01 0. -1.
       -5    1    3    3    0  502 -0.29500219311E+03 -0.10186585837E+04 -0.20177524521E+03  0.10795494170E+04  0.46999998093E+01 0.  1.
</event>
<event>
 5   0  0.3347728E-05  0.2409752E+04  0.7818609E-02  0.8435862E-01
       -2   -1    0    0    0  501  0.00000000000E+00  0.00000000000E+00  0.13698202070E+04  0.13698202070E+04  0.25500000920E-02 0.  1.
        2   -1    0    0  501    0  0.00000000000E+00  0.00000000000E+00 -0.10597929408E+04  0.10597929408E+04  0.25500000920E-02 0. -1.
    10030    2    1    2    0    0  0.00000000000E+00  0.00000000000E+00  0.31002726618E+03  0.24296131479E+04  0.24097516765E+04 0.  0.
        3    1    3    3  502    0  0.91530754847E+03  0.13291303640E+03  0.93356459046E+03  0.13141524410E+04  0.10100000352E+00 0.  1.
       -3    1    3    3    0  502 -0.91530754847E+03 -0.13291303640E+03 -0.62353732428E+03  0.11154607068E+04  0.10100000352E+00 0. -1.
</event>
<event>
 5   0  0.1401596E-05  0.2406517E+04  0.7818609E-02  0.8437068E-01
       -1   -1    0    0    0  501  0.00000000000E+00  0.00000000000E+00  0.11393362700E+04  0.11393362700E+04  0.50400001928E-02 0. -1.
        1   -1    0    0  501    0  0.00000000000E+00  0.00000000000E+00 -0.12707665701E+04  0.12707665701E+04  0.50400001928E-02 0.  1.
    10030    2    1    2    0    0  0.00000000000E+00  0.00000000000E+00 -0.13143030007E+03  0.24101028401E+04  0.24065165231E+04 0.  0.
        2    1    3    3  502    0 -0.58779997311E+03 -0.69249956876E+03  0.72461612411E+03  0.11619522316E+04  0.25500000920E-02 0. -1.
       -2    1    3    3    0  502  0.58779997311E+03  0.69249956876E+03 -0.85604642418E+03  0.12481506085E+04  0.25500000920E-02 0.  1.
</event>
<event>
 5   0  0.1506985E-05  0.2393266E+04  0.7818609E-02  0.8442029E-01
       -1   -1    0    0    0  501  0.00000000000E+00  0.00000000000E+00  0.72231682787E+03  0.72231682789E+03  0.50400001928E-02 0. -1.
        1   -1    0    0  501    0  0.00000000000E+00  0.00000000000E+00 -0.19824136164E+04  0.19824136164E+04  0.50400001928E-02 0.  1.
    10030    2    1    2    0    0  0.00000000000E+00  0.00000000000E+00 -0.12600967885E+04  0.27047304443E+04  0.23932661490E+04 0.  0.
        3    1    3    3  502    0  0.29004713382E+03  0.37793549475E+03  0.61052016710E+03  0.77440135761E+03  0.10100000352E+00 0. -1.
       -3    1    3    3    0  502 -0.29004713382E+03 -0.37793549475E+03 -0.18706169556E+04  0.19303290867E+04  0.10100000352E+00 0.  1.
</event>
<event>
 5   0  0.1147362E-05  0.2397682E+04  0.7818609E-02  0.8440372E-01
        3   -1    0    0  501    0  0.00000000000E+00  0.00000000000E+00  0.10995695247E+04  0.10995695293E+04  0.10100000352E+00 0. -1.
       -3   -1    0    0    0  501  0.00000000000E+00  0.00000000000E+00 -0.13070747770E+04  0.13070747809E+04  0.10100000352E+00 0.  1.
    10030    2    1    2    0    0  0.00000000000E+00  0.00000000000E+00 -0.20750525229E+03  0.24066443102E+04  0.23976818818E+04 0.  0.
        5    1    3    3  502    0 -0.27867306965E+03 -0.42196861064E+03 -0.11947753028E+04  0.12973921159E+04  0.46999998093E+01 0.  1.
       -5    1    3    3    0  502  0.27867306965E+03  0.42196861064E+03  0.98727005051E+03  0.11092521944E+04  0.46999998093E+01 0. -1.
</event>
<event>
 5   0  0.1401596E-05  0.2416905E+04  0.7818609E-02  0.8433201E-01
       -1   -1    0    0    0  501  0.00000000000E+00  0.00000000000E+00  0.12147889777E+04  0.12147889777E+04  0.50400001928E-02 0. -1.
        1   -1    0    0  501    0  0.00000000000E+00  0.00000000000E+00 -0.12021495465E+04  0.12021495465E+04  0.50400001928E-02 0.  1.
    10030    2    1    2    0    0  0.00000000000E+00  0.00000000000E+00  0.12639431164E+02  0.24169385242E+04  0.24169054749E+04 0.  0.
        2    1    3    3  502    0 -0.43225557396E+03  0.10036994322E+04  0.52217615377E+03  0.12111669443E+04  0.25500000920E-02 0. -1.
       -2    1    3    3    0  502  0.43225557396E+03 -0.10036994322E+04 -0.50953672261E+03  0.12057715800E+04  0.25500000920E-02 0.  1.
</event>
<event>
 5   0  0.1407158E-05  0.2381178E+04  0.7818609E-02  0.8446584E-01
        1   -1    0    0  501    0  0.00000000000E+00  0.00000000000E+00  0.17022289653E+04  0.17022289653E+04  0.50400001928E-02 0.  1.
       -1   -1    0    0    0  501  0.00000000000E+00  0.00000000000E+00 -0.83273305748E+03  0.83273305750E+03  0.50400001928E-02 0. -1.
    10030    2    1    2    0    0  0.00000000000E+00  0.00000000000E+00  0.86949590783E+03  0.25349620228E+04  0.23811781377E+04 0.  0.
        1    1    3    3  502    0  0.67854400617E+03  0.88310885044E+03 -0.13388581484E+02  0.11137694843E+04  0.50400001928E-02 0. -1.
       -1    1    3    3    0  502 -0.67854400617E+03 -0.88310885044E+03  0.88288448931E+03  0.14211925385E+04  0.50400001928E-02 0.  1.
</event>
<event>
 5   0  0.3215208E-05  0.2391362E+04  0.7818609E-02  0.8442745E-01
        2   -1    0    0  501    0  0.00000000000E+00  0.00000000000E+00  0.14947261210E+04  0.14947261210E+04  0.25500000920E-02 0. -1.
       -2   -1    0    0    0  501  0.00000000000E+00  0.00000000000E+00 -0.95646467501E+03  0.95646467501E+03  0.25500000920E-02 0.  1.
    10030    2    1    2    0    0  0.00000000000E+00  0.00000000000E+00  0.53826144598E+03  0.24511907960E+04  0.23913617322E+04 0.  0.
        1    1    3    3  502    0 -0.87834261049E+03 -0.78779292487E+03  0.70506247844E+02  0.11819790882E+04  0.50400001928E-02 0.  1.
       -1    1    3    3    0  502  0.87834261049E+03  0.78779292487E+03  0.46775519814E+03  0.12692117078E+04  0.50400001928E-02 0. -1.
</event>
<event>
 5   0  0.1506985E-05  0.2201785E+04  0.7818609E-02  0.8517686E-01
       -1   -1    0    0    0  501  0.00000000000E+00  0.00000000000E+00  0.76816079363E+03  0.76816079365E+03  0.50400001928E-02 0. -1.
        1   -1    0    0  501    0  0.00000000000E+00  0.00000000000E+00 -0.15777474790E+04  0.15777474790E+04  0.50400001928E-02 0.  1.
    10030    2    1    2    0    0  0.00000000000E+00  0.00000000000E+00 -0.80958668534E+03  0.23459082726E+04  0.22017845086E+04 0.  0.
        3    1    3    3  502    0 -0.26533605849E+03  0.76777716719E+03 -0.11964497439E+04  0.14461593973E+04  0.10100000352E+00 0.  1.
       -3    1    3    3    0  502  0.26533605849E+03 -0.76777716719E+03  0.38686305858E+03  0.89974887535E+03  0.10100000352E+00 0. -1.
</event>
<event>
 5   0  0.3310037E-05  0.2400540E+04  0.7818609E-02  0.8439301E-01
        2   -1    0    0  501    0  0.00000000000E+00  0.00000000000E+00  0.98096927847E+03  0.98096927847E+03  0.25500000920E-02 0. -1.
       -2   -1    0    0    0  501  0.00000000000E+00  0.00000000000E+00 -0.14685968218E+04  0.14685968218E+04  0.25500000920E-02 0.  1.
    10030    2    1    2    0    0  0.00000000000E+00  0.00000000000E+00 -0.48762754335E+03  0.24495661003E+04  0.24005402431E+04 0.  0.
        2    1    3    3  502    0  0.46363977050E+03  0.96011753638E+03 -0.80630731573E+03  0.13367568993E+04  0.25500000920E-02 0.  1.
       -2    1    3    3    0  502 -0.46363977050E+03 -0.96011753638E+03  0.31867977238E+03  0.11128092010E+04  0.25500000920E-02 0. -1.
</event>
<event>
 5   0  0.1434943E-05  0.2399815E+04  0.7818609E-02  0.8439573E-01
        1   -1    0    0  501    0  0.00000000000E+00  0.00000000000E+00  0.11121082724E+04  0.11121082724E+04  0.50400001928E-02 0. -1.
       -1   -1    0    0    0  501  0.00000000000E+00  0.00000000000E+00 -0.12946383820E+04  0.12946383820E+04  0.50400001928E-02 0.  1.
    10030    2    1    2    0    0  0.00000000000E+00  0.00000000000E+00 -0.18253010964E+03  0.24067466544E+04  0.23998150382E+04 0.  0.
        5    1    3    3  502    0 -0.38638745380E+03  0.86088128321E+03  0.65205327940E+03  0.11469993101E+04  0.46999998093E+01 0. -1.
       -5    1    3    3    0  502  0.38638745380E+03 -0.86088128321E+03 -0.83458338904E+03  0.12597473443E+04  0.46999998093E+01 0.  1.
</event>
<event>
 5   0  0.3345974E-05  0.2398638E+04  0.7818609E-02  0.8440014E-01
       -2   -1    0    0    0  501  0.00000000000E+00  0.00000000000E+00  0.87371119413E+03  0.87371119414E+03  0.25500000920E-02 0.  1.
        2   -1    0    0  501    0  0.00000000000E+00  0.00000000000E+00 -0.16462717539E+04  0.16462717539E+04  0.25500000920E-02 0. -1.
    10030    2    1    2    0    0  0.00000000000E+00  0.00000000000E+00 -0.77256055979E+03  0.25199829481E+04  0.23986379969E+04 0.  0.
        4    1    3    3  502    0 -0.31614136425E+03 -0.10235852870E+04 -0.95271467418E+03  0.14336453764E+04  0.12699999809E+01 0. -1.
       -4    1    3    3    0  502  0.31614136425E+03  0.10235852870E+04  0.18015411439E+03  0.10863375717E+04  0.12699999809E+01 0.  1.
</event>
<event>
 5   0  0.3215208E-05  0.2393175E+04  0.7818609E-02  0.8442063E-01
        2   -1    0    0  501    0  0.00000000000E+00  0.00000000000E+00  0.28276660659E+04  0.28276660659E+04  0.25500000920E-02 0. -1.
       -2   -1    0    0    0  501  0.00000000000E+00  0.00000000000E+00 -0.50636158008E+03  0.50636158008E+03  0.25500000920E-02 0.  1.
    10030    2    1    2    0    0  0.00000000000E+00  0.00000000000E+00  0.23213044858E+04  0.33340276460E+04  0.23931748428E+04 0.  0.
        1    1    3    3  502    0  0.56914049670E+03 -0.52727452413E+03  0.24297730777E+04  0.25506345364E+04  0.50400001928E-02 0. -1.
       -1    1    3    3    0  502 -0.56914049670E+03  0.52727452413E+03 -0.10846859190E+03  0.78339310964E+03  0.50400001928E-02 0.  1.
</event>
<event>
 5   0  0.3215208E-05  0.2381025E+04  0.7818609E-02  0.8446642E-01
       -2   -1    0    0    0  501  0.00000000000E+00  0.00000000000E+00  0.15050148804E+04  0.15050148804E+04  0.25500000920E-02 0.  1.
        2   -1    0    0  501    0  0.00000000000E+00  0.00000000000E+00 -0.94173192713E+03  0.94173192714E+03  0.25500000920E-02 0. -1.
    10030    2    1    2    0    0  0.00000000000E+00  0.00000000000E+00  0.56328295324E+03  0.24467468075E+04  0.23810254628E+04 0.  0.
        1    1    3    3  502    0 -0.69411670493E+03 -0.45373690534E+03 -0.59612888036E+03  0.10212956581E+04  0.50400001928E-02 0. -1.
       -1    1    3    3    0  502  0.69411670493E+03  0.45373690534E+03  0.11594118336E+04  0.14254511494E+04  0.50400001928E-02 0.  1.
</event>
<event>
 5   0  0.1393026E-05  0.2438644E+04  0.7818609E-02  0.8425176E-01
       -1   -1    0    0    0  501  0.00000000000E+00  0.00000000000E+00  0.11133285749E+04  0.11133285749E+04  0.50400001928E-02 0. -1.
        1   -1    0    0  501    0  0.00000000000E+00  0.00000000000E+00 -0.13354059416E+04  0.13354059416E+04  0.50400001928E-02 0.  1.
    10030    2    1    2    0    0  0.00000000000E+00  0.00000000000E+00 -0.22207736672E+03  0.24487345165E+04  0.24386435524E+04 0.  0.
        4    1    3    3  502    0 -0.75355556158E+03 -0.61180390959E+03  0.62998108263E+03  0.11571636814E+04  0.12699999809E+01 0. -1.
       -4    1    3    3    0  502  0.75355556158E+03  0.61180390959E+03 -0.85205844935E+03  0.12915708351E+04  0.12699999809E+01 0.  1.
</event>
<event>
 5   0  0.3345974E-05  0.2397926E+04  0.7818609E-02  0.8440280E-01
        2   -1    0    0  501    0  0.00000000000E+00  0.00000000000E+00  0.70890477022E+03  0.70890477023E+03  0.25500000920E-02 0.  1.
       -2   -1    0    0    0  501  0.00000000000E+00  0.00000000000E+00 -0.20277935965E+04  0.20277935965E+04  0.25500000920E-02 0. -1.
    10030    2    1    2    0    0  0.00000000000E+00  0.00000000000E+00 -0.13188888263E+04  0.27366983668E+04  0.23979262321E+04 0.  0.
        4    1    3    3  502    0 -0.33592680968E+03  0.33920089017E+03  0.59575647441E+03  0.76343398867E+03  0.12699999809E+01 0.  1.
       -4    1    3    3    0  502  0.33592680968E+03 -0.33920089017E+03 -0.19146453007E+04  0.19732643781E+04  0.12699999809E+01 0. -1.
</event>
<event>
 5   0  0.3345974E-05  0.2405658E+04  0.7818609E-02  0.8437388E-01
       -2   -1    0    0    0  501  0.00000000000E+00  0.00000000000E+00  0.83393886477E+03  0.83393886477E+03  0.25500000920E-02 0. -1.
        2   -1    0    0  501    0  0.00000000000E+00  0.00000000000E+00 -0.17348969275E+04  0.17348969275E+04  0.25500000920E-02 0.  1.
    10030    2    1    2    0    0  0.00000000000E+00  0.00000000000E+00 -0.90095806275E+03  0.25688357923E+04  0.24056583084E+04 0.  0.
        4    1    3    3  502    0 -0.96672868598E+03 -0.66752716796E+03 -0.17482253535E+03  0.11877379358E+04  0.12699999809E+01 0. -1.
       -4    1    3    3    0  502  0.96672868598E+03  0.66752716796E+03 -0.72613552740E+03  0.13810978565E+04  0.12699999809E+01 0.  1.
</event>
<event>
 5   0  0.1401596E-05  0.2396569E+04  0.7818609E-02  0.8440789E-01
       -1   -1    0    0    0  501  0.00000000000E+00  0.00000000000E+00  0.76987750328E+03  0.76987750330E+03  0.50400001928E-02 0.  1.
        1   -1    0    0  501    0  0.00000000000E+00  0.00000000000E+00 -0.18650835451E+04  0.18650835452E+04  0.50400001928E-02 0. -1.
    10030    2    1    2    0    0  0.00000000000E+00  0.00000000000E+00 -0.10952060419E+04  0.26349610485E+04  0.23965691003E+04 0.  0.
        2    1    3    3  502    0  0.58121955640E+03 -0.10326891045E+04 -0.35208575356E+03  0.12362149235E+04  0.25500000920E-02 0.  1.
       -2    1    3    3    0  502 -0.58121955640E+03  0.10326891045E+04 -0.74312028831E+03  0.13987461250E+04  0.25500000920E-02 0. -1.
</event>
<event>
 5   0  0.3215208E-05  0.2391778E+04  0.7818609E-02  0.8442588E-01
       -2   -1    0    0    0  501  0.00000000000E+00  0.00000000000E+00  0.91089520496E+03  0.91089520497E+03  0.25500000920E-02 0. -1.
        2   -1    0    0  501    0  0.00000000000E+00  0.00000000000E+00 -0.15700493578E+04  0.15700493579E+04  0.25500000920E-02 0.  1.
    10030    2    1    2    0    0  0.00000000000E+00  0.00000000000E+00 -0.65915415289E+03  0.24809445628E+04  0.23917779426E+04 0.  0.
        1    1    3    3  502    0 -0.29861284371E+03  0.53362591077E+03 -0.13956189357E+04  0.15237055020E+04  0.50400001928E-02 0.  1.
       -1    1    3    3    0  502  0.29861284371E+03 -0.53362591077E+03  0.73646478286E+03  0.95723906079E+03  0.50400001928E-02 0. -1.
</event>
<event>
 5   0  0.1434943E-05  0.2391640E+04  0.7818609E-02  0.8442640E-01
        1   -1    0    0  501    0  0.00000000000E+00  0.00000000000E+00  0.16641828426E+04  0.16641828426E+04  0.50400001928E-02 0. -1.
       -1   -1    0    0    0  501  0.00000000000E+00  0.00000000000E+00 -0.85927152699E+03  0.85927152701E+03  0.50400001928E-02 0.  1.
    10030    2    1    2    0    0  0.00000000000E+00  0.00000000000E+00  0.80491131556E+03  0.25234543696E+04  0.23916395484E+04 0.  0.
        5    1    3    3  502    0  0.57735165776E+03  0.72297037215E+03  0.12017995064E+04  0.15166954999E+04  0.46999998093E+01 0. -1.
       -5    1    3    3    0  502 -0.57735165776E+03 -0.72297037215E+03 -0.39688819083E+03  0.10067588697E+04  0.46999998093E+01 0.  1.
</event>
<event>
 5   0  0.1434943E-05  0.2382821E+04  0.7818609E-02  0.8445963E-01
        1   -1    0    0  501    0  0.00000000000E+00  0.00000000000E+00  0.10062572456E+04  0.10062572456E+04  0.50400001928E-02 0. -1.
       -1   -1    0    0    0  501  0.00000000000E+00  0.00000000000E+00 -0.14106320622E+04  0.14106320622E+04  0.50400001928E-02 0.  1.
    10030    2    1    2    0    0  0.00000000000E+00  0.00000000000E+00 -0.40437481662E+03  0.24168893078E+04  0.23828207934E+04 0.  0.
        5    1    3    3  502    0 -0.95854984256E+03 -0.62600557726E+03  0.13227843738E+03  0.11524844721E+04  0.46999998093E+01 0. -1.
       -5    1    3    3    0  502  0.95854984256E+03  0.62600557726E+03 -0.53665325400E+03  0.12644048357E+04  0.46999998093E+01 0.  1.
</event>
<event>
 5   0  0.1434943E-05  0.2333053E+04  0.7818609E-02  0.8465001E-01
       -1   -1    0    0    0  501  0.00000000000E+00  0.00000000000E+00  0.13110554136E+04  0.13110554136E+04  0.50400001928E-02 0.  1.
        1   -1    0    0  501    0  0.00000000000E+00  0.00000000000E+00 -0.10379306193E+04  0.10379306193E+04  0.50400001928E-02 0. -1.
    10030    2    1    2    0    0  0.00000000000E+00  0.00000000000E+00  0.27312479426E+03  0.23489860329E+04  0.23330534133E+04 0.  0.
        5    1    3    3  502    0  0.54198982078E+03 -0.90507388420E+03  0.63780835704E+03  0.12327746315E+04  0.46999998093E+01 0.  1.
       -5    1    3    3    0  502 -0.54198982078E+03  0.90507388420E+03 -0.36468356278E+03  0.11162114014E+04  0.46999998093E+01 0. -1.
</event>
<event>
 5   0  0.1401596E-05  0.2398369E+04  0.7818609E-02  0.8440115E-01
       -1   -1    0    0    0  501  0.00000000000E+00  0.00000000000E+00  0.15570610946E+04  0.15570610947E+04  0.50400001928E-02 0.  1.
        1   -1    0    0  501    0  0.00000000000E+00  0.00000000000E+00 -0.92356237091E+03  0.92356237093E+03  0.50400001928E-02 0. -1.
    10030    2    1    2    0    0  0.00000000000E+00  0.00000000000E+00  0.63349872373E+03  0.24806234656E+04  0.23983686424E+04 0.  0.
        2    1    3    3  502    0 -0.17347514396E+03 -0.10980182316E+04 -0.14846018624E+03  0.11215070617E+04  0.25500000920E-02 0. -1.
       -2    1    3    3    0  502  0.17347514396E+03  0.10980182316E+04  0.78195890997E+03  0.13591164039E+04  0.25500000920E-02 0.  1.
</event>
<event>
 5   0  0.3347728E-05  0.2426275E+04  0.7818609E-02  0.8429732E-01
       -2   -1    0    0    0  501  0.00000000000E+00  0.00000000000E+00  0.81019123485E+03  0.81019123485E+03  0.25500000920E-02 0. -1.
        2   -1    0    0  501    0  0.00000000000E+00  0.00000000000E+00 -0.18164880704E+04  0.18164880704E+04  0.25500000920E-02 0.  1.
    10030    2    1    2    0    0  0.00000000000E+00  0.00000000000E+00 -0.10062968355E+04  0.26266793052E+04  0.24262750980E+04 0.  0.
        3    1    3    3  502    0 -0.89548024149E+03  0.78333554647E+03 -0.75980226007E+03  0.14116653024E+04  0.10100000352E+00 0. -1.
       -3    1    3    3    0  502  0.89548024149E+03 -0.78333554647E+03 -0.24649457546E+03  0.12150140029E+04  0.10100000352E+00 0.  1.
</event>
<event>
 5   0  0.3320780E-05  0.2394834E+04  0.7818609E-02  0.8441440E-01
        2   -1    0    0  501    0  0.00000000000E+00  0.00000000000E+00  0.18517967425E+04  0.18517967425E+04  0.25500000920E-02 0. -1.
       -2   -1    0    0    0  501  0.00000000000E+00  0.00000000000E+00 -0.77427915132E+03  0.77427915133E+03  0.25500000920E-02 0.  1.
    10030    2    1    2    0    0  0.00000000000E+00  0.00000000000E+00  0.10775175912E+04  0.26260758939E+04  0.23948341155E+04 0.  0.
        5    1    3    3  502    0  0.10973516005E+03 -0.11879364241E+04  0.42612366727E+03  0.12668220960E+04  0.46999998093E+01 0.  1.
       -5    1    3    3    0  502 -0.10973516005E+03  0.11879364241E+04  0.65139392395E+03  0.13592537979E+04  0.46999998093E+01 0. -1.
</event>
<event>
 5   0  0.3310037E-05  0.2372818E+04  0.7818609E-02  0.8449751E-01
       -2   -1    0    0    0  501  0.00000000000E+00  0.00000000000E+00  0.99969734351E+03  0.99969734351E+03  0.25500000920E-02 0. -1.
        2   -1    0    0  501    0  0.00000000000E+00  0.00000000000E+00 -0.14079919220E+04  0.14079919220E+04  0.25500000920E-02 0.  1.
    10030    2    1    2    0    0  0.00000000000E+00  0.00000000000E+00 -0.40829457854E+03  0.24076892656E+04  0.23728175523E+04 0.  0.
        2    1    3    3  502    0 -0.10501125399E+04  0.18607711756E+03  0.32330426334E+03  0.11143996980E+04  0.25500000920E-02 0. -1.
       -2    1    3    3    0  502  0.10501125399E+04 -0.18607711756E+03 -0.73159884188E+03  0.12932895676E+04  0.25500000920E-02 0.  1.
</event>
<event>
 5   0  0.1401596E-05  0.2409391E+04  0.7818609E-02  0.8435996E-01
        1   -1    0    0  501    0  0.00000000000E+00  0.00000000000E+00  0.12513672695E+04  0.12513672695E+04  0.50400001928E-02 0. -1.
       -1   -1    0    0    0  501  0.00000000000E+00  0.00000000000E+00 -0.11597644927E+04  0.11597644927E+04  0.50400001928E-02 0.  1.
    10030    2    1    2    0    0  0.00000000000E+00  0.00000000000E+00  0.91602776800E+02  0.24111317622E+04  0.24093910654E+04 0.  0.
        2    1    3    3  502    0  0.10714365525E+04  0.52900141251E+03 -0.10751682403E+03  0.11997410754E+04  0.25500000920E-02 0. -1.
       -2    1    3    3    0  502 -0.10714365525E+04 -0.52900141251E+03  0.19911960083E+03  0.12113906868E+04  0.25500000920E-02 0.  1.
</event>
<event>
 5   0  0.3215208E-05  0.2326581E+04  0.7818609E-02  0.8467514E-01
       -2   -1    0    0    0  501  0.00000000000E+00  0.00000000000E+00  0.63146674541E+03  0.63146674541E+03  0.25500000920E-02 0. -1.
        2   -1    0    0  501    0  0.00000000000E+00  0.00000000000E+00 -0.21430189193E+04  0.21430189194E+04  0.25500000920E-02 0.  1.
    10030    2    1    2    0    0  0.00000000000E+00  0.00000000000E+00 -0.15115521739E+04  0.27744856648E+04  0.23265813395E+04 0.  0.
        1    1    3    3  502    0 -0.43889468299E+03 -0.10758793211E+04 -0.82217606263E+03  0.14234178355E+04  0.50400001928E-02 0. -1.
       -1    1    3    3    0  502  0.43889468299E+03  0.10758793211E+04 -0.68937611132E+03  0.13510678293E+04  0.50400001928E-02 0.  1.
</event>
<event>
 5   0  0.1147362E-05  0.2425367E+04  0.7818609E-02  0.8430067E-01
       -4   -1    0    0    0  501  0.00000000000E+00  0.00000000000E+00  0.10795592122E+04  0.10795599592E+04  0.12699999809E+01 0. -1.
        4   -1    0    0  501    0  0.00000000000E+00  0.00000000000E+00 -0.13622220329E+04  0.13622226249E+04  0.12699999809E+01 0.  1.
    10030    2    1    2    0    0  0.00000000000E+00  0.00000000000E+00 -0.28266282071E+03  0.24417825841E+04  0.24253667595E+04 0.  0.
        5    1    3    3  502    0 -0.27623054817E+03 -0.83758686810E+03  0.69660223525E+03  0.11238913833E+04  0.46999998093E+01 0. -1.
       -5    1    3    3    0  502  0.27623054817E+03  0.83758686810E+03 -0.97926505596E+03  0.13178912008E+04  0.46999998093E+01 0.  1.
</event>
<event>
 5   0  0.1407158E-05  0.2090886E+04  0.7818609E-02  0.8565269E-01
        1   -1    0    0  501    0  0.00000000000E+00  0.00000000000E+00  0.19485358760E+04  0.19485358760E+04  0.50400001928E-02 0. -1.
       -1   -1    0    0    0  501  0.00000000000E+00  0.00000000000E+00 -0.56090907076E+03  0.56090907078E+03  0.50400001928E-02 0.  1.
    10030    2    1    2    0    0  0.00000000000E+00  0.00000000000E+00  0.13876268053E+04  0.25094449468E+04  0.20908863648E+04 0.  0.
        1    1    3    3  502    0  0.88419122431E+03  0.30717418127E+03  0.13498530800E+03  0.94571197105E+03  0.50400001928E-02 0.  1.
       -1    1    3    3    0  502 -0.88419122431E+03 -0.30717418127E+03  0.12526414973E+04  0.15637329757E+04  0.50400001928E-02 0. -1.
</event>
<event>
 5   0  0.1506985E-05  0.2404792E+04  0.7818609E-02  0.8437712E-01
        1   -1    0    0  501    0  0.00000000000E+00  0.00000000000E+00  0.96483091721E+03  0.96483091723E+03  0.50400001928E-02 0. -1.
       -1   -1    0    0    0  501  0.00000000000E+00  0.00000000000E+00 -0.14984549258E+04  0.14984549258E+04  0.50400001928E-02 0.  1.
    10030    2    1    2    0    0  0.00000000000E+00  0.00000000000E+00 -0.53362400863E+03  0.24632858431E+04  0.24047915839E+04 0.  0.
        3    1    3    3  502    0 -0.10971031801E+04 -0.39478077987E+03  0.34047118409E+02  0.11664675171E+04  0.10100000352E+00 0. -1.
       -3    1    3    3    0  502  0.10971031801E+04  0.39478077987E+03 -0.56767112704E+03  0.12968183260E+04  0.10100000352E+00 0.  1.
</event>
<event>
 5   0  0.1401596E-05  0.2405110E+04  0.7818609E-02  0.8437593E-01
        1   -1    0    0  501    0  0.00000000000E+00  0.00000000000E+00  0.24226170878E+04  0.24226170878E+04  0.50400001928E-02 0.  1.
       -1   -1    0    0    0  501  0.00000000000E+00  0.00000000000E+00 -0.59693218095E+03  0.59693218097E+03  0.50400001928E-02 0. -1.
    10030    2    1    2    0    0  0.00000000000E+00  0.00000000000E+00  0.18256849069E+04  0.30195492688E+04  0.24051096456E+04 0.  0.
        2    1    3    3  502    0  0.12903716252E+03  0.31541175258E+03  0.23607256918E+04  0.23851962089E+04  0.25500000920E-02 0.  1.
       -2    1    3    3    0  502 -0.12903716252E+03 -0.31541175258E+03 -0.53504078497E+03  0.63435305987E+03  0.25500000920E-02 0. -1.
</event>
<event>
 5   0  0.1506985E-05  0.2376212E+04  0.7818609E-02  0.8448463E-01
        1   -1    0    0  501    0  0.00000000000E+00  0.00000000000E+00  0.16733838617E+04  0.16733838617E+04  0.50400001928E-02 0.  1.
       -1   -1    0    0    0  501  0.00000000000E+00  0.00000000000E+00 -0.84355777372E+03  0.84355777374E+03  0.50400001928E-02 0. -1.
    10030    2    1    2    0    0  0.00000000000E+00  0.00000000000E+00  0.82982608798E+03  0.25169416355E+04  0.23762120823E+04 0.  0.
        3    1    3    3  502    0  0.48380371503E+03 -0.98863105752E+03  0.88877661405E+03  0.14147018352E+04  0.10100000352E+00 0.  1.
       -3    1    3    3    0  502 -0.48380371503E+03  0.98863105752E+03 -0.58950526070E+02  0.11022398003E+04  0.10100000352E+00 0. -1.
</event>
<event>
 5   0  0.1393026E-05  0.2531378E+04  0.7818609E-02  0.8391891E-01
        1   -1    0    0  501    0  0.00000000000E+00  0.00000000000E+00  0.82743167506E+03  0.82743167508E+03  0.50400001928E-02 0.  1.
       -1   -1    0    0    0  501  0.00000000000E+00  0.00000000000E+00 -0.19360735945E+04  0.19360735945E+04  0.50400001928E-02 0. -1.
    10030    2    1    2    0    0  0.00000000000E+00  0.00000000000E+00 -0.11086419194E+04  0.27635052695E+04  0.25313779784E+04 0.  0.
        4    1    3    3  502    0 -0.81413537050E+03 -0.56461717555E+03 -0.14141745516E+04  0.17267021259E+04  0.12699999809E+01 0. -1.
       -4    1    3    3    0  502  0.81413537050E+03  0.56461717555E+03  0.30553263218E+03  0.10368031436E+04  0.12699999809E+01 0.  1.
</event>
<event>
 5   0  0.1401596E-05  0.2364886E+04  0.7818609E-02  0.8452768E-01
        1   -1    0    0  501    0  0.00000000000E+00  0.00000000000E+00  0.25034053035E+04  0.25034053035E+04  0.50400001928E-02 0. -1.
       -1   -1    0    0    0  501  0.00000000000E+00  0.00000000000E+00 -0.55850784892E+03  0.55850784895E+03  0.50400001928E-02 0.  1.
    10030    2    1    2    0    0  0.00000000000E+00  0.00000000000E+00  0.19448974546E+04  0.30619131525E+04  0.23648860532E+04 0.  0.
        2    1    3    3  502    0  0.53194640499E+03 -0.13442633918E+03 -0.38371618427E+03  0.66953381433E+03  0.25500000920E-02 0.  1.
       -2    1    3    3    0  502 -0.53194640499E+03  0.13442633918E+03  0.23286136389E+04  0.23923793382E+04  0.25500000920E-02 0. -1.
</event>
<event>
 5   0  0.3310037E-05  0.2383830E+04  0.7818609E-02  0.8445582E-01
        2   -1    0    0  501    0  0.00000000000E+00  0.00000000000E+00  0.22477709986E+04  0.22477709986E+04  0.25500000920E-02 0.  1.
       -2   -1    0    0    0  501  0.00000000000E+00  0.00000000000E+00 -0.63203133792E+03  0.63203133793E+03  0.25500000920E-02 0. -1.
    10030    2    1    2    0    0  0.00000000000E+00  0.00000000000E+00  0.16157396607E+04  0.28798023365E+04  0.23838302889E+04 0.  0.
        2    1    3    3  502    0  0.17527941365E+03 -0.57783194445E+03  0.20493203024E+04  0.21364284052E+04  0.25500000920E-02 0.  1.
       -2    1    3    3    0  502 -0.17527941365E+03  0.57783194445E+03 -0.43358064170E+03  0.74337393131E+03  0.25500000920E-02 0. -1.
</event>
<event>
 5   0  0.1401596E-05  0.2491192E+04  0.7818609E-02  0.8406130E-01
       -1   -1    0    0    0  501  0.00000000000E+00  0.00000000000E+00  0.22399580011E+04  0.22399580011E+04  0.50400001928E-02 0.  1.
        1   -1    0    0  501    0  0.00000000000E+00  0.00000000000E+00 -0.69265087907E+03  0.69265087909E+03  0.50400001928E-02 0. -1.
    10030    2    1    2    0    0  0.00000000000E+00  0.00000000000E+00  0.15473071221E+04  0.29326088802E+04  0.24911915853E+04 0.  0.
        2    1    3    3  502    0  0.49888488420E+03 -0.52970649473E+03 -0.41643599037E+03  0.83838775774E+03  0.25500000920E-02 0. -1.
       -2    1    3    3    0  502 -0.49888488420E+03  0.52970649473E+03  0.19637431124E+04  0.20942211225E+04  0.25500000920E-02 0.  1.
</event>
<event>
 5   0  0.1434943E-05  0.2395999E+04  0.7818609E-02  0.8441003E-01
        1   -1    0    0  501    0  0.00000000000E+00  0.00000000000E+00  0.15401883860E+04  0.15401883860E+04  0.50400001928E-02 0. -1.
       -1   -1    0    0    0  501  0.00000000000E+00  0.00000000000E+00 -0.93183561442E+03  0.93183561444E+03  0.50400001928E-02 0.  1.
    10030    2    1    2    0    0  0.00000000000E+00  0.00000000000E+00  0.60835277154E+03  0.24720240004E+04  0.23959986569E+04 0.  0.
        5    1    3    3  502    0 -0.64242875797E+03 -0.28000045270E+02  0.13470313106E+04  0.14926533935E+04  0.46999998093E+01 0. -1.
       -5    1    3    3    0  502  0.64242875797E+03  0.28000045270E+02 -0.73867853902E+03  0.97937060688E+03  0.46999998093E+01 0.  1.
</event>
<event>
 5   0  0.1147362E-05  0.2398430E+04  0.7818609E-02  0.8440092E-01
        3   -1    0    0  501    0  0.00000000000E+00  0.00000000000E+00  0.13622550201E+04  0.13622550239E+04  0.10100000352E+00 0.  1.
       -3   -1    0    0    0  501  0.00000000000E+00  0.00000000000E+00 -0.10556881730E+04  0.10556881778E+04  0.10100000352E+00 0. -1.
    10030    2    1    2    0    0  0.00000000000E+00  0.00000000000E+00  0.30656684717E+03  0.24179432017E+04  0.23984299228E+04 0.  0.
        3    1    3    3  502    0 -0.84651460577E+02  0.11750107897E+04 -0.72818520047E+02  0.11803045255E+04  0.10100000352E+00 0.  1.
       -3    1    3    3    0  502  0.84651460577E+02 -0.11750107897E+04  0.37938536722E+03  0.12376386762E+04  0.10100000352E+00 0. -1.
</event>
<event>
 5   0  0.3347728E-05  0.2418492E+04  0.7818609E-02  0.8432613E-01
       -2   -1    0    0    0  501  0.00000000000E+00  0.00000000000E+00  0.68379519202E+03  0.68379519203E+03  0.25500000920E-02 0. -1.
        2   -1    0    0  501    0  0.00000000000E+00  0.00000000000E+00 -0.21384708189E+04  0.21384708189E+04  0.25500000920E-02 0.  1.
    10030    2    1    2    0    0  0.00000000000E+00  0.00000000000E+00 -0.14546756269E+04  0.28222660109E+04  0.24184921453E+04 0.  0.
        3    1    3    3  502    0  0.81787128437E+02 -0.88188361952E+03 -0.16881221077E+04  0.19063483714E+04  0.10100000352E+00 0.  1.
       -3    1    3    3    0  502 -0.81787128437E+02  0.88188361952E+03  0.23344648076E+03  0.91591763950E+03  0.10100000352E+00 0. -1.
</event>
<event>
 5   0  0.3347728E-05  0.2409622E+04  0.7818609E-02  0.8435910E-01
       -2   -1    0    0    0  501  0.00000000000E+00  0.00000000000E+00  0.91414817650E+03  0.91414817650E+03  0.25500000920E-02 0.  1.
        2   -1    0    0  501    0  0.00000000000E+00  0.00000000000E+00 -0.15878930828E+04  0.15878930828E+04  0.25500000920E-02 0. -1.
    10030    2    1    2    0    0  0.00000000000E+00  0.00000000000E+00 -0.67374490633E+03  0.25020412593E+04  0.24096220170E+04 0.  0.
        3    1    3    3  502    0 -0.75325523976E+03  0.81833894408E+03  0.14402960270E+03  0.11215242397E+04  0.10100000352E+00 0.  1.
       -3    1    3    3    0  502  0.75325523976E+03 -0.81833894408E+03 -0.81777450903E+03  0.13805170196E+04  0.10100000352E+00 0. -1.
</event>
<event>
 5   0  0.3345974E-05  0.2380641E+04  0.7818609E-02  0.8446787E-01
       -2   -1    0    0    0  501  0.00000000000E+00  0.00000000000E+00  0.58182764304E+03  0.58182764305E+03  0.25500000920E-02 0. -1.
        2   -1    0    0  501    0  0.00000000000E+00  0.00000000000E+00 -0.24351941331E+04  0.24351941331E+04  0.25500000920E-02 0.  1.
    10030    2    1    2    0    0  0.00000000000E+00  0.00000000000E+00 -0.18533664901E+04  0.30170217762E+04  0.23806413109E+04 0.  0.
        4    1    3    3  502    0  0.36069044711E+03 -0.92948429857E+03 -0.17507526220E+04  0.20147394413E+04  0.12699999809E+01 0.  1.
       -4    1    3    3    0  502 -0.36069044711E+03  0.92948429857E+03 -0.10261386803E+03  0.10022823348E+04  0.12699999809E+01 0. -1.
</event>
<event>
 5   0  0.3347728E-05  0.2136344E+04  0.7818609E-02  0.8545400E-01
        2   -1    0    0  501    0  0.00000000000E+00  0.00000000000E+00  0.25238645043E+04  0.25238645043E+04  0.25500000920E-02 0. -1.
       -2   -1    0    0    0  501  0.00000000000E+00  0.00000000000E+00 -0.45208123735E+03  0.45208123735E+03  0.25500000920E-02 0.  1.
    10030    2    1    2    0    0  0.00000000000E+00  0.00000000000E+00  0.20717832670E+04  0.29759457417E+04  0.21363443430E+04 0.  0.
        3    1    3    3  502    0 -0.61092494150E+03  0.74299989528E+03  0.16828741826E+04  0.19383868688E+04  0.10100000352E+00 0. -1.
       -3    1    3    3    0  502  0.61092494150E+03 -0.74299989528E+03  0.38890908437E+03  0.10375588729E+04  0.10100000352E+00 0.  1.
</event>
<event>
 5   0  0.3215208E-05  0.2385872E+04  0.7818609E-02  0.8444812E-01
       -2   -1    0    0    0  501  0.00000000000E+00  0.00000000000E+00  0.10108045371E+04  0.10108045371E+04  0.25500000920E-02 0.  1.
        2   -1    0    0  501    0  0.00000000000E+00  0.00000000000E+00 -0.14078845623E+04  0.14078845623E+04  0.25500000920E-02 0. -1.
    10030    2    1    2    0    0  0.00000000000E+00  0.00000000000E+00 -0.39708002519E+03  0.24186890995E+04  0.23858718351E+04 0.  0.
        1    1    3    3  502    0 -0.32501447117E+03  0.11080339878E+04  0.10511700803E+03  0.11594926951E+04  0.50400001928E-02 0. -1.
       -1    1    3    3    0  502  0.32501447117E+03 -0.11080339878E+04 -0.50219703322E+03  0.12591964044E+04  0.50400001928E-02 0.  1.
</event>
<event>
 5   0  0.3347728E-05  0.2337654E+04  0.7818609E-02  0.8463221E-01
       -2   -1    0    0    0  501  0.00000000000E+00  0.00000000000E+00  0.10930672034E+04  0.10930672034E+04  0.25500000920E-02 0.  1.
        2   -1    0    0  501    0  0.00000000000E+00  0.00000000000E+00 -0.12498377433E+04  0.12498377433E+04  0.25500000920E-02 0. -1.
    10030    2    1    2    0    0  0.00000000000E+00  0.00000000000E+00 -0.15677053983E+03  0.23429049467E+04  0.23376540777E+04 0.  0.
        3    1    3    3  502    0 -0.12149596634E+03  0.58194184633E+03 -0.10869951148E+04  0.12389414725E+04  0.10100000352E+00 0. -1.
       -3    1    3    3    0  502  0.12149596634E+03 -0.58194184633E+03  0.93022457500E+03  0.11039634742E+04  0.10100000352E+00 0.  1.
</event>
<event>
 5   0  0.3320780E-05  0.2462491E+04  0.7818609E-02  0.8416472E-01
       -2   -1    0    0    0  501  0.00000000000E+00  0.00000000000E+00  0.65591772215E+03  0.65591772215E+03  0.25500000920E-02 0. -1.
        2   -1    0    0  501    0  0.00000000000E+00  0.00000000000E+00 -0.23112123582E+04  0.23112123582E+04  0.25500000920E-02 0.  1.
    10030    2    1    2    0    0  0.00000000000E+00  0.00000000000E+00 -0.16552946360E+04  0.29671300803E+04  0.24624907272E+04 0.  0.
        5    1    3    3  502    0 -0.79547482932E+02  0.18677002569E+03  0.63560279283E+03  0.66725096088E+03  0.46999998093E+01 0. -1.
       -5    1    3    3    0  502  0.79547482932E+02 -0.18677002569E+03 -0.22908974289E+04  0.22998791195E+04  0.46999998093E+01 0.  1.
</event>
<event>
 5   0  0.1506985E-05  0.2421251E+04  0.7818609E-02  0.8431590E-01
       -1   -1    0    0    0  501  0.00000000000E+00  0.00000000000E+00  0.13739850815E+04  0.13739850815E+04  0.50400001928E-02 0.  1.
        1   -1    0    0  501    0  0.00000000000E+00  0.00000000000E+00 -0.10666888780E+04  0.10666888780E+04  0.50400001928E-02 0. -1.
    10030    2    1    2    0    0  0.00000000000E+00  0.00000000000E+00  0.30729620344E+03  0.24406739595E+04  0.24212514161E+04 0.  0.
        3    1    3    3  502    0 -0.44446527001E+03  0.35720490523E+03  0.12301425358E+04  0.13558744002E+04  0.10100000352E+00 0.  1.
       -3    1    3    3    0  502  0.44446527001E+03 -0.35720490523E+03 -0.92284633233E+03  0.10847995593E+04  0.10100000352E+00 0. -1.
</event>
<event>
 5   0  0.1407158E-05  0.2446222E+04  0.7818609E-02  0.8422399E-01
       -1   -1    0    0    0  501  0.00000000000E+00  0.00000000000E+00  0.11908498998E+04  0.11908498998E+04  0.50400001928E-02 0. -1.
        1   -1    0    0  501    0  0.00000000000E+00  0.00000000000E+00 -0.12562461683E+04  0.12562461683E+04  0.50400001928E-02 0.  1.
    10030    2    1    2    0    0  0.00000000000E+00  0.00000000000E+00 -0.65396268457E+02  0.24470960681E+04  0.24462220861E+04 0.  0.
        1    1    3    3  502    0 -0.10241888252E+04  0.66530440176E+03 -0.99114075152E+02  0.12253229357E+04  0.50400001928E-02 0. -1.
       -1    1    3    3    0  502  0.10241888252E+04 -0.66530440176E+03  0.33717806695E+02  0.12217731325E+04  0.50400001928E-02 0.  1.
</event>
<event>
 5   0  0.1506985E-05  0.2393225E+04  0.7818609E-02  0.8442044E-01
        1   -1    0    0  501    0  0.00000000000E+00  0.00000000000E+00  0.54143990707E+03  0.54143990709E+03  0.50400001928E-02 0.  1.
       -1   -1    0    0    0  501  0.00000000000E+00  0.00000000000E+00 -0.26445799821E+04  0.26445799821E+04  0.50400001928E-02 0. -1.
    10030    2    1    2    0    0  0.00000000000E+00  0.00000000000E+00 -0.21031400750E+04  0.31860198892E+04  0.23932247197E+04 0.  0.
        3    1    3    3  502    0 -0.81279015827E+03 -0.87820752973E+03 -0.10544936548E+04  0.15949398688E+04  0.10100000352E+00 0.  1.
       -3    1    3    3    0  502  0.81279015827E+03  0.87820752973E+03 -0.10486464202E+04  0.15910800204E+04  0.10100000352E+00 0. -1.
</event>
<event>
 5   0  0.1407158E-05  0.2348406E+04  0.7818609E-02  0.8459076E-01
       -1   -1    0    0    0  501  0.00000000000E+00  0.00000000000E+00  0.79719433824E+03  0.79719433825E+03  0.50400001928E-02 0. -1.
        1   -1    0    0  501    0  0.00000000000E+00  0.00000000000E+00 -0.17295068504E+04  0.17295068504E+04  0.50400001928E-02 0.  1.
    10030    2    1    2    0    0  0.00000000000E+00  0.00000000000E+00 -0.93231251213E+03  0.25267011886E+04  0.23484063269E+04 0.  0.
        1    1    3    3  502    0  0.81174383536E+03 -0.34256665565E+03  0.36896487682E+03  0.95520419187E+03  0.50400001928E-02 0. -1.
       -1    1    3    3    0  502 -0.81174383536E+03  0.34256665565E+03 -0.13012773889E+04  0.15714969968E+04  0.50400001928E-02 0.  1.
</event>
<event>
 5   0  0.1393026E-05  0.2361848E+04  0.7818609E-02  0.8453927E-01
       -1   -1    0    0    0  501  0.00000000000E+00  0.00000000000E+00  0.10415887243E+04  0.10415887243E+04  0.50400001928E-02 0. -1.
        1   -1    0    0  501    0  0.00000000000E+00  0.00000000000E+00 -0.13388983994E+04  0.13388983994E+04  0.50400001928E-02 0.  1.
    10030    2    1    2    0    0  0.00000000000E+00  0.00000000000E+00 -0.29730967509E+03  0.23804871237E+04  0.23618479848E+04 0.  0.
        4    1    3    3  502    0  0.19035014921E+03 -0.84066303077E+02 -0.13202740791E+04  0.13365723248E+04  0.12699999809E+01 0.  1.
       -4    1    3    3    0  502 -0.19035014921E+03  0.84066303077E+02  0.10229644040E+04  0.10439147989E+04  0.12699999809E+01 0. -1.
</event>
<event>
 5   0  0.3345974E-05  0.2612399E+04  0.7818609E-02  0.8364002E-01
       -2   -1    0    0    0  501  0.00000000000E+00  0.00000000000E+00  0.15719477601E+04  0.15719477601E+04  0.25500000920E-02 0. -1.
        2   -1    0    0  501    0  0.00000000000E+00  0.00000000000E+00 -0.10853777986E+04  0.10853777986E+04  0.25500000920E-02 0.  1.
    10030    2    1    2    0    0  0.00000000000E+00  0.00000000000E+00  0.48656996147E+03  0.26573255587E+04  0.26123990503E+04 0.  0.
        4    1    3    3  502    0  0.83854037236E+03 -0.40050609945E+03 -0.69043381749E+03  0.11576940706E+04  0.12699999809E+01 0.  1.
       -4    1    3    3    0  502 -0.83854037236E+03  0.40050609945E+03  0.11770037790E+04  0.14996314882E+04  0.12699999809E+01 0. -1.
</event>
<event>
 5   0  0.3320780E-05  0.2325736E+04  0.7818609E-02  0.8467842E-01
       -2   -1    0    0    0  501  0.00000000000E+00  0.00000000000E+00  0.95219921170E+03  0.95219921171E+03  0.25500000920E-02 0.  1.
        2   -1    0    0  501    0  0.00000000000E+00  0.00000000000E+00 -0.14201465248E+04  0.14201465248E+04  0.25500000920E-02 0. -1.
    10030    2    1    2    0    0  0.00000000000E+00  0.00000000000E+00 -0.46794731308E+03  0.23723457365E+04  0.23257363577E+04 0.  0.
        5    1    3    3  502    0  0.50858070492E+03  0.36917299821E+03  0.76405017306E+03  0.98931177744E+03  0.46999998093E+01 0.  1.
       -5    1    3    3    0  502 -0.50858070492E+03 -0.36917299821E+03 -0.12319974861E+04  0.13830339590E+04  0.46999998093E+01 0. -1.
</event>
<event>
 5   0  0.1407158E-05  0.2351935E+04  0.7818609E-02  0.8457721E-01
       -1   -1    0    0    0  501  0.00000000000E+00  0.00000000000E+00  0.14800762550E+04  0.14800762550E+04  0.50400001928E-02 0.  1.
        1   -1    0    0  501    0  0.00000000000E+00  0.00000000000E+00 -0.93434309372E+03  0.93434309373E+03  0.50400001928E-02 0. -1.
    10030    2    1    2    0    0  0.00000000000E+00  0.00000000000E+00  0.54573316129E+03  0.24144193488E+04  0.23519345459E+04 0.  0.
        1    1    3    3  502    0 -0.77222326491E+03 -0.21183663811E+02  0.11830571074E+04  0.14129407765E+04  0.50400001928E-02 0.  1.
       -1    1    3    3    0  502  0.77222326491E+03  0.21183663811E+02 -0.63732394608E+03  0.10014785723E+04  0.50400001928E-02 0. -1.
</event>
<event>
 5   0  0.3347728E-05  0.2391703E+04  0.7818609E-02  0.8442616E-01
        2   -1    0    0  501    0  0.00000000000E+00  0.00000000000E+00  0.11731171453E+04  0.11731171453E+04  0.25500000920E-02 0. -1.
       -2   -1    0    0    0  501  0.00000000000E+00  0.00000000000E+00 -0.12190267136E+04  0.12190267136E+04  0.25500000920E-02 0.  1.
    10030    2    1    2    0    0  0.00000000000E+00  0.00000000000E+00 -0.45909568248E+02  0.23921438589E+04  0.23917032745E+04 0.  0.
        3    1    3    3  502    0 -0.84358745110E+03 -0.34283574633E+03  0.75235573063E+03  0.11811923181E+04  0.10100000352E+00 0. -1.
       -3    1    3    3    0  502  0.84358745110E+03  0.34283574633E+03 -0.79826529888E+03  0.12109515408E+04  0.10100000352E+00 0.  1.
</event>
<event>
 5   0  0.3215208E-05  0.2405591E+04  0.7818609E-02  0.8437413E-01
        2   -1    0    0  501    0  0.00000000000E+00  0.00000000000E+00  0.25760709892E+04  0.25760709892E+04  0.25500000920E-02 0. -1.
       -2   -1    0    0    0  501  0.00000000000E+00  0.00000000000E+00 -0.56159847609E+03  0.56159847609E+03  0.25500000920E-02 0.  1.
    10030    2    1    2    0    0  0.00000000000E+00  0.00000000000E+00  0.20144725131E+04  0.31376694653E+04  0.24055914382E+04 0.  0.
        1    1    3    3  502    0  0.11715582404E+04 -0.67743306959E+02  0.66318232759E+03  0.13479423823E+04  0.50400001928E-02 0.  1.
       -1    1    3    3    0  502 -0.11715582404E+04  0.67743306959E+02  0.13512901855E+04  0.17897270830E+04  0.50400001928E-02 0. -1.
</event>
<event>
 5   0  0.3310037E-05  0.2416022E+04  0.7818609E-02  0.8433529E-01
       -2   -1    0    0    0  501  0.00000000000E+00  0.00000000000E+00  0.93631313417E+03  0.93631313417E+03  0.25500000920E-02 0.  1.
        2   -1    0    0  501    0  0.00000000000E+00  0.00000000000E+00 -0.15585495847E+04  0.15585495847E+04  0.25500000920E-02 0. -1.
    10030    2    1    2    0    0  0.00000000000E+00  0.00000000000E+00 -0.62223645055E+03  0.24948627189E+04  0.24160218926E+04 0.  0.
        2    1    3    3  502    0  0.10439955805E+04 -0.25092515058E+03 -0.88271575183E+03  0.13899918352E+04  0.25500000920E-02 0.  1.
       -2    1    3    3    0  502 -0.10439955805E+04  0.25092515058E+03  0.26047930128E+03  0.11048708837E+04  0.25500000920E-02 0. -1.
</event>
<event>
 5   0  0.1401596E-05  0.2407321E+04  0.7818609E-02  0.8436768E-01
       -1   -1    0    0    0  501  0.00000000000E+00  0.00000000000E+00  0.12029799953E+04  0.12029799953E+04  0.50400001928E-02 0.  1.
        1   -1    0    0  501    0  0.00000000000E+00  0.00000000000E+00 -0.12043409824E+04  0.12043409824E+04  0.50400001928E-02 0. -1.
    10030    2    1    2    0    0  0.00000000000E+00  0.00000000000E+00 -0.13609871502E+01  0.24073209777E+04  0.24073205930E+04 0.  0.
        2    1    3    3  502    0 -0.33246996881E+03 -0.30082690012E+03  0.11163537065E+04  0.12030289697E+04  0.25500000920E-02 0.  1.
       -2    1    3    3    0  502  0.33246996881E+03  0.30082690012E+03 -0.11177146937E+04  0.12042920080E+04  0.25500000920E-02 0. -1.
</event>
<event>
 5   0  0.1393026E-05  0.2384433E+04  0.7818609E-02  0.8445355E-01
        1   -1    0    0  501    0  0.00000000000E+00  0.00000000000E+00  0.19319970472E+04  0.19319970472E+04  0.50400001928E-02 0. -1.
       -1   -1    0    0    0  501  0.00000000000E+00  0.00000000000E+00 -0.73570503735E+03  0.73570503737E+03  0.50400001928E-02 0.  1.
    10030    2    1    2    0    0  0.00000000000E+00  0.00000000000E+00  0.11962920098E+04  0.26677020845E+04  0.23844328129E+04 0.  0.
        4    1    3    3  502    0 -0.78995794224E+03 -0.37482816897E+02  0.15962880704E+04  0.17814532631E+04  0.12699999809E+01 0. -1.
       -4    1    3    3    0  502  0.78995794224E+03  0.37482816897E+02 -0.39999606059E+03  0.88624882142E+03  0.12699999809E+01 0.  1.
</event>
<event>
 5   0  0.3320780E-05  0.2457643E+04  0.7818609E-02  0.8418233E-01
        2   -1    0    0  501    0  0.00000000000E+00  0.00000000000E+00  0.15703009581E+04  0.15703009581E+04  0.25500000920E-02 0. -1.
       -2   -1    0    0    0  501  0.00000000000E+00  0.00000000000E+00 -0.96160028288E+03  0.96160028288E+03  0.25500000920E-02 0.  1.
    10030    2    1    2    0    0  0.00000000000E+00  0.00000000000E+00  0.60870067521E+03  0.25319012410E+04  0.24576426474E+04 0.  0.
        5    1    3    3  502    0  0.26418923050E+03 -0.11878965035E+04  0.48004873867E+03  0.13081907101E+04  0.46999998093E+01 0. -1.
       -5    1    3    3    0  502 -0.26418923050E+03  0.11878965035E+04  0.12865193655E+03  0.12237105309E+04  0.46999998093E+01 0.  1.
</event>
<event>
 5   0  0.1147362E-05  0.2403734E+04  0.7818609E-02  0.8438107E-01
        4   -1    0    0  501    0  0.00000000000E+00  0.00000000000E+00  0.16054837777E+04  0.16054842800E+04  0.12699999809E+01 0. -1.
       -4   -1    0    0    0  501  0.00000000000E+00  0.00000000000E+00 -0.89971803576E+03  0.89971893210E+03  0.12699999809E+01 0.  1.
    10030    2    1    2    0    0  0.00000000000E+00  0.00000000000E+00  0.70576574196E+03  0.25052032121E+04  0.24037341474E+04 0.  0.
        1    1    3    3  502    0 -0.95097105404E+03 -0.27368159641E+03 -0.35799272258E+03  0.10523337642E+04  0.50400001928E-02 0.  1.
       -1    1    3    3    0  502  0.95097105404E+03  0.27368159641E+03  0.10637584645E+04  0.14528694479E+04  0.50400001928E-02 0. -1.
</event>
<event>
 5   0  0.1434943E-05  0.2402788E+04  0.7818609E-02  0.8438461E-01
        1   -1    0    0  501    0  0.00000000000E+00  0.00000000000E+00  0.17269960440E+04  0.17269960440E+04  0.50400001928E-02 0. -1.
       -1   -1    0    0    0  501  0.00000000000E+00  0.00000000000E+00 -0.83575590872E+03  0.83575590873E+03  0.50400001928E-02 0.  1.
    10030    2    1    2    0    0  0.00000000000E+00  0.00000000000E+00  0.89124013525E+03  0.25627519527E+04  0.24027876711E+04 0.  0.
        5    1    3    3  502    0 -0.57401541869E+03 -0.46792797807E+03  0.14545762569E+04  0.16322574769E+04  0.46999998093E+01 0. -1.
       -5    1    3    3    0  502  0.57401541869E+03  0.46792797807E+03 -0.56333612169E+03  0.93049447584E+03  0.46999998093E+01 0.  1.
</event>
<event>
 5   0  0.1393026E-05  0.2372210E+04  0.7818609E-02  0.8449982E-01
        1   -1    0    0  501    0  0.00000000000E+00  0.00000000000E+00  0.10701484456E+04  0.10701484456E+04  0.50400001928E-02 0. -1.
       -1   -1    0    0    0  501  0.00000000000E+00  0.00000000000E+00 -0.13146257153E+04  0.13146257153E+04  0.50400001928E-02 0.  1.
    10030    2    1    2    0    0  0.00000000000E+00  0.00000000000E+00 -0.24447726973E+03  0.23847741609E+04  0.23722096584E+04 0.  0.
        4    1    3    3  502    0  0.24598448937E+03 -0.40132285551E+03 -0.12167081908E+04  0.13045876122E+04  0.12699999809E+01 0.  1.
       -4    1    3    3    0  502 -0.24598448937E+03  0.40132285551E+03  0.97223092107E+03  0.10801865488E+04  0.12699999809E+01 0. -1.
</event>
<event>
 5   0  0.1506985E-05  0.2404966E+04  0.7818609E-02  0.8437647E-01
       -1   -1    0    0    0  501  0.00000000000E+00  0.00000000000E+00  0.89528297840E+03  0.89528297841E+03  0.50400001928E-02 0. -1.
        1   -1    0    0  501    0  0.00000000000E+00  0.00000000000E+00 -0.16150937285E+04  0.16150937285E+04  0.50400001928E-02 0.  1.
    10030    2    1    2    0    0  0.00000000000E+00  0.00000000000E+00 -0.71981075005E+03  0.25103767069E+04  0.24049664643E+04 0.  0.
        3    1    3    3  502    0  0.37941847805E+03  0.97796820998E+03  0.25372628844E+03  0.10792391954E+04  0.10100000352E+00 0. -1.
       -3    1    3    3    0  502 -0.37941847805E+03 -0.97796820998E+03 -0.97353703850E+03  0.14311375115E+04  0.10100000352E+00 0.  1.
</event>
<event>
 5   0  0.1434943E-05  0.2406628E+04  0.7818609E-02  0.8437026E-01
        1   -1    0    0  501    0  0.00000000000E+00  0.00000000000E+00  0.10648299794E+04  0.10648299794E+04  0.50400001928E-02 0. -1.
       -1   -1    0    0    0  501  0.00000000000E+00  0.00000000000E+00 -0.13598078909E+04  0.13598078909E+04  0.50400001928E-02 0.  1.
    10030    2    1    2    0    0  0.00000000000E+00  0.00000000000E+00 -0.29497791143E+03  0.24246378703E+04  0.24066276891E+04 0.  0.
        5    1    3    3  502    0 -0.94472913287E+03 -0.35920636155E+03  0.51039070205E+03  0.11322822543E+04  0.46999998093E+01 0. -1.
       -5    1    3    3    0  502  0.94472913287E+03  0.35920636155E+03 -0.80536861347E+03  0.12923556160E+04  0.46999998093E+01 0.  1.
</event>
<event>
 5   0  0.1407158E-05  0.2407627E+04  0.7818609E-02  0.8436653E-01
        1   -1    0    0  501    0  0.00000000000E+00  0.00000000000E+00  0.24075028602E+04  0.24075028602E+04  0.50400001928E-02 0. -1.
       -1   -1    0    0    0  501  0.00000000000E+00  0.00000000000E+00 -0.60193801813E+03  0.60193801815E+03  0.50400001928E-02 0.  1.
    10030    2    1    2    0    0  0.00000000000E+00  0.00000000000E+00  0.18055648420E+04  0.30094408783E+04  0.24076274631E+04 0.  0.
        1    1    3    3  502    0 -0.38068080029E+03 -0.60726125851E+03 -0.30618491792E+03  0.77938008172E+03  0.50400001928E-02 0.  1.
       -1    1    3    3    0  502  0.38068080029E+03  0.60726125851E+03  0.21117497600E+04  0.22300607966E+04  0.50400001928E-02 0. -1.
</event>
<event>
 5   0  0.1147362E-05  0.2201616E+04  0.7818609E-02  0.8517756E-01
       -3   -1    0    0    0  501  0.00000000000E+00  0.00000000000E+00  0.13263393828E+04  0.13263393867E+04  0.10100000352E+00 0.  1.
        3   -1    0    0  501    0  0.00000000000E+00  0.00000000000E+00 -0.91362606678E+03  0.91362607236E+03  0.10100000352E+00 0. -1.
    10030    2    1    2    0    0  0.00000000000E+00  0.00000000000E+00  0.41271331606E+03  0.22399654590E+04  0.22016159921E+04 0.  0.
        5    1    3    3  502    0 -0.92083513596E+03  0.86337414657E+02  0.81371788435E+03  0.12318889488E+04  0.46999998093E+01 0. -1.
       -5    1    3    3    0  502  0.92083513596E+03 -0.86337414657E+02 -0.40100456829E+03  0.10080765103E+04  0.46999998093E+01 0.  1.
</event>
<event>
 5   0  0.3215208E-05  0.2346617E+04  0.7818609E-02  0.8459764E-01
        2   -1    0    0  501    0  0.00000000000E+00  0.00000000000E+00  0.94139340282E+03  0.94139340283E+03  0.25500000920E-02 0.  1.
       -2   -1    0    0    0  501  0.00000000000E+00  0.00000000000E+00 -0.14623568254E+04  0.14623568254E+04  0.25500000920E-02 0. -1.
    10030    2    1    2    0    0  0.00000000000E+00  0.00000000000E+00 -0.52096342257E+03  0.24037502282E+04  0.23466171976E+04 0.  0.
        1    1    3    3  502    0  0.91050932371E+03  0.33790592518E+03 -0.93487664813E+03  0.13480363460E+04  0.50400001928E-02 0. -1.
       -1    1    3    3    0  502 -0.91050932371E+03 -0.33790592518E+03  0.41391322556E+03  0.10557138822E+04  0.50400001928E-02 0.  1.
</event>
<event>
 5   0  0.1407158E-05  0.2402028E+04  0.7818609E-02  0.8438745E-01
        1   -1    0    0  501    0  0.00000000000E+00  0.00000000000E+00  0.21178212396E+04  0.21178212396E+04  0.50400001928E-02 0.  1.
       -1   -1    0    0    0  501  0.00000000000E+00  0.00000000000E+00 -0.68109377200E+03  0.68109377202E+03  0.50400001928E-02 0. -1.
    10030    2    1    2    0    0  0.00000000000E+00  0.00000000000E+00  0.14367274676E+04  0.27989150116E+04  0.24020281901E+04 0.  0.
        1    1    3    3  502    0 -0.44954248965E+03  0.33577398392E+03 -0.51897775717E+03  0.76431049367E+03  0.50400001928E-02 0. -1.
       -1    1    3    3    0  502  0.44954248965E+03 -0.33577398392E+03  0.19557052247E+04  0.20346045179E+04  0.50400001928E-02 0.  1.
</event>
<event>
 5   0  0.3345974E-05  0.2407293E+04  0.7818609E-02  0.8436778E-01
        2   -1    0    0  501    0  0.00000000000E+00  0.00000000000E+00  0.15369723229E+04  0.15369723229E+04  0.25500000920E-02 0.  1.
       -2   -1    0    0    0  501  0.00000000000E+00  0.00000000000E+00 -0.94260955745E+03  0.94260955745E+03  0.25500000920E-02 0. -1.
    10030    2    1    2    0    0  0.00000000000E+00  0.00000000000E+00  0.59436276546E+03  0.24795818804E+04  0.24072929204E+04 0.  0.
        4    1    3    3  502    0 -0.50187261426E+02  0.11973040113E+04  0.18106857841E+03  0.12119583737E+04  0.12699999809E+01 0. -1.
       -4    1    3    3    0  502  0.50187261426E+02 -0.11973040113E+04  0.41329418706E+03  0.12676235066E+04  0.12699999809E+01 0.  1.
</event>
<event>
 5   0  0.3320780E-05  0.2370655E+04  0.7818609E-02  0.8450572E-01
        2   -1    0    0  501    0  0.00000000000E+00  0.00000000000E+00  0.13335089355E+04  0.13335089355E+04  0.25500000920E-02 0. -1.
       -2   -1    0    0    0  501  0.00000000000E+00  0.00000000000E+00 -0.10536123593E+04  0.10536123594E+04  0.25500000920E-02 0.  1.
    10030    2    1    2    0    0  0.00000000000E+00  0.00000000000E+00  0.27989657613E+03  0.23871212948E+04  0.23706551801E+04 0.  0.
        5    1    3    3  502    0 -0.11751770742E+04  0.40244859987E+02 -0.10483488433E+02  0.11759221054E+04  0.46999998093E+01 0. -1.
       -5    1    3    3    0  502  0.11751770742E+04 -0.40244859987E+02  0.29038006456E+03  0.12111991894E+04  0.46999998093E+01 0.  1.
</event>
<event>
 5   0  0.1401596E-05  0.2412327E+04  0.7818609E-02  0.8434903E-01
        1   -1    0    0  501    0  0.00000000000E+00  0.00000000000E+00  0.22100692278E+04  0.22100692278E+04  0.50400001928E-02 0.  1.
       -1   -1    0    0    0  501  0.00000000000E+00  0.00000000000E+00 -0.65827370148E+03  0.65827370150E+03  0.50400001928E-02 0. -1.
    10030    2    1    2    0    0  0.00000000000E+00  0.00000000000E+00  0.15517955263E+04  0.28683429293E+04  0.24123270517E+04 0.  0.
        2    1    3    3  502    0 -0.40913360702E+03  0.11343331083E+04  0.80799164087E+03  0.14515344987E+04  0.25500000920E-02 0.  1.
       -2    1    3    3    0  502  0.40913360702E+03 -0.11343331083E+04  0.74380388542E+03  0.14168084306E+04  0.25500000920E-02 0. -1.
</event>
<event>
 5   0  0.1407158E-05  0.2398609E+04  0.7818609E-02  0.8440024E-01
       -1   -1    0    0    0  501  0.00000000000E+00  0.00000000000E+00  0.15571246155E+04  0.15571246155E+04  0.50400001928E-02 0. -1.
        1   -1    0    0  501    0  0.00000000000E+00  0.00000000000E+00 -0.92370991111E+03  0.92370991112E+03  0.50400001928E-02 0.  1.
    10030    2    1    2    0    0  0.00000000000E+00  0.00000000000E+00  0.63341470435E+03  0.24808345266E+04  0.23986091304E+04 0.  0.
        1    1    3    3  502    0 -0.53288463338E+03 -0.10710226928E+04  0.22848499374E+03  0.12178920451E+04  0.50400001928E-02 0. -1.
       -1    1    3    3    0  502  0.53288463338E+03  0.10710226928E+04  0.40492971060E+03  0.12629424815E+04  0.50400001928E-02 0.  1.
</event>
<event>
 5   0  0.3310037E-05  0.2198062E+04  0.7818609E-02  0.8519235E-01
        2   -1    0    0  501    0  0.00000000000E+00  0.00000000000E+00  0.19209705068E+04  0.19209705068E+04  0.25500000920E-02 0.  1.
       -2   -1    0    0    0  501  0.00000000000E+00  0.00000000000E+00 -0.62878062670E+03  0.62878062670E+03  0.25500000920E-02 0. -1.
    10030    2    1    2    0    0  0.00000000000E+00  0.00000000000E+00  0.12921898801E+04  0.25497511335E+04  0.21980619092E+04 0.  0.
        2    1    3    3  502    0 -0.94124657028E+03 -0.30301249286E+03  0.12025410751E+04  0.15568772316E+04  0.25500000920E-02 0. -1.
       -2    1    3    3    0  502  0.94124657028E+03  0.30301249286E+03  0.89648805021E+02  0.99287390194E+03  0.25500000920E-02 0.  1.
</event>
<event>
 5   0  0.1506985E-05  0.2380925E+04  0.7818609E-02  0.8446680E-01
       -1   -1    0    0    0  501  0.00000000000E+00  0.00000000000E+00  0.93645012124E+03  0.93645012126E+03  0.50400001928E-02 0.  1.
        1   -1    0    0  501    0  0.00000000000E+00  0.00000000000E+00 -0.15133761222E+04  0.15133761222E+04  0.50400001928E-02 0. -1.
    10030    2    1    2    0    0  0.00000000000E+00  0.00000000000E+00 -0.57692600097E+03  0.24498262435E+04  0.23809252430E+04 0.  0.
        3    1    3    3  502    0 -0.10399978514E+04  0.21308775552E+03  0.26582786123E+03  0.10943794518E+04  0.10100000352E+00 0.  1.
       -3    1    3    3    0  502  0.10399978514E+04 -0.21308775552E+03 -0.84275386220E+03  0.13554467917E+04  0.10100000352E+00 0. -1.
</event>
<event>
 5   0  0.1506985E-05  0.2406657E+04  0.7818609E-02  0.8437015E-01
        1   -1    0    0  501    0  0.00000000000E+00  0.00000000000E+00  0.16647129732E+04  0.16647129732E+04  0.50400001928E-02 0.  1.
       -1   -1    0    0    0  501  0.00000000000E+00  0.00000000000E+00 -0.86981962416E+03  0.86981962417E+03  0.50400001928E-02 0. -1.
    10030    2    1    2    0    0  0.00000000000E+00  0.00000000000E+00  0.79489334901E+03  0.25345325973E+04  0.24066574436E+04 0.  0.
        3    1    3    3  502    0  0.10204568930E+04  0.63693947157E+03  0.36454838860E+03  0.12569485664E+04  0.10100000352E+00 0. -1.
       -3    1    3    3    0  502 -0.10204568930E+04 -0.63693947157E+03  0.43034496041E+03  0.12775840309E+04  0.10100000352E+00 0.  1.
</event>
<event>
 5   0  0.3310037E-05  0.2109016E+04  0.7818609E-02  0.8557282E-01
       -2   -1    0    0    0  501  0.00000000000E+00  0.00000000000E+00  0.63229589978E+03  0.63229589979E+03  0.25500000920E-02 0. -1.
        2   -1    0    0  501    0  0.00000000000E+00  0.00000000000E+00 -0.17586497430E+04  0.17586497430E+04  0.25500000920E-02 0.  1.
    10030    2    1    2    0    0  0.00000000000E+00  0.00000000000E+00 -0.11263538432E+04  0.23909456428E+04  0.21090159048E+04 0.  0.
        2    1    3    3  502    0 -0.21510843475E+03 -0.78340772658E+02  0.60378406151E+03  0.64572758056E+03  0.25500000920E-02 0. -1.
       -2    1    3    3    0  502  0.21510843475E+03  0.78340772658E+02 -0.17301379047E+04  0.17452180622E+04  0.25500000920E-02 0.  1.
</event>
<event>
 5   0  0.1434943E-05  0.2407176E+04  0.7818609E-02  0.8436822E-01
       -1   -1    0    0    0  501  0.00000000000E+00  0.00000000000E+00  0.65399846022E+03  0.65399846024E+03  0.50400001928E-02 0.  1.
        1   -1    0    0  501    0  0.00000000000E+00  0.00000000000E+00 -0.22150274302E+04  0.22150274302E+04  0.50400001928E-02 0. -1.
    10030    2    1    2    0    0  0.00000000000E+00  0.00000000000E+00 -0.15610289700E+04  0.28690258905E+04  0.24071763780E+04 0.  0.
        5    1    3    3  502    0  0.20638729074E+03  0.26136309906E+03 -0.21590097467E+04  0.21845483652E+04  0.46999998093E+01 0. -1.
       -5    1    3    3    0  502 -0.20638729074E+03 -0.26136309906E+03  0.59798077671E+03  0.68447752530E+03  0.46999998093E+01 0.  1.
</event>
<event>
 5   0  0.3347728E-05  0.2393300E+04  0.7818609E-02  0.8442016E-01
       -2   -1    0    0    0  501  0.00000000000E+00  0.00000000000E+00  0.13024226597E+04  0.13024226597E+04  0.25500000920E-02 0.  1.
        2   -1    0    0  501    0  0.00000000000E+00  0.00000000000E+00 -0.10994677705E+04  0.10994677705E+04  0.25500000920E-02 0. -1.
    10030    2    1    2    0    0  0.00000000000E+00  0.00000000000E+00  0.20295488919E+03  0.24018904302E+04  0.23933004307E+04 0.  0.
        3    1    3    3  502    0  0.11883767293E+04  0.12793738887E+03  0.15968995465E+03  0.12058640546E+04  0.10100000352E+00 0. -1.
       -3    1    3    3    0  502 -0.11883767293E+04 -0.12793738887E+03  0.43264934531E+02  0.11960263756E+04  0.10100000352E+00 0.  1.
</event>
<event>
 5   0  0.3347728E-05  0.2364271E+04  0.7818609E-02  0.8453003E-01
        2   -1    0    0  501    0  0.00000000000E+00  0.00000000000E+00  0.87119420277E+03  0.87119420277E+03  0.25500000920E-02 0.  1.
       -2   -1    0    0    0  501  0.00000000000E+00  0.00000000000E+00 -0.16040554262E+04  0.16040554262E+04  0.25500000920E-02 0. -1.
    10030    2    1    2    0    0  0.00000000000E+00  0.00000000000E+00 -0.73286122343E+03  0.24752496290E+04  0.23642705329E+04 0.  0.
        3    1    3    3  502    0 -0.11133933808E+04  0.38308821634E+02  0.47516571636E+02  0.11150651196E+04  0.10100000352E+00 0.  1.
       -3    1    3    3    0  502  0.11133933808E+04 -0.38308821634E+02 -0.78037779507E+03  0.13601845093E+04  0.10100000352E+00 0. -1.
</event>
<event>
 5   0  0.3310037E-05  0.2405159E+04  0.7818609E-02  0.8437575E-01
        2   -1    0    0  501    0  0.00000000000E+00  0.00000000000E+00  0.19630988980E+04  0.19630988980E+04  0.25500000920E-02 0. -1.
       -2   -1    0    0    0  501  0.00000000000E+00  0.00000000000E+00 -0.73669129232E+03  0.73669129233E+03  0.25500000920E-02 0.  1.
    10030    2    1    2    0    0  0.00000000000E+00  0.00000000000E+00  0.12264076056E+04  0.26997901903E+04  0.24051593412E+04 0.  0.
        2    1    3    3  502    0  0.58757313227E+03 -0.39793093752E+03  0.17030153633E+04  0.18449532635E+04  0.25500000920E-02 0. -1.
       -2    1    3    3    0  502 -0.58757313227E+03  0.39793093752E+03 -0.47660775765E+03  0.85483692682E+03  0.25500000920E-02 0.  1.
</event>
<event>
 5   0  0.1393026E-05  0.2381869E+04  0.7818609E-02  0.8446323E-01
        1   -1    0    0  501    0  0.00000000000E+00  0.00000000000E+00  0.15759540117E+04  0.15759540117E+04  0.50400001928E-02 0. -1.
       -1   -1    0    0    0  501  0.00000000000E+00  0.00000000000E+00 -0.89997839890E+03  0.89997839891E+03  0.50400001928E-02 0.  1.
    10030    2    1    2    0    0  0.00000000000E+00  0.00000000000E+00  0.67597561276E+03  0.24759324106E+04  0.23818686514E+04 0.  0.
        4    1    3    3  502    0 -0.85635353453E+02  0.88177228230E+03 -0.48935031734E+03  0.10120875049E+04  0.12699999809E+01 0.  1.
       -4    1    3    3    0  502  0.85635353453E+02 -0.88177228230E+03  0.11653259301E+04  0.14638449057E+04  0.12699999809E+01 0. -1.
</event>
<event>
 5   0  0.3215208E-05  0.2396144E+04  0.7818609E-02  0.8440948E-01
        2   -1    0    0  501    0  0.00000000000E+00  0.00000000000E+00  0.11229994672E+04  0.11229994672E+04  0.25500000920E-02 0.  1.
       -2   -1    0    0    0  501  0.00000000000E+00  0.00000000000E+00 -0.12781634157E+04  0.12781634157E+04  0.25500000920E-02 0. -1.
    10030    2    1    2    0    0  0.00000000000E+00  0.00000000000E+00 -0.15516394846E+03  0.24011628828E+04  0.23961442651E+04 0.  0.
        1    1    3    3  502    0  0.26522377846E+03  0.79461591054E+02  0.10905004507E+04  0.11250995645E+04  0.50400001928E-02 0.  1.
       -1    1    3    3    0  502 -0.26522377846E+03 -0.79461591054E+02 -0.12456643991E+04  0.12760633183E+04  0.50400001928E-02 0. -1.
</event>
<event>
 5   0  0.3310037E-05  0.2410897E+04  0.7818609E-02  0.8435435E-01
        2   -1    0    0  501    0  0.00000000000E+00  0.00000000000E+00  0.19896179355E+04  0.19896179355E+04  0.25500000920E-02 0.  1.
       -2   -1    0    0    0  501  0.00000000000E+00  0.00000000000E+00 -0.73034430692E+03  0.73034430693E+03  0.25500000920E-02 0. -1.
    10030    2    1    2    0    0  0.00000000000E+00  0.00000000000E+00  0.12592736286E+04  0.27199622425E+04  0.24108970382E+04 0.  0.
        2    1    3    3  502    0  0.25409879805E+03 -0.42282225577E+02 -0.69893071926E+03  0.74488800239E+03  0.25500000920E-02 0. -1.
       -2    1    3    3    0  502 -0.25409879805E+03  0.42282225577E+02  0.19582043479E+04  0.19750742401E+04  0.25500000920E-02 0.  1.
</event>
<event>
 5   0  0.3215208E-05  0.2420757E+04  0.7818609E-02  0.8431773E-01
       -2   -1    0    0    0  501  0.00000000000E+00  0.00000000000E+00  0.95001182774E+03  0.95001182774E+03  0.25500000920E-02 0.  1.
        2   -1    0    0  501    0  0.00000000000E+00  0.00000000000E+00 -0.15421026171E+04  0.15421026171E+04  0.25500000920E-02 0. -1.
    10030    2    1    2    0    0  0.00000000000E+00  0.00000000000E+00 -0.59209078936E+03  0.24921144448E+04  0.24207566799E+04 0.  0.
        1    1    3    3  502    0  0.94791044633E+02 -0.31504129089E+03  0.90309893742E+03  0.96115766028E+03  0.50400001928E-02 0.  1.
       -1    1    3    3    0  502 -0.94791044633E+02  0.31504129089E+03 -0.14951897268E+04  0.15309567846E+04  0.50400001928E-02 0. -1.
</event>
<event>
 5   0  0.3347728E-05  0.2448397E+04  0.7818609E-02  0.8421603E-01
        2   -1    0    0  501    0  0.00000000000E+00  0.00000000000E+00  0.16306714812E+04  0.16306714812E+04  0.25500000920E-02 0. -1.
       -2   -1    0    0    0  501  0.00000000000E+00  0.00000000000E+00 -0.91904594811E+03  0.91904594811E+03  0.25500000920E-02 0.  1.
    10030    2    1    2    0    0  0.00000000000E+00  0.00000000000E+00  0.71162553313E+03  0.25497174294E+04  0.24483970410E+04 0.  0.
        3    1    3    3  502    0 -0.96396985157E+03  0.38461104219E+03  0.10319085269E+04  0.14635568819E+04  0.10100000352E+00 0. -1.
       -3    1    3    3    0  502  0.96396985157E+03 -0.38461104219E+03 -0.32028299377E+03  0.10861605474E+04  0.10100000352E+00 0.  1.
</event>
<event>
 5   0  0.1401596E-05  0.2435081E+04  0.7818609E-02  0.8426485E-01
        1   -1    0    0  501    0  0.00000000000E+00  0.00000000000E+00  0.69140885302E+03  0.69140885304E+03  0.50400001928E-02 0. -1.
       -1   -1    0    0    0  501  0.00000000000E+00  0.00000000000E+00 -0.21440348394E+04  0.21440348395E+04  0.50400001928E-02 0.  1.
    10030    2    1    2    0    0  0.00000000000E+00  0.00000000000E+00 -0.14526259864E+04  0.28354436925E+04  0.24350808358E+04 0.  0.
        2    1    3    3  502    0 -0.48792309701E+03 -0.11051164906E+04 -0.54951641871E+03  0.13271472039E+04  0.25500000920E-02 0. -1.
       -2    1    3    3    0  502  0.48792309701E+03  0.11051164906E+04 -0.90310956772E+03  0.15082964886E+04  0.25500000920E-02 0.  1.
</event>
<event>
 5   0  0.3215208E-05  0.2091152E+04  0.7818609E-02  0.8565151E-01
        2   -1    0    0  501    0  0.00000000000E+00  0.00000000000E+00  0.17708905785E+04  0.17708905785E+04  0.25500000920E-02 0.  1.
       -2   -1    0    0    0  501  0.00000000000E+00  0.00000000000E+00 -0.61733282780E+03  0.61733282780E+03  0.25500000920E-02 0. -1.
    10030    2    1    2    0    0  0.00000000000E+00  0.00000000000E+00  0.11535577507E+04  0.23882234063E+04  0.20911517291E+04 0.  0.
        1    1    3    3  502    0  0.49141431861E+03  0.65141295046E+03 -0.16985500337E+03  0.83347320699E+03  0.50400001928E-02 0. -1.
       -1    1    3    3    0  502 -0.49141431861E+03 -0.65141295046E+03  0.13234127540E+04  0.15547501993E+04  0.50400001928E-02 0.  1.
</event>
<event>
 5   0  0.3345974E-05  0.2399758E+04  0.7818609E-02  0.8439594E-01
       -2   -1    0    0    0  501  0.00000000000E+00  0.00000000000E+00  0.10971576432E+04  0.10971576432E+04  0.25500000920E-02 0.  1.
        2   -1    0    0  501    0  0.00000000000E+00  0.00000000000E+00 -0.13122177425E+04  0.13122177425E+04  0.25500000920E-02 0. -1.
    10030    2    1    2    0    0  0.00000000000E+00  0.00000000000E+00 -0.21506009926E+03  0.24093753857E+04  0.23997580925E+04 0.  0.
        4    1    3    3  502    0  0.11269862753E+04  0.38858191451E+03 -0.24451048295E+03  0.12169145238E+04  0.12699999809E+01 0.  1.
       -4    1    3    3    0  502 -0.11269862753E+04 -0.38858191451E+03  0.29450383694E+02  0.11924608619E+04  0.12699999809E+01 0. -1.
</event>
<event>
 5   0  0.1407158E-05  0.2364132E+04  0.7818609E-02  0.8453055E-01
        1   -1    0    0  501    0  0.00000000000E+00  0.00000000000E+00  0.23069610564E+04  0.23069610564E+04  0.50400001928E-02 0.  1.
       -1   -1    0    0    0  501  0.00000000000E+00  0.00000000000E+00 -0.60568012917E+03  0.60568012919E+03  0.50400001928E-02 0. -1.
    10030    2    1    2    0    0  0.00000000000E+00  0.00000000000E+00  0.17012809273E+04  0.29126411856E+04  0.23641323742E+04 0.  0.
        1    1    3    3  502    0 -0.89157077414E+03  0.74367127889E+03  0.11242889192E+04  0.16161593332E+04  0.50400001928E-02 0.  1.
       -1    1    3    3    0  502  0.89157077414E+03 -0.74367127889E+03  0.57699200804E+03  0.12964818524E+04  0.50400001928E-02 0. -1.
</event>
<event>
 5   0  0.1401596E-05  0.2403807E+04  0.7818609E-02  0.8438080E-01
       -1   -1    0    0    0  501  0.00000000000E+00  0.00000000000E+00  0.10496866845E+04  0.10496866845E+04  0.50400001928E-02 0.  1.
        1   -1    0    0  501    0  0.00000000000E+00  0.00000000000E+00 -0.13761933289E+04  0.13761933290E+04  0.50400001928E-02 0. -1.
    10030    2    1    2    0    0  0.00000000000E+00  0.00000000000E+00 -0.32650664448E+03  0.24258800134E+04  0.24038068247E+04 0.  0.
        2    1    3    3  502    0 -0.11525512302E+04 -0.13963604758E+03  0.15056717216E+03  0.11707019422E+04  0.25500000920E-02 0.  1.
       -2    1    3    3    0  502  0.11525512302E+04  0.13963604758E+03 -0.47707381664E+03  0.12551780713E+04  0.25500000920E-02 0. -1.
</event>
<event>
 5   0  0.1434943E-05  0.2435749E+04  0.7818609E-02  0.8426240E-01
        1   -1    0    0  501    0  0.00000000000E+00  0.00000000000E+00  0.14733527271E+04  0.14733527271E+04  0.50400001928E-02 0.  1.
       -1   -1    0    0    0  501  0.00000000000E+00  0.00000000000E+00 -0.10066956881E+04  0.10066956881E+04  0.50400001928E-02 0. -1.
    10030    2    1    2    0    0  0.00000000000E+00  0.00000000000E+00  0.46665703903E+03  0.24800484152E+04  0.24357486220E+04 0.  0.
        5    1    3    3  502    0  0.60555268108E+03  0.34408511823E+03  0.12505517565E+04  0.14314294967E+04  0.46999998093E+01 0.  1.
       -5    1    3    3    0  502 -0.60555268108E+03 -0.34408511823E+03 -0.78389471752E+03  0.10486189185E+04  0.46999998093E+01 0. -1.
</event>
<event>
 5   0  0.1147362E-05  0.2415415E+04  0.7818609E-02  0.8433755E-01
        3   -1    0    0  501    0  0.00000000000E+00  0.00000000000E+00  0.10785762077E+04  0.10785762124E+04  0.10100000352E+00 0.  1.
       -3   -1    0    0    0  501  0.00000000000E+00  0.00000000000E+00 -0.13522983320E+04  0.13522983358E+04  0.10100000352E+00 0. -1.
    10030    2    1    2    0    0  0.00000000000E+00  0.00000000000E+00 -0.27372212432E+03  0.24308745483E+04  0.24154145127E+04 0.  0.
        3    1    3    3  502    0  0.24720505387E+03  0.34175649130E+03  0.10020398144E+04  0.10871943882E+04  0.10100000352E+00 0.  1.
       -3    1    3    3    0  502 -0.24720505387E+03 -0.34175649130E+03 -0.12757619387E+04  0.13436801600E+04  0.10100000352E+00 0. -1.
</event>
<event>
 5   0  0.1506985E-05  0.2410198E+04  0.7818609E-02  0.8435696E-01
        1   -1    0    0  501    0  0.00000000000E+00  0.00000000000E+00  0.10252139647E+04  0.10252139647E+04  0.50400001928E-02 0. -1.
       -1   -1    0    0    0  501  0.00000000000E+00  0.00000000000E+00 -0.14165464269E+04  0.14165464270E+04  0.50400001928E-02 0.  1.
    10030    2    1    2    0    0  0.00000000000E+00  0.00000000000E+00 -0.39133246228E+03  0.24417603916E+04  0.24101976504E+04 0.  0.
        3    1    3    3  502    0 -0.50452569231E+03 -0.97243560716E+03 -0.70432289174E+03  0.13024008332E+04  0.10100000352E+00 0.  1.
       -3    1    3    3    0  502  0.50452569231E+03  0.97243560716E+03  0.31299042946E+03  0.11393595584E+04  0.10100000352E+00 0. -1.
</event>
<event>
 5   0  0.3345974E-05  0.2431456E+04  0.7818609E-02  0.8427820E-01
        2   -1    0    0  501    0  0.00000000000E+00  0.00000000000E+00  0.26331136019E+04  0.26331136019E+04  0.25500000920E-02 0.  1.
       -2   -1    0    0    0  501  0.00000000000E+00  0.00000000000E+00 -0.56131060249E+03  0.56131060249E+03  0.25500000920E-02 0. -1.
    10030    2    1    2    0    0  0.00000000000E+00  0.00000000000E+00  0.20718029994E+04  0.31944242043E+04  0.24314560101E+04 0.  0.
        4    1    3    3  502    0 -0.36462017493E+03  0.40285259708E+02  0.25586649027E+04  0.25848285187E+04  0.12699999809E+01 0.  1.
       -4    1    3    3    0  502  0.36462017493E+03 -0.40285259708E+02 -0.48686190332E+03  0.60959568561E+03  0.12699999809E+01 0. -1.
</event>
<event>
 5   0  0.1407158E-05  0.2343970E+04  0.7818609E-02  0.8460783E-01
       -1   -1    0    0    0  501  0.00000000000E+00  0.00000000000E+00  0.12403696627E+04  0.12403696627E+04  0.50400001928E-02 0. -1.
        1   -1    0    0  501    0  0.00000000000E+00  0.00000000000E+00 -0.11073704003E+04  0.11073704004E+04  0.50400001928E-02 0.  1.
    10030    2    1    2    0    0  0.00000000000E+00  0.00000000000E+00  0.13299926239E+03  0.23477400631E+04  0.23439698377E+04 0.  0.
        1    1    3    3  502    0  0.93649273172E+03  0.63169331879E+03  0.37924145651E+03  0.11915868277E+04  0.50400001928E-02 0. -1.
       -1    1    3    3    0  502 -0.93649273172E+03 -0.63169331879E+03 -0.24624219412E+03  0.11561532354E+04  0.50400001928E-02 0.  1.
</event>
<event>
 5   0  0.3320780E-05  0.2436858E+04  0.7818609E-02  0.8425832E-01
       -2   -1    0    0    0  501  0.00000000000E+00  0.00000000000E+00  0.11438879465E+04  0.11438879465E+04  0.25500000920E-02 0. -1.
        2   -1    0    0  501    0  0.00000000000E+00  0.00000000000E+00 -0.12978276095E+04  0.12978276095E+04  0.25500000920E-02 0.  1.
    10030    2    1    2    0    0  0.00000000000E+00  0.00000000000E+00 -0.15393966300E+03  0.24417155561E+04  0.24368581077E+04 0.  0.
        5    1    3    3  502    0 -0.93151515600E+03 -0.24423473901E+03 -0.82490007895E+03  0.12680115630E+04  0.46999998093E+01 0.  1.
       -5    1    3    3    0  502  0.93151515600E+03  0.24423473901E+03  0.67096041595E+03  0.11737039931E+04  0.46999998093E+01 0. -1.
</event>
<event>
 5   0  0.3320780E-05  0.2229845E+04  0.7818609E-02  0.8506108E-01
       -2   -1    0    0    0  501  0.00000000000E+00  0.00000000000E+00  0.91385327644E+03  0.91385327644E+03  0.25500000920E-02 0.  1.
        2   -1    0    0  501    0  0.00000000000E+00  0.00000000000E+00 -0.13602318515E+04  0.13602318515E+04  0.25500000920E-02 0. -1.
    10030    2    1    2    0    0  0.00000000000E+00  0.00000000000E+00 -0.44637857507E+03  0.22740851280E+04  0.22298451374E+04 0.  0.
        5    1    3    3  502    0 -0.71247513348E+03  0.62632720595E+03  0.37419988676E+03  0.10197814619E+04  0.46999998093E+01 0.  1.
       -5    1    3    3    0  502  0.71247513348E+03 -0.62632720595E+03 -0.82057846183E+03  0.12543036661E+04  0.46999998093E+01 0. -1.
</event>
<event>
 5   0  0.3320780E-05  0.2384835E+04  0.7818609E-02  0.8445203E-01
       -2   -1    0    0    0  501  0.00000000000E+00  0.00000000000E+00  0.10451888134E+04  0.10451888134E+04  0.25500000920E-02 0.  1.
        2   -1    0    0  501    0  0.00000000000E+00  0.00000000000E+00 -0.13603850935E+04  0.13603850935E+04  0.25500000920E-02 0. -1.
    10030    2    1    2    0    0  0.00000000000E+00  0.00000000000E+00 -0.31519628008E+03  0.24055739069E+04  0.23848348216E+04 0.  0.
        5    1    3    3  502    0  0.15139437114E+03 -0.66507570354E+03  0.82896208205E+03  0.10735204565E+04  0.46999998093E+01 0.  1.
       -5    1    3    3    0  502 -0.15139437114E+03  0.66507570354E+03 -0.11441583621E+04  0.13320534504E+04  0.46999998093E+01 0. -1.
</event>
<event>
 5   0  0.3310037E-05  0.2367821E+04  0.7818609E-02  0.8451650E-01
       -2   -1    0    0    0  501  0.00000000000E+00  0.00000000000E+00  0.75294422256E+03  0.75294422257E+03  0.25500000920E-02 0.  1.
        2   -1    0    0  501    0  0.00000000000E+00  0.00000000000E+00 -0.18615504418E+04  0.18615504418E+04  0.25500000920E-02 0. -1.
    10030    2    1    2    0    0  0.00000000000E+00  0.00000000000E+00 -0.11086062193E+04  0.26144946644E+04  0.23678206437E+04 0.  0.
        2    1    3    3  502    0 -0.22261047858E+03  0.68136944669E+03 -0.15947079733E+04  0.17484030623E+04  0.25500000920E-02 0. -1.
       -2    1    3    3    0  502  0.22261047858E+03 -0.68136944669E+03  0.48610175401E+03  0.86609160215E+03  0.25500000920E-02 0.  1.
</event>
<event>
 5   0  0.1393026E-05  0.2351886E+04  0.7818609E-02  0.8457739E-01
       -1   -1    0    0    0  501  0.00000000000E+00  0.00000000000E+00  0.15468779602E+04  0.15468779602E+04  0.50400001928E-02 0. -1.
        1   -1    0    0  501    0  0.00000000000E+00  0.00000000000E+00 -0.89395704364E+03  0.89395704365E+03  0.50400001928E-02 0.  1.
    10030    2    1    2    0    0  0.00000000000E+00  0.00000000000E+00  0.65292091655E+03  0.24408350038E+04  0.23518864328E+04 0.  0.
        4    1    3    3  502    0  0.10408110702E+04 -0.30033960514E+03  0.80131194779E+03  0.13474397993E+04  0.12699999809E+01 0. -1.
       -4    1    3    3    0  502 -0.10408110702E+04  0.30033960514E+03 -0.14839103123E+03  0.10933952045E+04  0.12699999809E+01 0.  1.
</event>
<event>
 5   0  0.3215208E-05  0.2401961E+04  0.7818609E-02  0.8438770E-01
       -2   -1    0    0    0  501  0.00000000000E+00  0.00000000000E+00  0.10562733953E+04  0.10562733953E+04  0.25500000920E-02 0. -1.
        2   -1    0    0  501    0  0.00000000000E+00  0.00000000000E+00 -0.13655117522E+04  0.13655117522E+04  0.25500000920E-02 0.  1.
    10030    2    1    2    0    0  0.00000000000E+00  0.00000000000E+00 -0.30923835699E+03  0.24217851475E+04  0.24019606448E+04 0.  0.
        1    1    3    3  502    0  0.17063083389E+03 -0.38835229803E+03  0.97822946422E+03  0.10662388445E+04  0.50400001928E-02 0. -1.
       -1    1    3    3    0  502 -0.17063083389E+03  0.38835229803E+03 -0.12874678212E+04  0.13555463030E+04  0.50400001928E-02 0.  1.
</event>
<event>
 5   0  0.3320780E-05  0.2406442E+04  0.7818609E-02  0.8437096E-01
       -2   -1    0    0    0  501  0.00000000000E+00  0.00000000000E+00  0.78284709185E+03  0.78284709185E+03  0.25500000920E-02 0. -1.
        2   -1    0    0  501    0  0.00000000000E+00  0.00000000000E+00 -0.18493271222E+04  0.18493271222E+04  0.25500000920E-02 0.  1.
    10030    2    1    2    0    0  0.00000000000E+00  0.00000000000E+00 -0.10664800304E+04  0.26321742141E+04  0.24064416548E+04 0.  0.
        5    1    3    3  502    0  0.87696323351E+03 -0.81017621807E+03 -0.37001663772E+03  0.12499537669E+04  0.46999998093E+01 0. -1.
       -5    1    3    3    0  502 -0.87696323351E+03  0.81017621807E+03 -0.69646339265E+03  0.13822204472E+04  0.46999998093E+01 0.  1.
</event>
<event>
 5   0  0.3345974E-05  0.2391755E+04  0.7818609E-02  0.8442597E-01
       -2   -1    0    0    0  501  0.00000000000E+00  0.00000000000E+00  0.59884658326E+03  0.59884658327E+03  0.25500000920E-02 0.  1.
        2   -1    0    0  501    0  0.00000000000E+00  0.00000000000E+00 -0.23881300165E+04  0.23881300165E+04  0.25500000920E-02 0. -1.
    10030    2    1    2    0    0  0.00000000000E+00  0.00000000000E+00 -0.17892834332E+04  0.29869765997E+04  0.23917554229E+04 0.  0.
        4    1    3    3  502    0 -0.84409772911E+03  0.73043730025E+03 -0.14304643125E+04  0.18144611840E+04  0.12699999809E+01 0. -1.
       -4    1    3    3    0  502  0.84409772911E+03 -0.73043730025E+03 -0.35881912065E+03  0.11725154157E+04  0.12699999809E+01 0.  1.
</event>
<event>
 5   0  0.3347728E-05  0.2406396E+04  0.7818609E-02  0.8437113E-01
       -2   -1    0    0    0  501  0.00000000000E+00  0.00000000000E+00  0.52078918457E+03  0.52078918458E+03  0.25500000920E-02 0. -1.
        2   -1    0    0  501    0  0.00000000000E+00  0.00000000000E+00 -0.27797907887E+04  0.27797907887E+04  0.25500000920E-02 0.  1.
    10030    2    1    2    0    0  0.00000000000E+00  0.00000000000E+00 -0.22590016041E+04  0.33005799732E+04  0.24063956268E+04 0.  0.
        3    1    3    3  502    0  0.91538465866E+03 -0.31637525611E+03 -0.21086854816E+04  0.23204691005E+04  0.10100000352E+00 0.  1.
       -3    1    3    3    0  502 -0.91538465866E+03  0.31637525611E+03 -0.15031612253E+03  0.98011087275E+03  0.10100000352E+00 0. -1.
</event>
<event>
 5   0  0.3320780E-05  0.2442919E+04  0.7818609E-02  0.8423608E-01
       -2   -1    0    0    0  501  0.00000000000E+00  0.00000000000E+00  0.77688529313E+03  0.77688529313E+03  0.25500000920E-02 0.  1.
        2   -1    0    0  501    0  0.00000000000E+00  0.00000000000E+00 -0.19204415000E+04  0.19204415000E+04  0.25500000920E-02 0. -1.
    10030    2    1    2    0    0  0.00000000000E+00  0.00000000000E+00 -0.11435562069E+04  0.26973267932E+04  0.24429185477E+04 0.  0.
        5    1    3    3  502    0 -0.53324013024E+03  0.23161614769E+03 -0.17578690701E+04  0.18515174409E+04  0.46999998093E+01 0. -1.
       -5    1    3    3    0  502  0.53324013024E+03 -0.23161614769E+03  0.61431286323E+03  0.84580935222E+03  0.46999998093E+01 0.  1.
</event>
<event>
 5   0  0.1393026E-05  0.2392833E+04  0.7818609E-02  0.8442192E-01
       -1   -1    0    0    0  501  0.00000000000E+00  0.00000000000E+00  0.80560998719E+03  0.80560998721E+03  0.50400001928E-02 0.  1.
        1   -1    0    0  501    0  0.00000000000E+00  0.00000000000E+00 -0.17768062977E+04  0.17768062977E+04  0.50400001928E-02 0. -1.
    10030    2    1    2    0    0  0.00000000000E+00  0.00000000000E+00 -0.97119631047E+03  0.25824162849E+04  0.23928333822E+04 0.  0.
        4    1    3    3  502    0  0.38970115937E+03 -0.68896860098E+03 -0.14538219124E+04  0.16553381807E+04  0.12699999809E+01 0. -1.
       -4    1    3    3    0  502 -0.38970115937E+03  0.68896860098E+03  0.48262560189E+03  0.92707810418E+03  0.12699999809E+01 0.  1.
</event>
<event>
 5   0  0.1506985E-05  0.2536014E+04  0.7818609E-02  0.8390266E-01
       -1   -1    0    0    0  501  0.00000000000E+00  0.00000000000E+00  0.88857627226E+03  0.88857627228E+03  0.50400001928E-02 0.  1.
        1   -1    0    0  501    0  0.00000000000E+00  0.00000000000E+00 -0.18094587769E+04  0.18094587769E+04  0.50400001928E-02 0. -1.
    10030    2    1    2    0    0  0.00000000000E+00  0.00000000000E+00 -0.92088250468E+03  0.26980350492E+04  0.25360143019E+04 0.  0.
        3    1    3    3  502    0 -0.46847312146E+03  0.10619354160E+04 -0.10036164628E+04  0.15344119095E+04  0.10100000352E+00 0. -1.
       -3    1    3    3    0  502  0.46847312146E+03 -0.10619354160E+04  0.82733958106E+02  0.11636231398E+04  0.10100000352E+00 0.  1.
</event>
<event>
 5   0  0.1434943E-05  0.2405589E+04  0.7818609E-02  0.8437414E-01
        1   -1    0    0  501    0  0.00000000000E+00  0.00000000000E+00  0.19213455978E+04  0.19213455978E+04  0.50400001928E-02 0.  1.
       -1   -1    0    0    0  501  0.00000000000E+00  0.00000000000E+00 -0.75296919615E+03  0.75296919617E+03  0.50400001928E-02 0. -1.
    10030    2    1    2    0    0  0.00000000000E+00  0.00000000000E+00  0.11683764017E+04  0.26743147940E+04  0.24055885354E+04 0.  0.
        5    1    3    3  502    0  0.27927708279E+03 -0.32012161232E+03 -0.66677776932E+03  0.79062520786E+03  0.46999998093E+01 0. -1.
       -5    1    3    3    0  502 -0.27927708279E+03  0.32012161232E+03  0.18351541710E+04  0.18836895862E+04  0.46999998093E+01 0.  1.
</event>
<event>
 5   0  0.3215208E-05  0.2368459E+04  0.7818609E-02  0.8451407E-01
       -2   -1    0    0    0  501  0.00000000000E+00  0.00000000000E+00  0.67087825335E+03  0.67087825336E+03  0.25500000920E-02 0.  1.
        2   -1    0    0  501    0  0.00000000000E+00  0.00000000000E+00 -0.20903934044E+04  0.20903934044E+04  0.25500000920E-02 0. -1.
    10030    2    1    2    0    0  0.00000000000E+00  0.00000000000E+00 -0.14195151510E+04  0.27612716577E+04  0.23684589724E+04 0.  0.
        1    1    3    3  502    0 -0.40203173932E+03 -0.63561747738E+03 -0.17762157393E+04  0.19288808801E+04  0.50400001928E-02 0. -1.
       -1    1    3    3    0  502  0.40203173932E+03  0.63561747738E+03  0.35670058830E+03  0.83239077763E+03  0.50400001928E-02 0.  1.
</event>
<event>
 5   0  0.3320780E-05  0.2407445E+04  0.7818609E-02  0.8436722E-01
        2   -1    0    0  501    0  0.00000000000E+00  0.00000000000E+00  0.15814826164E+04  0.15814826164E+04  0.25500000920E-02 0.  1.
       -2   -1    0    0    0  501  0.00000000000E+00  0.00000000000E+00 -0.91619590716E+03  0.91619590716E+03  0.25500000920E-02 0. -1.
    10030    2    1    2    0    0  0.00000000000E+00  0.00000000000E+00  0.66528670922E+03  0.24976785235E+04  0.24074450360E+04 0.  0.
        5    1    3    3  502    0  0.82132535278E+03 -0.83028720570E+03  0.63507152908E+03  0.13293946427E+04  0.46999998093E+01 0.  1.
       -5    1    3    3    0  502 -0.82132535278E+03  0.83028720570E+03  0.30215180138E+02  0.11682838808E+04  0.46999998093E+01 0. -1.
</event>
<event>
 5   0  0.1434943E-05  0.2367236E+04  0.7818609E-02  0.8451873E-01
       -1   -1    0    0    0  501  0.00000000000E+00  0.00000000000E+00  0.99002088434E+03  0.99002088435E+03  0.50400001928E-02 0.  1.
        1   -1    0    0  501    0  0.00000000000E+00  0.00000000000E+00 -0.14150733311E+04  0.14150733311E+04  0.50400001928E-02 0. -1.
    10030    2    1    2    0    0  0.00000000000E+00  0.00000000000E+00 -0.42505244675E+03  0.24050942154E+04  0.23672364907E+04 0.  0.
        5    1    3    3  502    0  0.58215656808E+02  0.35973148130E+03 -0.13566501415E+04  0.14047481972E+04  0.46999998093E+01 0. -1.
       -5    1    3    3    0  502 -0.58215656808E+02 -0.35973148130E+03  0.93159769471E+03  0.10003460182E+04  0.46999998093E+01 0.  1.
</event>
<event>
 5   0  0.1407158E-05  0.2401690E+04  0.7818609E-02  0.8438871E-01
        1   -1    0    0  501    0  0.00000000000E+00  0.00000000000E+00  0.15289624858E+04  0.15289624858E+04  0.50400001928E-02 0.  1.
       -1   -1    0    0    0  501  0.00000000000E+00  0.00000000000E+00 -0.94314230068E+03  0.94314230070E+03  0.50400001928E-02 0. -1.
    10030    2    1    2    0    0  0.00000000000E+00  0.00000000000E+00  0.58582018511E+03  0.24721047865E+04  0.24016904018E+04 0.  0.
        1    1    3    3  502    0  0.45866580075E+03 -0.11080435215E+04  0.35714513754E+03  0.12512743151E+04  0.50400001928E-02 0. -1.
       -1    1    3    3    0  502 -0.45866580075E+03  0.11080435215E+04  0.22867504757E+03  0.12208304714E+04  0.50400001928E-02 0.  1.
</event>
<event>
 5   0  0.3345974E-05  0.2399573E+04  0.7818609E-02  0.8439664E-01
       -2   -1    0    0    0  501  0.00000000000E+00  0.00000000000E+00  0.84564062020E+03  0.84564062021E+03  0.25500000920E-02 0. -1.
        2   -1    0    0  501    0  0.00000000000E+00  0.00000000000E+00 -0.17022447764E+04  0.17022447764E+04  0.25500000920E-02 0.  1.
    10030    2    1    2    0    0  0.00000000000E+00  0.00000000000E+00 -0.85660415616E+03  0.25478853966E+04  0.23995727357E+04 0.  0.
        4    1    3    3  502    0  0.11064507508E+04 -0.10124518249E+03 -0.90905825893E+03  0.14355738859E+04  0.12699999809E+01 0.  1.
       -4    1    3    3    0  502 -0.11064507508E+04  0.10124518249E+03  0.52454102762E+02  0.11123115107E+04  0.12699999809E+01 0. -1.
</event>
<event>
 5   0  0.1407158E-05  0.2404415E+04  0.7818609E-02  0.8437852E-01
        1   -1    0    0  501    0  0.00000000000E+00  0.00000000000E+00  0.21749287997E+04  0.21749287997E+04  0.50400001928E-02 0.  1.
       -1   -1    0    0    0  501  0.00000000000E+00  0.00000000000E+00 -0.66452895869E+03  0.66452895871E+03  0.50400001928E-02 0. -1.
    10030    2    1    2    0    0  0.00000000000E+00  0.00000000000E+00  0.15103998410E+04  0.28394577584E+04  0.24044152474E+04 0.  0.
        1    1    3    3  502    0 -0.43170532885E+03  0.92116407798E+03 -0.13272783356E+01  0.10173074812E+04  0.50400001928E-02 0. -1.
       -1    1    3    3    0  502  0.43170532885E+03 -0.92116407798E+03  0.15117271193E+04  0.18221502772E+04  0.50400001928E-02 0.  1.
</event>
<event>
 5   0  0.3345974E-05  0.2326702E+04  0.7818609E-02  0.8467467E-01
       -2   -1    0    0    0  501  0.00000000000E+00  0.00000000000E+00  0.13503824816E+04  0.13503824816E+04  0.25500000920E-02 0.  1.
        2   -1    0    0  501    0  0.00000000000E+00  0.00000000000E+00 -0.10022238155E+04  0.10022238155E+04  0.25500000920E-02 0. -1.
    10030    2    1    2    0    0  0.00000000000E+00  0.00000000000E+00  0.34815866609E+03  0.23526062971E+04  0.23267019431E+04 0.  0.
        4    1    3    3  502    0 -0.30967750548E+03  0.70496360887E+03  0.10558608141E+04  0.13067966631E+04  0.12699999809E+01 0.  1.
       -4    1    3    3    0  502  0.30967750548E+03 -0.70496360887E+03 -0.70770214798E+03  0.10458096339E+04  0.12699999809E+01 0. -1.
</event>
<event>
 5   0  0.3215208E-05  0.2404420E+04  0.7818609E-02  0.8437851E-01
       -2   -1    0    0    0  501  0.00000000000E+00  0.00000000000E+00  0.92523686030E+03  0.92523686031E+03  0.25500000920E-02 0. -1.
        2   -1    0    0  501    0  0.00000000000E+00  0.00000000000E+00 -0.15620959148E+04  0.15620959148E+04  0.25500000920E-02 0.  1.
    10030    2    1    2    0    0  0.00000000000E+00  0.00000000000E+00 -0.63685905454E+03  0.24873327751E+04  0.24044198633E+04 0.  0.
        1    1    3    3  502    0  0.48321036612E+03 -0.87751131405E+03 -0.10060229296E+04  0.14197184577E+04  0.50400001928E-02 0.  1.
       -1    1    3    3    0  502 -0.48321036612E+03  0.87751131405E+03  0.36916387504E+03  0.10676143175E+04  0.50400001928E-02 0. -1.
</event>
<event>
 5   0  0.1147362E-05  0.2419589E+04  0.7818609E-02  0.8432206E-01
        4   -1    0    0  501    0  0.00000000000E+00  0.00000000000E+00  0.97246023425E+03  0.97246106354E+03  0.12699999809E+01 0. -1.
       -4   -1    0    0    0  501  0.00000000000E+00  0.00000000000E+00 -0.15050495281E+04  0.15050500639E+04  0.12699999809E+01 0.  1.
    10030    2    1    2    0    0  0.00000000000E+00  0.00000000000E+00 -0.53258929387E+03  0.24775111275E+04  0.24195888144E+04 0.  0.
        2    1    3    3  502    0  0.84525672597E+03  0.85339571678E+03 -0.41417966414E+03  0.12705463299E+04  0.25500000920E-02 0.  1.
       -2    1    3    3    0  502 -0.84525672597E+03 -0.85339571678E+03 -0.11840962972E+03  0.12069647976E+04  0.25500000920E-02 0. -1.
</event>
<event>
 5   0  0.1407158E-05  0.2409079E+04  0.7818609E-02  0.8436112E-01
        1   -1    0    0  501    0  0.00000000000E+00  0.00000000000E+00  0.77168719251E+03  0.77168719252E+03  0.50400001928E-02 0. -1.
       -1   -1    0    0    0  501  0.00000000000E+00  0.00000000000E+00 -0.18801857727E+04  0.18801857728E+04  0.50400001928E-02 0.  1.
    10030    2    1    2    0    0  0.00000000000E+00  0.00000000000E+00 -0.11084985802E+04  0.26518729653E+04  0.24090788948E+04 0.  0.
        1    1    3    3  502    0  0.62203059126E+03  0.17112890790E+03 -0.16739723487E+04  0.17939873421E+04  0.50400001928E-02 0.  1.
       -1    1    3    3    0  502 -0.62203059126E+03 -0.17112890790E+03  0.56547376844E+03  0.85788562314E+03  0.50400001928E-02 0. -1.
</event>
<event>
 5   0  0.1147362E-05  0.2380773E+04  0.7818609E-02  0.8446737E-01
        3   -1    0    0  501    0  0.00000000000E+00  0.00000000000E+00  0.15373715873E+04  0.15373715907E+04  0.10100000352E+00 0.  1.
       -3   -1    0    0    0  501  0.00000000000E+00  0.00000000000E+00 -0.92171580143E+03  0.92171580697E+03  0.10100000352E+00 0. -1.
    10030    2    1    2    0    0  0.00000000000E+00  0.00000000000E+00  0.61565578591E+03  0.24590873976E+04  0.23807727280E+04 0.  0.
        4    1    3    3  502    0  0.48382734878E+03 -0.10810985503E+04  0.43071676400E+03  0.12603100899E+04  0.12699999809E+01 0. -1.
       -4    1    3    3    0  502 -0.48382734878E+03  0.10810985503E+04  0.18493902191E+03  0.11987773078E+04  0.12699999809E+01 0.  1.
</event>
<event>
 5   0  0.3345974E-05  0.2364908E+04  0.7818609E-02  0.8452760E-01
       -2   -1    0    0    0  501  0.00000000000E+00  0.00000000000E+00  0.54606011326E+03  0.54606011327E+03  0.25500000920E-02 0.  1.
        2   -1    0    0  501    0  0.00000000000E+00  0.00000000000E+00 -0.25605185991E+04  0.25605185991E+04  0.25500000920E-02 0. -1.
    10030    2    1    2    0    0  0.00000000000E+00  0.00000000000E+00 -0.20144584859E+04  0.31065787124E+04  0.23649076737E+04 0.  0.
        4    1    3    3  502    0  0.86818980815E+03  0.51612443699E+03 -0.19953480454E+03  0.10295405425E+04  0.12699999809E+01 0.  1.
       -4    1    3    3    0  502 -0.86818980815E+03 -0.51612443699E+03 -0.18149236813E+04  0.20770381699E+04  0.12699999809E+01 0. -1.
</event>
<event>
 5   0  0.1393026E-05  0.2406486E+04  0.7818609E-02  0.8437079E-01
        1   -1    0    0  501    0  0.00000000000E+00  0.00000000000E+00  0.21586021934E+04  0.21586021934E+04  0.50400001928E-02 0.  1.
       -1   -1    0    0    0  501  0.00000000000E+00  0.00000000000E+00 -0.67070880572E+03  0.67070880574E+03  0.50400001928E-02 0. -1.
    10030    2    1    2    0    0  0.00000000000E+00  0.00000000000E+00  0.14878933877E+04  0.28293109991E+04  0.24064858189E+04 0.  0.
        4    1    3    3  502    0 -0.82006141459E+02  0.10095403234E+04  0.15076060566E+04  0.18162528201E+04  0.12699999809E+01 0. -1.
       -4    1    3    3    0  502  0.82006141459E+02 -0.10095403234E+04 -0.19712668902E+02  0.10130581790E+04  0.12699999809E+01 0.  1.
</event>
<event>
 5   0  0.3345974E-05  0.2393365E+04  0.7818609E-02  0.8441992E-01
       -2   -1    0    0    0  501  0.00000000000E+00  0.00000000000E+00  0.70266118153E+03  0.70266118154E+03  0.25500000920E-02 0. -1.
        2   -1    0    0  501    0  0.00000000000E+00  0.00000000000E+00 -0.20380364048E+04  0.20380364048E+04  0.25500000920E-02 0.  1.
    10030    2    1    2    0    0  0.00000000000E+00  0.00000000000E+00 -0.13353752233E+04  0.27406975863E+04  0.23933650521E+04 0.  0.
        4    1    3    3  502    0 -0.62606286452E+03  0.29371987134E+03  0.45068287867E+03  0.82543488124E+03  0.12699999809E+01 0. -1.
       -4    1    3    3    0  502  0.62606286452E+03 -0.29371987134E+03 -0.17860581019E+04  0.19152627051E+04  0.12699999809E+01 0.  1.
</event>
<event>
 5   0  0.1401596E-05  0.2368984E+04  0.7818609E-02  0.8451208E-01
        1   -1    0    0  501    0  0.00000000000E+00  0.00000000000E+00  0.26665028271E+04  0.26665028271E+04  0.50400001928E-02 0. -1.
       -1   -1    0    0    0  501  0.00000000000E+00  0.00000000000E+00 -0.52616530343E+03  0.52616530345E+03  0.50400001928E-02 0.  1.
    10030    2    1    2    0    0  0.00000000000E+00  0.00000000000E+00  0.21403375237E+04  0.31926681305E+04  0.23689839756E+04 0.  0.
        2    1    3    3  502    0  0.10307896084E+04 -0.36368463029E+03  0.16851484054E+04  0.20086111807E+04  0.25500000920E-02 0.  1.
       -2    1    3    3    0  502 -0.10307896084E+04  0.36368463029E+03  0.45518911822E+03  0.11840569498E+04  0.25500000920E-02 0. -1.
</event>
<event>
 5   0  0.3215208E-05  0.2365231E+04  0.7818609E-02  0.8452637E-01
        2   -1    0    0  501    0  0.00000000000E+00  0.00000000000E+00  0.97456281923E+03  0.97456281923E+03  0.25500000920E-02 0.  1.
       -2   -1    0    0    0  501  0.00000000000E+00  0.00000000000E+00 -0.14350836396E+04  0.14350836396E+04  0.25500000920E-02 0. -1.
    10030    2    1    2    0    0  0.00000000000E+00  0.00000000000E+00 -0.46052082037E+03  0.24096464588E+04  0.23652307774E+04 0.  0.
        1    1    3    3  502    0  0.73768830439E+03 -0.39812166297E+03  0.61960750733E+03  0.10424002859E+04  0.50400001928E-02 0.  1.
       -1    1    3    3    0  502 -0.73768830439E+03  0.39812166297E+03 -0.10801283277E+04  0.13672461729E+04  0.50400001928E-02 0. -1.
</event>
<event>
 5   0  0.1506985E-05  0.2397181E+04  0.7818609E-02  0.8440560E-01
       -1   -1    0    0    0  501  0.00000000000E+00  0.00000000000E+00  0.10411948110E+04  0.10411948111E+04  0.50400001928E-02 0. -1.
        1   -1    0    0  501    0  0.00000000000E+00  0.00000000000E+00 -0.13797792610E+04  0.13797792611E+04  0.50400001928E-02 0.  1.
    10030    2    1    2    0    0  0.00000000000E+00  0.00000000000E+00 -0.33858445000E+03  0.24209740721E+04  0.23971808501E+04 0.  0.
        3    1    3    3  502    0  0.10369208865E+04 -0.51742059926E+03  0.13983406909E+03  0.11672542904E+04  0.10100000352E+00 0. -1.
       -3    1    3    3    0  502 -0.10369208865E+04  0.51742059926E+03 -0.47841851909E+03  0.12537197817E+04  0.10100000352E+00 0.  1.
</event>
<event>
 5   0  0.1407158E-05  0.2357649E+04  0.7818609E-02  0.8455532E-01
       -1   -1    0    0    0  501  0.00000000000E+00  0.00000000000E+00  0.54031185811E+03  0.54031185813E+03  0.50400001928E-02 0. -1.
        1   -1    0    0  501    0  0.00000000000E+00  0.00000000000E+00 -0.25718982659E+04  0.25718982659E+04  0.50400001928E-02 0.  1.
    10030    2    1    2    0    0  0.00000000000E+00  0.00000000000E+00 -0.20315864078E+04  0.31122101240E+04  0.23576489399E+04 0.  0.
        1    1    3    3  502    0  0.98793418604E+03 -0.73036642593E+02 -0.17232600031E+03  0.10055071146E+04  0.50400001928E-02 0. -1.
       -1    1    3    3    0  502 -0.98793418604E+03  0.73036642593E+02 -0.18592604075E+04  0.21067030094E+04  0.50400001928E-02 0.  1.
</event>
<event>
 5   0  0.1506985E-05  0.2393560E+04  0.7818609E-02  0.8441918E-01
       -1   -1    0    0    0  501  0.00000000000E+00  0.00000000000E+00  0.11585533070E+04  0.11585533070E+04  0.50400001928E-02 0. -1.
        1   -1    0    0  501    0  0.00000000000E+00  0.00000000000E+00 -0.12362682059E+04  0.12362682059E+04  0.50400001928E-02 0.  1.
    10030    2    1    2    0    0  0.00000000000E+00  0.00000000000E+00 -0.77714898961E+02  0.23948215129E+04  0.23935602088E+04 0.  0.
        3    1    3    3  502    0 -0.35982843593E+03  0.10223878811E+04 -0.54659814180E+03  0.12138875654E+04  0.10100000352E+00 0.  1.
       -3    1    3    3    0  502  0.35982843593E+03 -0.10223878811E+04  0.46888324284E+03  0.11809339475E+04  0.10100000352E+00 0. -1.
</event>
<event>
 5   0  0.3347728E-05  0.2389200E+04  0.7818609E-02  0.8443558E-01
       -2   -1    0    0    0  501  0.00000000000E+00  0.00000000000E+00  0.93585704128E+03  0.93585704129E+03  0.25500000920E-02 0. -1.
        2   -1    0    0  501    0  0.00000000000E+00  0.00000000000E+00 -0.15248798838E+04  0.15248798838E+04  0.25500000920E-02 0.  1.
    10030    2    1    2    0    0  0.00000000000E+00  0.00000000000E+00 -0.58902284250E+03  0.24607369251E+04  0.23892003485E+04 0.  0.
        3    1    3    3  502    0  0.52134263239E+03  0.10224521291E+04  0.46868898853E+02  0.11486527763E+04  0.10100000352E+00 0. -1.
       -3    1    3    3    0  502 -0.52134263239E+03 -0.10224521291E+04 -0.63589174135E+03  0.13120841488E+04  0.10100000352E+00 0.  1.
</event>
<event>
 5   0  0.3310037E-05  0.2395536E+04  0.7818609E-02  0.8441177E-01
       -2   -1    0    0    0  501  0.00000000000E+00  0.00000000000E+00  0.68934520845E+03  0.68934520846E+03  0.25500000920E-02 0.  1.
        2   -1    0    0  501    0  0.00000000000E+00  0.00000000000E+00 -0.20811744731E+04  0.20811744731E+04  0.25500000920E-02 0. -1.
    10030    2    1    2    0    0  0.00000000000E+00  0.00000000000E+00 -0.13918292647E+04  0.27705196816E+04  0.23955355568E+04 0.  0.
        2    1    3    3  502    0 -0.63579306576E+03  0.32152222849E+02 -0.18693163119E+04  0.19747430369E+04  0.25500000920E-02 0. -1.
       -2    1    3    3    0  502  0.63579306576E+03 -0.32152222849E+02  0.47748704724E+03  0.79577664466E+03  0.25500000920E-02 0.  1.
</event>
<event>
 5   0  0.1393026E-05  0.2304017E+04  0.7818609E-02  0.8476339E-01
        1   -1    0    0  501    0  0.00000000000E+00  0.00000000000E+00  0.15706031660E+04  0.15706031660E+04  0.50400001928E-02 0. -1.
       -1   -1    0    0    0  501  0.00000000000E+00  0.00000000000E+00 -0.84497718346E+03  0.84497718347E+03  0.50400001928E-02 0.  1.
    10030    2    1    2    0    0  0.00000000000E+00  0.00000000000E+00  0.72562598252E+03  0.24155803495E+04  0.23040172218E+04 0.  0.
        4    1    3    3  502    0 -0.50863896926E+03  0.81012853250E+03  0.10358474153E+04  0.14099657163E+04  0.12699999809E+01 0. -1.
       -4    1    3    3    0  502  0.50863896926E+03 -0.81012853250E+03 -0.31022143283E+03  0.10056146332E+04  0.12699999809E+01 0.  1.
</event>
<event>
 5   0  0.3215208E-05  0.2399351E+04  0.7818609E-02  0.8439747E-01
       -2   -1    0    0    0  501  0.00000000000E+00  0.00000000000E+00  0.77652379518E+03  0.77652379518E+03  0.25500000920E-02 0.  1.
        2   -1    0    0  501    0  0.00000000000E+00  0.00000000000E+00 -0.18534158290E+04  0.18534158290E+04  0.25500000920E-02 0. -1.
    10030    2    1    2    0    0  0.00000000000E+00  0.00000000000E+00 -0.10768920338E+04  0.26299396242E+04  0.23993511569E+04 0.  0.
        1    1    3    3  502    0  0.13483191416E+01  0.44962798996E+03 -0.17575657316E+04  0.18141677012E+04  0.50400001928E-02 0. -1.
       -1    1    3    3    0  502 -0.13483191416E+01 -0.44962798996E+03  0.68067369780E+03  0.81577192292E+03  0.50400001928E-02 0.  1.
</event>
<event>
 5   0  0.3320780E-05  0.2392282E+04  0.7818609E-02  0.8442399E-01
        2   -1    0    0  501    0  0.00000000000E+00  0.00000000000E+00  0.22096310620E+04  0.22096310620E+04  0.25500000920E-02 0.  1.
       -2   -1    0    0    0  501  0.00000000000E+00  0.00000000000E+00 -0.64750773689E+03  0.64750773689E+03  0.25500000920E-02 0. -1.
    10030    2    1    2    0    0  0.00000000000E+00  0.00000000000E+00  0.15621233251E+04  0.28571387989E+04  0.23922819302E+04 0.  0.
        5    1    3    3  502    0 -0.34175818612E+03 -0.14924812441E+03  0.21384141928E+04  0.21706936703E+04  0.46999998093E+01 0.  1.
       -5    1    3    3    0  502  0.34175818612E+03  0.14924812441E+03 -0.57629086766E+03  0.68644512860E+03  0.46999998093E+01 0. -1.
</event>
<event>
 5   0  0.1393026E-05  0.2099728E+04  0.7818609E-02  0.8561363E-01
       -1   -1    0    0    0  501  0.00000000000E+00  0.00000000000E+00  0.82756969590E+03  0.82756969591E+03  0.50400001928E-02 0. -1.
        1   -1    0    0  501    0  0.00000000000E+00  0.00000000000E+00 -0.13318692097E+04  0.13318692097E+04  0.50400001928E-02 0.  1.
    10030    2    1    2    0    0  0.00000000000E+00  0.00000000000E+00 -0.50429951382E+03  0.21594389056E+04  0.20997281699E+04 0.  0.
        4    1    3    3  502    0  0.59264441493E+03  0.53326412181E+03  0.45036778820E+03  0.91565866113E+03  0.12699999809E+01 0.  1.
       -4    1    3    3    0  502 -0.59264441493E+03 -0.53326412181E+03 -0.95466730203E+03  0.12437802445E+04  0.12699999809E+01 0. -1.
</event>
<event>
 5   0  0.3215208E-05  0.2465320E+04  0.7818609E-02  0.8415446E-01
        2   -1    0    0  501    0  0.00000000000E+00  0.00000000000E+00  0.93893185839E+03  0.93893185839E+03  0.25500000920E-02 0. -1.
       -2   -1    0    0    0  501  0.00000000000E+00  0.00000000000E+00 -0.16182762035E+04  0.16182762035E+04  0.25500000920E-02 0.  1.
    10030    2    1    2    0    0  0.00000000000E+00  0.00000000000E+00 -0.67934434509E+03  0.25572080619E+04  0.24653203306E+04 0.  0.
        1    1    3    3  502    0 -0.57976093096E+03  0.99595434595E+03  0.11413087007E+03  0.11580473444E+04  0.50400001928E-02 0. -1.
       -1    1    3    3    0  502  0.57976093096E+03 -0.99595434595E+03 -0.79347521517E+03  0.13991607175E+04  0.50400001928E-02 0.  1.
</event>
<event>
 5   0  0.1407158E-05  0.2379346E+04  0.7818609E-02  0.8447277E-01
       -1   -1    0    0    0  501  0.00000000000E+00  0.00000000000E+00  0.69170937013E+03  0.69170937015E+03  0.50400001928E-02 0.  1.
        1   -1    0    0  501    0  0.00000000000E+00  0.00000000000E+00 -0.20461215655E+04  0.20461215655E+04  0.50400001928E-02 0. -1.
    10030    2    1    2    0    0  0.00000000000E+00  0.00000000000E+00 -0.13544121953E+04  0.27378309356E+04  0.23793456742E+04 0.  0.
        1    1    3    3  502    0  0.58228422516E+03  0.95827568334E+03 -0.21986287982E+03  0.11426665700E+04  0.50400001928E-02 0.  1.
       -1    1    3    3    0  502 -0.58228422516E+03 -0.95827568334E+03 -0.11345493155E+04  0.15951643657E+04  0.50400001928E-02 0. -1.
</event>
<event>
 5   0  0.3215208E-05  0.2385053E+04  0.7818609E-02  0.8445121E-01
        2   -1    0    0  501    0  0.00000000000E+00  0.00000000000E+00  0.14733503275E+04  0.14733503275E+04  0.25500000920E-02 0. -1.
       -2   -1    0    0    0  501  0.00000000000E+00  0.00000000000E+00 -0.96522832754E+03  0.96522832754E+03  0.25500000920E-02 0.  1.
    10030    2    1    2    0    0  0.00000000000E+00  0.00000000000E+00  0.50812199993E+03  0.24385786550E+04  0.23850530161E+04 0.  0.
        1    1    3    3  502    0 -0.55435914472E+03  0.66765364096E+02  0.13314393610E+04  0.14437806091E+04  0.50400001928E-02 0. -1.
       -1    1    3    3    0  502  0.55435914472E+03 -0.66765364096E+02 -0.82331736104E+03  0.99479804593E+03  0.50400001928E-02 0.  1.
</event>
<event>
 5   0  0.1393026E-05  0.2370368E+04  0.7818609E-02  0.8450681E-01
        1   -1    0    0  501    0  0.00000000000E+00  0.00000000000E+00  0.20427137015E+04  0.20427137015E+04  0.50400001928E-02 0. -1.
       -1   -1    0    0    0  501  0.00000000000E+00  0.00000000000E+00 -0.68764455017E+03  0.68764455019E+03  0.50400001928E-02 0.  1.
    10030    2    1    2    0    0  0.00000000000E+00  0.00000000000E+00  0.13550691514E+04  0.27303582517E+04  0.23703678571E+04 0.  0.
        4    1    3    3  502    0  0.33255892467E+03  0.96896305592E+03  0.13640096422E+04  0.17058747783E+04  0.12699999809E+01 0. -1.
       -4    1    3    3    0  502 -0.33255892467E+03 -0.96896305592E+03 -0.89404908654E+01  0.10244834735E+04  0.12699999809E+01 0.  1.
</event>
<event>
 5   0  0.3310037E-05  0.2410207E+04  0.7818609E-02  0.8435692E-01
        2   -1    0    0  501    0  0.00000000000E+00  0.00000000000E+00  0.13849767624E+04  0.13849767624E+04  0.25500000920E-02 0.  1.
       -2   -1    0    0    0  501  0.00000000000E+00  0.00000000000E+00 -0.10485910102E+04  0.10485910102E+04  0.25500000920E-02 0. -1.
    10030    2    1    2    0    0  0.00000000000E+00  0.00000000000E+00  0.33638575216E+03  0.24335677726E+04  0.24102067815E+04 0.  0.
        2    1    3    3  502    0 -0.10318658641E+04  0.59888228884E+03  0.33974265210E+03  0.12404967662E+04  0.25500000920E-02 0.  1.
       -2    1    3    3    0  502  0.10318658641E+04 -0.59888228884E+03 -0.33568999346E+01  0.11930710063E+04  0.25500000920E-02 0. -1.
</event>
<event>
 5   0  0.3310037E-05  0.2381561E+04  0.7818609E-02  0.8446439E-01
        2   -1    0    0  501    0  0.00000000000E+00  0.00000000000E+00  0.23674110330E+04  0.23674110330E+04  0.25500000920E-02 0. -1.
       -2   -1    0    0    0  501  0.00000000000E+00  0.00000000000E+00 -0.59894887093E+03  0.59894887094E+03  0.25500000920E-02 0.  1.
    10030    2    1    2    0    0  0.00000000000E+00  0.00000000000E+00  0.17684621621E+04  0.29663599039E+04  0.23815609715E+04 0.  0.
        2    1    3    3  502    0 -0.11341003980E+04 -0.29188806137E+03  0.61542297812E+03  0.13229239567E+04  0.25500000920E-02 0. -1.
       -2    1    3    3    0  502  0.11341003980E+04  0.29188806137E+03  0.11530391839E+04  0.16434359473E+04  0.25500000920E-02 0.  1.
</event>
<event>
 5   0  0.1393026E-05  0.2452838E+04  0.7818609E-02  0.8419982E-01
       -1   -1    0    0    0  501  0.00000000000E+00  0.00000000000E+00  0.10155933219E+04  0.10155933219E+04  0.50400001928E-02 0. -1.
        1   -1    0    0  501    0  0.00000000000E+00  0.00000000000E+00 -0.14810097954E+04  0.14810097954E+04  0.50400001928E-02 0.  1.
    10030    2    1    2    0    0  0.00000000000E+00  0.00000000000E+00 -0.46541647353E+03  0.24966031174E+04  0.24528380770E+04 0.  0.
        4    1    3    3  502    0  0.94444618137E+03  0.32618661724E+03 -0.95654087350E+03  0.13832383578E+04  0.12699999809E+01 0.  1.
       -4    1    3    3    0  502 -0.94444618137E+03 -0.32618661724E+03  0.49112439997E+03  0.11133647596E+04  0.12699999809E+01 0. -1.
</event>
<event>
 5   0  0.1434943E-05  0.2534103E+04  0.7818609E-02  0.8390936E-01
       -1   -1    0    0    0  501  0.00000000000E+00  0.00000000000E+00  0.19381949998E+04  0.19381949999E+04  0.50400001928E-02 0.  1.
        1   -1    0    0  501    0  0.00000000000E+00  0.00000000000E+00 -0.82830678984E+03  0.82830678986E+03  0.50400001928E-02 0. -1.
    10030    2    1    2    0    0  0.00000000000E+00  0.00000000000E+00  0.11098882100E+04  0.27665017897E+04  0.25341034536E+04 0.  0.
        5    1    3    3  502    0  0.10954124787E+04 -0.36227690230E+03 -0.16745224939E+02  0.11538958120E+04  0.46999998093E+01 0. -1.
       -5    1    3    3    0  502 -0.10954124787E+04  0.36227690230E+03  0.11266334349E+04  0.16126059777E+04  0.46999998093E+01 0.  1.
</event>
<event>
 5   0  0.1401596E-05  0.2372976E+04  0.7818609E-02  0.8449691E-01
       -1   -1    0    0    0  501  0.00000000000E+00  0.00000000000E+00  0.69142467430E+03  0.69142467432E+03  0.50400001928E-02 0.  1.
        1   -1    0    0  501    0  0.00000000000E+00  0.00000000000E+00 -0.20360192482E+04  0.20360192482E+04  0.50400001928E-02 0. -1.
    10030    2    1    2    0    0  0.00000000000E+00  0.00000000000E+00 -0.13445945739E+04  0.27274439225E+04  0.23729761445E+04 0.  0.
        2    1    3    3  502    0 -0.93828872743E+03 -0.72530461561E+03 -0.71376135313E+03  0.13841632095E+04  0.25500000920E-02 0. -1.
       -2    1    3    3    0  502  0.93828872743E+03  0.72530461561E+03 -0.63083322080E+03  0.13432807130E+04  0.25500000920E-02 0.  1.
</event>
<event>
 5   0  0.3347728E-05  0.2373117E+04  0.7818609E-02  0.8449637E-01
       -2   -1    0    0    0  501  0.00000000000E+00  0.00000000000E+00  0.25017595688E+04  0.25017595688E+04  0.25500000920E-02 0. -1.
        2   -1    0    0  501    0  0.00000000000E+00  0.00000000000E+00 -0.56277226838E+03  0.56277226838E+03  0.25500000920E-02 0.  1.
    10030    2    1    2    0    0  0.00000000000E+00  0.00000000000E+00  0.19389873005E+04  0.30645318372E+04  0.23731168597E+04 0.  0.
        3    1    3    3  502    0  0.66763599745E+03 -0.57398562036E+03  0.19966865828E+04  0.21821903303E+04  0.10100000352E+00 0. -1.
       -3    1    3    3    0  502 -0.66763599745E+03  0.57398562036E+03 -0.57699282344E+02  0.88234150693E+03  0.10100000352E+00 0.  1.
</event>
<event>
 5   0  0.1401596E-05  0.2411688E+04  0.7818609E-02  0.8435141E-01
        1   -1    0    0  501    0  0.00000000000E+00  0.00000000000E+00  0.12919234618E+04  0.12919234618E+04  0.50400001928E-02 0.  1.
       -1   -1    0    0    0  501  0.00000000000E+00  0.00000000000E+00 -0.11255003787E+04  0.11255003788E+04  0.50400001928E-02 0. -1.
    10030    2    1    2    0    0  0.00000000000E+00  0.00000000000E+00  0.16642308303E+03  0.24174238405E+04  0.24116884920E+04 0.  0.
        2    1    3    3  502    0  0.40811205123E+03  0.11584246875E+03  0.12146498080E+04  0.12866036997E+04  0.25500000920E-02 0.  1.
       -2    1    3    3    0  502 -0.40811205123E+03 -0.11584246875E+03 -0.10482267250E+04  0.11308201408E+04  0.25500000920E-02 0. -1.
</event>
<event>
 5   0  0.1407158E-05  0.2414558E+04  0.7818609E-02  0.8434073E-01
       -1   -1    0    0    0  501  0.00000000000E+00  0.00000000000E+00  0.73154695565E+03  0.73154695566E+03  0.50400001928E-02 0.  1.
        1   -1    0    0  501    0  0.00000000000E+00  0.00000000000E+00 -0.19923836425E+04  0.19923836425E+04  0.50400001928E-02 0. -1.
    10030    2    1    2    0    0  0.00000000000E+00  0.00000000000E+00 -0.12608366869E+04  0.27239305982E+04  0.24145576723E+04 0.  0.
        1    1    3    3  502    0  0.57511553280E+03 -0.73885866052E+03  0.22936944268E+03  0.96399187629E+03  0.50400001928E-02 0.  1.
       -1    1    3    3    0  502 -0.57511553280E+03  0.73885866052E+03 -0.14902061296E+04  0.17599387219E+04  0.50400001928E-02 0. -1.
</event>
<event>
 5   0  0.3215208E-05  0.2412838E+04  0.7818609E-02  0.8434713E-01
        2   -1    0    0  501    0  0.00000000000E+00  0.00000000000E+00  0.15106834206E+04  0.15106834206E+04  0.25500000920E-02 0. -1.
       -2   -1    0    0    0  501  0.00000000000E+00  0.00000000000E+00 -0.96343616278E+03  0.96343616279E+03  0.25500000920E-02 0.  1.
    10030    2    1    2    0    0  0.00000000000E+00  0.00000000000E+00  0.54724725786E+03  0.24741195834E+04  0.24128381943E+04 0.  0.
        1    1    3    3  502    0 -0.35950354795E+03 -0.69414932655E+03 -0.66860556813E+03  0.10286493544E+04  0.50400001928E-02 0.  1.
       -1    1    3    3    0  502  0.35950354795E+03  0.69414932655E+03  0.12158528260E+04  0.14454702290E+04  0.50400001928E-02 0. -1.
</event>
<event>
 5   0  0.1434943E-05  0.2416481E+04  0.7818609E-02  0.8433359E-01
       -1   -1    0    0    0  501  0.00000000000E+00  0.00000000000E+00  0.66778476918E+03  0.66778476920E+03  0.50400001928E-02 0.  1.
        1   -1    0    0  501    0  0.00000000000E+00  0.00000000000E+00 -0.21861008423E+04  0.21861008424E+04  0.50400001928E-02 0. -1.
    10030    2    1    2    0    0  0.00000000000E+00  0.00000000000E+00 -0.15183160732E+04  0.28538856115E+04  0.24164807853E+04 0.  0.
        5    1    3    3  502    0  0.90326054358E+03 -0.30623329123E+03 -0.16351485959E+04  0.18929848016E+04  0.46999998093E+01 0. -1.
       -5    1    3    3    0  502 -0.90326054358E+03  0.30623329123E+03  0.11683252275E+03  0.96090080998E+03  0.46999998093E+01 0.  1.
</event>
<event>
 5   0  0.1434943E-05  0.2313794E+04  0.7818609E-02  0.8472502E-01
        1   -1    0    0  501    0  0.00000000000E+00  0.00000000000E+00  0.18030893590E+04  0.18030893590E+04  0.50400001928E-02 0. -1.
       -1   -1    0    0    0  501  0.00000000000E+00  0.00000000000E+00 -0.74228749610E+03  0.74228749612E+03  0.50400001928E-02 0.  1.
    10030    2    1    2    0    0  0.00000000000E+00  0.00000000000E+00  0.10608018629E+04  0.25453768552E+04  0.23137940147E+04 0.  0.
        5    1    3    3  502    0 -0.46121070356E+03  0.10609300908E+04  0.51936573291E+03  0.12680894390E+04  0.46999998093E+01 0. -1.
       -5    1    3    3    0  502  0.46121070356E+03 -0.10609300908E+04  0.54143613002E+03  0.12772874162E+04  0.46999998093E+01 0.  1.
</event>
<event>
 5   0  0.3310037E-05  0.2479739E+04  0.7818609E-02  0.8410239E-01
        2   -1    0    0  501    0  0.00000000000E+00  0.00000000000E+00  0.11194892907E+04  0.11194892907E+04  0.25500000920E-02 0.  1.
       -2   -1    0    0    0  501  0.00000000000E+00  0.00000000000E+00 -0.13731946407E+04  0.13731946407E+04  0.25500000920E-02 0. -1.
    10030    2    1    2    0    0  0.00000000000E+00  0.00000000000E+00 -0.25370535000E+03  0.24926839314E+04  0.24797392559E+04 0.  0.
        2    1    3    3  502    0  0.46903752010E+03 -0.58536110313E+03  0.86553583131E+03  0.11453366717E+04  0.25500000920E-02 0.  1.
       -2    1    3    3    0  502 -0.46903752010E+03  0.58536110313E+03 -0.11192411813E+04  0.13473472597E+04  0.25500000920E-02 0. -1.
</event>
<event>
 5   0  0.3310037E-05  0.2216531E+04  0.7818609E-02  0.8511579E-01
       -2   -1    0    0    0  501  0.00000000000E+00  0.00000000000E+00  0.98697268217E+03  0.98697268217E+03  0.25500000920E-02 0. -1.
        2   -1    0    0  501    0  0.00000000000E+00  0.00000000000E+00 -0.12444643614E+04  0.12444643614E+04  0.25500000920E-02 0.  1.
    10030    2    1    2    0    0  0.00000000000E+00  0.00000000000E+00 -0.25749167925E+03  0.22314370436E+04  0.22165309189E+04 0.  0.
        2    1    3    3  502    0 -0.55545777662E+03 -0.66992199212E+03  0.56210777075E+03  0.10359990169E+04  0.25500000920E-02 0. -1.
       -2    1    3    3    0  502  0.55545777662E+03  0.66992199212E+03 -0.81959945000E+03  0.11954380267E+04  0.25500000920E-02 0.  1.
</event>
<event>
 5   0  0.1506985E-05  0.2416593E+04  0.7818609E-02  0.8433317E-01
        1   -1    0    0  501    0  0.00000000000E+00  0.00000000000E+00  0.11987242340E+04  0.11987242340E+04  0.50400001928E-02 0.  1.
       -1   -1    0    0    0  501  0.00000000000E+00  0.00000000000E+00 -0.12179456172E+04  0.12179456172E+04  0.50400001928E-02 0. -1.
    10030    2    1    2    0    0  0.00000000000E+00  0.00000000000E+00 -0.19221383236E+02  0.24166698512E+04  0.24165934098E+04 0.  0.
        3    1    3    3  502    0  0.38711161191E+03  0.24693310461E+03 -0.11272996402E+04  0.12172246495E+04  0.10100000352E+00 0. -1.
       -3    1    3    3    0  502 -0.38711161191E+03 -0.24693310461E+03  0.11080782570E+04  0.11994452017E+04  0.10100000352E+00 0.  1.
</event>
<event>
 5   0  0.3320780E-05  0.2482569E+04  0.7818609E-02  0.8409222E-01
       -2   -1    0    0    0  501  0.00000000000E+00  0.00000000000E+00  0.11562885821E+04  0.11562885821E+04  0.25500000920E-02 0. -1.
        2   -1    0    0  501    0  0.00000000000E+00  0.00000000000E+00 -0.13325283232E+04  0.13325283232E+04  0.25500000920E-02 0.  1.
    10030    2    1    2    0    0  0.00000000000E+00  0.00000000000E+00 -0.17623974117E+03  0.24888169053E+04  0.24825690608E+04 0.  0.
        5    1    3    3  502    0  0.11072706401E+04 -0.95018606314E+02  0.46616251995E+03  0.12051582431E+04  0.46999998093E+01 0. -1.
       -5    1    3    3    0  502 -0.11072706401E+04  0.95018606314E+02 -0.64240226112E+03  0.12836586622E+04  0.46999998093E+01 0.  1.
</event>
<event>
 5   0  0.1393026E-05  0.2417762E+04  0.7818609E-02  0.8432884E-01
        1   -1    0    0  501    0  0.00000000000E+00  0.00000000000E+00  0.20799281854E+04  0.20799281854E+04  0.50400001928E-02 0.  1.
       -1   -1    0    0    0  501  0.00000000000E+00  0.00000000000E+00 -0.70261707870E+03  0.70261707872E+03  0.50400001928E-02 0. -1.
    10030    2    1    2    0    0  0.00000000000E+00  0.00000000000E+00  0.13773111067E+04  0.27825452641E+04  0.24177618291E+04 0.  0.
        4    1    3    3  502    0 -0.13680279059E+03  0.67119295734E+03  0.18350212480E+04  0.19587035464E+04  0.12699999809E+01 0. -1.
       -4    1    3    3    0  502  0.13680279059E+03 -0.67119295734E+03 -0.45771014125E+03  0.82384171769E+03  0.12699999809E+01 0.  1.
</event>
<event>
 5   0  0.3310037E-05  0.2375187E+04  0.7818609E-02  0.8448852E-01
       -2   -1    0    0    0  501  0.00000000000E+00  0.00000000000E+00  0.19188518097E+04  0.19188518097E+04  0.25500000920E-02 0. -1.
        2   -1    0    0  501    0  0.00000000000E+00  0.00000000000E+00 -0.73501134035E+03  0.73501134035E+03  0.25500000920E-02 0.  1.
    10030    2    1    2    0    0  0.00000000000E+00  0.00000000000E+00  0.11838404693E+04  0.26538631500E+04  0.23751865953E+04 0.  0.
        2    1    3    3  502    0  0.85059584571E+03  0.26834554609E+03 -0.28420708182E+03  0.93610698652E+03  0.25500000920E-02 0.  1.
       -2    1    3    3    0  502 -0.85059584571E+03 -0.26834554609E+03  0.14680475511E+04  0.17177561635E+04  0.25500000920E-02 0. -1.
</event>
<event>
 5   0  0.1434943E-05  0.2402628E+04  0.7818609E-02  0.8438520E-01
        1   -1    0    0  501    0  0.00000000000E+00  0.00000000000E+00  0.13289430492E+04  0.13289430492E+04  0.50400001928E-02 0. -1.
       -1   -1    0    0    0  501  0.00000000000E+00  0.00000000000E+00 -0.10859418534E+04  0.10859418534E+04  0.50400001928E-02 0.  1.
    10030    2    1    2    0    0  0.00000000000E+00  0.00000000000E+00  0.24300119586E+03  0.24148849026E+04  0.24026276265E+04 0.  0.
        5    1    3    3  502    0  0.50704643343E+03  0.81208467990E+03  0.85084375494E+03  0.12808336341E+04  0.46999998093E+01 0. -1.
       -5    1    3    3    0  502 -0.50704643343E+03 -0.81208467990E+03 -0.60784255908E+03  0.11340512685E+04  0.46999998093E+01 0.  1.
</event>
<event>
 5   0  0.1434943E-05  0.2439957E+04  0.7818609E-02  0.8424694E-01
       -1   -1    0    0    0  501  0.00000000000E+00  0.00000000000E+00  0.11107883906E+04  0.11107883906E+04  0.50400001928E-02 0. -1.
        1   -1    0    0  501    0  0.00000000000E+00  0.00000000000E+00 -0.13399019695E+04  0.13399019695E+04  0.50400001928E-02 0.  1.
    10030    2    1    2    0    0  0.00000000000E+00  0.00000000000E+00 -0.22911357886E+03  0.24506903601E+04  0.24399570097E+04 0.  0.
        5    1    3    3  502    0 -0.51147251437E+03 -0.10231749023E+04  0.31137760589E+03  0.11855248277E+04  0.46999998093E+01 0.  1.
       -5    1    3    3    0  502  0.51147251437E+03  0.10231749023E+04 -0.54049118475E+03  0.12651655324E+04  0.46999998093E+01 0. -1.
</event>
<event>
 5   0  0.1401596E-05  0.2398878E+04  0.7818609E-02  0.8439924E-01
        1   -1    0    0  501    0  0.00000000000E+00  0.00000000000E+00  0.73447263464E+03  0.73447263466E+03  0.50400001928E-02 0. -1.
       -1   -1    0    0    0  501  0.00000000000E+00  0.00000000000E+00 -0.19587582724E+04  0.19587582724E+04  0.50400001928E-02 0.  1.
    10030    2    1    2    0    0  0.00000000000E+00  0.00000000000E+00 -0.12242856378E+04  0.26932309071E+04  0.23988783621E+04 0.  0.
        2    1    3    3  502    0 -0.93613981160E+03  0.11472836649E+03 -0.14441068131E+04  0.17248086365E+04  0.25500000920E-02 0.  1.
       -2    1    3    3    0  502  0.93613981160E+03 -0.11472836649E+03  0.21982117536E+03  0.96842227055E+03  0.25500000920E-02 0. -1.
</event>
<event>
 5   0  0.1434943E-05  0.1987677E+04  0.7818609E-02  0.8612404E-01
        1   -1    0    0  501    0  0.00000000000E+00  0.00000000000E+00  0.82278362143E+03  0.82278362145E+03  0.50400001928E-02 0. -1.
       -1   -1    0    0    0  501  0.00000000000E+00  0.00000000000E+00 -0.12004551348E+04  0.12004551349E+04  0.50400001928E-02 0.  1.
    10030    2    1    2    0    0  0.00000000000E+00  0.00000000000E+00 -0.37767151341E+03  0.20232387563E+04  0.19876768583E+04 0.  0.
        5    1    3    3  502    0  0.80584920986E+03 -0.29408408037E+03 -0.69962481005E+03  0.11069667385E+04  0.46999998093E+01 0.  1.
       -5    1    3    3    0  502 -0.80584920986E+03  0.29408408037E+03  0.32195329664E+03  0.91627201778E+03  0.46999998093E+01 0. -1.
</event>
<event>
 5   0  0.3310037E-05  0.2373084E+04  0.7818609E-02  0.8449650E-01
       -2   -1    0    0    0  501  0.00000000000E+00  0.00000000000E+00  0.90354640690E+03  0.90354640691E+03  0.25500000920E-02 0. -1.
        2   -1    0    0  501    0  0.00000000000E+00  0.00000000000E+00 -0.15581731942E+04  0.15581731942E+04  0.25500000920E-02 0.  1.
    10030    2    1    2    0    0  0.00000000000E+00  0.00000000000E+00 -0.65462678728E+03  0.24617196011E+04  0.23730838931E+04 0.  0.
        2    1    3    3  502    0  0.55283077922E+03 -0.11940899704E+03  0.75471889719E+03  0.94312299983E+03  0.25500000920E-02 0. -1.
       -2    1    3    3    0  502 -0.55283077922E+03  0.11940899704E+03 -0.14093456845E+04  0.15185966013E+04  0.25500000920E-02 0.  1.
</event>
<event>
 5   0  0.3310037E-05  0.2490725E+04  0.7818609E-02  0.8406297E-01
        2   -1    0    0  501    0  0.00000000000E+00  0.00000000000E+00  0.15014631692E+04  0.15014631692E+04  0.25500000920E-02 0.  1.
       -2   -1    0    0    0  501  0.00000000000E+00  0.00000000000E+00 -0.10329439885E+04  0.10329439885E+04  0.25500000920E-02 0. -1.
    10030    2    1    2    0    0  0.00000000000E+00  0.00000000000E+00  0.46851918070E+03  0.25344071577E+04  0.24907246774E+04 0.  0.
        2    1    3    3  502    0  0.65727940918E+02  0.81251638811E+03 -0.72375360767E+03  0.10901019805E+04  0.25500000920E-02 0. -1.
       -2    1    3    3    0  502 -0.65727940918E+02 -0.81251638811E+03  0.11922727884E+04  0.14443051773E+04  0.25500000920E-02 0.  1.
</event>
<event>
 5   0  0.1393026E-05  0.2397268E+04  0.7818609E-02  0.8440527E-01
       -1   -1    0    0    0  501  0.00000000000E+00  0.00000000000E+00  0.15144015665E+04  0.15144015665E+04  0.50400001928E-02 0. -1.
        1   -1    0    0  501    0  0.00000000000E+00  0.00000000000E+00 -0.94870746061E+03  0.94870746062E+03  0.50400001928E-02 0.  1.
    10030    2    1    2    0    0  0.00000000000E+00  0.00000000000E+00  0.56569410584E+03  0.24631090271E+04  0.23972684993E+04 0.  0.
        4    1    3    3  502    0 -0.67764225768E+03  0.48416493223E+03  0.11685597077E+04  0.14349732103E+04  0.12699999809E+01 0. -1.
       -4    1    3    3    0  502  0.67764225768E+03 -0.48416493223E+03 -0.60286560182E+03  0.10281358168E+04  0.12699999809E+01 0.  1.
</event>
<event>
 5   0  0.3345974E-05  0.2408804E+04  0.7818609E-02  0.8436215E-01
       -2   -1    0    0    0  501  0.00000000000E+00  0.00000000000E+00  0.97588125375E+03  0.97588125375E+03  0.25500000920E-02 0.  1.
        2   -1    0    0  501    0  0.00000000000E+00  0.00000000000E+00 -0.14864349356E+04  0.14864349356E+04  0.25500000920E-02 0. -1.
    10030    2    1    2    0    0  0.00000000000E+00  0.00000000000E+00 -0.51055368186E+03  0.24623161894E+04  0.24088038431E+04 0.  0.
        4    1    3    3  502    0 -0.14039706368E+03 -0.11872652896E+04 -0.40436676948E+03  0.12620714324E+04  0.12699999809E+01 0.  1.
       -4    1    3    3    0  502  0.14039706368E+03  0.11872652896E+04 -0.10618691238E+03  0.12002447570E+04  0.12699999809E+01 0. -1.
</event>
<event>
 5   0  0.1147362E-05  0.2400241E+04  0.7818609E-02  0.8439413E-01
       -3   -1    0    0    0  501  0.00000000000E+00  0.00000000000E+00  0.95293165568E+03  0.95293166104E+03  0.10100000352E+00 0.  1.
        3   -1    0    0  501    0  0.00000000000E+00  0.00000000000E+00 -0.15114300188E+04  0.15114300221E+04  0.10100000352E+00 0. -1.
    10030    2    1    2    0    0  0.00000000000E+00  0.00000000000E+00 -0.55849836309E+03  0.24643616832E+04  0.24002412554E+04 0.  0.
        1    1    3    3  502    0 -0.70366463419E+03 -0.19006923133E+03  0.69964579844E+03  0.10103338426E+04  0.50400001928E-02 0.  1.
       -1    1    3    3    0  502  0.70366463419E+03  0.19006923133E+03 -0.12581441615E+04  0.14540278406E+04  0.50400001928E-02 0. -1.
</event>
<event>
 5   0  0.1434943E-05  0.2385699E+04  0.7818609E-02  0.8444877E-01
        1   -1    0    0  501    0  0.00000000000E+00  0.00000000000E+00  0.18221453944E+04  0.18221453944E+04  0.50400001928E-02 0. -1.
       -1   -1    0    0    0  501  0.00000000000E+00  0.00000000000E+00 -0.78088697462E+03  0.78088697464E+03  0.50400001928E-02 0.  1.
    10030    2    1    2    0    0  0.00000000000E+00  0.00000000000E+00  0.10412584198E+04  0.26030323690E+04  0.23856987273E+04 0.  0.
        5    1    3    3  502    0 -0.46310189202E+02  0.11251249493E+04  0.91317322584E+02  0.11297839300E+04  0.46999998093E+01 0.  1.
       -5    1    3    3    0  502  0.46310189202E+02 -0.11251249493E+04  0.94994109718E+03  0.14732484391E+04  0.46999998093E+01 0. -1.
</event>
<event>
 5   0  0.1506985E-05  0.2385272E+04  0.7818609E-02  0.8445038E-01
        1   -1    0    0  501    0  0.00000000000E+00  0.00000000000E+00  0.15498744211E+04  0.15498744211E+04  0.50400001928E-02 0.  1.
       -1   -1    0    0    0  501  0.00000000000E+00  0.00000000000E+00 -0.91773916399E+03  0.91773916400E+03  0.50400001928E-02 0. -1.
    10030    2    1    2    0    0  0.00000000000E+00  0.00000000000E+00  0.63213525711E+03  0.24676135851E+04  0.23852718550E+04 0.  0.
        3    1    3    3  502    0 -0.11093220272E+04  0.15214933060E+03 -0.10876120549E+03  0.11249772392E+04  0.10100000352E+00 0. -1.
       -3    1    3    3    0  502  0.11093220272E+04 -0.15214933060E+03  0.74089646260E+03  0.13426363459E+04  0.10100000352E+00 0.  1.
</event>
<event>
 5   0  0.3310037E-05  0.2374162E+04  0.7818609E-02  0.8449241E-01
       -2   -1    0    0    0  501  0.00000000000E+00  0.00000000000E+00  0.54136908594E+03  0.54136908594E+03  0.25500000920E-02 0.  1.
        2   -1    0    0  501    0  0.00000000000E+00  0.00000000000E+00 -0.26029579427E+04  0.26029579427E+04  0.25500000920E-02 0. -1.
    10030    2    1    2    0    0  0.00000000000E+00  0.00000000000E+00 -0.20615888568E+04  0.31443270287E+04  0.23741617150E+04 0.  0.
        2    1    3    3  502    0  0.82502979290E+03 -0.10160582050E+03  0.91557204954E+02  0.83628979649E+03  0.25500000920E-02 0.  1.
       -2    1    3    3    0  502 -0.82502979290E+03  0.10160582050E+03 -0.21531460618E+04  0.23080372322E+04  0.25500000920E-02 0. -1.
</event>
<event>
 5   0  0.1407158E-05  0.2394446E+04  0.7818609E-02  0.8441586E-01
       -1   -1    0    0    0  501  0.00000000000E+00  0.00000000000E+00  0.92203993409E+03  0.92203993410E+03  0.50400001928E-02 0. -1.
        1   -1    0    0  501    0  0.00000000000E+00  0.00000000000E+00 -0.15545348548E+04  0.15545348548E+04  0.50400001928E-02 0.  1.
    10030    2    1    2    0    0  0.00000000000E+00  0.00000000000E+00 -0.63249492068E+03  0.24765747889E+04  0.23944462534E+04 0.  0.
        1    1    3    3  502    0  0.10994140709E+03 -0.47324679895E+03  0.81549257507E+03  0.94925117105E+03  0.50400001928E-02 0. -1.
       -1    1    3    3    0  502 -0.10994140709E+03  0.47324679895E+03 -0.14479874958E+04  0.15273236178E+04  0.50400001928E-02 0.  1.
</event>
<event>
 5   0  0.3310037E-05  0.2392985E+04  0.7818609E-02  0.8442134E-01
       -2   -1    0    0    0  501  0.00000000000E+00  0.00000000000E+00  0.20309075299E+04  0.20309075299E+04  0.25500000920E-02 0. -1.
        2   -1    0    0  501    0  0.00000000000E+00  0.00000000000E+00 -0.70490391279E+03  0.70490391279E+03  0.25500000920E-02 0.  1.
    10030    2    1    2    0    0  0.00000000000E+00  0.00000000000E+00  0.13260036171E+04  0.27358114427E+04  0.23929853024E+04 0.  0.
        2    1    3    3  502    0  0.26752585795E+03  0.11654180191E+04  0.71184764700E+03  0.13915805103E+04  0.25500000920E-02 0.  1.
       -2    1    3    3    0  502 -0.26752585795E+03 -0.11654180191E+04  0.61415597011E+03  0.13442309324E+04  0.25500000920E-02 0. -1.
</event>
<event>
 5   0  0.3310037E-05  0.2384802E+04  0.7818609E-02  0.8445216E-01
        2   -1    0    0  501    0  0.00000000000E+00  0.00000000000E+00  0.14748682842E+04  0.14748682842E+04  0.25500000920E-02 0.  1.
       -2   -1    0    0    0  501  0.00000000000E+00  0.00000000000E+00 -0.96403162933E+03  0.96403162933E+03  0.25500000920E-02 0. -1.
    10030    2    1    2    0    0  0.00000000000E+00  0.00000000000E+00  0.51083665488E+03  0.24388999135E+04  0.23848016061E+04 0.  0.
        2    1    3    3  502    0  0.53473469647E+03 -0.56530004234E+03  0.11794150613E+04  0.14129845082E+04  0.25500000920E-02 0.  1.
       -2    1    3    3    0  502 -0.53473469647E+03  0.56530004234E+03 -0.66857840641E+03  0.10259154054E+04  0.25500000920E-02 0. -1.
</event>
<event>
 5   0  0.1506985E-05  0.2259401E+04  0.7818609E-02  0.8494103E-01
        1   -1    0    0  501    0  0.00000000000E+00  0.00000000000E+00  0.13883804539E+04  0.13883804539E+04  0.50400001928E-02 0.  1.
       -1   -1    0    0    0  501  0.00000000000E+00  0.00000000000E+00 -0.91921701132E+03  0.91921701133E+03  0.50400001928E-02 0. -1.
    10030    2    1    2    0    0  0.00000000000E+00  0.00000000000E+00  0.46916344259E+03  0.23075974653E+04  0.22594007448E+04 0.  0.
        3    1    3    3  502    0  0.24312800246E+03 -0.50721529539E+02  0.13601517545E+04  0.13826412061E+04  0.10100000352E+00 0.  1.
       -3    1    3    3    0  502 -0.24312800246E+03  0.50721529539E+02 -0.89098831196E+03  0.92495625917E+03  0.10100000352E+00 0. -1.
</event>
<event>
 5   0  0.1407158E-05  0.2433912E+04  0.7818609E-02  0.8426916E-01
        1   -1    0    0  501    0  0.00000000000E+00  0.00000000000E+00  0.13601611992E+04  0.13601611992E+04  0.50400001928E-02 0.  1.
       -1   -1    0    0    0  501  0.00000000000E+00  0.00000000000E+00 -0.10888280375E+04  0.10888280375E+04  0.50400001928E-02 0. -1.
    10030    2    1    2    0    0  0.00000000000E+00  0.00000000000E+00  0.27133316169E+03  0.24489892367E+04  0.24339117890E+04 0.  0.
        1    1    3    3  502    0 -0.80361329517E+03  0.20810652949E+03 -0.75972179773E+03  0.11252910138E+04  0.50400001928E-02 0. -1.
       -1    1    3    3    0  502  0.80361329517E+03 -0.20810652949E+03  0.10310549594E+04  0.13236982229E+04  0.50400001928E-02 0.  1.
</event>
<event>
 5   0  0.1506985E-05  0.2275309E+04  0.7818609E-02  0.8487720E-01
       -1   -1    0    0    0  501  0.00000000000E+00  0.00000000000E+00  0.11915555906E+04  0.11915555907E+04  0.50400001928E-02 0. -1.
        1   -1    0    0  501    0  0.00000000000E+00  0.00000000000E+00 -0.10861917992E+04  0.10861917992E+04  0.50400001928E-02 0.  1.
    10030    2    1    2    0    0  0.00000000000E+00  0.00000000000E+00  0.10536379147E+03  0.22777473898E+04  0.22753091314E+04 0.  0.
        3    1    3    3  502    0 -0.54531501608E+02 -0.44823618109E+03 -0.99264422925E+03  0.10905191125E+04  0.10100000352E+00 0.  1.
       -3    1    3    3    0  502  0.54531501608E+02  0.44823618109E+03  0.10980080207E+04  0.11872282773E+04  0.10100000352E+00 0. -1.
</event>
<event>
 5   0  0.1147362E-05  0.2397490E+04  0.7818609E-02  0.8440444E-01
        3   -1    0    0  501    0  0.00000000000E+00  0.00000000000E+00  0.53884280642E+03  0.53884281588E+03  0.10100000352E+00 0.  1.
       -3   -1    0    0    0  501  0.00000000000E+00  0.00000000000E+00 -0.26668073958E+04  0.26668073977E+04  0.10100000352E+00 0. -1.
    10030    2    1    2    0    0  0.00000000000E+00  0.00000000000E+00 -0.21279645894E+04  0.32056502136E+04  0.23974903541E+04 0.  0.
        4    1    3    3  502    0 -0.11936178440E+04  0.24736683991E+02 -0.12083189872E+04  0.16986382337E+04  0.12699999809E+01 0. -1.
       -4    1    3    3    0  502  0.11936178440E+04 -0.24736683991E+02 -0.91964560220E+03  0.15070119799E+04  0.12699999809E+01 0.  1.
</event>
<event>
 5   0  0.1393026E-05  0.2403044E+04  0.7818609E-02  0.8438365E-01
        1   -1    0    0  501    0  0.00000000000E+00  0.00000000000E+00  0.88028289676E+03  0.88028289677E+03  0.50400001928E-02 0. -1.
       -1   -1    0    0    0  501  0.00000000000E+00  0.00000000000E+00 -0.16399905549E+04  0.16399905549E+04  0.50400001928E-02 0.  1.
    10030    2    1    2    0    0  0.00000000000E+00  0.00000000000E+00 -0.75970765816E+03  0.25202734517E+04  0.24030444327E+04 0.  0.
        4    1    3    3  502    0 -0.92746372542E+03 -0.73218898570E+02  0.41756937907E+03  0.10197626039E+04  0.12699999809E+01 0. -1.
       -4    1    3    3    0  502  0.92746372542E+03  0.73218898570E+02 -0.11772770372E+04  0.15005108478E+04  0.12699999809E+01 0.  1.
</event>
<event>
 5   0  0.1393026E-05  0.2425796E+04  0.7818609E-02  0.8429909E-01
       -1   -1    0    0    0  501  0.00000000000E+00  0.00000000000E+00  0.81483616308E+03  0.81483616310E+03  0.50400001928E-02 0. -1.
        1   -1    0    0  501    0  0.00000000000E+00  0.00000000000E+00 -0.18054194051E+04  0.18054194051E+04  0.50400001928E-02 0.  1.
    10030    2    1    2    0    0  0.00000000000E+00  0.00000000000E+00 -0.99058324200E+03  0.26202555682E+04  0.24257955568E+04 0.  0.
        4    1    3    3  502    0  0.28805963607E+03 -0.10881601794E+04 -0.98322006481E+03  0.14945883175E+04  0.12699999809E+01 0.  1.
       -4    1    3    3    0  502 -0.28805963607E+03  0.10881601794E+04 -0.73631771944E+01  0.11256672507E+04  0.12699999809E+01 0. -1.
</event>
<event>
 5   0  0.3215208E-05  0.2412658E+04  0.7818609E-02  0.8434780E-01
       -2   -1    0    0    0  501  0.00000000000E+00  0.00000000000E+00  0.12150061314E+04  0.12150061314E+04  0.25500000920E-02 0.  1.
        2   -1    0    0  501    0  0.00000000000E+00  0.00000000000E+00 -0.11977134193E+04  0.11977134193E+04  0.25500000920E-02 0. -1.
    10030    2    1    2    0    0  0.00000000000E+00  0.00000000000E+00  0.17292712152E+02  0.24127195507E+04  0.24126575787E+04 0.  0.
        1    1    3    3  502    0  0.88681703620E+03  0.79052822063E+03  0.21805523231E+03  0.12078606739E+04  0.50400001928E-02 0.  1.
       -1    1    3    3    0  502 -0.88681703620E+03 -0.79052822063E+03 -0.20076252015E+03  0.12048588767E+04  0.50400001928E-02 0. -1.
</event>
<event>
 5   0  0.3347728E-05  0.2402554E+04  0.7818609E-02  0.8438548E-01
       -2   -1    0    0    0  501  0.00000000000E+00  0.00000000000E+00  0.79830592147E+03  0.79830592147E+03  0.25500000920E-02 0.  1.
        2   -1    0    0  501    0  0.00000000000E+00  0.00000000000E+00 -0.18076614847E+04  0.18076614847E+04  0.25500000920E-02 0. -1.
    10030    2    1    2    0    0  0.00000000000E+00  0.00000000000E+00 -0.10093555632E+04  0.26059674061E+04  0.24025543634E+04 0.  0.
        3    1    3    3  502    0  0.10200451616E+04  0.58520436617E+03 -0.23874541524E+03  0.11999815271E+04  0.10100000352E+00 0.  1.
       -3    1    3    3    0  502 -0.10200451616E+04 -0.58520436617E+03 -0.77061014795E+03  0.14059858791E+04  0.10100000352E+00 0. -1.
</event>
<event>
 5   0  0.1434943E-05  0.2402941E+04  0.7818609E-02  0.8438403E-01
       -1   -1    0    0    0  501  0.00000000000E+00  0.00000000000E+00  0.88098225745E+03  0.88098225747E+03  0.50400001928E-02 0.  1.
        1   -1    0    0  501    0  0.00000000000E+00  0.00000000000E+00 -0.16385479596E+04  0.16385479596E+04  0.50400001928E-02 0. -1.
    10030    2    1    2    0    0  0.00000000000E+00  0.00000000000E+00 -0.75756570218E+03  0.25195302171E+04  0.24029412647E+04 0.  0.
        5    1    3    3  502    0  0.22040669056E+03  0.70359696613E+03  0.61586453972E+03  0.96069715377E+03  0.46999998093E+01 0.  1.
       -5    1    3    3    0  502 -0.22040669056E+03 -0.70359696613E+03 -0.13734302419E+04  0.15588330633E+04  0.46999998093E+01 0. -1.
</event>
<event>
 5   0  0.3310037E-05  0.2410999E+04  0.7818609E-02  0.8435397E-01
       -2   -1    0    0    0  501  0.00000000000E+00  0.00000000000E+00  0.16502381940E+04  0.16502381940E+04  0.25500000920E-02 0.  1.
        2   -1    0    0  501    0  0.00000000000E+00  0.00000000000E+00 -0.88061748312E+03  0.88061748313E+03  0.25500000920E-02 0. -1.
    10030    2    1    2    0    0  0.00000000000E+00  0.00000000000E+00  0.76962071087E+03  0.25308556771E+04  0.24109986354E+04 0.  0.
        2    1    3    3  502    0  0.72726670191E+03  0.47335420679E+03 -0.49359750357E+03  0.99830834732E+03  0.25500000920E-02 0. -1.
       -2    1    3    3    0  502 -0.72726670191E+03 -0.47335420679E+03  0.12632182144E+04  0.15325473298E+04  0.25500000920E-02 0.  1.
</event>
<event>
 5   0  0.3345974E-05  0.2414000E+04  0.7818609E-02  0.8434281E-01
       -2   -1    0    0    0  501  0.00000000000E+00  0.00000000000E+00  0.95947802613E+03  0.95947802613E+03  0.25500000920E-02 0. -1.
        2   -1    0    0  501    0  0.00000000000E+00  0.00000000000E+00 -0.15183760925E+04  0.15183760925E+04  0.25500000920E-02 0.  1.
    10030    2    1    2    0    0  0.00000000000E+00  0.00000000000E+00 -0.55889806636E+03  0.24778541186E+04  0.24139995826E+04 0.  0.
        4    1    3    3  502    0  0.11192409224E+04  0.40310093077E+03 -0.69951560599E+02  0.11916733766E+04  0.12699999809E+01 0.  1.
       -4    1    3    3    0  502 -0.11192409224E+04 -0.40310093077E+03 -0.48894650576E+03  0.12861807420E+04  0.12699999809E+01 0. -1.
</event>
<event>
 5   0  0.1393026E-05  0.2406713E+04  0.7818609E-02  0.8436994E-01
        1   -1    0    0  501    0  0.00000000000E+00  0.00000000000E+00  0.11132336220E+04  0.11132336220E+04  0.50400001928E-02 0.  1.
       -1   -1    0    0    0  501  0.00000000000E+00  0.00000000000E+00 -0.13007758939E+04  0.13007758939E+04  0.50400001928E-02 0. -1.
    10030    2    1    2    0    0  0.00000000000E+00  0.00000000000E+00 -0.18754227193E+03  0.24140095159E+04  0.24067134934E+04 0.  0.
        4    1    3    3  502    0 -0.49796555822E+03  0.10107568968E+04  0.32996267109E+03  0.11740852519E+04  0.12699999809E+01 0.  1.
       -4    1    3    3    0  502  0.49796555822E+03 -0.10107568968E+04 -0.51750494302E+03  0.12399242640E+04  0.12699999809E+01 0. -1.
</event>
<event>
 5   0  0.3320780E-05  0.2395423E+04  0.7818609E-02  0.8441219E-01
       -2   -1    0    0    0  501  0.00000000000E+00  0.00000000000E+00  0.11737122779E+04  0.11737122779E+04  0.25500000920E-02 0. -1.
        2   -1    0    0  501    0  0.00000000000E+00  0.00000000000E+00 -0.12222011401E+04  0.12222011401E+04  0.25500000920E-02 0.  1.
    10030    2    1    2    0    0  0.00000000000E+00  0.00000000000E+00 -0.48488862197E+02  0.23959134179E+04  0.23954227052E+04 0.  0.
        5    1    3    3  502    0  0.17432518484E+03  0.44200499872E+03  0.10754045966E+04  0.11757018437E+04  0.46999998093E+01 0. -1.
       -5    1    3    3    0  502 -0.17432518484E+03 -0.44200499872E+03 -0.11238934588E+04  0.12202115742E+04  0.46999998093E+01 0.  1.
</event>
<event>
 5   0  0.3215208E-05  0.2386750E+04  0.7818609E-02  0.8444481E-01
       -2   -1    0    0    0  501  0.00000000000E+00  0.00000000000E+00  0.15394861030E+04  0.15394861030E+04  0.25500000920E-02 0. -1.
        2   -1    0    0  501    0  0.00000000000E+00  0.00000000000E+00 -0.92507714173E+03  0.92507714173E+03  0.25500000920E-02 0.  1.
    10030    2    1    2    0    0  0.00000000000E+00  0.00000000000E+00  0.61440896127E+03  0.24645632447E+04  0.23867495921E+04 0.  0.
        1    1    3    3  502    0  0.53544108133E+02 -0.39987276898E+03  0.14669314879E+04  0.15213984334E+04  0.50400001928E-02 0. -1.
       -1    1    3    3    0  502 -0.53544108133E+02  0.39987276898E+03 -0.85252252664E+03  0.94316481134E+03  0.50400001928E-02 0.  1.
</event>
<event>
 5   0  0.1393026E-05  0.2379271E+04  0.7818609E-02  0.8447305E-01
       -1   -1    0    0    0  501  0.00000000000E+00  0.00000000000E+00  0.14298014542E+04  0.14298014542E+04  0.50400001928E-02 0. -1.
        1   -1    0    0  501    0  0.00000000000E+00  0.00000000000E+00 -0.98981045299E+03  0.98981045300E+03  0.50400001928E-02 0.  1.
    10030    2    1    2    0    0  0.00000000000E+00  0.00000000000E+00  0.43999100119E+03  0.24196119072E+04  0.23792708337E+04 0.  0.
        4    1    3    3  502    0 -0.14319297572E+03  0.98982454971E+03  0.87510251080E+03  0.13289329873E+04  0.12699999809E+01 0. -1.
       -4    1    3    3    0  502  0.14319297572E+03 -0.98982454971E+03 -0.43511150961E+03  0.10906789199E+04  0.12699999809E+01 0.  1.
</event>
<event>
 5   0  0.1506985E-05  0.2401810E+04  0.7818609E-02  0.8438826E-01
       -1   -1    0    0    0  501  0.00000000000E+00  0.00000000000E+00  0.15927695007E+04  0.15927695007E+04  0.50400001928E-02 0. -1.
        1   -1    0    0  501    0  0.00000000000E+00  0.00000000000E+00 -0.90545003916E+03  0.90545003917E+03  0.50400001928E-02 0.  1.
    10030    2    1    2    0    0  0.00000000000E+00  0.00000000000E+00  0.68731946156E+03  0.24982195399E+04  0.24018103229E+04 0.  0.
        3    1    3    3  502    0 -0.60451586342E+02 -0.11163927036E+04  0.79964721118E+03  0.13745627434E+04  0.10100000352E+00 0. -1.
       -3    1    3    3    0  502  0.60451586342E+02  0.11163927036E+04 -0.11232774962E+03  0.11236567965E+04  0.10100000352E+00 0.  1.
</event>
<event>
 5   0  0.3345974E-05  0.2056513E+04  0.7818609E-02  0.8580645E-01
       -2   -1    0    0    0  501  0.00000000000E+00  0.00000000000E+00  0.85044585414E+03  0.85044585415E+03  0.25500000920E-02 0.  1.
        2   -1    0    0  501    0  0.00000000000E+00  0.00000000000E+00 -0.12432440683E+04  0.12432440683E+04  0.25500000920E-02 0. -1.
    10030    2    1    2    0    0  0.00000000000E+00  0.00000000000E+00 -0.39279821419E+03  0.20936899225E+04  0.20565133246E+04 0.  0.
        4    1    3    3  502    0  0.19726079769E+02  0.13215123744E+03 -0.12343674697E+04  0.12415787252E+04  0.12699999809E+01 0. -1.
       -4    1    3    3    0  502 -0.19726079769E+02 -0.13215123744E+03  0.84156925551E+03  0.85211119726E+03  0.12699999809E+01 0.  1.
</event>
<event>
 5   0  0.3347728E-05  0.2388736E+04  0.7818609E-02  0.8443733E-01
       -2   -1    0    0    0  501  0.00000000000E+00  0.00000000000E+00  0.54063119108E+03  0.54063119109E+03  0.25500000920E-02 0.  1.
        2   -1    0    0  501    0  0.00000000000E+00  0.00000000000E+00 -0.26386097394E+04  0.26386097394E+04  0.25500000920E-02 0. -1.
    10030    2    1    2    0    0  0.00000000000E+00  0.00000000000E+00 -0.20979785484E+04  0.31792409305E+04  0.23887358383E+04 0.  0.
        3    1    3    3  502    0  0.74649053830E+03  0.93194985057E+03 -0.10850981833E+04  0.16134487055E+04  0.10100000352E+00 0. -1.
       -3    1    3    3    0  502 -0.74649053830E+03 -0.93194985057E+03 -0.10128803651E+04  0.15657922250E+04  0.10100000352E+00 0.  1.
</event>
<event>
 5   0  0.3310037E-05  0.2428665E+04  0.7818609E-02  0.8428849E-01
        2   -1    0    0  501    0  0.00000000000E+00  0.00000000000E+00  0.20137378272E+04  0.20137378272E+04  0.25500000920E-02 0. -1.
       -2   -1    0    0    0  501  0.00000000000E+00  0.00000000000E+00 -0.73227175644E+03  0.73227175645E+03  0.25500000920E-02 0.  1.
    10030    2    1    2    0    0  0.00000000000E+00  0.00000000000E+00  0.12814660707E+04  0.27460095836E+04  0.24286649301E+04 0.  0.
        2    1    3    3  502    0 -0.49707043259E+03  0.64695425922E+03  0.16576883376E+04  0.18475820559E+04  0.25500000920E-02 0. -1.
       -2    1    3    3    0  502  0.49707043259E+03 -0.64695425922E+03 -0.37622226690E+03  0.89842752774E+03  0.25500000920E-02 0.  1.
</event>
<event>
 5   0  0.3310037E-05  0.2374409E+04  0.7818609E-02  0.8449147E-01
        2   -1    0    0  501    0  0.00000000000E+00  0.00000000000E+00  0.13601483661E+04  0.13601483661E+04  0.25500000920E-02 0.  1.
       -2   -1    0    0    0  501  0.00000000000E+00  0.00000000000E+00 -0.10362502126E+04  0.10362502126E+04  0.25500000920E-02 0. -1.
    10030    2    1    2    0    0  0.00000000000E+00  0.00000000000E+00  0.32389815347E+03  0.23963985787E+04  0.23744085862E+04 0.  0.
        2    1    3    3  502    0 -0.38879513491E+03 -0.81510725591E+03  0.93973044166E+03  0.13033245177E+04  0.25500000920E-02 0.  1.
       -2    1    3    3    0  502  0.38879513491E+03  0.81510725591E+03 -0.61583228819E+03  0.10930740610E+04  0.25500000920E-02 0. -1.
</event>
<event>
 5   0  0.3345974E-05  0.2370914E+04  0.7818609E-02  0.8450474E-01
       -2   -1    0    0    0  501  0.00000000000E+00  0.00000000000E+00  0.96278077494E+03  0.96278077494E+03  0.25500000920E-02 0.  1.
        2   -1    0    0  501    0  0.00000000000E+00  0.00000000000E+00 -0.14596347553E+04  0.14596347553E+04  0.25500000920E-02 0. -1.
    10030    2    1    2    0    0  0.00000000000E+00  0.00000000000E+00 -0.49685398038E+03  0.24224155303E+04  0.23709139848E+04 0.  0.
        4    1    3    3  502    0 -0.62868539327E+03 -0.36327787328E+03  0.70899299947E+03  0.10148343821E+04  0.12699999809E+01 0.  1.
       -4    1    3    3    0  502  0.62868539327E+03  0.36327787328E+03 -0.12058469798E+04  0.14075811482E+04  0.12699999809E+01 0. -1.
</event>
<event>
 5   0  0.3320780E-05  0.2269124E+04  0.7818609E-02  0.8490196E-01
        2   -1    0    0  501    0  0.00000000000E+00  0.00000000000E+00  0.13620276778E+04  0.13620276778E+04  0.25500000920E-02 0. -1.
       -2   -1    0    0    0  501  0.00000000000E+00  0.00000000000E+00 -0.94508421980E+03  0.94508421981E+03  0.25500000920E-02 0.  1.
    10030    2    1    2    0    0  0.00000000000E+00  0.00000000000E+00  0.41694345804E+03  0.23071118977E+04  0.22691239413E+04 0.  0.
        5    1    3    3  502    0  0.61897667764E+03 -0.93406047518E+03  0.38923355792E+03  0.11862233986E+04  0.46999998093E+01 0. -1.
       -5    1    3    3    0  502 -0.61897667764E+03  0.93406047518E+03  0.27709900119E+02  0.11208884991E+04  0.46999998093E+01 0.  1.
</event>
<event>
 5   0  0.3320780E-05  0.2384997E+04  0.7818609E-02  0.8445142E-01
        2   -1    0    0  501    0  0.00000000000E+00  0.00000000000E+00  0.26717711146E+04  0.26717711146E+04  0.25500000920E-02 0. -1.
       -2   -1    0    0    0  501  0.00000000000E+00  0.00000000000E+00 -0.53225071608E+03  0.53225071609E+03  0.25500000920E-02 0.  1.
    10030    2    1    2    0    0  0.00000000000E+00  0.00000000000E+00  0.21395203985E+04  0.32040218307E+04  0.23849965107E+04 0.  0.
        5    1    3    3  502    0  0.46956060614E+03 -0.72601377563E+03 -0.33509215298E+02  0.86529077352E+03  0.46999998093E+01 0.  1.
       -5    1    3    3    0  502 -0.46956060614E+03  0.72601377563E+03  0.21730296138E+04  0.23387310571E+04  0.46999998093E+01 0. -1.
</event>
<event>
 5   0  0.3347728E-05  0.2420038E+04  0.7818609E-02  0.8432040E-01
       -2   -1    0    0    0  501  0.00000000000E+00  0.00000000000E+00  0.53680314347E+03  0.53680314348E+03  0.25500000920E-02 0.  1.
        2   -1    0    0  501    0  0.00000000000E+00  0.00000000000E+00 -0.27275282980E+04  0.27275282980E+04  0.25500000920E-02 0. -1.
    10030    2    1    2    0    0  0.00000000000E+00  0.00000000000E+00 -0.21907251546E+04  0.32643314415E+04  0.24200378214E+04 0.  0.
        3    1    3    3  502    0 -0.65519795803E+03 -0.26790201124E+03  0.22838600936E+03  0.74378493619E+03  0.10100000352E+00 0.  1.
       -3    1    3    3    0  502  0.65519795803E+03  0.26790201124E+03 -0.24191111639E+04  0.25205465053E+04  0.10100000352E+00 0. -1.
</event>
<event>
 5   0  0.1407158E-05  0.2392496E+04  0.7818609E-02  0.8442318E-01
        1   -1    0    0  501    0  0.00000000000E+00  0.00000000000E+00  0.12481502790E+04  0.12481502791E+04  0.50400001928E-02 0.  1.
       -1   -1    0    0    0  501  0.00000000000E+00  0.00000000000E+00 -0.11465041413E+04  0.11465041413E+04  0.50400001928E-02 0. -1.
    10030    2    1    2    0    0  0.00000000000E+00  0.00000000000E+00  0.10164613773E+03  0.23946544204E+04  0.23924961558E+04 0.  0.
        1    1    3    3  502    0  0.61814689367E+02 -0.80539155256E+02  0.12438302908E+04  0.12479669081E+04  0.50400001928E-02 0.  1.
       -1    1    3    3    0  502 -0.61814689367E+02  0.80539155256E+02 -0.11421841531E+04  0.11466875123E+04  0.50400001928E-02 0. -1.
</event>
<event>
 5   0  0.1407158E-05  0.2424676E+04  0.7818609E-02  0.8430322E-01
        1   -1    0    0  501    0  0.00000000000E+00  0.00000000000E+00  0.13281449266E+04  0.13281449266E+04  0.50400001928E-02 0.  1.
       -1   -1    0    0    0  501  0.00000000000E+00  0.00000000000E+00 -0.11066291850E+04  0.11066291850E+04  0.50400001928E-02 0. -1.
    10030    2    1    2    0    0  0.00000000000E+00  0.00000000000E+00  0.22151574158E+03  0.24347741116E+04  0.24246764218E+04 0.  0.
        1    1    3    3  502    0  0.37307253382E+03  0.10586863385E+04 -0.34914955831E+03  0.11755446792E+04  0.50400001928E-02 0. -1.
       -1    1    3    3    0  502 -0.37307253382E+03 -0.10586863385E+04  0.57066529989E+03  0.12592294323E+04  0.50400001928E-02 0.  1.
</event>
<event>
 5   0  0.3310037E-05  0.2381634E+04  0.7818609E-02  0.8446412E-01
        2   -1    0    0  501    0  0.00000000000E+00  0.00000000000E+00  0.12586720113E+04  0.12586720113E+04  0.25500000920E-02 0.  1.
       -2   -1    0    0    0  501  0.00000000000E+00  0.00000000000E+00 -0.11266195978E+04  0.11266195978E+04  0.25500000920E-02 0. -1.
    10030    2    1    2    0    0  0.00000000000E+00  0.00000000000E+00  0.13205241356E+03  0.23852916091E+04  0.23816335194E+04 0.  0.
        2    1    3    3  502    0  0.10427187230E+04  0.24105456411E+03 -0.45695868285E+03  0.11636927756E+04  0.25500000920E-02 0. -1.
       -2    1    3    3    0  502 -0.10427187230E+04 -0.24105456411E+03  0.58901109641E+03  0.12215988335E+04  0.25500000920E-02 0.  1.
</event>
<event>
 5   0  0.3345974E-05  0.2418569E+04  0.7818609E-02  0.8432584E-01
        2   -1    0    0  501    0  0.00000000000E+00  0.00000000000E+00  0.20241503324E+04  0.20241503324E+04  0.25500000920E-02 0.  1.
       -2   -1    0    0    0  501  0.00000000000E+00  0.00000000000E+00 -0.72246069518E+03  0.72246069518E+03  0.25500000920E-02 0. -1.
    10030    2    1    2    0    0  0.00000000000E+00  0.00000000000E+00  0.13016896372E+04  0.27466110276E+04  0.24185690450E+04 0.  0.
        4    1    3    3  502    0 -0.11889840572E+04 -0.38653955920E+02  0.40414734500E+03  0.12563892334E+04  0.12699999809E+01 0. -1.
       -4    1    3    3    0  502  0.11889840572E+04  0.38653955920E+02  0.89754229224E+03  0.14902217942E+04  0.12699999809E+01 0.  1.
</event>
<event>
 5   0  0.1434943E-05  0.2422799E+04  0.7818609E-02  0.8431017E-01
        1   -1    0    0  501    0  0.00000000000E+00  0.00000000000E+00  0.11444503473E+04  0.11444503473E+04  0.50400001928E-02 0.  1.
       -1   -1    0    0    0  501  0.00000000000E+00  0.00000000000E+00 -0.12822647183E+04  0.12822647183E+04  0.50400001928E-02 0. -1.
    10030    2    1    2    0    0  0.00000000000E+00  0.00000000000E+00 -0.13781437102E+03  0.24267150656E+04  0.24227986315E+04 0.  0.
        5    1    3    3  502    0 -0.76807880052E+03  0.93655407493E+03 -0.49186958888E+02  0.12122376112E+04  0.46999998093E+01 0. -1.
       -5    1    3    3    0  502  0.76807880052E+03 -0.93655407493E+03 -0.88627412135E+02  0.12144774544E+04  0.46999998093E+01 0.  1.
</event>
<event>
 5   0  0.3215208E-05  0.2424407E+04  0.7818609E-02  0.8430422E-01
        2   -1    0    0  501    0  0.00000000000E+00  0.00000000000E+00  0.20196833904E+04  0.20196833904E+04  0.25500000920E-02 0.  1.
       -2   -1    0    0    0  501  0.00000000000E+00  0.00000000000E+00 -0.72755841171E+03  0.72755841172E+03  0.25500000920E-02 0. -1.
    10030    2    1    2    0    0  0.00000000000E+00  0.00000000000E+00  0.12921249787E+04  0.27472418022E+04  0.24244072593E+04 0.  0.
        1    1    3    3  502    0 -0.48239561480E+03 -0.10703137533E+04  0.30392958021E+03  0.12127036940E+04  0.50400001928E-02 0. -1.
       -1    1    3    3    0  502  0.48239561480E+03  0.10703137533E+04  0.98819539852E+03  0.15345381082E+04  0.50400001928E-02 0.  1.
</event>
<event>
 5   0  0.1434943E-05  0.2364564E+04  0.7818609E-02  0.8452891E-01
        1   -1    0    0  501    0  0.00000000000E+00  0.00000000000E+00  0.23974575133E+04  0.23974575133E+04  0.50400001928E-02 0. -1.
       -1   -1    0    0    0  501  0.00000000000E+00  0.00000000000E+00 -0.58303040860E+03  0.58303040862E+03  0.50400001928E-02 0.  1.
    10030    2    1    2    0    0  0.00000000000E+00  0.00000000000E+00  0.18144271047E+04  0.29804879219E+04  0.23645639206E+04 0.  0.
        5    1    3    3  502    0  0.62057845738E+03 -0.23272521149E+03 -0.32682883575E+03  0.73899785094E+03  0.46999998093E+01 0.  1.
       -5    1    3    3    0  502 -0.62057845738E+03  0.23272521149E+03  0.21412559404E+04  0.22414900710E+04  0.46999998093E+01 0. -1.
</event>
<event>
 5   0  0.1393026E-05  0.2390013E+04  0.7818609E-02  0.8443252E-01
        1   -1    0    0  501    0  0.00000000000E+00  0.00000000000E+00  0.63452614336E+03  0.63452614338E+03  0.50400001928E-02 0. -1.
       -1   -1    0    0    0  501  0.00000000000E+00  0.00000000000E+00 -0.22505615652E+04  0.22505615652E+04  0.50400001928E-02 0.  1.
    10030    2    1    2    0    0  0.00000000000E+00  0.00000000000E+00 -0.16160354218E+04  0.28850877086E+04  0.23900126781E+04 0.  0.
        4    1    3    3  502    0 -0.72330266596E+03  0.61349664928E+03  0.69546096014E+02  0.95099061911E+03  0.12699999809E+01 0. -1.
       -4    1    3    3    0  502  0.72330266596E+03 -0.61349664928E+03 -0.16855815178E+04  0.19340970895E+04  0.12699999809E+01 0.  1.
</event>
<event>
 5   0  0.1407158E-05  0.2414275E+04  0.7818609E-02  0.8434179E-01
       -1   -1    0    0    0  501  0.00000000000E+00  0.00000000000E+00  0.56166949053E+03  0.56166949056E+03  0.50400001928E-02 0. -1.
        1   -1    0    0  501    0  0.00000000000E+00  0.00000000000E+00 -0.25943735468E+04  0.25943735468E+04  0.50400001928E-02 0.  1.
    10030    2    1    2    0    0  0.00000000000E+00  0.00000000000E+00 -0.20327040562E+04  0.31560430373E+04  0.24142746060E+04 0.  0.
        1    1    3    3  502    0  0.31016667528E+03  0.88558023166E+03 -0.23600539166E+02  0.93862276695E+03  0.50400001928E-02 0. -1.
       -1    1    3    3    0  502 -0.31016667528E+03 -0.88558023166E+03 -0.20091035171E+04  0.22174202704E+04  0.50400001928E-02 0.  1.
</event>
<event>
 5   0  0.1407158E-05  0.2446333E+04  0.7818609E-02  0.8422358E-01
        1   -1    0    0  501    0  0.00000000000E+00  0.00000000000E+00  0.14575837233E+04  0.14575837233E+04  0.50400001928E-02 0.  1.
       -1   -1    0    0    0  501  0.00000000000E+00  0.00000000000E+00 -0.10264493843E+04  0.10264493843E+04  0.50400001928E-02 0. -1.
    10030    2    1    2    0    0  0.00000000000E+00  0.00000000000E+00  0.43113433895E+03  0.24840331076E+04  0.24463326964E+04 0.  0.
        1    1    3    3  502    0  0.33066163011E+03  0.27799484677E+03 -0.94640985506E+03  0.10403412239E+04  0.50400001928E-02 0. -1.
       -1    1    3    3    0  502 -0.33066163011E+03 -0.27799484677E+03  0.13775441940E+04  0.14436918837E+04  0.50400001928E-02 0.  1.
</event>
<event>
 5   0  0.1407158E-05  0.2393470E+04  0.7818609E-02  0.8441952E-01
       -1   -1    0    0    0  501  0.00000000000E+00  0.00000000000E+00  0.91508386031E+03  0.91508386033E+03  0.50400001928E-02 0. -1.
        1   -1    0    0  501    0  0.00000000000E+00  0.00000000000E+00 -0.15650742638E+04  0.15650742638E+04  0.50400001928E-02 0.  1.
    10030    2    1    2    0    0  0.00000000000E+00  0.00000000000E+00 -0.64999040352E+03  0.24801581242E+04  0.23934696146E+04 0.  0.
        1    1    3    3  502    0 -0.36908273848E+03 -0.43942109634E+01  0.85462634501E+03  0.93092833588E+03  0.50400001928E-02 0. -1.
       -1    1    3    3    0  502  0.36908273848E+03  0.43942109634E+01 -0.15046167485E+04  0.15492297883E+04  0.50400001928E-02 0.  1.
</event>
<event>
 5   0  0.1401596E-05  0.2386620E+04  0.7818609E-02  0.8444530E-01
       -1   -1    0    0    0  501  0.00000000000E+00  0.00000000000E+00  0.17115022408E+04  0.17115022408E+04  0.50400001928E-02 0. -1.
        1   -1    0    0  501    0  0.00000000000E+00  0.00000000000E+00 -0.83201125002E+03  0.83201125003E+03  0.50400001928E-02 0.  1.
    10030    2    1    2    0    0  0.00000000000E+00  0.00000000000E+00  0.87949099077E+03  0.25435134908E+04  0.23866203039E+04 0.  0.
        2    1    3    3  502    0  0.85674532755E+03  0.25908654687E+02 -0.44507775219E+03  0.96580433845E+03  0.25500000920E-02 0.  1.
       -2    1    3    3    0  502 -0.85674532755E+03 -0.25908654687E+02  0.13245687430E+04  0.15777091524E+04  0.25500000920E-02 0. -1.
</event>
<event>
 5   0  0.1434943E-05  0.2420753E+04  0.7818609E-02  0.8431775E-01
       -1   -1    0    0    0  501  0.00000000000E+00  0.00000000000E+00  0.62632023807E+03  0.62632023809E+03  0.50400001928E-02 0. -1.
        1   -1    0    0  501    0  0.00000000000E+00  0.00000000000E+00 -0.23390772886E+04  0.23390772886E+04  0.50400001928E-02 0.  1.
    10030    2    1    2    0    0  0.00000000000E+00  0.00000000000E+00 -0.17127570505E+04  0.29653975267E+04  0.24207531425E+04 0.  0.
        5    1    3    3  502    0  0.61437307574E+02 -0.19417364015E+03  0.60516883471E+03  0.63853688523E+03  0.46999998093E+01 0. -1.
       -5    1    3    3    0  502 -0.61437307574E+02  0.19417364015E+03 -0.23179258852E+04  0.23268606415E+04  0.46999998093E+01 0.  1.
</event>
<event>
 5   0  0.3347728E-05  0.2386186E+04  0.7818609E-02  0.8444694E-01
       -2   -1    0    0    0  501  0.00000000000E+00  0.00000000000E+00  0.67245818020E+03  0.67245818021E+03  0.25500000920E-02 0.  1.
        2   -1    0    0  501    0  0.00000000000E+00  0.00000000000E+00 -0.21168168190E+04  0.21168168190E+04  0.25500000920E-02 0. -1.
    10030    2    1    2    0    0  0.00000000000E+00  0.00000000000E+00 -0.14443586387E+04  0.27892749992E+04  0.23861858988E+04 0.  0.
        3    1    3    3  502    0 -0.71327013512E+03  0.57984676687E+03  0.16689193787E+03  0.93425343876E+03  0.10100000352E+00 0.  1.
       -3    1    3    3    0  502  0.71327013512E+03 -0.57984676687E+03 -0.16112505766E+04  0.18550215604E+04  0.10100000352E+00 0. -1.
</event>
<event>
 5   0  0.1506985E-05  0.2402660E+04  0.7818609E-02  0.8438508E-01
        1   -1    0    0  501    0  0.00000000000E+00  0.00000000000E+00  0.17443961748E+04  0.17443961748E+04  0.50400001928E-02 0.  1.
       -1   -1    0    0    0  501  0.00000000000E+00  0.00000000000E+00 -0.82733149964E+03  0.82733149965E+03  0.50400001928E-02 0. -1.
    10030    2    1    2    0    0  0.00000000000E+00  0.00000000000E+00  0.91706467513E+03  0.25717276744E+04  0.24026601118E+04 0.  0.
        3    1    3    3  502    0 -0.44262067175E+03  0.67083992556E+03  0.14142534160E+04  0.16266689889E+04  0.10100000352E+00 0.  1.
       -3    1    3    3    0  502  0.44262067175E+03 -0.67083992556E+03 -0.49718874085E+03  0.94505868548E+03  0.10100000352E+00 0. -1.
</event>
<event>
 5   0  0.1401596E-05  0.2504780E+04  0.7818609E-02  0.8401285E-01
        1   -1    0    0  501    0  0.00000000000E+00  0.00000000000E+00  0.15071501633E+04  0.15071501634E+04  0.50400001928E-02 0.  1.
       -1   -1    0    0    0  501  0.00000000000E+00  0.00000000000E+00 -0.10406927932E+04  0.10406927932E+04  0.50400001928E-02 0. -1.
    10030    2    1    2    0    0  0.00000000000E+00  0.00000000000E+00  0.46645737011E+03  0.25478429566E+04  0.25047796816E+04 0.  0.
        2    1    3    3  502    0  0.59658309088E+03 -0.98532483285E+03  0.73331498305E+03  0.13654769405E+04  0.25500000920E-02 0.  1.
       -2    1    3    3    0  502 -0.59658309088E+03  0.98532483285E+03 -0.26685761294E+03  0.11823660161E+04  0.25500000920E-02 0. -1.
</event>
<event>
 5   0  0.3320780E-05  0.2398156E+04  0.7818609E-02  0.8440194E-01
       -2   -1    0    0    0  501  0.00000000000E+00  0.00000000000E+00  0.64336471990E+03  0.64336471991E+03  0.25500000920E-02 0.  1.
        2   -1    0    0  501    0  0.00000000000E+00  0.00000000000E+00 -0.22347937527E+04  0.22347937527E+04  0.25500000920E-02 0. -1.
    10030    2    1    2    0    0  0.00000000000E+00  0.00000000000E+00 -0.15914290328E+04  0.28781584726E+04  0.23981555052E+04 0.  0.
        5    1    3    3  502    0 -0.11923872138E+04  0.13823109394E+02 -0.64491933957E+03  0.13556995945E+04  0.46999998093E+01 0. -1.
       -5    1    3    3    0  502  0.11923872138E+04 -0.13823109394E+02 -0.94650969324E+03  0.15224588781E+04  0.46999998093E+01 0.  1.
</event>
<event>
 5   0  0.3347728E-05  0.2384600E+04  0.7818609E-02  0.8445292E-01
        2   -1    0    0  501    0  0.00000000000E+00  0.00000000000E+00  0.11979404796E+04  0.11979404796E+04  0.25500000920E-02 0. -1.
       -2   -1    0    0    0  501  0.00000000000E+00  0.00000000000E+00 -0.11866857187E+04  0.11866857187E+04  0.25500000920E-02 0.  1.
    10030    2    1    2    0    0  0.00000000000E+00  0.00000000000E+00  0.11254760870E+02  0.23846261983E+04  0.23845996385E+04 0.  0.
        3    1    3    3  502    0 -0.39426644015E+03 -0.10629193313E+04  0.37486762102E+03  0.11940558086E+04  0.10100000352E+00 0. -1.
       -3    1    3    3    0  502  0.39426644015E+03  0.10629193313E+04 -0.36361286015E+03  0.11905703897E+04  0.10100000352E+00 0.  1.
</event>
<event>
 5   0  0.1407158E-05  0.2394421E+04  0.7818609E-02  0.8441595E-01
       -1   -1    0    0    0  501  0.00000000000E+00  0.00000000000E+00  0.17834442550E+04  0.17834442550E+04  0.50400001928E-02 0.  1.
        1   -1    0    0  501    0  0.00000000000E+00  0.00000000000E+00 -0.80367715183E+03  0.80367715185E+03  0.50400001928E-02 0. -1.
    10030    2    1    2    0    0  0.00000000000E+00  0.00000000000E+00  0.97976710315E+03  0.25871214068E+04  0.23944213492E+04 0.  0.
        1    1    3    3  502    0 -0.59031971460E+03 -0.73033035610E+03  0.12922462373E+04  0.15974229660E+04  0.50400001928E-02 0.  1.
       -1    1    3    3    0  502  0.59031971460E+03  0.73033035610E+03 -0.31247913415E+03  0.98969844083E+03  0.50400001928E-02 0. -1.
</event>
<event>
 5   0  0.3345974E-05  0.2391164E+04  0.7818609E-02  0.8442819E-01
        2   -1    0    0  501    0  0.00000000000E+00  0.00000000000E+00  0.10642529072E+04  0.10642529072E+04  0.25500000920E-02 0. -1.
       -2   -1    0    0    0  501  0.00000000000E+00  0.00000000000E+00 -0.13431174451E+04  0.13431174451E+04  0.25500000920E-02 0.  1.
    10030    2    1    2    0    0  0.00000000000E+00  0.00000000000E+00 -0.27886453785E+03  0.24073703523E+04  0.23911642735E+04 0.  0.
        4    1    3    3  502    0 -0.66570942799E+03  0.11795404301E+02 -0.11391916413E+04  0.13194951242E+04  0.12699999809E+01 0.  1.
       -4    1    3    3    0  502  0.66570942799E+03 -0.11795404301E+02  0.86032710350E+03  0.10878752281E+04  0.12699999809E+01 0. -1.
</event>
<event>
 5   0  0.3215208E-05  0.2671674E+04  0.7818609E-02  0.8344255E-01
        2   -1    0    0  501    0  0.00000000000E+00  0.00000000000E+00  0.16929152422E+04  0.16929152422E+04  0.25500000920E-02 0. -1.
       -2   -1    0    0    0  501  0.00000000000E+00  0.00000000000E+00 -0.10540754462E+04  0.10540754462E+04  0.25500000920E-02 0.  1.
    10030    2    1    2    0    0  0.00000000000E+00  0.00000000000E+00  0.63883979597E+03  0.27469906885E+04  0.26716739243E+04 0.  0.
        1    1    3    3  502    0 -0.12159568352E+04 -0.40305083574E+03 -0.70018009295E+02  0.12829277153E+04  0.50400001928E-02 0. -1.
       -1    1    3    3    0  502  0.12159568352E+04  0.40305083574E+03  0.70885780527E+03  0.14640629731E+04  0.50400001928E-02 0.  1.
</event>
<event>
 5   0  0.3347728E-05  0.2400311E+04  0.7818609E-02  0.8439387E-01
        2   -1    0    0  501    0  0.00000000000E+00  0.00000000000E+00  0.13413827385E+04  0.13413827385E+04  0.25500000920E-02 0. -1.
       -2   -1    0    0    0  501  0.00000000000E+00  0.00000000000E+00 -0.10737968988E+04  0.10737968988E+04  0.25500000920E-02 0.  1.
    10030    2    1    2    0    0  0.00000000000E+00  0.00000000000E+00  0.26758583966E+03  0.24151796373E+04  0.24003105005E+04 0.  0.
        3    1    3    3  502    0  0.85003414259E+03  0.28533725861E+03 -0.66889393393E+03  0.11186574542E+04  0.10100000352E+00 0.  1.
       -3    1    3    3    0  502 -0.85003414259E+03 -0.28533725861E+03  0.93647977360E+03  0.12965221831E+04  0.10100000352E+00 0. -1.
</event>
<event>
 5   0  0.1434943E-05  0.2029914E+04  0.7818609E-02  0.8592761E-01
        1   -1    0    0  501    0  0.00000000000E+00  0.00000000000E+00  0.92999763595E+03  0.92999763596E+03  0.50400001928E-02 0. -1.
       -1   -1    0    0    0  501  0.00000000000E+00  0.00000000000E+00 -0.11076782182E+04  0.11076782182E+04  0.50400001928E-02 0.  1.
    10030    2    1    2    0    0  0.00000000000E+00  0.00000000000E+00 -0.17768058228E+03  0.20376758542E+04  0.20299144064E+04 0.  0.
        5    1    3    3  502    0  0.94850916516E+03 -0.75808948431E+02 -0.44331851230E+03  0.10497476013E+04  0.46999998093E+01 0.  1.
       -5    1    3    3    0  502 -0.94850916516E+03  0.75808948431E+02  0.26563793002E+03  0.98792825292E+03  0.46999998093E+01 0. -1.
</event>
<event>
 5   0  0.1401596E-05  0.2390703E+04  0.7818609E-02  0.8442992E-01
        1   -1    0    0  501    0  0.00000000000E+00  0.00000000000E+00  0.11511988023E+04  0.11511988023E+04  0.50400001928E-02 0.  1.
       -1   -1    0    0    0  501  0.00000000000E+00  0.00000000000E+00 -0.12411974432E+04  0.12411974432E+04  0.50400001928E-02 0. -1.
    10030    2    1    2    0    0  0.00000000000E+00  0.00000000000E+00 -0.89998640877E+02  0.23923962456E+04  0.23907028340E+04 0.  0.
        2    1    3    3  502    0  0.10549172454E+03 -0.37298221255E+03 -0.11765614235E+04  0.12387659255E+04  0.25500000920E-02 0. -1.
       -2    1    3    3    0  502 -0.10549172454E+03  0.37298221255E+03  0.10865627826E+04  0.11536303201E+04  0.25500000920E-02 0.  1.
</event>
<event>
 5   0  0.1407158E-05  0.2388205E+04  0.7818609E-02  0.8443933E-01
        1   -1    0    0  501    0  0.00000000000E+00  0.00000000000E+00  0.27770305488E+04  0.27770305488E+04  0.50400001928E-02 0. -1.
       -1   -1    0    0    0  501  0.00000000000E+00  0.00000000000E+00 -0.51345534467E+03  0.51345534470E+03  0.50400001928E-02 0.  1.
    10030    2    1    2    0    0  0.00000000000E+00  0.00000000000E+00  0.22635752042E+04  0.32904858935E+04  0.23882053326E+04 0.  0.
        1    1    3    3  502    0 -0.79989801757E+03  0.76682251221E+03  0.17449156773E+04  0.20670230586E+04  0.50400001928E-02 0. -1.
       -1    1    3    3    0  502  0.79989801757E+03 -0.76682251221E+03  0.51865952686E+03  0.12234628350E+04  0.50400001928E-02 0.  1.
</event>
<event>
 5   0  0.3310037E-05  0.2377686E+04  0.7818609E-02  0.8447905E-01
       -2   -1    0    0    0  501  0.00000000000E+00  0.00000000000E+00  0.12060676548E+04  0.12060676548E+04  0.25500000920E-02 0. -1.
        2   -1    0    0  501    0  0.00000000000E+00  0.00000000000E+00 -0.11718641313E+04  0.11718641313E+04  0.25500000920E-02 0.  1.
    10030    2    1    2    0    0  0.00000000000E+00  0.00000000000E+00  0.34203523520E+02  0.23779317862E+04  0.23776857864E+04 0.  0.
        2    1    3    3  502    0  0.28795181686E+01 -0.76887457341E+03  0.92393204296E+03  0.12020094930E+04  0.25500000920E-02 0. -1.
       -2    1    3    3    0  502 -0.28795181686E+01  0.76887457341E+03 -0.88972851944E+03  0.11759222932E+04  0.25500000920E-02 0.  1.
</event>
<event>
 5   0  0.3345974E-05  0.2415241E+04  0.7818609E-02  0.8433820E-01
        2   -1    0    0  501    0  0.00000000000E+00  0.00000000000E+00  0.16899822647E+04  0.16899822647E+04  0.25500000920E-02 0.  1.
       -2   -1    0    0    0  501  0.00000000000E+00  0.00000000000E+00 -0.86293619925E+03  0.86293619925E+03  0.25500000920E-02 0. -1.
    10030    2    1    2    0    0  0.00000000000E+00  0.00000000000E+00  0.82704606546E+03  0.25529184640E+04  0.24152406690E+04 0.  0.
        4    1    3    3  502    0 -0.44534341411E+03 -0.59255745582E+03 -0.59417922898E+03  0.95000298104E+03  0.12699999809E+01 0. -1.
       -4    1    3    3    0  502  0.44534341411E+03  0.59255745582E+03  0.14212252944E+04  0.16029154829E+04  0.12699999809E+01 0.  1.
</event>
<event>
 5   0  0.1401596E-05  0.2436834E+04  0.7818609E-02  0.8425841E-01
       -1   -1    0    0    0  501  0.00000000000E+00  0.00000000000E+00  0.82792479717E+03  0.82792479719E+03  0.50400001928E-02 0. -1.
        1   -1    0    0  501    0  0.00000000000E+00  0.00000000000E+00 -0.17930851375E+04  0.17930851375E+04  0.50400001928E-02 0.  1.
    10030    2    1    2    0    0  0.00000000000E+00  0.00000000000E+00 -0.96516034034E+03  0.26210099347E+04  0.24368337233E+04 0.  0.
        2    1    3    3  502    0  0.72069186954E+03 -0.35957589743E+03 -0.14659263573E+04  0.16726122330E+04  0.25500000920E-02 0.  1.
       -2    1    3    3    0  502 -0.72069186954E+03  0.35957589743E+03  0.50076601699E+03  0.94839770171E+03  0.25500000920E-02 0. -1.
</event>
<event>
 5   0  0.1434943E-05  0.2383587E+04  0.7818609E-02  0.8445674E-01
       -1   -1    0    0    0  501  0.00000000000E+00  0.00000000000E+00  0.80869978265E+03  0.80869978267E+03  0.50400001928E-02 0. -1.
        1   -1    0    0  501    0  0.00000000000E+00  0.00000000000E+00 -0.17563648163E+04  0.17563648163E+04  0.50400001928E-02 0.  1.
    10030    2    1    2    0    0  0.00000000000E+00  0.00000000000E+00 -0.94766503362E+03  0.25650645989E+04  0.23835870827E+04 0.  0.
        5    1    3    3  502    0  0.42006183650E+03  0.44536505429E+02  0.72542679443E+03  0.83946505042E+03  0.46999998093E+01 0. -1.
       -5    1    3    3    0  502 -0.42006183650E+03 -0.44536505429E+02 -0.16730918280E+04  0.17255995485E+04  0.46999998093E+01 0.  1.
</event>
<event>
 5   0  0.1401596E-05  0.2414575E+04  0.7818609E-02  0.8434067E-01
       -1   -1    0    0    0  501  0.00000000000E+00  0.00000000000E+00  0.23579796409E+04  0.23579796410E+04  0.50400001928E-02 0.  1.
        1   -1    0    0  501    0  0.00000000000E+00  0.00000000000E+00 -0.61813197849E+03  0.61813197851E+03  0.50400001928E-02 0. -1.
    10030    2    1    2    0    0  0.00000000000E+00  0.00000000000E+00  0.17398476625E+04  0.29761116195E+04  0.24145745967E+04 0.  0.
        2    1    3    3  502    0  0.57711573097E+03  0.83975201580E+03  0.71801868951E+02  0.10214702753E+04  0.25500000920E-02 0. -1.
       -2    1    3    3    0  502 -0.57711573097E+03 -0.83975201580E+03  0.16680457935E+04  0.19546413441E+04  0.25500000920E-02 0.  1.
</event>
<event>
 5   0  0.3310037E-05  0.2373843E+04  0.7818609E-02  0.8449362E-01
       -2   -1    0    0    0  501  0.00000000000E+00  0.00000000000E+00  0.13336881643E+04  0.13336881643E+04  0.25500000920E-02 0. -1.
        2   -1    0    0  501    0  0.00000000000E+00  0.00000000000E+00 -0.10563062630E+04  0.10563062630E+04  0.25500000920E-02 0.  1.
    10030    2    1    2    0    0  0.00000000000E+00  0.00000000000E+00  0.27738190133E+03  0.23899944273E+04  0.23738434327E+04 0.  0.
        2    1    3    3  502    0 -0.95205059927E+03 -0.70653157078E+03  0.19560837793E+03  0.12016030300E+04  0.25500000920E-02 0.  1.
       -2    1    3    3    0  502  0.95205059927E+03  0.70653157078E+03  0.81773523407E+02  0.11883913973E+04  0.25500000920E-02 0. -1.
</event>
<event>
 5   0  0.3347728E-05  0.2416976E+04  0.7818609E-02  0.8433175E-01
        2   -1    0    0  501    0  0.00000000000E+00  0.00000000000E+00  0.17771679918E+04  0.17771679918E+04  0.25500000920E-02 0. -1.
       -2   -1    0    0    0  501  0.00000000000E+00  0.00000000000E+00 -0.82178107501E+03  0.82178107501E+03  0.25500000920E-02 0.  1.
    10030    2    1    2    0    0  0.00000000000E+00  0.00000000000E+00  0.95538691680E+03  0.25989490668E+04  0.24169758152E+04 0.  0.
        3    1    3    3  502    0 -0.42284218720E+03 -0.22933311000E+03  0.16697885904E+04  0.17376947768E+04  0.10100000352E+00 0. -1.
       -3    1    3    3    0  502  0.42284218720E+03  0.22933311000E+03 -0.71440167358E+03  0.86125429000E+03  0.10100000352E+00 0.  1.
</event>
<event>
 5   0  0.3310037E-05  0.2396487E+04  0.7818609E-02  0.8440820E-01
        2   -1    0    0  501    0  0.00000000000E+00  0.00000000000E+00  0.10531709880E+04  0.10531709880E+04  0.25500000920E-02 0. -1.
       -2   -1    0    0    0  501  0.00000000000E+00  0.00000000000E+00 -0.13632997972E+04  0.13632997972E+04  0.25500000920E-02 0.  1.
    10030    2    1    2    0    0  0.00000000000E+00  0.00000000000E+00 -0.31012880915E+03  0.24164707852E+04  0.23964872579E+04 0.  0.
        2    1    3    3  502    0  0.39425316555E+03  0.22089773340E+03  0.96394460254E+03  0.10646222635E+04  0.25500000920E-02 0. -1.
       -2    1    3    3    0  502 -0.39425316555E+03 -0.22089773340E+03 -0.12740734117E+04  0.13518485217E+04  0.25500000920E-02 0.  1.
</event>
<event>
 5   0  0.1506985E-05  0.2401302E+04  0.7818609E-02  0.8439016E-01
       -1   -1    0    0    0  501  0.00000000000E+00  0.00000000000E+00  0.73285360297E+03  0.73285360299E+03  0.50400001928E-02 0. -1.
        1   -1    0    0  501    0  0.00000000000E+00  0.00000000000E+00 -0.19670538432E+04  0.19670538432E+04  0.50400001928E-02 0.  1.
    10030    2    1    2    0    0  0.00000000000E+00  0.00000000000E+00 -0.12342002402E+04  0.26999074462E+04  0.24013017272E+04 0.  0.
        3    1    3    3  502    0 -0.97820316087E+03  0.59551483127E+03 -0.21164211416E+03  0.11646079739E+04  0.10100000352E+00 0. -1.
       -3    1    3    3    0  502  0.97820316087E+03 -0.59551483127E+03 -0.10225581260E+04  0.15352994723E+04  0.10100000352E+00 0.  1.
</event>
<event>
 5   0  0.1434943E-05  0.2392680E+04  0.7818609E-02  0.8442249E-01
        1   -1    0    0  501    0  0.00000000000E+00  0.00000000000E+00  0.25211588795E+04  0.25211588795E+04  0.50400001928E-02 0. -1.
       -1   -1    0    0    0  501  0.00000000000E+00  0.00000000000E+00 -0.56768728486E+03  0.56768728489E+03  0.50400001928E-02 0.  1.
    10030    2    1    2    0    0  0.00000000000E+00  0.00000000000E+00  0.19534715947E+04  0.30888461644E+04  0.23926803707E+04 0.  0.
        5    1    3    3  502    0  0.15494338369E+03 -0.73720565406E+03  0.21765116652E+04  0.23031944658E+04  0.46999998093E+01 0. -1.
       -5    1    3    3    0  502 -0.15494338369E+03  0.73720565406E+03 -0.22304007051E+03  0.78565169864E+03  0.46999998093E+01 0.  1.
</event>
<event>
 5   0  0.3320780E-05  0.2252261E+04  0.7818609E-02  0.8496985E-01
        2   -1    0    0  501    0  0.00000000000E+00  0.00000000000E+00  0.97170841391E+03  0.97170841391E+03  0.25500000920E-02 0.  1.
       -2   -1    0    0    0  501  0.00000000000E+00  0.00000000000E+00 -0.13050933988E+04  0.13050933988E+04  0.25500000920E-02 0. -1.
    10030    2    1    2    0    0  0.00000000000E+00  0.00000000000E+00 -0.33338498491E+03  0.22768018127E+04  0.22522612962E+04 0.  0.
        5    1    3    3  502    0  0.49989459044E+03 -0.13141897602E+03 -0.11780849682E+04  0.12864959506E+04  0.46999998093E+01 0. -1.
       -5    1    3    3    0  502 -0.49989459044E+03  0.13141897602E+03  0.84469998324E+03  0.99030586209E+03  0.46999998093E+01 0.  1.
</event>
<event>
 5   0  0.1434943E-05  0.2389963E+04  0.7818609E-02  0.8443271E-01
       -1   -1    0    0    0  501  0.00000000000E+00  0.00000000000E+00  0.96970067427E+03  0.96970067428E+03  0.50400001928E-02 0.  1.
        1   -1    0    0  501    0  0.00000000000E+00  0.00000000000E+00 -0.14725998669E+04  0.14725998669E+04  0.50400001928E-02 0. -1.
    10030    2    1    2    0    0  0.00000000000E+00  0.00000000000E+00 -0.50289919262E+03  0.24423005412E+04  0.23899632498E+04 0.  0.
        5    1    3    3  502    0 -0.22486031545E+03 -0.45276479802E+03 -0.13579356613E+04  0.14489891214E+04  0.46999998093E+01 0. -1.
       -5    1    3    3    0  502  0.22486031545E+03  0.45276479802E+03  0.85503646869E+03  0.99331141974E+03  0.46999998093E+01 0.  1.
</event>
<event>
 5   0  0.1401596E-05  0.2399490E+04  0.7818609E-02  0.8439695E-01
       -1   -1    0    0    0  501  0.00000000000E+00  0.00000000000E+00  0.85352284287E+03  0.85352284288E+03  0.50400001928E-02 0.  1.
        1   -1    0    0  501    0  0.00000000000E+00  0.00000000000E+00 -0.16864077697E+04  0.16864077697E+04  0.50400001928E-02 0. -1.
    10030    2    1    2    0    0  0.00000000000E+00  0.00000000000E+00 -0.83288492686E+03  0.25399306126E+04  0.23994895740E+04 0.  0.
        2    1    3    3  502    0 -0.20514156438E+03 -0.10153634653E+04  0.22424475533E+03  0.10598734539E+04  0.25500000920E-02 0.  1.
       -2    1    3    3    0  502  0.20514156438E+03  0.10153634653E+04 -0.10571296822E+04  0.14800571587E+04  0.25500000920E-02 0. -1.
</event>
<event>
 5   0  0.3320780E-05  0.2408409E+04  0.7818609E-02  0.8436362E-01
        2   -1    0    0  501    0  0.00000000000E+00  0.00000000000E+00  0.19333675767E+04  0.19333675767E+04  0.25500000920E-02 0. -1.
       -2   -1    0    0    0  501  0.00000000000E+00  0.00000000000E+00 -0.75004296711E+03  0.75004296711E+03  0.25500000920E-02 0.  1.
    10030    2    1    2    0    0  0.00000000000E+00  0.00000000000E+00  0.11833246096E+04  0.26834105438E+04  0.24084092291E+04 0.  0.
        5    1    3    3  502    0  0.18309088103E+03  0.10969261125E+04  0.11062626563E+04  0.15686326280E+04  0.46999998093E+01 0.  1.
       -5    1    3    3    0  502 -0.18309088103E+03 -0.10969261125E+04  0.77061953314E+02  0.11147779158E+04  0.46999998093E+01 0. -1.
</event>
<event>
 5   0  0.1407158E-05  0.2469554E+04  0.7818609E-02  0.8413913E-01
        1   -1    0    0  501    0  0.00000000000E+00  0.00000000000E+00  0.17457309726E+04  0.17457309726E+04  0.50400001928E-02 0. -1.
       -1   -1    0    0    0  501  0.00000000000E+00  0.00000000000E+00 -0.87337312282E+03  0.87337312283E+03  0.50400001928E-02 0.  1.
    10030    2    1    2    0    0  0.00000000000E+00  0.00000000000E+00  0.87235784977E+03  0.26191040954E+04  0.24695542198E+04 0.  0.
        1    1    3    3  502    0 -0.11043797822E+04 -0.13071432691E+03 -0.13291027911E+03  0.11200027147E+04  0.50400001928E-02 0.  1.
       -1    1    3    3    0  502  0.11043797822E+04  0.13071432691E+03  0.10052681289E+04  0.14991013807E+04  0.50400001928E-02 0. -1.
</event>
<event>
 5   0  0.3347728E-05  0.2390840E+04  0.7818609E-02  0.8442941E-01
       -2   -1    0    0    0  501  0.00000000000E+00  0.00000000000E+00  0.70562734896E+03  0.70562734896E+03  0.25500000920E-02 0.  1.
        2   -1    0    0  501    0  0.00000000000E+00  0.00000000000E+00 -0.20251897764E+04  0.20251897764E+04  0.25500000920E-02 0. -1.
    10030    2    1    2    0    0  0.00000000000E+00  0.00000000000E+00 -0.13195624275E+04  0.27308171254E+04  0.23908402649E+04 0.  0.
        3    1    3    3  502    0  0.33221205746E+03  0.42653685798E+03  0.55800445483E+03  0.77696043924E+03  0.10100000352E+00 0.  1.
       -3    1    3    3    0  502 -0.33221205746E+03 -0.42653685798E+03 -0.18775668823E+04  0.19538566862E+04  0.10100000352E+00 0. -1.
</event>
<event>
 5   0  0.3215208E-05  0.2399723E+04  0.7818609E-02  0.8439607E-01
       -2   -1    0    0    0  501  0.00000000000E+00  0.00000000000E+00  0.92705781936E+03  0.92705781936E+03  0.25500000920E-02 0. -1.
        2   -1    0    0  501    0  0.00000000000E+00  0.00000000000E+00 -0.15529425124E+04  0.15529425124E+04  0.25500000920E-02 0.  1.
    10030    2    1    2    0    0  0.00000000000E+00  0.00000000000E+00 -0.62588469304E+03  0.24800003318E+04  0.23997229000E+04 0.  0.
        1    1    3    3  502    0  0.11224779912E+04 -0.18624735958E+03  0.80615391477E+02  0.11406768872E+04  0.50400001928E-02 0. -1.
       -1    1    3    3    0  502 -0.11224779912E+04  0.18624735958E+03 -0.70650008452E+03  0.13393234446E+04  0.50400001928E-02 0.  1.
</event>
<event>
 5   0  0.3347728E-05  0.2387383E+04  0.7818609E-02  0.8444242E-01
        2   -1    0    0  501    0  0.00000000000E+00  0.00000000000E+00  0.17588435679E+04  0.17588435679E+04  0.25500000920E-02 0.  1.
       -2   -1    0    0    0  501  0.00000000000E+00  0.00000000000E+00 -0.81013441565E+03  0.81013441565E+03  0.25500000920E-02 0. -1.
    10030    2    1    2    0    0  0.00000000000E+00  0.00000000000E+00  0.94870915230E+03  0.25689779836E+04  0.23873832588E+04 0.  0.
        3    1    3    3  502    0 -0.33645749663E+03  0.57974596653E+03  0.15372047694E+04  0.16769936035E+04  0.10100000352E+00 0.  1.
       -3    1    3    3    0  502  0.33645749663E+03 -0.57974596653E+03 -0.58849561715E+03  0.89198438010E+03  0.10100000352E+00 0. -1.
</event>
<event>
 5   0  0.1401596E-05  0.2379325E+04  0.7818609E-02  0.8447285E-01
        1   -1    0    0  501    0  0.00000000000E+00  0.00000000000E+00  0.10356484609E+04  0.10356484609E+04  0.50400001928E-02 0.  1.
       -1   -1    0    0    0  501  0.00000000000E+00  0.00000000000E+00 -0.13665798798E+04  0.13665798798E+04  0.50400001928E-02 0. -1.
    10030    2    1    2    0    0  0.00000000000E+00  0.00000000000E+00 -0.33093141886E+03  0.24022283407E+04  0.23793245674E+04 0.  0.
        2    1    3    3  502    0 -0.51896913679E+03  0.49214967851E+03  0.79434637382E+03  0.10688902809E+04  0.25500000920E-02 0.  1.
       -2    1    3    3    0  502  0.51896913679E+03 -0.49214967851E+03 -0.11252777927E+04  0.13333380598E+04  0.25500000920E-02 0. -1.
</event>
<event>
 5   0  0.3345974E-05  0.2435203E+04  0.7818609E-02  0.8426440E-01
        2   -1    0    0  501    0  0.00000000000E+00  0.00000000000E+00  0.19023890031E+04  0.19023890031E+04  0.25500000920E-02 0.  1.
       -2   -1    0    0    0  501  0.00000000000E+00  0.00000000000E+00 -0.77931158321E+03  0.77931158321E+03  0.25500000920E-02 0. -1.
    10030    2    1    2    0    0  0.00000000000E+00  0.00000000000E+00  0.11230774199E+04  0.26817005863E+04  0.24352033064E+04 0.  0.
        4    1    3    3  502    0 -0.30578788482E+03  0.63186277779E+02 -0.73447121324E+03  0.79809041604E+03  0.12699999809E+01 0. -1.
       -4    1    3    3    0  502  0.30578788482E+03 -0.63186277779E+02  0.18575486331E+04  0.18836101703E+04  0.12699999809E+01 0.  1.
</event>
<event>
 5   0  0.1434943E-05  0.2400511E+04  0.7818609E-02  0.8439312E-01
        1   -1    0    0  501    0  0.00000000000E+00  0.00000000000E+00  0.14114134148E+04  0.14114134149E+04  0.50400001928E-02 0.  1.
       -1   -1    0    0    0  501  0.00000000000E+00  0.00000000000E+00 -0.10206882174E+04  0.10206882174E+04  0.50400001928E-02 0. -1.
    10030    2    1    2    0    0  0.00000000000E+00  0.00000000000E+00  0.39072519746E+03  0.24321016323E+04  0.24005108143E+04 0.  0.
        5    1    3    3  502    0  0.89027654168E+03 -0.39113744905E+03 -0.51746596612E+03  0.11015325419E+04  0.46999998093E+01 0. -1.
       -5    1    3    3    0  502 -0.89027654168E+03  0.39113744905E+03  0.90819116358E+03  0.13305690904E+04  0.46999998093E+01 0.  1.
</event>
<event>
 5   0  0.1147362E-05  0.2402109E+04  0.7818609E-02  0.8438714E-01
        4   -1    0    0  501    0  0.00000000000E+00  0.00000000000E+00  0.66684052471E+03  0.66684173407E+03  0.12699999809E+01 0. -1.
       -4   -1    0    0    0  501  0.00000000000E+00  0.00000000000E+00 -0.21632300520E+04  0.21632304248E+04  0.12699999809E+01 0.  1.
    10030    2    1    2    0    0  0.00000000000E+00  0.00000000000E+00 -0.14963895273E+04  0.28300721588E+04  0.24021088250E+04 0.  0.
        3    1    3    3  502    0  0.52361079385E+03 -0.10942170556E+03  0.51874817032E+03  0.74514498421E+03  0.10100000352E+00 0. -1.
       -3    1    3    3    0  502 -0.52361079385E+03  0.10942170556E+03 -0.20151376976E+04  0.20849271746E+04  0.10100000352E+00 0.  1.
</event>
<event>
 5   0  0.1147362E-05  0.2396878E+04  0.7818609E-02  0.8440673E-01
        3   -1    0    0  501    0  0.00000000000E+00  0.00000000000E+00  0.17790470315E+04  0.17790470344E+04  0.10100000352E+00 0.  1.
       -3   -1    0    0    0  501  0.00000000000E+00  0.00000000000E+00 -0.80731735684E+03  0.80731736316E+03  0.10100000352E+00 0. -1.
    10030    2    1    2    0    0  0.00000000000E+00  0.00000000000E+00  0.97172967465E+03  0.25863643975E+04  0.23968776014E+04 0.  0.
        5    1    3    3  502    0  0.43144356721E+03  0.62558565716E+03  0.14858022251E+04  0.16688712677E+04  0.46999998093E+01 0.  1.
       -5    1    3    3    0  502 -0.43144356721E+03 -0.62558565716E+03 -0.51407255044E+03  0.91749312980E+03  0.46999998093E+01 0. -1.
</event>
<event>
 5   0  0.1401596E-05  0.2354684E+04  0.7818609E-02  0.8456667E-01
       -1   -1    0    0    0  501  0.00000000000E+00  0.00000000000E+00  0.54548011895E+03  0.54548011897E+03  0.50400001928E-02 0.  1.
        1   -1    0    0  501    0  0.00000000000E+00  0.00000000000E+00 -0.25411267749E+04  0.25411267749E+04  0.50400001928E-02 0. -1.
    10030    2    1    2    0    0  0.00000000000E+00  0.00000000000E+00 -0.19956466560E+04  0.30866068939E+04  0.23546839580E+04 0.  0.
        2    1    3    3  502    0 -0.36638209547E+03  0.11151035952E+04 -0.87738124584E+03  0.14654315809E+04  0.25500000920E-02 0. -1.
       -2    1    3    3    0  502  0.36638209547E+03 -0.11151035952E+04 -0.11182654101E+04  0.16211753129E+04  0.25500000920E-02 0.  1.
</event>
<event>
 5   0  0.1506985E-05  0.1984427E+04  0.7818609E-02  0.8613936E-01
       -1   -1    0    0    0  501  0.00000000000E+00  0.00000000000E+00  0.64021478996E+03  0.64021478998E+03  0.50400001928E-02 0.  1.
        1   -1    0    0  501    0  0.00000000000E+00  0.00000000000E+00 -0.15377456676E+04  0.15377456676E+04  0.50400001928E-02 0. -1.
    10030    2    1    2    0    0  0.00000000000E+00  0.00000000000E+00 -0.89753087760E+03  0.21779604575E+04  0.19844268891E+04 0.  0.
        3    1    3    3  502    0  0.64668844693E+03  0.69287501303E+03 -0.12652274746E+03  0.95618499617E+03  0.10100000352E+00 0. -1.
       -3    1    3    3    0  502 -0.64668844693E+03 -0.69287501303E+03 -0.77100813014E+03  0.12217754614E+04  0.10100000352E+00 0.  1.
</event>
<event>
 5   0  0.1434943E-05  0.2394625E+04  0.7818609E-02  0.8441519E-01
       -1   -1    0    0    0  501  0.00000000000E+00  0.00000000000E+00  0.81388410847E+03  0.81388410849E+03  0.50400001928E-02 0. -1.
        1   -1    0    0  501    0  0.00000000000E+00  0.00000000000E+00 -0.17613769785E+04  0.17613769785E+04  0.50400001928E-02 0.  1.
    10030    2    1    2    0    0  0.00000000000E+00  0.00000000000E+00 -0.94749286998E+03  0.25752610869E+04  0.23946245901E+04 0.  0.
        5    1    3    3  502    0  0.16606372199E+03  0.99879996746E+03  0.21348553578E+03  0.10347834067E+04  0.46999998093E+01 0. -1.
       -5    1    3    3    0  502 -0.16606372199E+03 -0.99879996746E+03 -0.11609784058E+04  0.15404776803E+04  0.46999998093E+01 0.  1.
</event>
<event>
 5   0  0.3320780E-05  0.2077658E+04  0.7818609E-02  0.8571150E-01
        2   -1    0    0  501    0  0.00000000000E+00  0.00000000000E+00  0.17881583027E+04  0.17881583027E+04  0.25500000920E-02 0.  1.
       -2   -1    0    0    0  501  0.00000000000E+00  0.00000000000E+00 -0.60350657683E+03  0.60350657683E+03  0.25500000920E-02 0. -1.
    10030    2    1    2    0    0  0.00000000000E+00  0.00000000000E+00  0.11846517259E+04  0.23916648795E+04  0.20776576196E+04 0.  0.
        5    1    3    3  502    0 -0.69257157333E+03 -0.68618096003E+03  0.17944924452E+03  0.99132427361E+03  0.46999998093E+01 0. -1.
       -5    1    3    3    0  502  0.69257157333E+03  0.68618096003E+03  0.10052024813E+04  0.14003406059E+04  0.46999998093E+01 0.  1.
</event>
<event>
 5   0  0.1407158E-05  0.2399289E+04  0.7818609E-02  0.8439770E-01
        1   -1    0    0  501    0  0.00000000000E+00  0.00000000000E+00  0.17019330814E+04  0.17019330814E+04  0.50400001928E-02 0. -1.
       -1   -1    0    0    0  501  0.00000000000E+00  0.00000000000E+00 -0.84559581589E+03  0.84559581590E+03  0.50400001928E-02 0.  1.
    10030    2    1    2    0    0  0.00000000000E+00  0.00000000000E+00  0.85633726550E+03  0.25475288973E+04  0.23992894720E+04 0.  0.
        1    1    3    3  502    0  0.78695441905E+03  0.27003668302E+03 -0.48948026153E+03  0.96530202231E+03  0.50400001928E-02 0.  1.
       -1    1    3    3    0  502 -0.78695441905E+03 -0.27003668302E+03  0.13458175270E+04  0.15822268750E+04  0.50400001928E-02 0. -1.
</event>
<event>
 5   0  0.1434943E-05  0.2428941E+04  0.7818609E-02  0.8428747E-01
        1   -1    0    0  501    0  0.00000000000E+00  0.00000000000E+00  0.10537885987E+04  0.10537885987E+04  0.50400001928E-02 0.  1.
       -1   -1    0    0    0  501  0.00000000000E+00  0.00000000000E+00 -0.13996535359E+04  0.13996535359E+04  0.50400001928E-02 0. -1.
    10030    2    1    2    0    0  0.00000000000E+00  0.00000000000E+00 -0.34586493726E+03  0.24534421346E+04  0.24289412823E+04 0.  0.
        5    1    3    3  502    0 -0.10381464132E+04 -0.12475114482E+03 -0.79690635499E+03  0.13146834798E+04  0.46999998093E+01 0. -1.
       -5    1    3    3    0  502  0.10381464132E+04  0.12475114482E+03  0.45104141772E+03  0.11387586548E+04  0.46999998093E+01 0.  1.
</event>
<event>
 5   0  0.1393026E-05  0.2292267E+04  0.7818609E-02  0.8480976E-01
       -1   -1    0    0    0  501  0.00000000000E+00  0.00000000000E+00  0.86894327089E+03  0.86894327090E+03  0.50400001928E-02 0.  1.
        1   -1    0    0  501    0  0.00000000000E+00  0.00000000000E+00 -0.15117471283E+04  0.15117471283E+04  0.50400001928E-02 0. -1.
    10030    2    1    2    0    0  0.00000000000E+00  0.00000000000E+00 -0.64280385739E+03  0.23806903992E+04  0.22922674316E+04 0.  0.
        4    1    3    3  502    0 -0.81103087519E+03  0.24863057205E+03 -0.11218677459E+04  0.14064768374E+04  0.12699999809E+01 0. -1.
       -4    1    3    3    0  502  0.81103087519E+03 -0.24863057205E+03  0.47906388851E+03  0.97421356182E+03  0.12699999809E+01 0.  1.
</event>
<event>
 5   0  0.1401596E-05  0.2420856E+04  0.7818609E-02  0.8431736E-01
        1   -1    0    0  501    0  0.00000000000E+00  0.00000000000E+00  0.18962865097E+04  0.18962865097E+04  0.50400001928E-02 0. -1.
       -1   -1    0    0    0  501  0.00000000000E+00  0.00000000000E+00 -0.77263456307E+03  0.77263456308E+03  0.50400001928E-02 0.  1.
    10030    2    1    2    0    0  0.00000000000E+00  0.00000000000E+00  0.11236519466E+04  0.26689210728E+04  0.24208564591E+04 0.  0.
        2    1    3    3  502    0  0.21952156162E+03  0.12989456287E+03 -0.74266841563E+03  0.78525071732E+03  0.25500000920E-02 0.  1.
       -2    1    3    3    0  502 -0.21952156162E+03 -0.12989456287E+03  0.18663203622E+04  0.18836703554E+04  0.25500000920E-02 0. -1.
</event>
<event>
 5   0  0.3310037E-05  0.2514094E+04  0.7818609E-02  0.8397982E-01
       -2   -1    0    0    0  501  0.00000000000E+00  0.00000000000E+00  0.11853796320E+04  0.11853796320E+04  0.25500000920E-02 0.  1.
        2   -1    0    0  501    0  0.00000000000E+00  0.00000000000E+00 -0.13330470326E+04  0.13330470326E+04  0.25500000920E-02 0. -1.
    10030    2    1    2    0    0  0.00000000000E+00  0.00000000000E+00 -0.14766740061E+03  0.25184266647E+04  0.25140937143E+04 0.  0.
        2    1    3    3  502    0  0.43410239567E+03 -0.11251697402E+04 -0.42900784169E+03  0.12800388910E+04  0.25500000920E-02 0. -1.
       -2    1    3    3    0  502 -0.43410239567E+03  0.11251697402E+04  0.28134044108E+03  0.12383877737E+04  0.25500000920E-02 0.  1.
</event>
<event>
 5   0  0.3347728E-05  0.2129939E+04  0.7818609E-02  0.8548169E-01
       -2   -1    0    0    0  501  0.00000000000E+00  0.00000000000E+00  0.17251117824E+04  0.17251117824E+04  0.25500000920E-02 0. -1.
        2   -1    0    0  501    0  0.00000000000E+00  0.00000000000E+00 -0.65744135325E+03  0.65744135326E+03  0.25500000920E-02 0.  1.
    10030    2    1    2    0    0  0.00000000000E+00  0.00000000000E+00  0.10676704291E+04  0.23825531356E+04  0.21299388017E+04 0.  0.
        3    1    3    3  502    0  0.52031728962E+03 -0.88546595789E+03  0.21867572526E+03  0.10500472025E+04  0.10100000352E+00 0.  1.
       -3    1    3    3    0  502 -0.52031728962E+03  0.88546595789E+03  0.84899470385E+03  0.13325059331E+04  0.10100000352E+00 0. -1.
</event>
<event>
 5   0  0.3345974E-05  0.2403635E+04  0.7818609E-02  0.8438144E-01
       -2   -1    0    0    0  501  0.00000000000E+00  0.00000000000E+00  0.16250200485E+04  0.16250200485E+04  0.25500000920E-02 0.  1.
        2   -1    0    0  501    0  0.00000000000E+00  0.00000000000E+00 -0.88882905430E+03  0.88882905431E+03  0.25500000920E-02 0. -1.
    10030    2    1    2    0    0  0.00000000000E+00  0.00000000000E+00  0.73619099419E+03  0.25138491028E+04  0.24036347750E+04 0.  0.
        4    1    3    3  502    0 -0.87410295710E+03  0.47128086725E+03  0.10760398381E+04  0.14642489480E+04  0.12699999809E+01 0.  1.
       -4    1    3    3    0  502  0.87410295710E+03 -0.47128086725E+03 -0.33984884393E+03  0.10496001549E+04  0.12699999809E+01 0. -1.
</event>
<event>
 5   0  0.1434943E-05  0.2392484E+04  0.7818609E-02  0.8442323E-01
        1   -1    0    0  501    0  0.00000000000E+00  0.00000000000E+00  0.14286293681E+04  0.14286293681E+04  0.50400001928E-02 0.  1.
       -1   -1    0    0    0  501  0.00000000000E+00  0.00000000000E+00 -0.10016554980E+04  0.10016554980E+04  0.50400001928E-02 0. -1.
    10030    2    1    2    0    0  0.00000000000E+00  0.00000000000E+00  0.42697387005E+03  0.24302848661E+04  0.23924836143E+04 0.  0.
        5    1    3    3  502    0 -0.11748020666E+04 -0.13937260406E+03  0.33521822452E+02  0.11835245756E+04  0.46999998093E+01 0. -1.
       -5    1    3    3    0  502  0.11748020666E+04  0.13937260406E+03  0.39345204760E+03  0.12467602906E+04  0.46999998093E+01 0.  1.
</event>
<event>
 5   0  0.3215208E-05  0.2401350E+04  0.7818609E-02  0.8438998E-01
       -2   -1    0    0    0  501  0.00000000000E+00  0.00000000000E+00  0.10891345150E+04  0.10891345150E+04  0.25500000920E-02 0.  1.
        2   -1    0    0  501    0  0.00000000000E+00  0.00000000000E+00 -0.13236388577E+04  0.13236388577E+04  0.25500000920E-02 0. -1.
    10030    2    1    2    0    0  0.00000000000E+00  0.00000000000E+00 -0.23450434267E+03  0.24127733727E+04  0.24013502580E+04 0.  0.
        1    1    3    3  502    0 -0.10524720357E+04  0.57199927543E+03 -0.19974148288E+03  0.12144040584E+04  0.50400001928E-02 0.  1.
       -1    1    3    3    0  502  0.10524720357E+04 -0.57199927543E+03 -0.34762859793E+02  0.11983693143E+04  0.50400001928E-02 0. -1.
</event>
<event>
 5   0  0.3320780E-05  0.2378784E+04  0.7818609E-02  0.8447489E-01
        2   -1    0    0  501    0  0.00000000000E+00  0.00000000000E+00  0.91462728131E+03  0.91462728131E+03  0.25500000920E-02 0. -1.
       -2   -1    0    0    0  501  0.00000000000E+00  0.00000000000E+00 -0.15466996624E+04  0.15466996624E+04  0.25500000920E-02 0.  1.
    10030    2    1    2    0    0  0.00000000000E+00  0.00000000000E+00 -0.63207238108E+03  0.24613269437E+04  0.23787843174E+04 0.  0.
        5    1    3    3  502    0 -0.81465483072E+03 -0.72902224921E+03 -0.80079669848E+03  0.13551506836E+04  0.46999998093E+01 0.  1.
       -5    1    3    3    0  502  0.81465483072E+03  0.72902224921E+03  0.16872431739E+03  0.11061762601E+04  0.46999998093E+01 0. -1.
</event>
<event>
 5   0  0.1393026E-05  0.2384693E+04  0.7818609E-02  0.8445256E-01
       -1   -1    0    0    0  501  0.00000000000E+00  0.00000000000E+00  0.12161779698E+04  0.12161779698E+04  0.50400001928E-02 0. -1.
        1   -1    0    0  501    0  0.00000000000E+00  0.00000000000E+00 -0.11689823295E+04  0.11689823295E+04  0.50400001928E-02 0.  1.
    10030    2    1    2    0    0  0.00000000000E+00  0.00000000000E+00  0.47195640292E+02  0.23851602993E+04  0.23846933188E+04 0.  0.
        4    1    3    3  502    0  0.26693523118E+03 -0.69563086649E+03 -0.90746159380E+03  0.11741570922E+04  0.12699999809E+01 0.  1.
       -4    1    3    3    0  502 -0.26693523118E+03  0.69563086649E+03  0.95465723410E+03  0.12110032071E+04  0.12699999809E+01 0. -1.
</event>
<event>
 5   0  0.1401596E-05  0.2371275E+04  0.7818609E-02  0.8450337E-01
        1   -1    0    0  501    0  0.00000000000E+00  0.00000000000E+00  0.71897691281E+03  0.71897691283E+03  0.50400001928E-02 0. -1.
       -1   -1    0    0    0  501  0.00000000000E+00  0.00000000000E+00 -0.19551898898E+04  0.19551898898E+04  0.50400001928E-02 0.  1.
    10030    2    1    2    0    0  0.00000000000E+00  0.00000000000E+00 -0.12362129770E+04  0.26741668026E+04  0.23712750924E+04 0.  0.
        2    1    3    3  502    0  0.58586449268E+03 -0.57087571137E+03 -0.15859885550E+04  0.17845156145E+04  0.25500000920E-02 0.  1.
       -2    1    3    3    0  502 -0.58586449268E+03  0.57087571137E+03  0.34977557802E+03  0.88965118817E+03  0.25500000920E-02 0. -1.
</event>
<event>
 5   0  0.1401596E-05  0.2371275E+04  0.7818609E-02  0.8450337E-01
        1   -1    0    0  501    0  0.00000000000E+00  0.00000000000E+00  0.19651840771E+04  0.19651840771E+04  0.50400001928E-02 0.  1.
       -1   -1    0    0    0  501  0.00000000000E+00  0.00000000000E+00 -0.71532065248E+03  0.71532065250E+03  0.50400001928E-02 0. -1.
    10030    2    1    2    0    0  0.00000000000E+00  0.00000000000E+00  0.12498634246E+04  0.26805047296E+04  0.23712754005E+04 0.  0.
        2    1    3    3  502    0  0.25970461334E+03 -0.65613003045E+03  0.17019566542E+04  0.18424466223E+04  0.25500000920E-02 0.  1.
       -2    1    3    3    0  502 -0.25970461334E+03  0.65613003045E+03 -0.45209322959E+03  0.83805810735E+03  0.25500000920E-02 0. -1.
</event>
<event>
 5   0  0.1434943E-05  0.2487527E+04  0.7818609E-02  0.8407443E-01
        1   -1    0    0  501    0  0.00000000000E+00  0.00000000000E+00  0.10453975785E+04  0.10453975785E+04  0.50400001928E-02 0. -1.
       -1   -1    0    0    0  501  0.00000000000E+00  0.00000000000E+00 -0.14797695269E+04  0.14797695269E+04  0.50400001928E-02 0.  1.
    10030    2    1    2    0    0  0.00000000000E+00  0.00000000000E+00 -0.43437194840E+03  0.25251671053E+04  0.24875268683E+04 0.  0.
        5    1    3    3  502    0 -0.97299954108E+03 -0.56834074955E+03 -0.75163716342E+03  0.13545183018E+04  0.46999998093E+01 0.  1.
       -5    1    3    3    0  502  0.97299954108E+03  0.56834074955E+03  0.31726521501E+03  0.11706488035E+04  0.46999998093E+01 0. -1.
</event>
<event>
 5   0  0.1401596E-05  0.2413733E+04  0.7818609E-02  0.8434380E-01
        1   -1    0    0  501    0  0.00000000000E+00  0.00000000000E+00  0.15217477966E+04  0.15217477966E+04  0.50400001928E-02 0.  1.
       -1   -1    0    0    0  501  0.00000000000E+00  0.00000000000E+00 -0.95714055950E+03  0.95714055951E+03  0.50400001928E-02 0. -1.
    10030    2    1    2    0    0  0.00000000000E+00  0.00000000000E+00  0.56460723706E+03  0.24788883561E+04  0.24137328249E+04 0.  0.
        2    1    3    3  502    0 -0.99646930727E+03  0.64222319661E+03  0.50092142486E+02  0.11865542286E+04  0.25500000920E-02 0.  1.
       -2    1    3    3    0  502  0.99646930727E+03 -0.64222319661E+03  0.51451509458E+03  0.12923341275E+04  0.25500000920E-02 0. -1.
</event>
<event>
 5   0  0.3310037E-05  0.2423731E+04  0.7818609E-02  0.8430672E-01
       -2   -1    0    0    0  501  0.00000000000E+00  0.00000000000E+00  0.13318575830E+04  0.13318575830E+04  0.25500000920E-02 0.  1.
        2   -1    0    0  501    0  0.00000000000E+00  0.00000000000E+00 -0.11026842089E+04  0.11026842089E+04  0.25500000920E-02 0. -1.
    10030    2    1    2    0    0  0.00000000000E+00  0.00000000000E+00  0.22917337410E+03  0.24345417918E+04  0.24237312765E+04 0.  0.
        2    1    3    3  502    0  0.32474661033E+03 -0.89894706534E+03  0.86292788860E+03  0.12877153133E+04  0.25500000920E-02 0.  1.
       -2    1    3    3    0  502 -0.32474661033E+03  0.89894706534E+03 -0.63375451450E+03  0.11468264785E+04  0.25500000920E-02 0. -1.
</event>
<event>
 5   0  0.3310037E-05  0.2316950E+04  0.7818609E-02  0.8471268E-01
       -2   -1    0    0    0  501  0.00000000000E+00  0.00000000000E+00  0.56563422215E+03  0.56563422215E+03  0.25500000920E-02 0. -1.
        2   -1    0    0  501    0  0.00000000000E+00  0.00000000000E+00 -0.23726722337E+04  0.23726722337E+04  0.25500000920E-02 0.  1.
    10030    2    1    2    0    0  0.00000000000E+00  0.00000000000E+00 -0.18070380116E+04  0.29383064559E+04  0.23169502484E+04 0.  0.
        2    1    3    3  502    0 -0.16105723864E+03  0.66254378608E+03 -0.20912552680E+04  0.21996027592E+04  0.25500000920E-02 0.  1.
       -2    1    3    3    0  502  0.16105723864E+03 -0.66254378608E+03  0.28421725641E+03  0.73870369664E+03  0.25500000920E-02 0. -1.
</event>
<event>
 5   0  0.3347728E-05  0.2375291E+04  0.7818609E-02  0.8448813E-01
       -2   -1    0    0    0  501  0.00000000000E+00  0.00000000000E+00  0.12807992222E+04  0.12807992222E+04  0.25500000920E-02 0. -1.
        2   -1    0    0  501    0  0.00000000000E+00  0.00000000000E+00 -0.11012667643E+04  0.11012667643E+04  0.25500000920E-02 0.  1.
    10030    2    1    2    0    0  0.00000000000E+00  0.00000000000E+00  0.17953245788E+03  0.23820659864E+04  0.23752908159E+04 0.  0.
        3    1    3    3  502    0 -0.32609085978E+03 -0.15780459047E+03 -0.10445054773E+04  0.11055447706E+04  0.10100000352E+00 0.  1.
       -3    1    3    3    0  502  0.32609085978E+03  0.15780459047E+03  0.12240379351E+04  0.12765212158E+04  0.10100000352E+00 0. -1.
</event>
<event>
 5   0  0.1407158E-05  0.2511169E+04  0.7818609E-02  0.8399017E-01
        1   -1    0    0  501    0  0.00000000000E+00  0.00000000000E+00  0.18808423954E+04  0.18808423954E+04  0.50400001928E-02 0. -1.
       -1   -1    0    0    0  501  0.00000000000E+00  0.00000000000E+00 -0.83818449438E+03  0.83818449439E+03  0.50400001928E-02 0.  1.
    10030    2    1    2    0    0  0.00000000000E+00  0.00000000000E+00  0.10426579010E+04  0.27190268898E+04  0.25111693947E+04 0.  0.
        1    1    3    3  502    0  0.65612770162E+03  0.75844393412E+03  0.13393439715E+04  0.16731954566E+04  0.50400001928E-02 0.  1.
       -1    1    3    3    0  502 -0.65612770162E+03 -0.75844393412E+03 -0.29668607053E+03  0.10458314331E+04  0.50400001928E-02 0. -1.
</event>
<event>
 5   0  0.1401596E-05  0.2420535E+04  0.7818609E-02  0.8431855E-01
        1   -1    0    0  501    0  0.00000000000E+00  0.00000000000E+00  0.15355572425E+04  0.15355572425E+04  0.50400001928E-02 0. -1.
       -1   -1    0    0    0  501  0.00000000000E+00  0.00000000000E+00 -0.95388628816E+03  0.95388628818E+03  0.50400001928E-02 0.  1.
    10030    2    1    2    0    0  0.00000000000E+00  0.00000000000E+00  0.58167095434E+03  0.24894435307E+04  0.24205346503E+04 0.  0.
        2    1    3    3  502    0  0.11283061863E+04  0.13208352239E+03  0.72012231435E+03  0.13450267858E+04  0.25500000920E-02 0. -1.
       -2    1    3    3    0  502 -0.11283061863E+04 -0.13208352239E+03 -0.13845136001E+03  0.11444167449E+04  0.25500000920E-02 0.  1.
</event>
<event>
 5   0  0.1401596E-05  0.2351587E+04  0.7818609E-02  0.8457854E-01
        1   -1    0    0  501    0  0.00000000000E+00  0.00000000000E+00  0.21649786262E+04  0.21649786262E+04  0.50400001928E-02 0.  1.
       -1   -1    0    0    0  501  0.00000000000E+00  0.00000000000E+00 -0.63856985672E+03  0.63856985674E+03  0.50400001928E-02 0. -1.
    10030    2    1    2    0    0  0.00000000000E+00  0.00000000000E+00  0.15264087695E+04  0.28035484829E+04  0.23515867759E+04 0.  0.
        2    1    3    3  502    0 -0.93717712212E+03  0.32586170772E+03  0.15153300133E+04  0.18112735464E+04  0.25500000920E-02 0.  1.
       -2    1    3    3    0  502  0.93717712212E+03 -0.32586170772E+03  0.11078756189E+02  0.99227493652E+03  0.25500000920E-02 0. -1.
</event>
<event>
 5   0  0.3347728E-05  0.2418077E+04  0.7818609E-02  0.8432767E-01
       -2   -1    0    0    0  501  0.00000000000E+00  0.00000000000E+00  0.10098859102E+04  0.10098859102E+04  0.25500000920E-02 0. -1.
        2   -1    0    0  501    0  0.00000000000E+00  0.00000000000E+00 -0.14474645626E+04  0.14474645626E+04  0.25500000920E-02 0.  1.
    10030    2    1    2    0    0  0.00000000000E+00  0.00000000000E+00 -0.43757865240E+03  0.24573504728E+04  0.24180769775E+04 0.  0.
        3    1    3    3  502    0  0.11395220171E+04  0.28066558938E+03 -0.51418273957E+03  0.12812757316E+04  0.10100000352E+00 0. -1.
       -3    1    3    3    0  502 -0.11395220171E+04 -0.28066558938E+03  0.76604087168E+02  0.11760747412E+04  0.10100000352E+00 0.  1.
</event>
<event>
 5   0  0.3310037E-05  0.2398886E+04  0.7818609E-02  0.8439921E-01
        2   -1    0    0  501    0  0.00000000000E+00  0.00000000000E+00  0.23077242076E+04  0.23077242076E+04  0.25500000920E-02 0.  1.
       -2   -1    0    0    0  501  0.00000000000E+00  0.00000000000E+00 -0.62341221022E+03  0.62341221023E+03  0.25500000920E-02 0. -1.
    10030    2    1    2    0    0  0.00000000000E+00  0.00000000000E+00  0.16843119974E+04  0.29311364178E+04  0.23988859488E+04 0.  0.
        2    1    3    3  502    0 -0.44807171173E+03  0.29306296939E+03  0.21536141013E+04  0.22191682812E+04  0.25500000920E-02 0.  1.
       -2    1    3    3    0  502  0.44807171173E+03 -0.29306296939E+03 -0.46930210391E+03  0.71196813666E+03  0.25500000920E-02 0. -1.
</event>
<event>
 5   0  0.3310037E-05  0.2323162E+04  0.7818609E-02  0.8468844E-01
       -2   -1    0    0    0  501  0.00000000000E+00  0.00000000000E+00  0.13374081765E+04  0.13374081765E+04  0.25500000920E-02 0. -1.
        2   -1    0    0  501    0  0.00000000000E+00  0.00000000000E+00 -0.10088695887E+04  0.10088695887E+04  0.25500000920E-02 0.  1.
    10030    2    1    2    0    0  0.00000000000E+00  0.00000000000E+00  0.32853858771E+03  0.23462777652E+04  0.23231620150E+04 0.  0.
        2    1    3    3  502    0  0.15448843722E+03 -0.79227941333E+03  0.10078631011E+04  0.12912634807E+04  0.25500000920E-02 0. -1.
       -2    1    3    3    0  502 -0.15448843722E+03  0.79227941333E+03 -0.67932451339E+03  0.10550142845E+04  0.25500000920E-02 0.  1.
</event>
<event>
 5   0  0.1393026E-05  0.2308140E+04  0.7818609E-02  0.8474718E-01
        1   -1    0    0  501    0  0.00000000000E+00  0.00000000000E+00  0.13981363151E+04  0.13981363151E+04  0.50400001928E-02 0.  1.
       -1   -1    0    0    0  501  0.00000000000E+00  0.00000000000E+00 -0.95260946904E+03  0.95260946906E+03  0.50400001928E-02 0. -1.
    10030    2    1    2    0    0  0.00000000000E+00  0.00000000000E+00  0.44552684602E+03  0.23507457841E+04  0.23081402841E+04 0.  0.
        4    1    3    3  502    0  0.79463288262E+03 -0.75921500626E+03  0.58143944789E+03  0.12433512329E+04  0.12699999809E+01 0. -1.
       -4    1    3    3    0  502 -0.79463288262E+03  0.75921500626E+03 -0.13591260187E+03  0.11073945512E+04  0.12699999809E+01 0.  1.
</event>
<event>
 5   0  0.1147362E-05  0.2415107E+04  0.7818609E-02  0.8433869E-01
       -3   -1    0    0    0  501  0.00000000000E+00  0.00000000000E+00  0.12377963673E+04  0.12377963714E+04  0.10100000352E+00 0. -1.
        3   -1    0    0  501    0  0.00000000000E+00  0.00000000000E+00 -0.11780495574E+04  0.11780495617E+04  0.10100000352E+00 0.  1.
    10030    2    1    2    0    0  0.00000000000E+00  0.00000000000E+00  0.59746809832E+02  0.24158459331E+04  0.24151070145E+04 0.  0.
        4    1    3    3  502    0  0.11502381820E+04 -0.36665747367E+03  0.56306506081E+02  0.12085766893E+04  0.12699999809E+01 0.  1.
       -4    1    3    3    0  502 -0.11502381820E+04  0.36665747367E+03  0.34403037513E+01  0.12072692438E+04  0.12699999809E+01 0. -1.
</event>
<event>
 5   0  0.3215208E-05  0.2378850E+04  0.7818609E-02  0.8447465E-01
        2   -1    0    0  501    0  0.00000000000E+00  0.00000000000E+00  0.20089842522E+04  0.20089842522E+04  0.25500000920E-02 0. -1.
       -2   -1    0    0    0  501  0.00000000000E+00  0.00000000000E+00 -0.70420233408E+03  0.70420233409E+03  0.25500000920E-02 0.  1.
    10030    2    1    2    0    0  0.00000000000E+00  0.00000000000E+00  0.13047819181E+04  0.27131865863E+04  0.23788496376E+04 0.  0.
        1    1    3    3  502    0  0.11192912835E+04  0.41861106002E+02  0.11088459174E+04  0.15761042472E+04  0.50400001928E-02 0. -1.
       -1    1    3    3    0  502 -0.11192912835E+04 -0.41861106002E+02  0.19593600072E+03  0.11370823391E+04  0.50400001928E-02 0.  1.
</event>
<event>
 5   0  0.3347728E-05  0.2421914E+04  0.7818609E-02  0.8431345E-01
        2   -1    0    0  501    0  0.00000000000E+00  0.00000000000E+00  0.24921401459E+04  0.24921401459E+04  0.25500000920E-02 0.  1.
       -2   -1    0    0    0  501  0.00000000000E+00  0.00000000000E+00 -0.58841676675E+03  0.58841676675E+03  0.25500000920E-02 0. -1.
    10030    2    1    2    0    0  0.00000000000E+00  0.00000000000E+00  0.19037233791E+04  0.30805569126E+04  0.24219141578E+04 0.  0.
        3    1    3    3  502    0 -0.10849683602E+04  0.30917133377E+03  0.39209647617E+03  0.11943546011E+04  0.10100000352E+00 0. -1.
       -3    1    3    3    0  502  0.10849683602E+04 -0.30917133377E+03  0.15116269029E+04  0.18862023116E+04  0.10100000352E+00 0.  1.
</event>
<event>
 5   0  0.1401596E-05  0.2434086E+04  0.7818609E-02  0.8426851E-01
       -1   -1    0    0    0  501  0.00000000000E+00  0.00000000000E+00  0.15237968586E+04  0.15237968587E+04  0.50400001928E-02 0. -1.
        1   -1    0    0  501    0  0.00000000000E+00  0.00000000000E+00 -0.97204170986E+03  0.97204170988E+03  0.50400001928E-02 0.  1.
    10030    2    1    2    0    0  0.00000000000E+00  0.00000000000E+00  0.55175514879E+03  0.24958385685E+04  0.24340863616E+04 0.  0.
        2    1    3    3  502    0  0.69817334281E+03 -0.46516471962E+03  0.11799315511E+04  0.14477785391E+04  0.25500000920E-02 0. -1.
       -2    1    3    3    0  502 -0.69817334281E+03  0.46516471962E+03 -0.62817640227E+03  0.10480600295E+04  0.25500000920E-02 0.  1.
</event>
<event>
 5   0  0.3347728E-05  0.2410666E+04  0.7818609E-02  0.8435521E-01
        2   -1    0    0  501    0  0.00000000000E+00  0.00000000000E+00  0.17902133745E+04  0.17902133745E+04  0.25500000920E-02 0.  1.
       -2   -1    0    0    0  501  0.00000000000E+00  0.00000000000E+00 -0.81153850333E+03  0.81153850333E+03  0.25500000920E-02 0. -1.
    10030    2    1    2    0    0  0.00000000000E+00  0.00000000000E+00  0.97867487115E+03  0.26017518778E+04  0.24106655368E+04 0.  0.
        3    1    3    3  502    0  0.21115808444E+03 -0.11036004696E+04  0.18517976558E+02  0.11237725121E+04  0.10100000352E+00 0. -1.
       -3    1    3    3    0  502 -0.21115808444E+03  0.11036004696E+04  0.96015689459E+03  0.14779793658E+04  0.10100000352E+00 0.  1.
</event>
<event>
 5   0  0.3310037E-05  0.2406584E+04  0.7818609E-02  0.8437043E-01
       -2   -1    0    0    0  501  0.00000000000E+00  0.00000000000E+00  0.20675582092E+04  0.20675582092E+04  0.25500000920E-02 0. -1.
        2   -1    0    0  501    0  0.00000000000E+00  0.00000000000E+00 -0.70030028726E+03  0.70030028727E+03  0.25500000920E-02 0.  1.
    10030    2    1    2    0    0  0.00000000000E+00  0.00000000000E+00  0.13672579219E+04  0.27678584965E+04  0.24065839756E+04 0.  0.
        2    1    3    3  502    0  0.45498885687E+03 -0.11124968031E+04  0.74917174220E+03  0.14163058625E+04  0.25500000920E-02 0. -1.
       -2    1    3    3    0  502 -0.45498885687E+03  0.11124968031E+04  0.61808617975E+03  0.13515526340E+04  0.25500000920E-02 0.  1.
</event>
<event>
 5   0  0.3347728E-05  0.2402075E+04  0.7818609E-02  0.8438727E-01
        2   -1    0    0  501    0  0.00000000000E+00  0.00000000000E+00  0.19291930293E+04  0.19291930293E+04  0.25500000920E-02 0. -1.
       -2   -1    0    0    0  501  0.00000000000E+00  0.00000000000E+00 -0.74771750639E+03  0.74771750640E+03  0.25500000920E-02 0.  1.
    10030    2    1    2    0    0  0.00000000000E+00  0.00000000000E+00  0.11814755229E+04  0.26769105357E+04  0.24020752705E+04 0.  0.
        3    1    3    3  502    0  0.11337357633E+04 -0.25131200891E+03  0.93236914966E+03  0.14892369685E+04  0.10100000352E+00 0.  1.
       -3    1    3    3    0  502 -0.11337357633E+04  0.25131200891E+03  0.24910637325E+03  0.11876735672E+04  0.10100000352E+00 0. -1.
</event>
<event>
 5   0  0.1434943E-05  0.2386430E+04  0.7818609E-02  0.8444602E-01
       -1   -1    0    0    0  501  0.00000000000E+00  0.00000000000E+00  0.83348948005E+03  0.83348948007E+03  0.50400001928E-02 0.  1.
        1   -1    0    0  501    0  0.00000000000E+00  0.00000000000E+00 -0.17081941244E+04  0.17081941245E+04  0.50400001928E-02 0. -1.
    10030    2    1    2    0    0  0.00000000000E+00  0.00000000000E+00 -0.87470464439E+03  0.25416836045E+04  0.23864298294E+04 0.  0.
        5    1    3    3  502    0  0.34105882945E+03 -0.43005781120E+03  0.69103962040E+03  0.88251271553E+03  0.46999998093E+01 0.  1.
       -5    1    3    3    0  502 -0.34105882945E+03  0.43005781120E+03 -0.15657442648E+04  0.16591708890E+04  0.46999998093E+01 0. -1.
</event>
<event>
 5   0  0.1434943E-05  0.2397569E+04  0.7818609E-02  0.8440414E-01
       -1   -1    0    0    0  501  0.00000000000E+00  0.00000000000E+00  0.18368865566E+04  0.18368865566E+04  0.50400001928E-02 0. -1.
        1   -1    0    0  501    0  0.00000000000E+00  0.00000000000E+00 -0.78234778186E+03  0.78234778188E+03  0.50400001928E-02 0.  1.
    10030    2    1    2    0    0  0.00000000000E+00  0.00000000000E+00  0.10545387747E+04  0.26192343385E+04  0.23975688713E+04 0.  0.
        5    1    3    3  502    0 -0.88736869732E+03 -0.65859404138E+03  0.19668631433E+02  0.11052503162E+04  0.46999998093E+01 0.  1.
       -5    1    3    3    0  502  0.88736869732E+03  0.65859404138E+03  0.10348701433E+04  0.15139840223E+04  0.46999998093E+01 0. -1.
</event>
<event>
 5   0  0.3215208E-05  0.2385487E+04  0.7818609E-02  0.8444957E-01
        2   -1    0    0  501    0  0.00000000000E+00  0.00000000000E+00  0.17880273235E+04  0.17880273235E+04  0.25500000920E-02 0. -1.
       -2   -1    0    0    0  501  0.00000000000E+00  0.00000000000E+00 -0.79564643039E+03  0.79564643039E+03  0.25500000920E-02 0.  1.
    10030    2    1    2    0    0  0.00000000000E+00  0.00000000000E+00  0.99238089312E+03  0.25836737539E+04  0.23854874197E+04 0.  0.
        1    1    3    3  502    0 -0.22658849729E+03  0.40224089415E+03  0.16873310406E+04  0.17493502007E+04  0.50400001928E-02 0. -1.
       -1    1    3    3    0  502  0.22658849729E+03 -0.40224089415E+03 -0.69495014745E+03  0.83432355324E+03  0.50400001928E-02 0.  1.
</event>
<event>
 5   0  0.1401596E-05  0.2406116E+04  0.7818609E-02  0.8437217E-01
       -1   -1    0    0    0  501  0.00000000000E+00  0.00000000000E+00  0.12514595004E+04  0.12514595004E+04  0.50400001928E-02 0. -1.
        1   -1    0    0  501    0  0.00000000000E+00  0.00000000000E+00 -0.11565285940E+04  0.11565285940E+04  0.50400001928E-02 0.  1.
    10030    2    1    2    0    0  0.00000000000E+00  0.00000000000E+00  0.94930906384E+02  0.24079880944E+04  0.24061161206E+04 0.  0.
        2    1    3    3  502    0 -0.57233938548E+03  0.16385486867E+03  0.10937107293E+04  0.12452405187E+04  0.25500000920E-02 0. -1.
       -2    1    3    3    0  502  0.57233938548E+03 -0.16385486867E+03 -0.99877982287E+03  0.11627475757E+04  0.25500000920E-02 0.  1.
</event>
<event>
 5   0  0.3310037E-05  0.2474590E+04  0.7818609E-02  0.8412094E-01
       -2   -1    0    0    0  501  0.00000000000E+00  0.00000000000E+00  0.10673130336E+04  0.10673130336E+04  0.25500000920E-02 0.  1.
        2   -1    0    0  501    0  0.00000000000E+00  0.00000000000E+00 -0.14343483651E+04  0.14343483651E+04  0.25500000920E-02 0. -1.
    10030    2    1    2    0    0  0.00000000000E+00  0.00000000000E+00 -0.36703533150E+03  0.25016613987E+04  0.24745898284E+04 0.  0.
        2    1    3    3  502    0  0.13020178346E+03  0.85969032625E+03 -0.10734196549E+04  0.13813941208E+04  0.25500000920E-02 0. -1.
       -2    1    3    3    0  502 -0.13020178346E+03 -0.85969032625E+03  0.70638432340E+03  0.11202672778E+04  0.25500000920E-02 0.  1.
</event>
<event>
 5   0  0.1407158E-05  0.2377912E+04  0.7818609E-02  0.8447820E-01
       -1   -1    0    0    0  501  0.00000000000E+00  0.00000000000E+00  0.97566208610E+03  0.97566208611E+03  0.50400001928E-02 0. -1.
        1   -1    0    0  501    0  0.00000000000E+00  0.00000000000E+00 -0.14488791620E+04  0.14488791620E+04  0.50400001928E-02 0.  1.
    10030    2    1    2    0    0  0.00000000000E+00  0.00000000000E+00 -0.47321707589E+03  0.24245412481E+04  0.23779120806E+04 0.  0.
        1    1    3    3  502    0  0.26122621622E+03  0.91059258251E+03 -0.96916675438E+03  0.13552498608E+04  0.50400001928E-02 0.  1.
       -1    1    3    3    0  502 -0.26122621622E+03 -0.91059258251E+03  0.49594967848E+03  0.10692913873E+04  0.50400001928E-02 0. -1.
</event>
<event>
 5   0  0.3345974E-05  0.2391592E+04  0.7818609E-02  0.8442658E-01
       -2   -1    0    0    0  501  0.00000000000E+00  0.00000000000E+00  0.72679250825E+03  0.72679250825E+03  0.25500000920E-02 0.  1.
        2   -1    0    0  501    0  0.00000000000E+00  0.00000000000E+00 -0.19674498695E+04  0.19674498695E+04  0.25500000920E-02 0. -1.
    10030    2    1    2    0    0  0.00000000000E+00  0.00000000000E+00 -0.12406573613E+04  0.26942423778E+04  0.23915917926E+04 0.  0.
        4    1    3    3  502    0  0.60379824244E+03  0.10274992258E+04 -0.73070297604E+03  0.13979468619E+04  0.12699999809E+01 0. -1.
       -4    1    3    3    0  502 -0.60379824244E+03 -0.10274992258E+04 -0.50995438526E+03  0.12962955159E+04  0.12699999809E+01 0.  1.
</event>
<event>
 5   0  0.1393026E-05  0.2404580E+04  0.7818609E-02  0.8437791E-01
       -1   -1    0    0    0  501  0.00000000000E+00  0.00000000000E+00  0.16603373653E+04  0.16603373653E+04  0.50400001928E-02 0.  1.
        1   -1    0    0  501    0  0.00000000000E+00  0.00000000000E+00 -0.87060673854E+03  0.87060673855E+03  0.50400001928E-02 0. -1.
    10030    2    1    2    0    0  0.00000000000E+00  0.00000000000E+00  0.78973062679E+03  0.25309441039E+04  0.24045797126E+04 0.  0.
        4    1    3    3  502    0  0.94857443292E+03 -0.22396539015E+03  0.11358087770E+04  0.14966686813E+04  0.12699999809E+01 0.  1.
       -4    1    3    3    0  502 -0.94857443292E+03  0.22396539015E+03 -0.34607815023E+03  0.10342754226E+04  0.12699999809E+01 0. -1.
</event>
<event>
 5   0  0.3320780E-05  0.2393754E+04  0.7818609E-02  0.8441846E-01
        2   -1    0    0  501    0  0.00000000000E+00  0.00000000000E+00  0.29064889741E+04  0.29064889741E+04  0.25500000920E-02 0. -1.
       -2   -1    0    0    0  501  0.00000000000E+00  0.00000000000E+00 -0.49286785475E+03  0.49286785475E+03  0.25500000920E-02 0.  1.
    10030    2    1    2    0    0  0.00000000000E+00  0.00000000000E+00  0.24136211193E+04  0.33993568288E+04  0.23937543613E+04 0.  0.
        5    1    3    3  502    0  0.61215264490E+03  0.27465754144E+03  0.26142989789E+04  0.26990273927E+04  0.46999998093E+01 0. -1.
       -5    1    3    3    0  502 -0.61215264490E+03 -0.27465754144E+03 -0.20067785957E+03  0.70032943608E+03  0.46999998093E+01 0.  1.
</event>
<event>
 5   0  0.1393026E-05  0.2411873E+04  0.7818609E-02  0.8435072E-01
       -1   -1    0    0    0  501  0.00000000000E+00  0.00000000000E+00  0.12898241762E+04  0.12898241762E+04  0.50400001928E-02 0. -1.
        1   -1    0    0  501    0  0.00000000000E+00  0.00000000000E+00 -0.11275048730E+04  0.11275048730E+04  0.50400001928E-02 0.  1.
    10030    2    1    2    0    0  0.00000000000E+00  0.00000000000E+00  0.16231930322E+03  0.24173290492E+04  0.24118731675E+04 0.  0.
        4    1    3    3  502    0 -0.30597056500E+03  0.11654555427E+04  0.32296703218E+02  0.12053834654E+04  0.12699999809E+01 0. -1.
       -4    1    3    3    0  502  0.30597056500E+03 -0.11654555427E+04  0.13002260000E+03  0.12119455838E+04  0.12699999809E+01 0.  1.
</event>
<event>
 5   0  0.1434943E-05  0.2407023E+04  0.7818609E-02  0.8436879E-01
       -1   -1    0    0    0  501  0.00000000000E+00  0.00000000000E+00  0.90705379145E+03  0.90705379147E+03  0.50400001928E-02 0.  1.
        1   -1    0    0  501    0  0.00000000000E+00  0.00000000000E+00 -0.15968626670E+04  0.15968626670E+04  0.50400001928E-02 0. -1.
    10030    2    1    2    0    0  0.00000000000E+00  0.00000000000E+00 -0.68980887552E+03  0.25039164585E+04  0.24070233373E+04 0.  0.
        5    1    3    3  502    0 -0.11273274153E+04  0.55690838023E+02 -0.77938926740E+03  0.13716553105E+04  0.46999998093E+01 0. -1.
       -5    1    3    3    0  502  0.11273274153E+04 -0.55690838023E+02  0.89580391877E+02  0.11322611480E+04  0.46999998093E+01 0.  1.
</event>
<event>
 5   0  0.3215208E-05  0.2378160E+04  0.7818609E-02  0.8447725E-01
       -2   -1    0    0    0  501  0.00000000000E+00  0.00000000000E+00  0.21906670707E+04  0.21906670707E+04  0.25500000920E-02 0. -1.
        2   -1    0    0  501    0  0.00000000000E+00  0.00000000000E+00 -0.64542518899E+03  0.64542518900E+03  0.25500000920E-02 0.  1.
    10030    2    1    2    0    0  0.00000000000E+00  0.00000000000E+00  0.15452418817E+04  0.28360922597E+04  0.23781603883E+04 0.  0.
        1    1    3    3  502    0 -0.11181206879E+04  0.34019355601E+02  0.29179626005E+03  0.11560693088E+04  0.50400001928E-02 0. -1.
       -1    1    3    3    0  502  0.11181206879E+04 -0.34019355601E+02  0.12534456217E+04  0.16800229510E+04  0.50400001928E-02 0.  1.
</event>
<event>
 5   0  0.1506985E-05  0.2396590E+04  0.7818609E-02  0.8440781E-01
       -1   -1    0    0    0  501  0.00000000000E+00  0.00000000000E+00  0.77284733433E+03  0.77284733435E+03  0.50400001928E-02 0. -1.
        1   -1    0    0  501    0  0.00000000000E+00  0.00000000000E+00 -0.18579491222E+04  0.18579491222E+04  0.50400001928E-02 0.  1.
    10030    2    1    2    0    0  0.00000000000E+00  0.00000000000E+00 -0.10851017878E+04  0.26307964565E+04  0.23965900996E+04 0.  0.
        3    1    3    3  502    0  0.37517441703E+03  0.40820353080E+03  0.62358480124E+03  0.83441235627E+03  0.10100000352E+00 0. -1.
       -3    1    3    3    0  502 -0.37517441703E+03 -0.40820353080E+03 -0.17086865891E+04  0.17963841003E+04  0.10100000352E+00 0.  1.
</event>
<event>
 5   0  0.3215208E-05  0.2432907E+04  0.7818609E-02  0.8427285E-01
       -2   -1    0    0    0  501  0.00000000000E+00  0.00000000000E+00  0.50219766719E+03  0.50219766720E+03  0.25500000920E-02 0.  1.
        2   -1    0    0  501    0  0.00000000000E+00  0.00000000000E+00 -0.29465673161E+04  0.29465673161E+04  0.25500000920E-02 0. -1.
    10030    2    1    2    0    0  0.00000000000E+00  0.00000000000E+00 -0.24443696489E+04  0.34487649833E+04  0.24329070943E+04 0.  0.
        1    1    3    3  502    0  0.42223719652E+03 -0.81365826254E+03 -0.88646128874E+02  0.92096805293E+03  0.50400001928E-02 0.  1.
       -1    1    3    3    0  502 -0.42223719652E+03  0.81365826254E+03 -0.23557235201E+04  0.25277969304E+04  0.50400001928E-02 0. -1.
</event>
<event>
 5   0  0.1506985E-05  0.2380471E+04  0.7818609E-02  0.8446851E-01
        1   -1    0    0  501    0  0.00000000000E+00  0.00000000000E+00  0.17164279808E+04  0.17164279808E+04  0.50400001928E-02 0.  1.
       -1   -1    0    0    0  501  0.00000000000E+00  0.00000000000E+00 -0.82535395986E+03  0.82535395987E+03  0.50400001928E-02 0. -1.
    10030    2    1    2    0    0  0.00000000000E+00  0.00000000000E+00  0.89107402094E+03  0.25417819407E+04  0.23804710717E+04 0.  0.
        3    1    3    3  502    0 -0.38413728988E+03 -0.68753395955E+03 -0.50734686055E+03  0.93683789960E+03  0.10100000352E+00 0. -1.
       -3    1    3    3    0  502  0.38413728988E+03  0.68753395955E+03  0.13984208815E+04  0.16049440411E+04  0.10100000352E+00 0.  1.
</event>
<event>
 5   0  0.1434943E-05  0.2411197E+04  0.7818609E-02  0.8435324E-01
       -1   -1    0    0    0  501  0.00000000000E+00  0.00000000000E+00  0.83870211925E+03  0.83870211927E+03  0.50400001928E-02 0. -1.
        1   -1    0    0  501    0  0.00000000000E+00  0.00000000000E+00 -0.17329956796E+04  0.17329956796E+04  0.50400001928E-02 0.  1.
    10030    2    1    2    0    0  0.00000000000E+00  0.00000000000E+00 -0.89429356036E+03  0.25716977989E+04  0.24111965073E+04 0.  0.
        5    1    3    3  502    0  0.83444080184E+03  0.75766166858E+03  0.92413594626E+01  0.11271424704E+04  0.46999998093E+01 0. -1.
       -5    1    3    3    0  502 -0.83444080184E+03 -0.75766166858E+03 -0.90353491983E+03  0.14445553285E+04  0.46999998093E+01 0.  1.
</event>
<event>
 5   0  0.3345974E-05  0.2342871E+04  0.7818609E-02  0.8461207E-01
        2   -1    0    0  501    0  0.00000000000E+00  0.00000000000E+00  0.11533829749E+04  0.11533829749E+04  0.25500000920E-02 0. -1.
       -2   -1    0    0    0  501  0.00000000000E+00  0.00000000000E+00 -0.11897702459E+04  0.11897702459E+04  0.25500000920E-02 0.  1.
    10030    2    1    2    0    0  0.00000000000E+00  0.00000000000E+00 -0.36387271013E+02  0.23431532207E+04  0.23428706713E+04 0.  0.
        4    1    3    3  502    0 -0.10305669393E+04 -0.14174871796E+03 -0.55686625690E+03  0.11799417597E+04  0.12699999809E+01 0.  1.
       -4    1    3    3    0  502  0.10305669393E+04  0.14174871796E+03  0.52047898589E+03  0.11632114610E+04  0.12699999809E+01 0. -1.
</event>
<event>
 5   0  0.3310037E-05  0.2402705E+04  0.7818609E-02  0.8438492E-01
       -2   -1    0    0    0  501  0.00000000000E+00  0.00000000000E+00  0.62540498678E+03  0.62540498679E+03  0.25500000920E-02 0. -1.
        2   -1    0    0  501    0  0.00000000000E+00  0.00000000000E+00 -0.23077009740E+04  0.23077009740E+04  0.25500000920E-02 0.  1.
    10030    2    1    2    0    0  0.00000000000E+00  0.00000000000E+00 -0.16822959872E+04  0.29331059608E+04  0.24027048901E+04 0.  0.
        2    1    3    3  502    0  0.14999986155E+03 -0.73402990459E+03 -0.19875812351E+04  0.21240948720E+04  0.25500000920E-02 0.  1.
       -2    1    3    3    0  502 -0.14999986155E+03  0.73402990459E+03  0.30528524781E+03  0.80901108882E+03  0.25500000920E-02 0. -1.
</event>
<event>
 5   0  0.1393026E-05  0.2396158E+04  0.7818609E-02  0.8440943E-01
       -1   -1    0    0    0  501  0.00000000000E+00  0.00000000000E+00  0.85613429522E+03  0.85613429523E+03  0.50400001928E-02 0.  1.
        1   -1    0    0  501    0  0.00000000000E+00  0.00000000000E+00 -0.16765977086E+04  0.16765977086E+04  0.50400001928E-02 0. -1.
    10030    2    1    2    0    0  0.00000000000E+00  0.00000000000E+00 -0.82046341342E+03  0.25327320039E+04  0.23961575889E+04 0.  0.
        4    1    3    3  502    0  0.11166240553E+04 -0.41627014895E+03 -0.27965481988E+03  0.12240663989E+04  0.12699999809E+01 0.  1.
       -4    1    3    3    0  502 -0.11166240553E+04  0.41627014895E+03 -0.54080859354E+03  0.13086656049E+04  0.12699999809E+01 0. -1.
</event>
<event>
 5   0  0.3320780E-05  0.2479675E+04  0.7818609E-02  0.8410262E-01
       -2   -1    0    0    0  501  0.00000000000E+00  0.00000000000E+00  0.59848890550E+03  0.59848890550E+03  0.25500000920E-02 0.  1.
        2   -1    0    0  501    0  0.00000000000E+00  0.00000000000E+00 -0.25684644203E+04  0.25684644203E+04  0.25500000920E-02 0. -1.
    10030    2    1    2    0    0  0.00000000000E+00  0.00000000000E+00 -0.19699755148E+04  0.31669533258E+04  0.24796753495E+04 0.  0.
        5    1    3    3  502    0 -0.64791827388E+03 -0.94990033769E+03 -0.39269918749E+03  0.12150487575E+04  0.46999998093E+01 0. -1.
       -5    1    3    3    0  502  0.64791827388E+03  0.94990033769E+03 -0.15772763273E+04  0.19519045683E+04  0.46999998093E+01 0.  1.
</event>
<event>
 5   0  0.1407158E-05  0.2417761E+04  0.7818609E-02  0.8432884E-01
       -1   -1    0    0    0  501  0.00000000000E+00  0.00000000000E+00  0.12268954454E+04  0.12268954454E+04  0.50400001928E-02 0.  1.
        1   -1    0    0  501    0  0.00000000000E+00  0.00000000000E+00 -0.11911302780E+04  0.11911302781E+04  0.50400001928E-02 0. -1.
    10030    2    1    2    0    0  0.00000000000E+00  0.00000000000E+00  0.35765167376E+02  0.24180257235E+04  0.24177612066E+04 0.  0.
        1    1    3    3  502    0 -0.76370309539E+03  0.73873076942E+03 -0.55874510223E+03  0.12004839261E+04  0.50400001928E-02 0. -1.
       -1    1    3    3    0  502  0.76370309539E+03 -0.73873076942E+03  0.59451026960E+03  0.12175417973E+04  0.50400001928E-02 0.  1.
</event>
<event>
 5   0  0.3345974E-05  0.2391685E+04  0.7818609E-02  0.8442623E-01
       -2   -1    0    0    0  501  0.00000000000E+00  0.00000000000E+00  0.11379197931E+04  0.11379197931E+04  0.25500000920E-02 0. -1.
        2   -1    0    0  501    0  0.00000000000E+00  0.00000000000E+00 -0.12567138902E+04  0.12567138902E+04  0.25500000920E-02 0.  1.
    10030    2    1    2    0    0  0.00000000000E+00  0.00000000000E+00 -0.11879409707E+03  0.23946336833E+04  0.23916852719E+04 0.  0.
        4    1    3    3  502    0  0.82606863288E+03 -0.64791746094E+02  0.80390173290E+03  0.11544899158E+04  0.12699999809E+01 0. -1.
       -4    1    3    3    0  502 -0.82606863288E+03  0.64791746094E+02 -0.92269582997E+03  0.12401437675E+04  0.12699999809E+01 0.  1.
</event>
<event>
 5   0  0.1401596E-05  0.2401656E+04  0.7818609E-02  0.8438884E-01
        1   -1    0    0  501    0  0.00000000000E+00  0.00000000000E+00  0.12059756789E+04  0.12059756789E+04  0.50400001928E-02 0.  1.
       -1   -1    0    0    0  501  0.00000000000E+00  0.00000000000E+00 -0.11957027378E+04  0.11957027378E+04  0.50400001928E-02 0. -1.
    10030    2    1    2    0    0  0.00000000000E+00  0.00000000000E+00  0.10272941073E+02  0.24016784168E+04  0.24016564459E+04 0.  0.
        2    1    3    3  502    0  0.66403011202E+03  0.21893749444E+03 -0.97115049734E+03  0.11966632378E+04  0.25500000920E-02 0. -1.
       -2    1    3    3    0  502 -0.66403011202E+03 -0.21893749444E+03  0.98142343841E+03  0.12050151790E+04  0.25500000920E-02 0.  1.
</event>
<event>
 5   0  0.1401596E-05  0.2429053E+04  0.7818609E-02  0.8428706E-01
        1   -1    0    0  501    0  0.00000000000E+00  0.00000000000E+00  0.19722102349E+04  0.19722102349E+04  0.50400001928E-02 0.  1.
       -1   -1    0    0    0  501  0.00000000000E+00  0.00000000000E+00 -0.74792980657E+03  0.74792980659E+03  0.50400001928E-02 0. -1.
    10030    2    1    2    0    0  0.00000000000E+00  0.00000000000E+00  0.12242804284E+04  0.27201400415E+04  0.24290531650E+04 0.  0.
        2    1    3    3  502    0  0.45125129339E+03 -0.36553489540E+03  0.18066595580E+04  0.18976991985E+04  0.25500000920E-02 0.  1.
       -2    1    3    3    0  502 -0.45125129339E+03  0.36553489540E+03 -0.58237912966E+03  0.82244084299E+03  0.25500000920E-02 0. -1.
</event>
<event>
 5   0  0.3310037E-05  0.2253184E+04  0.7818609E-02  0.8496612E-01
       -2   -1    0    0    0  501  0.00000000000E+00  0.00000000000E+00  0.53457378802E+03  0.53457378803E+03  0.25500000920E-02 0. -1.
        2   -1    0    0  501    0  0.00000000000E+00  0.00000000000E+00 -0.23742450644E+04  0.23742450644E+04  0.25500000920E-02 0.  1.
    10030    2    1    2    0    0  0.00000000000E+00  0.00000000000E+00 -0.18396712764E+04  0.29088188524E+04  0.22531836834E+04 0.  0.
        2    1    3    3  502    0  0.36678070648E+03  0.85812277030E+03 -0.10507747159E+03  0.93911876277E+03  0.25500000920E-02 0. -1.
       -2    1    3    3    0  502 -0.36678070648E+03 -0.85812277030E+03 -0.17345938048E+04  0.19697000897E+04  0.25500000920E-02 0.  1.
</event>
<event>
 5   0  0.1434943E-05  0.1979892E+04  0.7818609E-02  0.8616080E-01
        1   -1    0    0  501    0  0.00000000000E+00  0.00000000000E+00  0.12585642151E+04  0.12585642151E+04  0.50400001928E-02 0. -1.
       -1   -1    0    0    0  501  0.00000000000E+00  0.00000000000E+00 -0.77865958757E+03  0.77865958759E+03  0.50400001928E-02 0.  1.
    10030    2    1    2    0    0  0.00000000000E+00  0.00000000000E+00  0.47990462756E+03  0.20372238027E+04  0.19798920099E+04 0.  0.
        5    1    3    3  502    0  0.68607349426E+03 -0.69098572080E+03  0.42347884128E+03  0.10618448686E+04  0.46999998093E+01 0. -1.
       -5    1    3    3    0  502 -0.68607349426E+03  0.69098572080E+03  0.56425786279E+02  0.97537893417E+03  0.46999998093E+01 0.  1.
</event>
<event>
 5   0  0.1393026E-05  0.2342921E+04  0.7818609E-02  0.8461188E-01
       -1   -1    0    0    0  501  0.00000000000E+00  0.00000000000E+00  0.10239404400E+04  0.10239404400E+04  0.50400001928E-02 0.  1.
        1   -1    0    0  501    0  0.00000000000E+00  0.00000000000E+00 -0.13402342173E+04  0.13402342173E+04  0.50400001928E-02 0. -1.
    10030    2    1    2    0    0  0.00000000000E+00  0.00000000000E+00 -0.31629377732E+03  0.23641746573E+04  0.23429212655E+04 0.  0.
        4    1    3    3  502    0 -0.10732490220E+04  0.41333052754E+03 -0.38290676747E+03  0.12121570829E+04  0.12699999809E+01 0.  1.
       -4    1    3    3    0  502  0.10732490220E+04 -0.41333052754E+03  0.66612990143E+02  0.11520175743E+04  0.12699999809E+01 0. -1.
</event>
<event>
 5   0  0.1434943E-05  0.2368132E+04  0.7818609E-02  0.8451532E-01
        1   -1    0    0  501    0  0.00000000000E+00  0.00000000000E+00  0.15593297101E+04  0.15593297101E+04  0.50400001928E-02 0.  1.
       -1   -1    0    0    0  501  0.00000000000E+00  0.00000000000E+00 -0.89911196774E+03  0.89911196776E+03  0.50400001928E-02 0. -1.
    10030    2    1    2    0    0  0.00000000000E+00  0.00000000000E+00  0.66021774232E+03  0.24584416778E+04  0.23681317565E+04 0.  0.
        5    1    3    3  502    0  0.37647114530E+03 -0.11110438408E+04  0.49699048545E+03  0.12740371157E+04  0.46999998093E+01 0. -1.
       -5    1    3    3    0  502 -0.37647114530E+03  0.11110438408E+04  0.16322725687E+03  0.11844045622E+04  0.46999998093E+01 0.  1.
</event>
<event>
 5   0  0.3310037E-05  0.2387936E+04  0.7818609E-02  0.8444034E-01
       -2   -1    0    0    0  501  0.00000000000E+00  0.00000000000E+00  0.84388942993E+03  0.84388942993E+03  0.25500000920E-02 0.  1.
        2   -1    0    0  501    0  0.00000000000E+00  0.00000000000E+00 -0.16892722705E+04  0.16892722705E+04  0.25500000920E-02 0. -1.
    10030    2    1    2    0    0  0.00000000000E+00  0.00000000000E+00 -0.84538284052E+03  0.25331617004E+04  0.23879355212E+04 0.  0.
        2    1    3    3  502    0 -0.59106245240E+03  0.86509715011E+01  0.67776425831E+03  0.89932977922E+03  0.25500000920E-02 0.  1.
       -2    1    3    3    0  502  0.59106245240E+03 -0.86509715011E+01 -0.15231470988E+04  0.16338319212E+04  0.25500000920E-02 0. -1.
</event>
<event>
 5   0  0.3310037E-05  0.2391662E+04  0.7818609E-02  0.8442632E-01
        2   -1    0    0  501    0  0.00000000000E+00  0.00000000000E+00  0.18188051405E+04  0.18188051405E+04  0.25500000920E-02 0. -1.
       -2   -1    0    0    0  501  0.00000000000E+00  0.00000000000E+00 -0.78623725376E+03  0.78623725377E+03  0.25500000920E-02 0.  1.
    10030    2    1    2    0    0  0.00000000000E+00  0.00000000000E+00  0.10325678868E+04  0.26050423943E+04  0.23916624836E+04 0.  0.
        2    1    3    3  502    0 -0.32164429552E+03  0.30720466043E+03  0.17253567140E+04  0.17817647282E+04  0.25500000920E-02 0. -1.
       -2    1    3    3    0  502  0.32164429552E+03 -0.30720466043E+03 -0.69278882725E+03  0.82327766604E+03  0.25500000920E-02 0.  1.
</event>
<event>
 5   0  0.1407158E-05  0.2447199E+04  0.7818609E-02  0.8422041E-01
       -1   -1    0    0    0  501  0.00000000000E+00  0.00000000000E+00  0.69227022436E+03  0.69227022438E+03  0.50400001928E-02 0.  1.
        1   -1    0    0  501    0  0.00000000000E+00  0.00000000000E+00 -0.21627329351E+04  0.21627329351E+04  0.50400001928E-02 0. -1.
    10030    2    1    2    0    0  0.00000000000E+00  0.00000000000E+00 -0.14704627107E+04  0.28550031595E+04  0.24471989002E+04 0.  0.
        1    1    3    3  502    0 -0.94892513994E+03  0.19941956185E+03 -0.16058994969E+04  0.18759371730E+04  0.50400001928E-02 0. -1.
       -1    1    3    3    0  502  0.94892513994E+03 -0.19941956185E+03  0.13543678615E+03  0.97906598650E+03  0.50400001928E-02 0.  1.
</event>
<event>
 5   0  0.3347728E-05  0.2403767E+04  0.7818609E-02  0.8438095E-01
        2   -1    0    0  501    0  0.00000000000E+00  0.00000000000E+00  0.23297655952E+04  0.23297655952E+04  0.25500000920E-02 0.  1.
       -2   -1    0    0    0  501  0.00000000000E+00  0.00000000000E+00 -0.62002986012E+03  0.62002986012E+03  0.25500000920E-02 0. -1.
    10030    2    1    2    0    0  0.00000000000E+00  0.00000000000E+00  0.17097357351E+04  0.29497954554E+04  0.24037672401E+04 0.  0.
        3    1    3    3  502    0 -0.28741749117E+03  0.50190136144E+03  0.21477621679E+04  0.22242742931E+04  0.10100000352E+00 0.  1.
       -3    1    3    3    0  502  0.28741749117E+03 -0.50190136144E+03 -0.43802643280E+03  0.72552116225E+03  0.10100000352E+00 0. -1.
</event>
<event>
 5   0  0.3347728E-05  0.2393501E+04  0.7818609E-02  0.8441941E-01
        2   -1    0    0  501    0  0.00000000000E+00  0.00000000000E+00  0.11355044964E+04  0.11355044964E+04  0.25500000920E-02 0.  1.
       -2   -1    0    0    0  501  0.00000000000E+00  0.00000000000E+00 -0.12613001080E+04  0.12613001080E+04  0.25500000920E-02 0. -1.
    10030    2    1    2    0    0  0.00000000000E+00  0.00000000000E+00 -0.12579561160E+03  0.23968046044E+04  0.23935011543E+04 0.  0.
        3    1    3    3  502    0 -0.34950809347E+03 -0.75528924723E+03  0.79828575578E+03  0.11532033266E+04  0.10100000352E+00 0.  1.
       -3    1    3    3    0  502  0.34950809347E+03  0.75528924723E+03 -0.92408136738E+03  0.12436012778E+04  0.10100000352E+00 0. -1.
</event>
<event>
 5   0  0.3345974E-05  0.2400987E+04  0.7818609E-02  0.8439134E-01
        2   -1    0    0  501    0  0.00000000000E+00  0.00000000000E+00  0.16165404465E+04  0.16165404465E+04  0.25500000920E-02 0.  1.
       -2   -1    0    0    0  501  0.00000000000E+00  0.00000000000E+00 -0.89152425240E+03  0.89152425241E+03  0.25500000920E-02 0. -1.
    10030    2    1    2    0    0  0.00000000000E+00  0.00000000000E+00  0.72501619409E+03  0.25080646989E+04  0.24009873078E+04 0.  0.
        4    1    3    3  502    0 -0.70729673798E+03 -0.23914321283E+03 -0.61948289238E+03  0.97016432559E+03  0.12699999809E+01 0. -1.
       -4    1    3    3    0  502  0.70729673798E+03  0.23914321283E+03  0.13444990865E+04  0.15379003733E+04  0.12699999809E+01 0.  1.
</event>
<event>
 5   0  0.1393026E-05  0.2398448E+04  0.7818609E-02  0.8440085E-01
       -1   -1    0    0    0  501  0.00000000000E+00  0.00000000000E+00  0.14777847417E+04  0.14777847417E+04  0.50400001928E-02 0. -1.
        1   -1    0    0  501    0  0.00000000000E+00  0.00000000000E+00 -0.97317161299E+03  0.97317161301E+03  0.50400001928E-02 0.  1.
    10030    2    1    2    0    0  0.00000000000E+00  0.00000000000E+00  0.50461312867E+03  0.24509563547E+04  0.23984479654E+04 0.  0.
        4    1    3    3  502    0 -0.55406671779E+03 -0.21546631912E+03  0.13166070931E+04  0.14446008143E+04  0.12699999809E+01 0. -1.
       -4    1    3    3    0  502  0.55406671779E+03  0.21546631912E+03 -0.81199396439E+03  0.10063555403E+04  0.12699999809E+01 0.  1.
</event>
<event>
 5   0  0.1393026E-05  0.2387904E+04  0.7818609E-02  0.8444046E-01
        1   -1    0    0  501    0  0.00000000000E+00  0.00000000000E+00  0.85769162400E+03  0.85769162401E+03  0.50400001928E-02 0. -1.
       -1   -1    0    0    0  501  0.00000000000E+00  0.00000000000E+00 -0.16620437449E+04  0.16620437449E+04  0.50400001928E-02 0.  1.
    10030    2    1    2    0    0  0.00000000000E+00  0.00000000000E+00 -0.80435212092E+03  0.25197353689E+04  0.23879036821E+04 0.  0.
        4    1    3    3  502    0  0.45880175892E+03  0.12494999058E+03 -0.15578134034E+04  0.16287712444E+04  0.12699999809E+01 0.  1.
       -4    1    3    3    0  502 -0.45880175892E+03 -0.12494999058E+03  0.75346128243E+03  0.89096412451E+03  0.12699999809E+01 0. -1.
</event>
<event>
 5   0  0.3320780E-05  0.2410877E+04  0.7818609E-02  0.8435443E-01
       -2   -1    0    0    0  501  0.00000000000E+00  0.00000000000E+00  0.26434121606E+04  0.26434121606E+04  0.25500000920E-02 0.  1.
        2   -1    0    0  501    0  0.00000000000E+00  0.00000000000E+00 -0.54969922749E+03  0.54969922749E+03  0.25500000920E-02 0. -1.
    10030    2    1    2    0    0  0.00000000000E+00  0.00000000000E+00  0.20937129331E+04  0.31931113881E+04  0.24108767058E+04 0.  0.
        5    1    3    3  502    0  0.45108062254E+03  0.59040296011E+03  0.23040551265E+04  0.24208968378E+04  0.46999998093E+01 0.  1.
       -5    1    3    3    0  502 -0.45108062254E+03 -0.59040296011E+03 -0.21034219341E+03  0.77221455027E+03  0.46999998093E+01 0. -1.
</event>
<event>
 5   0  0.1393026E-05  0.2408434E+04  0.7818609E-02  0.8436353E-01
        1   -1    0    0  501    0  0.00000000000E+00  0.00000000000E+00  0.12296833677E+04  0.12296833677E+04  0.50400001928E-02 0. -1.
       -1   -1    0    0    0  501  0.00000000000E+00  0.00000000000E+00 -0.11792783561E+04  0.11792783561E+04  0.50400001928E-02 0.  1.
    10030    2    1    2    0    0  0.00000000000E+00  0.00000000000E+00  0.50405011594E+02  0.24089617239E+04  0.24084343300E+04 0.  0.
        4    1    3    3  502    0  0.40001666784E+03 -0.11358356977E+04  0.26343343312E+02  0.12045047328E+04  0.12699999809E+01 0.  1.
       -4    1    3    3    0  502 -0.40001666784E+03  0.11358356977E+04  0.24061668282E+02  0.12044569911E+04  0.12699999809E+01 0. -1.
</event>
<event>
 5   0  0.3347728E-05  0.2448122E+04  0.7818609E-02  0.8421704E-01
        2   -1    0    0  501    0  0.00000000000E+00  0.00000000000E+00  0.21140748175E+04  0.21140748175E+04  0.25500000920E-02 0. -1.
       -2   -1    0    0    0  501  0.00000000000E+00  0.00000000000E+00 -0.70873836876E+03  0.70873836876E+03  0.25500000920E-02 0.  1.
    10030    2    1    2    0    0  0.00000000000E+00  0.00000000000E+00  0.14053364487E+04  0.28228131862E+04  0.24481224950E+04 0.  0.
        3    1    3    3  502    0 -0.43479633847E+03 -0.61954414016E+03  0.18119039812E+04  0.19636391840E+04  0.10100000352E+00 0. -1.
       -3    1    3    3    0  502  0.43479633847E+03  0.61954414016E+03 -0.40656753246E+03  0.85917400229E+03  0.10100000352E+00 0.  1.
</event>
<event>
 5   0  0.3347728E-05  0.2410802E+04  0.7818609E-02  0.8435470E-01
       -2   -1    0    0    0  501  0.00000000000E+00  0.00000000000E+00  0.13702668063E+04  0.13702668063E+04  0.25500000920E-02 0. -1.
        2   -1    0    0  501    0  0.00000000000E+00  0.00000000000E+00 -0.10603714282E+04  0.10603714282E+04  0.25500000920E-02 0.  1.
    10030    2    1    2    0    0  0.00000000000E+00  0.00000000000E+00  0.30989537808E+03  0.24306382346E+04  0.24108021657E+04 0.  0.
        3    1    3    3  502    0  0.86491082129E+02 -0.81712169776E+03  0.10441471569E+04  0.13286880265E+04  0.10100000352E+00 0. -1.
       -3    1    3    3    0  502 -0.86491082129E+02  0.81712169776E+03 -0.73425177880E+03  0.11019502081E+04  0.10100000352E+00 0.  1.
</event>
<event>
 5   0  0.1393026E-05  0.2397465E+04  0.7818609E-02  0.8440453E-01
       -1   -1    0    0    0  501  0.00000000000E+00  0.00000000000E+00  0.17350044630E+04  0.17350044630E+04  0.50400001928E-02 0. -1.
        1   -1    0    0  501    0  0.00000000000E+00  0.00000000000E+00 -0.82821652258E+03  0.82821652260E+03  0.50400001928E-02 0.  1.
    10030    2    1    2    0    0  0.00000000000E+00  0.00000000000E+00  0.90678794042E+03  0.25632209856E+04  0.23974647969E+04 0.  0.
        4    1    3    3  502    0  0.61206352550E+03 -0.10017643055E+04  0.71265559113E+03  0.13733291985E+04  0.12699999809E+01 0. -1.
       -4    1    3    3    0  502 -0.61206352550E+03  0.10017643055E+04  0.19413234929E+03  0.11898917871E+04  0.12699999809E+01 0.  1.
</event>
<event>
 5   0  0.1506985E-05  0.2496362E+04  0.7818609E-02  0.8404283E-01
        1   -1    0    0  501    0  0.00000000000E+00  0.00000000000E+00  0.15806774487E+04  0.15806774487E+04  0.50400001928E-02 0. -1.
       -1   -1    0    0    0  501  0.00000000000E+00  0.00000000000E+00 -0.98562512167E+03  0.98562512169E+03  0.50400001928E-02 0.  1.
    10030    2    1    2    0    0  0.00000000000E+00  0.00000000000E+00  0.59505232701E+03  0.25663025704E+04  0.24963616747E+04 0.  0.
        3    1    3    3  502    0 -0.79362589419E+03  0.18122383962E+03  0.12702233779E+04  0.15086920097E+04  0.10100000352E+00 0. -1.
       -3    1    3    3    0  502  0.79362589419E+03 -0.18122383962E+03 -0.67517105091E+03  0.10576105607E+04  0.10100000352E+00 0.  1.
</event>
<event>
 5   0  0.1393026E-05  0.2226306E+04  0.7818609E-02  0.8507558E-01
       -1   -1    0    0    0  501  0.00000000000E+00  0.00000000000E+00  0.10064248446E+04  0.10064248446E+04  0.50400001928E-02 0.  1.
        1   -1    0    0  501    0  0.00000000000E+00  0.00000000000E+00 -0.12311991965E+04  0.12311991965E+04  0.50400001928E-02 0. -1.
    10030    2    1    2    0    0  0.00000000000E+00  0.00000000000E+00 -0.22477435191E+03  0.22376240412E+04  0.22263058731E+04 0.  0.
        4    1    3    3  502    0  0.20385008960E+03  0.70094696160E+03 -0.95703223278E+03  0.12036585103E+04  0.12699999809E+01 0. -1.
       -4    1    3    3    0  502 -0.20385008960E+03 -0.70094696160E+03  0.73225788087E+03  0.10339655309E+04  0.12699999809E+01 0.  1.
</event>
<event>
 5   0  0.3320780E-05  0.2413417E+04  0.7818609E-02  0.8434497E-01
       -2   -1    0    0    0  501  0.00000000000E+00  0.00000000000E+00  0.76001353068E+03  0.76001353068E+03  0.25500000920E-02 0. -1.
        2   -1    0    0  501    0  0.00000000000E+00  0.00000000000E+00 -0.19159466640E+04  0.19159466640E+04  0.25500000920E-02 0.  1.
    10030    2    1    2    0    0  0.00000000000E+00  0.00000000000E+00 -0.11559331333E+04  0.26759601947E+04  0.24134169874E+04 0.  0.
        5    1    3    3  502    0 -0.52685952354E+03  0.46856525486E+03  0.50784404975E+03  0.86894305019E+03  0.46999998093E+01 0. -1.
       -5    1    3    3    0  502  0.52685952354E+03 -0.46856525486E+03 -0.16637771831E+04  0.18070171445E+04  0.46999998093E+01 0.  1.
</event>
<event>
 5   0  0.1393026E-05  0.2407687E+04  0.7818609E-02  0.8436631E-01
        1   -1    0    0  501    0  0.00000000000E+00  0.00000000000E+00  0.16951078412E+04  0.16951078412E+04  0.50400001928E-02 0. -1.
       -1   -1    0    0    0  501  0.00000000000E+00  0.00000000000E+00 -0.85495362820E+03  0.85495362822E+03  0.50400001928E-02 0.  1.
    10030    2    1    2    0    0  0.00000000000E+00  0.00000000000E+00  0.84015421300E+03  0.25500614694E+04  0.24076865237E+04 0.  0.
        4    1    3    3  502    0  0.39009362371E+03  0.80291930327E+03 -0.43538847072E+03  0.99318536848E+03  0.12699999809E+01 0.  1.
       -4    1    3    3    0  502 -0.39009362371E+03 -0.80291930327E+03  0.12755426837E+04  0.15568761009E+04  0.12699999809E+01 0. -1.
</event>
<event>
 5   0  0.1401596E-05  0.2481377E+04  0.7818609E-02  0.8409650E-01
        1   -1    0    0  501    0  0.00000000000E+00  0.00000000000E+00  0.13717563767E+04  0.13717563767E+04  0.50400001928E-02 0.  1.
       -1   -1    0    0    0  501  0.00000000000E+00  0.00000000000E+00 -0.11221438504E+04  0.11221438504E+04  0.50400001928E-02 0. -1.
    10030    2    1    2    0    0  0.00000000000E+00  0.00000000000E+00  0.24961252625E+03  0.24939002271E+04  0.24813770228E+04 0.  0.
        2    1    3    3  502    0 -0.11943491945E+04 -0.75795059845E+02  0.45370866789E+03  0.12798696984E+04  0.25500000920E-02 0.  1.
       -2    1    3    3    0  502  0.11943491945E+04  0.75795059845E+02 -0.20409614164E+03  0.12140305287E+04  0.25500000920E-02 0. -1.
</event>
<event>
 5   0  0.1434943E-05  0.2355368E+04  0.7818609E-02  0.8456405E-01
        1   -1    0    0  501    0  0.00000000000E+00  0.00000000000E+00  0.72638321719E+03  0.72638321721E+03  0.50400001928E-02 0.  1.
       -1   -1    0    0    0  501  0.00000000000E+00  0.00000000000E+00 -0.19093768358E+04  0.19093768358E+04  0.50400001928E-02 0. -1.
    10030    2    1    2    0    0  0.00000000000E+00  0.00000000000E+00 -0.11829936186E+04  0.26357600530E+04  0.23553677325E+04 0.  0.
        5    1    3    3  502    0  0.63708033561E+03 -0.37372352041E+03 -0.16179575863E+04  0.17785807445E+04  0.46999998093E+01 0. -1.
       -5    1    3    3    0  502 -0.63708033561E+03  0.37372352041E+03  0.43496396769E+03  0.85717930850E+03  0.46999998093E+01 0.  1.
</event>
<event>
 5   0  0.3310037E-05  0.2428449E+04  0.7818609E-02  0.8428929E-01
        2   -1    0    0  501    0  0.00000000000E+00  0.00000000000E+00  0.26136978609E+04  0.26136978609E+04  0.25500000920E-02 0. -1.
       -2   -1    0    0    0  501  0.00000000000E+00  0.00000000000E+00 -0.56408245633E+03  0.56408245633E+03  0.25500000920E-02 0.  1.
    10030    2    1    2    0    0  0.00000000000E+00  0.00000000000E+00  0.20496154046E+04  0.31777803172E+04  0.24284489778E+04 0.  0.
        2    1    3    3  502    0  0.54700965711E+03 -0.13799571025E+03  0.24317898683E+04  0.24963702339E+04  0.25500000920E-02 0. -1.
       -2    1    3    3    0  502 -0.54700965711E+03  0.13799571025E+03 -0.38217446371E+03  0.68141008338E+03  0.25500000920E-02 0.  1.
</event>
<event>
 5   0  0.3345974E-05  0.2391416E+04  0.7818609E-02  0.8442724E-01
       -2   -1    0    0    0  501  0.00000000000E+00  0.00000000000E+00  0.65274969390E+03  0.65274969390E+03  0.25500000920E-02 0. -1.
        2   -1    0    0  501    0  0.00000000000E+00  0.00000000000E+00 -0.21903007065E+04  0.21903007065E+04  0.25500000920E-02 0.  1.
    10030    2    1    2    0    0  0.00000000000E+00  0.00000000000E+00 -0.15375510126E+04  0.28430504004E+04  0.23914164135E+04 0.  0.
        4    1    3    3  502    0 -0.90320618547E+03  0.60662563912E+03 -0.17919337714E+03  0.11026730970E+04  0.12699999809E+01 0.  1.
       -4    1    3    3    0  502  0.90320618547E+03 -0.60662563912E+03 -0.13583576355E+04  0.17403773034E+04  0.12699999809E+01 0. -1.
</event>
<event>
 5   0  0.3347728E-05  0.2365247E+04  0.7818609E-02  0.8452630E-01
       -2   -1    0    0    0  501  0.00000000000E+00  0.00000000000E+00  0.16528211221E+04  0.16528211221E+04  0.25500000920E-02 0. -1.
        2   -1    0    0  501    0  0.00000000000E+00  0.00000000000E+00 -0.84618835072E+03  0.84618835072E+03  0.25500000920E-02 0.  1.
    10030    2    1    2    0    0  0.00000000000E+00  0.00000000000E+00  0.80663277140E+03  0.24990094728E+04  0.23652466927E+04 0.  0.
        3    1    3    3  502    0  0.10177263842E+04 -0.31952184254E+03 -0.13618504111E+03  0.10753639275E+04  0.10100000352E+00 0.  1.
       -3    1    3    3    0  502 -0.10177263842E+04  0.31952184254E+03  0.94281781250E+03  0.14236455453E+04  0.10100000352E+00 0. -1.
</event>
<event>
 5   0  0.1393026E-05  0.2394213E+04  0.7818609E-02  0.8441673E-01
       -1   -1    0    0    0  501  0.00000000000E+00  0.00000000000E+00  0.84742259797E+03  0.84742259799E+03  0.50400001928E-02 0.  1.
        1   -1    0    0  501    0  0.00000000000E+00  0.00000000000E+00 -0.16910851015E+04  0.16910851015E+04  0.50400001928E-02 0. -1.
    10030    2    1    2    0    0  0.00000000000E+00  0.00000000000E+00 -0.84366250355E+03  0.25385076995E+04  0.23942127977E+04 0.  0.
        4    1    3    3  502    0 -0.18034666492E+03  0.57324210498E+03 -0.15195702395E+04  0.16340828486E+04  0.12699999809E+01 0. -1.
       -4    1    3    3    0  502  0.18034666492E+03 -0.57324210498E+03  0.67590773597E+03  0.90442485089E+03  0.12699999809E+01 0.  1.
</event>
<event>
 5   0  0.1506985E-05  0.2382470E+04  0.7818609E-02  0.8446096E-01
        1   -1    0    0  501    0  0.00000000000E+00  0.00000000000E+00  0.13683153082E+04  0.13683153082E+04  0.50400001928E-02 0. -1.
       -1   -1    0    0    0  501  0.00000000000E+00  0.00000000000E+00 -0.10370712329E+04  0.10370712329E+04  0.50400001928E-02 0.  1.
    10030    2    1    2    0    0  0.00000000000E+00  0.00000000000E+00  0.33124407525E+03  0.24053865411E+04  0.23824696797E+04 0.  0.
        3    1    3    3  502    0  0.88072286743E+03 -0.79588218541E+03  0.64967477728E+02  0.11888322025E+04  0.10100000352E+00 0.  1.
       -3    1    3    3    0  502 -0.88072286743E+03  0.79588218541E+03  0.26627659752E+03  0.12165543386E+04  0.10100000352E+00 0. -1.
</event>
<event>
 5   0  0.1434943E-05  0.2254365E+04  0.7818609E-02  0.8496135E-01
        1   -1    0    0  501    0  0.00000000000E+00  0.00000000000E+00  0.96697206610E+03  0.96697206611E+03  0.50400001928E-02 0. -1.
       -1   -1    0    0    0  501  0.00000000000E+00  0.00000000000E+00 -0.13139365261E+04  0.13139365262E+04  0.50400001928E-02 0.  1.
    10030    2    1    2    0    0  0.00000000000E+00  0.00000000000E+00 -0.34696446005E+03  0.22809085923E+04  0.22543645823E+04 0.  0.
        5    1    3    3  502    0  0.10770093360E+04  0.29768697492E+03 -0.23578413732E+02  0.11176514110E+04  0.46999998093E+01 0. -1.
       -5    1    3    3    0  502 -0.10770093360E+04 -0.29768697492E+03 -0.32338604632E+03  0.11632571813E+04  0.46999998093E+01 0.  1.
</event>
<event>
 5   0  0.1434943E-05  0.2336970E+04  0.7818609E-02  0.8463486E-01
        1   -1    0    0  501    0  0.00000000000E+00  0.00000000000E+00  0.10298092470E+04  0.10298092470E+04  0.50400001928E-02 0. -1.
       -1   -1    0    0    0  501  0.00000000000E+00  0.00000000000E+00 -0.13258345482E+04  0.13258345482E+04  0.50400001928E-02 0.  1.
    10030    2    1    2    0    0  0.00000000000E+00  0.00000000000E+00 -0.29602530122E+03  0.23556437953E+04  0.23369695572E+04 0.  0.
        5    1    3    3  502    0  0.65278109704E+03  0.58714510938E+02  0.82706620586E+03  0.10552872374E+04  0.46999998093E+01 0. -1.
       -5    1    3    3    0  502 -0.65278109704E+03 -0.58714510938E+02 -0.11230915071E+04  0.13003565579E+04  0.46999998093E+01 0.  1.
</event>
<event>
 5   0  0.3310037E-05  0.2425727E+04  0.7818609E-02  0.8429934E-01
        2   -1    0    0  501    0  0.00000000000E+00  0.00000000000E+00  0.12707418005E+04  0.12707418005E+04  0.25500000920E-02 0.  1.
       -2   -1    0    0    0  501  0.00000000000E+00  0.00000000000E+00 -0.11576212086E+04  0.11576212086E+04  0.25500000920E-02 0. -1.
    10030    2    1    2    0    0  0.00000000000E+00  0.00000000000E+00  0.11312059190E+03  0.24283630090E+04  0.24257268262E+04 0.  0.
        2    1    3    3  502    0 -0.10632472364E+04 -0.24243182150E+03 -0.47483649562E+03  0.11894274132E+04  0.25500000920E-02 0. -1.
       -2    1    3    3    0  502  0.10632472364E+04  0.24243182150E+03  0.58795708752E+03  0.12389355958E+04  0.25500000920E-02 0.  1.
</event>
<event>
 5   0  0.3310037E-05  0.2362898E+04  0.7818609E-02  0.8453526E-01
       -2   -1    0    0    0  501  0.00000000000E+00  0.00000000000E+00  0.91237655923E+03  0.91237655923E+03  0.25500000920E-02 0. -1.
        2   -1    0    0  501    0  0.00000000000E+00  0.00000000000E+00 -0.15298749153E+04  0.15298749153E+04  0.25500000920E-02 0.  1.
    10030    2    1    2    0    0  0.00000000000E+00  0.00000000000E+00 -0.61749835608E+03  0.24422514745E+04  0.23628982300E+04 0.  0.
        2    1    3    3  502    0  0.11525705024E+04  0.80737639510E+02 -0.53714413929E+02  0.11566428004E+04  0.25500000920E-02 0. -1.
       -2    1    3    3    0  502 -0.11525705024E+04 -0.80737639510E+02 -0.56378394215E+03  0.12856086741E+04  0.25500000920E-02 0.  1.
</event>
<event>
 5   0  0.1506985E-05  0.2421412E+04  0.7818609E-02  0.8431530E-01
       -1   -1    0    0    0  501  0.00000000000E+00  0.00000000000E+00  0.11168669293E+04  0.11168669293E+04  0.50400001928E-02 0. -1.
        1   -1    0    0  501    0  0.00000000000E+00  0.00000000000E+00 -0.13124298496E+04  0.13124298496E+04  0.50400001928E-02 0.  1.
    10030    2    1    2    0    0  0.00000000000E+00  0.00000000000E+00 -0.19556292027E+03  0.24292967790E+04  0.24214123945E+04 0.  0.
        3    1    3    3  502    0  0.12427440571E+03 -0.33931249835E+03  0.10615036080E+04  0.11213237799E+04  0.10100000352E+00 0. -1.
       -3    1    3    3    0  502 -0.12427440571E+03  0.33931249835E+03 -0.12570665283E+04  0.13079729990E+04  0.10100000352E+00 0.  1.
</event>
<event>
 5   0  0.1407158E-05  0.2403541E+04  0.7818609E-02  0.8438179E-01
        1   -1    0    0  501    0  0.00000000000E+00  0.00000000000E+00  0.16132096749E+04  0.16132096749E+04  0.50400001928E-02 0. -1.
       -1   -1    0    0    0  501  0.00000000000E+00  0.00000000000E+00 -0.89526669495E+03  0.89526669497E+03  0.50400001928E-02 0.  1.
    10030    2    1    2    0    0  0.00000000000E+00  0.00000000000E+00  0.71794297996E+03  0.25084763699E+04  0.24035414654E+04 0.  0.
        1    1    3    3  502    0  0.11713911515E+04  0.18042679164E+03  0.56650432344E+03  0.13136354919E+04  0.50400001928E-02 0.  1.
       -1    1    3    3    0  502 -0.11713911515E+04 -0.18042679164E+03  0.15143865652E+03  0.11948408780E+04  0.50400001928E-02 0. -1.
</event>
<event>
 5   0  0.3215208E-05  0.2391862E+04  0.7818609E-02  0.8442556E-01
        2   -1    0    0  501    0  0.00000000000E+00  0.00000000000E+00  0.20627821147E+04  0.20627821147E+04  0.25500000920E-02 0.  1.
       -2   -1    0    0    0  501  0.00000000000E+00  0.00000000000E+00 -0.69336033887E+03  0.69336033888E+03  0.25500000920E-02 0. -1.
    10030    2    1    2    0    0  0.00000000000E+00  0.00000000000E+00  0.13694217758E+04  0.27561424535E+04  0.23918622921E+04 0.  0.
        1    1    3    3  502    0 -0.50579594089E+03  0.88316323685E+03  0.14084106402E+04  0.17376499556E+04  0.50400001928E-02 0.  1.
       -1    1    3    3    0  502  0.50579594089E+03 -0.88316323685E+03 -0.38988864439E+02  0.10184924979E+04  0.50400001928E-02 0. -1.
</event>
<event>
 5   0  0.3320780E-05  0.2384289E+04  0.7818609E-02  0.8445409E-01
       -2   -1    0    0    0  501  0.00000000000E+00  0.00000000000E+00  0.99097501263E+03  0.99097501264E+03  0.25500000920E-02 0. -1.
        2   -1    0    0  501    0  0.00000000000E+00  0.00000000000E+00 -0.14341513404E+04  0.14341513404E+04  0.25500000920E-02 0.  1.
    10030    2    1    2    0    0  0.00000000000E+00  0.00000000000E+00 -0.44317632777E+03  0.24251263530E+04  0.23842886928E+04 0.  0.
        5    1    3    3  502    0  0.11304887925E+04 -0.40637848504E+02  0.16105973877E+03  0.11426367201E+04  0.46999998093E+01 0.  1.
       -5    1    3    3    0  502 -0.11304887925E+04  0.40637848504E+02 -0.60423606654E+03  0.12824896330E+04  0.46999998093E+01 0. -1.
</event>
<event>
 5   0  0.1401596E-05  0.2397119E+04  0.7818609E-02  0.8440583E-01
        1   -1    0    0  501    0  0.00000000000E+00  0.00000000000E+00  0.73545661415E+03  0.73545661417E+03  0.50400001928E-02 0.  1.
       -1   -1    0    0    0  501  0.00000000000E+00  0.00000000000E+00 -0.19532687036E+04  0.19532687036E+04  0.50400001928E-02 0. -1.
    10030    2    1    2    0    0  0.00000000000E+00  0.00000000000E+00 -0.12178120895E+04  0.26887253178E+04  0.23971185931E+04 0.  0.
        2    1    3    3  502    0 -0.55654916949E+03 -0.10338597320E+03 -0.17938837313E+04  0.18810780098E+04  0.25500000920E-02 0. -1.
       -2    1    3    3    0  502  0.55654916949E+03  0.10338597320E+03  0.57607164186E+03  0.80764730797E+03  0.25500000920E-02 0.  1.
</event>
<event>
 5   0  0.1401596E-05  0.2394474E+04  0.7818609E-02  0.8441575E-01
        1   -1    0    0  501    0  0.00000000000E+00  0.00000000000E+00  0.13064637595E+04  0.13064637595E+04  0.50400001928E-02 0. -1.
       -1   -1    0    0    0  501  0.00000000000E+00  0.00000000000E+00 -0.10971420857E+04  0.10971420857E+04  0.50400001928E-02 0.  1.
    10030    2    1    2    0    0  0.00000000000E+00  0.00000000000E+00  0.20932167377E+03  0.24036058452E+04  0.23944739497E+04 0.  0.
        2    1    3    3  502    0  0.11683088387E+04 -0.21827750518E+03 -0.40061681390E+02  0.11891995418E+04  0.25500000920E-02 0.  1.
       -2    1    3    3    0  502 -0.11683088387E+04  0.21827750518E+03  0.24938335516E+03  0.12144063034E+04  0.25500000920E-02 0. -1.
</event>
<event>
 5   0  0.1506985E-05  0.2651874E+04  0.7818609E-02  0.8350791E-01
        1   -1    0    0  501    0  0.00000000000E+00  0.00000000000E+00  0.12900138134E+04  0.12900138134E+04  0.50400001928E-02 0.  1.
       -1   -1    0    0    0  501  0.00000000000E+00  0.00000000000E+00 -0.13628601519E+04  0.13628601520E+04  0.50400001928E-02 0. -1.
    10030    2    1    2    0    0  0.00000000000E+00  0.00000000000E+00 -0.72846338548E+02  0.26528739654E+04  0.26518736182E+04 0.  0.
        3    1    3    3  502    0 -0.11043984673E+04 -0.71372085278E+03 -0.20682526950E+03  0.13311161228E+04  0.10100000352E+00 0. -1.
       -3    1    3    3    0  502  0.11043984673E+04  0.71372085278E+03  0.13397893095E+03  0.13217578425E+04  0.10100000352E+00 0.  1.
</event>
<event>
 5   0  0.3347728E-05  0.2342855E+04  0.7818609E-02  0.8461213E-01
       -2   -1    0    0    0  501  0.00000000000E+00  0.00000000000E+00  0.57014807207E+03  0.57014807207E+03  0.25500000920E-02 0.  1.
        2   -1    0    0  501    0  0.00000000000E+00  0.00000000000E+00 -0.24068177351E+04  0.24068177351E+04  0.25500000920E-02 0. -1.
    10030    2    1    2    0    0  0.00000000000E+00  0.00000000000E+00 -0.18366696630E+04  0.29769658071E+04  0.23428550885E+04 0.  0.
        3    1    3    3  502    0  0.54079316057E+03 -0.10391246189E+04 -0.91541919242E+03  0.14866840701E+04  0.10100000352E+00 0.  1.
       -3    1    3    3    0  502 -0.54079316057E+03  0.10391246189E+04 -0.92125047058E+03  0.14902817371E+04  0.10100000352E+00 0. -1.
</event>
<event>
 5   0  0.1434943E-05  0.2371582E+04  0.7818609E-02  0.8450220E-01
       -1   -1    0    0    0  501  0.00000000000E+00  0.00000000000E+00  0.80819561537E+03  0.80819561539E+03  0.50400001928E-02 0. -1.
        1   -1    0    0  501    0  0.00000000000E+00  0.00000000000E+00 -0.17398026273E+04  0.17398026273E+04  0.50400001928E-02 0.  1.
    10030    2    1    2    0    0  0.00000000000E+00  0.00000000000E+00 -0.93160701190E+03  0.25479982427E+04  0.23715824717E+04 0.  0.
        5    1    3    3  502    0 -0.35991038253E+03  0.62300017461E+02 -0.16778448349E+04  0.17171494273E+04  0.46999998093E+01 0.  1.
       -5    1    3    3    0  502  0.35991038253E+03 -0.62300017461E+02  0.74623782297E+03  0.83084881540E+03  0.46999998093E+01 0. -1.
</event>
<event>
 5   0  0.1401596E-05  0.2396363E+04  0.7818609E-02  0.8440867E-01
        1   -1    0    0  501    0  0.00000000000E+00  0.00000000000E+00  0.16745440868E+04  0.16745440868E+04  0.50400001928E-02 0.  1.
       -1   -1    0    0    0  501  0.00000000000E+00  0.00000000000E+00 -0.85733101612E+03  0.85733101613E+03  0.50400001928E-02 0. -1.
    10030    2    1    2    0    0  0.00000000000E+00  0.00000000000E+00  0.81721307065E+03  0.25318751029E+04  0.23963627300E+04 0.  0.
        2    1    3    3  502    0 -0.62666575767E+03  0.99885067795E+03  0.63329640778E+03  0.13384606788E+04  0.25500000920E-02 0. -1.
       -2    1    3    3    0  502  0.62666575767E+03 -0.99885067795E+03  0.18391666287E+03  0.11934144241E+04  0.25500000920E-02 0.  1.
</event>
<event>
 5   0  0.3347728E-05  0.2513007E+04  0.7818609E-02  0.8398367E-01
        2   -1    0    0  501    0  0.00000000000E+00  0.00000000000E+00  0.12028005556E+04  0.12028005556E+04  0.25500000920E-02 0.  1.
       -2   -1    0    0    0  501  0.00000000000E+00  0.00000000000E+00 -0.13126036809E+04  0.13126036809E+04  0.25500000920E-02 0. -1.
    10030    2    1    2    0    0  0.00000000000E+00  0.00000000000E+00 -0.10980312530E+03  0.25154042366E+04  0.25130065155E+04 0.  0.
        3    1    3    3  502    0  0.30199578507E+02  0.64700509491E+03  0.10228210620E+04  0.12106570706E+04  0.10100000352E+00 0.  1.
       -3    1    3    3    0  502 -0.30199578507E+02 -0.64700509491E+03 -0.11326241873E+04  0.13047471660E+04  0.10100000352E+00 0. -1.
</event>
<event>
 5   0  0.3320780E-05  0.2384840E+04  0.7818609E-02  0.8445201E-01
        2   -1    0    0  501    0  0.00000000000E+00  0.00000000000E+00  0.88358767141E+03  0.88358767141E+03  0.25500000920E-02 0.  1.
       -2   -1    0    0    0  501  0.00000000000E+00  0.00000000000E+00 -0.16091954806E+04  0.16091954806E+04  0.25500000920E-02 0. -1.
    10030    2    1    2    0    0  0.00000000000E+00  0.00000000000E+00 -0.72560780916E+03  0.24927831520E+04  0.23848398584E+04 0.  0.
        5    1    3    3  502    0  0.30885801694E+02  0.40001447724E+03 -0.15365164810E+04  0.15880398299E+04  0.46999998093E+01 0. -1.
       -5    1    3    3    0  502 -0.30885801694E+02 -0.40001447724E+03  0.81090867189E+03  0.90474332211E+03  0.46999998093E+01 0.  1.
</event>
<event>
 5   0  0.3320780E-05  0.2416388E+04  0.7818609E-02  0.8433393E-01
        2   -1    0    0  501    0  0.00000000000E+00  0.00000000000E+00  0.26263188556E+04  0.26263188556E+04  0.25500000920E-02 0. -1.
       -2   -1    0    0    0  501  0.00000000000E+00  0.00000000000E+00 -0.55580949243E+03  0.55580949243E+03  0.25500000920E-02 0.  1.
    10030    2    1    2    0    0  0.00000000000E+00  0.00000000000E+00  0.20705093631E+04  0.31821283480E+04  0.24163881725E+04 0.  0.
        5    1    3    3  502    0  0.35022514670E+03  0.18697145270E+03  0.25379547535E+04  0.25688231544E+04  0.46999998093E+01 0. -1.
       -5    1    3    3    0  502 -0.35022514670E+03 -0.18697145270E+03 -0.46744539040E+03  0.61330519361E+03  0.46999998093E+01 0.  1.
</event>
<event>
 5   0  0.3320780E-05  0.2414677E+04  0.7818609E-02  0.8434029E-01
       -2   -1    0    0    0  501  0.00000000000E+00  0.00000000000E+00  0.98221941680E+03  0.98221941681E+03  0.25500000920E-02 0. -1.
        2   -1    0    0  501    0  0.00000000000E+00  0.00000000000E+00 -0.14840539800E+04  0.14840539800E+04  0.25500000920E-02 0.  1.
    10030    2    1    2    0    0  0.00000000000E+00  0.00000000000E+00 -0.50183456324E+03  0.24662733969E+04  0.24146773157E+04 0.  0.
        5    1    3    3  502    0  0.10248670430E+04  0.55270089546E+01 -0.90272397547E+03  0.13657655983E+04  0.46999998093E+01 0.  1.
       -5    1    3    3    0  502 -0.10248670430E+04 -0.55270089546E+01  0.40088941223E+03  0.11005077985E+04  0.46999998093E+01 0. -1.
</event>
<event>
 5   0  0.3310037E-05  0.2407628E+04  0.7818609E-02  0.8436653E-01
       -2   -1    0    0    0  501  0.00000000000E+00  0.00000000000E+00  0.87738495045E+03  0.87738495045E+03  0.25500000920E-02 0.  1.
        2   -1    0    0  501    0  0.00000000000E+00  0.00000000000E+00 -0.16516908659E+04  0.16516908659E+04  0.25500000920E-02 0. -1.
    10030    2    1    2    0    0  0.00000000000E+00  0.00000000000E+00 -0.77430591541E+03  0.25290758163E+04  0.24076284668E+04 0.  0.
        2    1    3    3  502    0 -0.77231642333E+03  0.85755294433E+03 -0.74691847188E+03  0.13746842960E+04  0.25500000920E-02 0. -1.
       -2    1    3    3    0  502  0.77231642333E+03 -0.85755294433E+03 -0.27387443538E+02  0.11543915203E+04  0.25500000920E-02 0.  1.
</event>
<event>
 5   0  0.3345974E-05  0.2401152E+04  0.7818609E-02  0.8439073E-01
       -2   -1    0    0    0  501  0.00000000000E+00  0.00000000000E+00  0.10300509451E+04  0.10300509451E+04  0.25500000920E-02 0. -1.
        2   -1    0    0  501    0  0.00000000000E+00  0.00000000000E+00 -0.13993309875E+04  0.13993309875E+04  0.25500000920E-02 0.  1.
    10030    2    1    2    0    0  0.00000000000E+00  0.00000000000E+00 -0.36928004237E+03  0.24293819326E+04  0.24011515622E+04 0.  0.
        4    1    3    3  502    0  0.99679903596E+03 -0.42409671447E+02 -0.86030412251E+03  0.13173958002E+04  0.12699999809E+01 0.  1.
       -4    1    3    3    0  502 -0.99679903596E+03  0.42409671447E+02  0.49102408014E+03  0.11119861323E+04  0.12699999809E+01 0. -1.
</event>
<event>
 5   0  0.3347728E-05  0.2397602E+04  0.7818609E-02  0.8440402E-01
       -2   -1    0    0    0  501  0.00000000000E+00  0.00000000000E+00  0.13303500381E+04  0.13303500381E+04  0.25500000920E-02 0. -1.
        2   -1    0    0  501    0  0.00000000000E+00  0.00000000000E+00 -0.10802596079E+04  0.10802596079E+04  0.25500000920E-02 0.  1.
    10030    2    1    2    0    0  0.00000000000E+00  0.00000000000E+00  0.25009043021E+03  0.24106096460E+04  0.23976016437E+04 0.  0.
        3    1    3    3  502    0 -0.68823186102E+02 -0.63429778204E+03  0.11454668729E+04  0.13111692012E+04  0.10100000352E+00 0. -1.
       -3    1    3    3    0  502  0.68823186102E+02  0.63429778204E+03 -0.89537644265E+03  0.10994404447E+04  0.10100000352E+00 0.  1.
</event>
<event>
 5   0  0.3320780E-05  0.2554293E+04  0.7818609E-02  0.8383895E-01
       -2   -1    0    0    0  501  0.00000000000E+00  0.00000000000E+00  0.73466810960E+03  0.73466810960E+03  0.25500000920E-02 0.  1.
        2   -1    0    0  501    0  0.00000000000E+00  0.00000000000E+00 -0.22201901287E+04  0.22201901287E+04  0.25500000920E-02 0. -1.
    10030    2    1    2    0    0  0.00000000000E+00  0.00000000000E+00 -0.14855220191E+04  0.29548582383E+04  0.25542927669E+04 0.  0.
        5    1    3    3  502    0  0.39493340620E+03 -0.28478359299E+02 -0.21473799611E+04  0.21835856291E+04  0.46999998093E+01 0. -1.
       -5    1    3    3    0  502 -0.39493340620E+03  0.28478359299E+02  0.66185794201E+03  0.77127260919E+03  0.46999998093E+01 0.  1.
</event>
<event>
 5   0  0.3215208E-05  0.2385914E+04  0.7818609E-02  0.8444796E-01
        2   -1    0    0  501    0  0.00000000000E+00  0.00000000000E+00  0.91793592110E+03  0.91793592110E+03  0.25500000920E-02 0.  1.
       -2   -1    0    0    0  501  0.00000000000E+00  0.00000000000E+00 -0.15503768045E+04  0.15503768045E+04  0.25500000920E-02 0. -1.
    10030    2    1    2    0    0  0.00000000000E+00  0.00000000000E+00 -0.63244088337E+03  0.24683127256E+04  0.23859141310E+04 0.  0.
        1    1    3    3  502    0  0.10033559574E+04  0.55049850718E+03  0.32119756571E+02  0.11449032546E+04  0.50400001928E-02 0. -1.
       -1    1    3    3    0  502 -0.10033559574E+04 -0.55049850718E+03 -0.66456063994E+03  0.13234094710E+04  0.50400001928E-02 0.  1.
</event>
<event>
 5   0  0.1147362E-05  0.2408381E+04  0.7818609E-02  0.8436372E-01
        3   -1    0    0  501    0  0.00000000000E+00  0.00000000000E+00  0.62970747605E+03  0.62970748415E+03  0.10100000352E+00 0.  1.
       -3   -1    0    0    0  501  0.00000000000E+00  0.00000000000E+00 -0.23027759612E+04  0.23027759634E+04  0.10100000352E+00 0. -1.
    10030    2    1    2    0    0  0.00000000000E+00  0.00000000000E+00 -0.16730684851E+04  0.29324834475E+04  0.24083814096E+04 0.  0.
        3    1    3    3  502    0  0.58140677197E+03  0.78953275177E+03  0.14647575509E+02  0.98061733734E+03  0.10100000352E+00 0.  1.
       -3    1    3    3    0  502 -0.58140677197E+03 -0.78953275177E+03 -0.16877160606E+04  0.19518661102E+04  0.10100000352E+00 0. -1.
</event>
<event>
 5   0  0.3215208E-05  0.2394573E+04  0.7818609E-02  0.8441538E-01
        2   -1    0    0  501    0  0.00000000000E+00  0.00000000000E+00  0.22697582069E+04  0.22697582069E+04  0.25500000920E-02 0. -1.
       -2   -1    0    0    0  501  0.00000000000E+00  0.00000000000E+00 -0.63156291477E+03  0.63156291478E+03  0.25500000920E-02 0.  1.
    10030    2    1    2    0    0  0.00000000000E+00  0.00000000000E+00  0.16381952921E+04  0.29013211216E+04  0.23945731219E+04 0.  0.
        1    1    3    3  502    0  0.26804420604E+02 -0.11802294533E+04  0.57727304139E+03  0.13141172717E+04  0.50400001928E-02 0.  1.
       -1    1    3    3    0  502 -0.26804420604E+02  0.11802294533E+04  0.10609222507E+04  0.15872038500E+04  0.50400001928E-02 0. -1.
</event>
<event>
 5   0  0.1401596E-05  0.2375862E+04  0.7818609E-02  0.8448596E-01
        1   -1    0    0  501    0  0.00000000000E+00  0.00000000000E+00  0.16278209266E+04  0.16278209266E+04  0.50400001928E-02 0. -1.
       -1   -1    0    0    0  501  0.00000000000E+00  0.00000000000E+00 -0.86691351711E+03  0.86691351712E+03  0.50400001928E-02 0.  1.
    10030    2    1    2    0    0  0.00000000000E+00  0.00000000000E+00  0.76090740949E+03  0.24947344437E+04  0.23758619192E+04 0.  0.
        2    1    3    3  502    0  0.55893255484E+03  0.47378926268E+03  0.13622760082E+04  0.15468282997E+04  0.25500000920E-02 0. -1.
       -2    1    3    3    0  502 -0.55893255484E+03 -0.47378926268E+03 -0.60136859872E+03  0.94790614399E+03  0.25500000920E-02 0.  1.
</event>
<event>
 5   0  0.3347728E-05  0.2403822E+04  0.7818609E-02  0.8438074E-01
       -2   -1    0    0    0  501  0.00000000000E+00  0.00000000000E+00  0.14587548296E+04  0.14587548296E+04  0.25500000920E-02 0. -1.
        2   -1    0    0  501    0  0.00000000000E+00  0.00000000000E+00 -0.99028940881E+03  0.99028940882E+03  0.25500000920E-02 0.  1.
    10030    2    1    2    0    0  0.00000000000E+00  0.00000000000E+00  0.46846542081E+03  0.24490442384E+04  0.24038215057E+04 0.  0.
        3    1    3    3  502    0  0.70603815522E+03  0.33013652575E+03 -0.69791671233E+03  0.10462159193E+04  0.10100000352E+00 0.  1.
       -3    1    3    3    0  502 -0.70603815522E+03 -0.33013652575E+03  0.11663821331E+04  0.14028283191E+04  0.10100000352E+00 0. -1.
</event>
<event>
 5   0  0.1393026E-05  0.2120921E+04  0.7818609E-02  0.8552083E-01
       -1   -1    0    0    0  501  0.00000000000E+00  0.00000000000E+00  0.91720074999E+03  0.91720075001E+03  0.50400001928E-02 0. -1.
        1   -1    0    0  501    0  0.00000000000E+00  0.00000000000E+00 -0.12260962356E+04  0.12260962356E+04  0.50400001928E-02 0.  1.
    10030    2    1    2    0    0  0.00000000000E+00  0.00000000000E+00 -0.30889548557E+03  0.21432969856E+04  0.21209209197E+04 0.  0.
        4    1    3    3  502    0  0.63311625446E+03  0.14047722494E+03  0.69345427033E+03  0.94944746054E+03  0.12699999809E+01 0. -1.
       -4    1    3    3    0  502 -0.63311625446E+03 -0.14047722494E+03 -0.10023497559E+04  0.11938495250E+04  0.12699999809E+01 0.  1.
</event>
<event>
 5   0  0.1407158E-05  0.2396568E+04  0.7818609E-02  0.8440790E-01
       -1   -1    0    0    0  501  0.00000000000E+00  0.00000000000E+00  0.14960512664E+04  0.14960512664E+04  0.50400001928E-02 0. -1.
        1   -1    0    0  501    0  0.00000000000E+00  0.00000000000E+00 -0.95978270327E+03  0.95978270328E+03  0.50400001928E-02 0.  1.
    10030    2    1    2    0    0  0.00000000000E+00  0.00000000000E+00  0.53626856312E+03  0.24558339697E+04  0.23965676529E+04 0.  0.
        1    1    3    3  502    0 -0.40051600721E+03 -0.11268678068E+03  0.14196554053E+04  0.14793690724E+04  0.50400001928E-02 0. -1.
       -1    1    3    3    0  502  0.40051600721E+03  0.11268678068E+03 -0.88338684220E+03  0.97646489725E+03  0.50400001928E-02 0.  1.
</event>
<event>
 5   0  0.1434943E-05  0.2405431E+04  0.7818609E-02  0.8437473E-01
        1   -1    0    0  501    0  0.00000000000E+00  0.00000000000E+00  0.14634632570E+04  0.14634632570E+04  0.50400001928E-02 0. -1.
       -1   -1    0    0    0  501  0.00000000000E+00  0.00000000000E+00 -0.98842571629E+03  0.98842571630E+03  0.50400001928E-02 0.  1.
    10030    2    1    2    0    0  0.00000000000E+00  0.00000000000E+00  0.47503754070E+03  0.24518889733E+04  0.24054311198E+04 0.  0.
        5    1    3    3  502    0 -0.38032568832E+03  0.10313025320E+04  0.73507553644E+03  0.13223428738E+04  0.46999998093E+01 0. -1.
       -5    1    3    3    0  502  0.38032568832E+03 -0.10313025320E+04 -0.26003799575E+03  0.11295460995E+04  0.46999998093E+01 0.  1.
</event>
<event>
 5   0  0.3345974E-05  0.2434299E+04  0.7818609E-02  0.8426773E-01
       -2   -1    0    0    0  501  0.00000000000E+00  0.00000000000E+00  0.84169968559E+03  0.84169968559E+03  0.25500000920E-02 0.  1.
        2   -1    0    0  501    0  0.00000000000E+00  0.00000000000E+00 -0.17600731746E+04  0.17600731746E+04  0.25500000920E-02 0. -1.
    10030    2    1    2    0    0  0.00000000000E+00  0.00000000000E+00 -0.91837348896E+03  0.26017728601E+04  0.24342991087E+04 0.  0.
        4    1    3    3  502    0 -0.12885661047E+02 -0.31302068913E+03 -0.17162414161E+04  0.17446014454E+04  0.12699999809E+01 0. -1.
       -4    1    3    3    0  502  0.12885661047E+02  0.31302068913E+03  0.79786792717E+03  0.85717141471E+03  0.12699999809E+01 0.  1.
</event>
<event>
 5   0  0.1401596E-05  0.2541548E+04  0.7818609E-02  0.8388332E-01
        1   -1    0    0  501    0  0.00000000000E+00  0.00000000000E+00  0.15183615723E+04  0.15183615723E+04  0.50400001928E-02 0.  1.
       -1   -1    0    0    0  501  0.00000000000E+00  0.00000000000E+00 -0.10635582620E+04  0.10635582620E+04  0.50400001928E-02 0. -1.
    10030    2    1    2    0    0  0.00000000000E+00  0.00000000000E+00  0.45480331031E+03  0.25819198343E+04  0.25415475560E+04 0.  0.
        2    1    3    3  502    0  0.10509047860E+03 -0.90913859070E+03 -0.66824307887E+03  0.11331927454E+04  0.25500000920E-02 0. -1.
       -2    1    3    3    0  502 -0.10509047860E+03  0.90913859070E+03  0.11230463892E+04  0.14487270889E+04  0.25500000920E-02 0.  1.
</event>
<event>
 5   0  0.3310037E-05  0.2364367E+04  0.7818609E-02  0.8452966E-01
        2   -1    0    0  501    0  0.00000000000E+00  0.00000000000E+00  0.21410594128E+04  0.21410594128E+04  0.25500000920E-02 0.  1.
       -2   -1    0    0    0  501  0.00000000000E+00  0.00000000000E+00 -0.65274144215E+03  0.65274144216E+03  0.25500000920E-02 0. -1.
    10030    2    1    2    0    0  0.00000000000E+00  0.00000000000E+00  0.14883179706E+04  0.27938008549E+04  0.23643673224E+04 0.  0.
        2    1    3    3  502    0  0.42822810742E+03  0.30521475274E+03 -0.50692864537E+03  0.73041906381E+03  0.25500000920E-02 0. -1.
       -2    1    3    3    0  502 -0.42822810742E+03 -0.30521475274E+03  0.19952466160E+04  0.20633817911E+04  0.25500000920E-02 0.  1.
</event>
<event>
 5   0  0.3215208E-05  0.2381339E+04  0.7818609E-02  0.8446523E-01
        2   -1    0    0  501    0  0.00000000000E+00  0.00000000000E+00  0.13759046012E+04  0.13759046012E+04  0.25500000920E-02 0.  1.
       -2   -1    0    0    0  501  0.00000000000E+00  0.00000000000E+00 -0.10303721013E+04  0.10303721013E+04  0.25500000920E-02 0. -1.
    10030    2    1    2    0    0  0.00000000000E+00  0.00000000000E+00  0.34553249988E+03  0.24062767025E+04  0.23813388799E+04 0.  0.
        1    1    3    3  502    0  0.67093579762E+03  0.69954220616E+03  0.87151311629E+03  0.13034758358E+04  0.50400001928E-02 0.  1.
       -1    1    3    3    0  502 -0.67093579762E+03 -0.69954220616E+03 -0.52598061641E+03  0.11028008667E+04  0.50400001928E-02 0. -1.
</event>
<event>
 5   0  0.3320780E-05  0.2403787E+04  0.7818609E-02  0.8438087E-01
        2   -1    0    0  501    0  0.00000000000E+00  0.00000000000E+00  0.12551361969E+04  0.12551361969E+04  0.25500000920E-02 0.  1.
       -2   -1    0    0    0  501  0.00000000000E+00  0.00000000000E+00 -0.11509094120E+04  0.11509094120E+04  0.25500000920E-02 0. -1.
    10030    2    1    2    0    0  0.00000000000E+00  0.00000000000E+00  0.10422678492E+03  0.24060456089E+04  0.24037870641E+04 0.  0.
        5    1    3    3  502    0  0.82526100961E+03  0.77069741988E+03  0.46419880090E+03  0.12208738116E+04  0.46999998093E+01 0.  1.
       -5    1    3    3    0  502 -0.82526100961E+03 -0.77069741988E+03 -0.35997201598E+03  0.11851717974E+04  0.46999998093E+01 0. -1.
</event>
<event>
 5   0  0.1401596E-05  0.2400145E+04  0.7818609E-02  0.8439449E-01
       -1   -1    0    0    0  501  0.00000000000E+00  0.00000000000E+00  0.10868601955E+04  0.10868601955E+04  0.50400001928E-02 0. -1.
        1   -1    0    0  501    0  0.00000000000E+00  0.00000000000E+00 -0.13250773022E+04  0.13250773022E+04  0.50400001928E-02 0.  1.
    10030    2    1    2    0    0  0.00000000000E+00  0.00000000000E+00 -0.23821710677E+03  0.24119374977E+04  0.24001448087E+04 0.  0.
        2    1    3    3  502    0  0.32842090136E+02 -0.12573928752E+03  0.10797681218E+04  0.10875606503E+04  0.25500000920E-02 0. -1.
       -2    1    3    3    0  502 -0.32842090136E+02  0.12573928752E+03 -0.13179852285E+04  0.13243768474E+04  0.25500000920E-02 0.  1.
</event>
<event>
 5   0  0.1393026E-05  0.2376742E+04  0.7818609E-02  0.8448263E-01
       -1   -1    0    0    0  501  0.00000000000E+00  0.00000000000E+00  0.10716934056E+04  0.10716934056E+04  0.50400001928E-02 0.  1.
        1   -1    0    0  501    0  0.00000000000E+00  0.00000000000E+00 -0.13177512211E+04  0.13177512211E+04  0.50400001928E-02 0. -1.
    10030    2    1    2    0    0  0.00000000000E+00  0.00000000000E+00 -0.24605781556E+03  0.23894446267E+04  0.23767417141E+04 0.  0.
        4    1    3    3  502    0 -0.30683257525E+03  0.79095396062E+03  0.71356604293E+03  0.11085722834E+04  0.12699999809E+01 0.  1.
       -4    1    3    3    0  502  0.30683257525E+03 -0.79095396062E+03 -0.95962385849E+03  0.12808723433E+04  0.12699999809E+01 0. -1.
</event>
<event>
 5   0  0.3345974E-05  0.2401054E+04  0.7818609E-02  0.8439109E-01
       -2   -1    0    0    0  501  0.00000000000E+00  0.00000000000E+00  0.12016752003E+04  0.12016752003E+04  0.25500000920E-02 0. -1.
        2   -1    0    0  501    0  0.00000000000E+00  0.00000000000E+00 -0.11993794425E+04  0.11993794425E+04  0.25500000920E-02 0.  1.
    10030    2    1    2    0    0  0.00000000000E+00  0.00000000000E+00  0.22957578221E+01  0.24010546429E+04  0.24010535453E+04 0.  0.
        4    1    3    3  502    0  0.72679543410E+03 -0.56414541117E+03  0.77236238522E+03  0.12012647148E+04  0.12699999809E+01 0. -1.
       -4    1    3    3    0  502 -0.72679543410E+03  0.56414541117E+03 -0.77006662740E+03  0.11997899281E+04  0.12699999809E+01 0.  1.
</event>
<event>
 5   0  0.3347728E-05  0.2367571E+04  0.7818609E-02  0.8451745E-01
        2   -1    0    0  501    0  0.00000000000E+00  0.00000000000E+00  0.17034926621E+04  0.17034926621E+04  0.25500000920E-02 0. -1.
       -2   -1    0    0    0  501  0.00000000000E+00  0.00000000000E+00 -0.82263200913E+03  0.82263200914E+03  0.25500000920E-02 0.  1.
    10030    2    1    2    0    0  0.00000000000E+00  0.00000000000E+00  0.88086065292E+03  0.25261246712E+04  0.23675705617E+04 0.  0.
        3    1    3    3  502    0 -0.40495872410E+03 -0.91752547791E+03  0.11114368550E+04  0.14970425724E+04  0.10100000352E+00 0. -1.
       -3    1    3    3    0  502  0.40495872410E+03  0.91752547791E+03 -0.23057620206E+03  0.10290820988E+04  0.10100000352E+00 0.  1.
</event>
<event>
 5   0  0.1407158E-05  0.2286245E+04  0.7818609E-02  0.8483364E-01
        1   -1    0    0  501    0  0.00000000000E+00  0.00000000000E+00  0.81814865843E+03  0.81814865844E+03  0.50400001928E-02 0.  1.
       -1   -1    0    0    0  501  0.00000000000E+00  0.00000000000E+00 -0.15971774655E+04  0.15971774655E+04  0.50400001928E-02 0. -1.
    10030    2    1    2    0    0  0.00000000000E+00  0.00000000000E+00 -0.77902880704E+03  0.24153261239E+04  0.22862446069E+04 0.  0.
        1    1    3    3  502    0  0.17644949889E+03  0.11280986964E+03  0.79770799798E+03  0.82474150036E+03  0.50400001928E-02 0.  1.
       -1    1    3    3    0  502 -0.17644949889E+03 -0.11280986964E+03 -0.15767368050E+04  0.15905846236E+04  0.50400001928E-02 0. -1.
</event>
<event>
 5   0  0.1407158E-05  0.2434407E+04  0.7818609E-02  0.8426733E-01
       -1   -1    0    0    0  501  0.00000000000E+00  0.00000000000E+00  0.15920688259E+04  0.15920688259E+04  0.50400001928E-02 0. -1.
        1   -1    0    0  501    0  0.00000000000E+00  0.00000000000E+00 -0.93060321326E+03  0.93060321327E+03  0.50400001928E-02 0.  1.
    10030    2    1    2    0    0  0.00000000000E+00  0.00000000000E+00  0.66146561261E+03  0.25226720391E+04  0.24344070039E+04 0.  0.
        1    1    3    3  502    0 -0.10026668286E+04  0.58004991437E+03 -0.56702296181E+02  0.11597473099E+04  0.50400001928E-02 0.  1.
       -1    1    3    3    0  502  0.10026668286E+04 -0.58004991437E+03  0.71816790879E+03  0.13629247293E+04  0.50400001928E-02 0. -1.
</event>
<event>
 5   0  0.1401596E-05  0.2384431E+04  0.7818609E-02  0.8445355E-01
       -1   -1    0    0    0  501  0.00000000000E+00  0.00000000000E+00  0.13821479589E+04  0.13821479589E+04  0.50400001928E-02 0. -1.
        1   -1    0    0  501    0  0.00000000000E+00  0.00000000000E+00 -0.10283834502E+04  0.10283834502E+04  0.50400001928E-02 0.  1.
    10030    2    1    2    0    0  0.00000000000E+00  0.00000000000E+00  0.35376450871E+03  0.24105314091E+04  0.23844312418E+04 0.  0.
        2    1    3    3  502    0 -0.67823211991E+03  0.35742376074E+03  0.10999084283E+04  0.13407270803E+04  0.25500000920E-02 0. -1.
       -2    1    3    3    0  502  0.67823211991E+03 -0.35742376074E+03 -0.74614391960E+03  0.10698043288E+04  0.25500000920E-02 0.  1.
</event>
<event>
 5   0  0.1401596E-05  0.2374781E+04  0.7818609E-02  0.8449006E-01
        1   -1    0    0  501    0  0.00000000000E+00  0.00000000000E+00  0.12176103177E+04  0.12176103177E+04  0.50400001928E-02 0.  1.
       -1   -1    0    0    0  501  0.00000000000E+00  0.00000000000E+00 -0.11579207123E+04  0.11579207124E+04  0.50400001928E-02 0. -1.
    10030    2    1    2    0    0  0.00000000000E+00  0.00000000000E+00  0.59689605319E+02  0.23755310300E+04  0.23747810058E+04 0.  0.
        2    1    3    3  502    0  0.10471702630E+04 -0.49403882278E+03 -0.23340420755E+03  0.11811508973E+04  0.25500000920E-02 0.  1.
       -2    1    3    3    0  502 -0.10471702630E+04  0.49403882278E+03  0.29309381287E+03  0.11943801327E+04  0.25500000920E-02 0. -1.
</event>
<event>
 5   0  0.3320780E-05  0.2421054E+04  0.7818609E-02  0.8431663E-01
       -2   -1    0    0    0  501  0.00000000000E+00  0.00000000000E+00  0.15893249281E+04  0.15893249281E+04  0.25500000920E-02 0.  1.
        2   -1    0    0  501    0  0.00000000000E+00  0.00000000000E+00 -0.92201120897E+03  0.92201120897E+03  0.25500000920E-02 0. -1.
    10030    2    1    2    0    0  0.00000000000E+00  0.00000000000E+00  0.66731371913E+03  0.25113361371E+04  0.24210538188E+04 0.  0.
        5    1    3    3  502    0 -0.13859427741E+03 -0.11396928294E+04 -0.64377863227E+02  0.11499020473E+04  0.46999998093E+01 0. -1.
       -5    1    3    3    0  502  0.13859427741E+03  0.11396928294E+04  0.73169158236E+03  0.13614340898E+04  0.46999998093E+01 0.  1.
</event>
<event>
 5   0  0.1434943E-05  0.2357825E+04  0.7818609E-02  0.8455464E-01
       -1   -1    0    0    0  501  0.00000000000E+00  0.00000000000E+00  0.86642787433E+03  0.86642787435E+03  0.50400001928E-02 0. -1.
        1   -1    0    0  501    0  0.00000000000E+00  0.00000000000E+00 -0.16040978317E+04  0.16040978317E+04  0.50400001928E-02 0.  1.
    10030    2    1    2    0    0  0.00000000000E+00  0.00000000000E+00 -0.73766995733E+03  0.24705257060E+04  0.23578253324E+04 0.  0.
        5    1    3    3  502    0  0.45736862678E+03  0.86299408354E+03  0.32292480168E+03  0.10287115079E+04  0.46999998093E+01 0. -1.
       -5    1    3    3    0  502 -0.45736862678E+03 -0.86299408354E+03 -0.10605947590E+04  0.14418141981E+04  0.46999998093E+01 0.  1.
</event>
<event>
 5   0  0.1506985E-05  0.2168480E+04  0.7818609E-02  0.8531663E-01
       -1   -1    0    0    0  501  0.00000000000E+00  0.00000000000E+00  0.17402887307E+04  0.17402887307E+04  0.50400001928E-02 0.  1.
        1   -1    0    0  501    0  0.00000000000E+00  0.00000000000E+00 -0.67550681107E+03  0.67550681109E+03  0.50400001928E-02 0. -1.
    10030    2    1    2    0    0  0.00000000000E+00  0.00000000000E+00  0.10647819196E+04  0.24157955418E+04  0.21684804734E+04 0.  0.
        3    1    3    3  502    0  0.68367313651E+03  0.37010066852E+03 -0.30957834104E+03  0.83679281896E+03  0.10100000352E+00 0. -1.
       -3    1    3    3    0  502 -0.68367313651E+03 -0.37010066852E+03  0.13743602607E+04  0.15790027228E+04  0.10100000352E+00 0.  1.
</event>
<event>
 5   0  0.1434943E-05  0.2381940E+04  0.7818609E-02  0.8446296E-01
       -1   -1    0    0    0  501  0.00000000000E+00  0.00000000000E+00  0.13583000080E+04  0.13583000080E+04  0.50400001928E-02 0.  1.
        1   -1    0    0  501    0  0.00000000000E+00  0.00000000000E+00 -0.10442537550E+04  0.10442537550E+04  0.50400001928E-02 0. -1.
    10030    2    1    2    0    0  0.00000000000E+00  0.00000000000E+00  0.31404625299E+03  0.24025537630E+04  0.23819402878E+04 0.  0.
        5    1    3    3  502    0  0.40558148540E+03 -0.24224144400E+03 -0.94569484126E+03  0.10571367373E+04  0.46999998093E+01 0. -1.
       -5    1    3    3    0  502 -0.40558148540E+03  0.24224144400E+03  0.12597410942E+04  0.13454170257E+04  0.46999998093E+01 0.  1.
</event>
<event>
 5   0  0.1393026E-05  0.2341817E+04  0.7818609E-02  0.8461613E-01
       -1   -1    0    0    0  501  0.00000000000E+00  0.00000000000E+00  0.15058724059E+04  0.15058724060E+04  0.50400001928E-02 0. -1.
        1   -1    0    0  501    0  0.00000000000E+00  0.00000000000E+00 -0.91045367667E+03  0.91045367668E+03  0.50400001928E-02 0.  1.
    10030    2    1    2    0    0  0.00000000000E+00  0.00000000000E+00  0.59541872928E+03  0.24163260826E+04  0.23418173017E+04 0.  0.
        4    1    3    3  502    0  0.39452592403E+03 -0.10945592934E+04  0.43348131922E+03  0.12416192728E+04  0.12699999809E+01 0.  1.
       -4    1    3    3    0  502 -0.39452592403E+03  0.10945592934E+04  0.16193741006E+03  0.11747068099E+04  0.12699999809E+01 0. -1.
</event>
<event>
 5   0  0.3310037E-05  0.2377602E+04  0.7818609E-02  0.8447937E-01
       -2   -1    0    0    0  501  0.00000000000E+00  0.00000000000E+00  0.11700119942E+04  0.11700119942E+04  0.25500000920E-02 0.  1.
        2   -1    0    0  501    0  0.00000000000E+00  0.00000000000E+00 -0.12078918937E+04  0.12078918937E+04  0.25500000920E-02 0. -1.
    10030    2    1    2    0    0  0.00000000000E+00  0.00000000000E+00 -0.37879899563E+02  0.23779038879E+04  0.23776021562E+04 0.  0.
        2    1    3    3  502    0  0.27316701162E+03 -0.65954234548E+03  0.93177612164E+03  0.11738070806E+04  0.25500000920E-02 0.  1.
       -2    1    3    3    0  502 -0.27316701162E+03  0.65954234548E+03 -0.96965602120E+03  0.12040968072E+04  0.25500000920E-02 0. -1.
</event>
<event>
 5   0  0.3215208E-05  0.2400278E+04  0.7818609E-02  0.8439400E-01
       -2   -1    0    0    0  501  0.00000000000E+00  0.00000000000E+00  0.72184113721E+03  0.72184113722E+03  0.25500000920E-02 0.  1.
        2   -1    0    0  501    0  0.00000000000E+00  0.00000000000E+00 -0.19953602397E+04  0.19953602397E+04  0.25500000920E-02 0. -1.
    10030    2    1    2    0    0  0.00000000000E+00  0.00000000000E+00 -0.12735191025E+04  0.27172013769E+04  0.24002775711E+04 0.  0.
        1    1    3    3  502    0  0.87414359264E+03  0.34731124018E+03  0.20702981179E+03  0.96312691848E+03  0.50400001928E-02 0.  1.
       -1    1    3    3    0  502 -0.87414359264E+03 -0.34731124018E+03 -0.14805489143E+04  0.17540744584E+04  0.50400001928E-02 0. -1.
</event>
<event>
 5   0  0.1434943E-05  0.2420245E+04  0.7818609E-02  0.8431963E-01
        1   -1    0    0  501    0  0.00000000000E+00  0.00000000000E+00  0.19736422907E+04  0.19736422907E+04  0.50400001928E-02 0.  1.
       -1   -1    0    0    0  501  0.00000000000E+00  0.00000000000E+00 -0.74197644783E+03  0.74197644785E+03  0.50400001928E-02 0. -1.
    10030    2    1    2    0    0  0.00000000000E+00  0.00000000000E+00  0.12316658429E+04  0.27156187386E+04  0.24202446952E+04 0.  0.
        5    1    3    3  502    0 -0.42611413241E+03  0.10786431046E+04  0.10034331153E+04  0.15336050039E+04  0.46999998093E+01 0. -1.
       -5    1    3    3    0  502  0.42611413241E+03 -0.10786431046E+04  0.22823272756E+03  0.11820137347E+04  0.46999998093E+01 0.  1.
</event>
<event>
 5   0  0.1401596E-05  0.2396278E+04  0.7818609E-02  0.8440898E-01
        1   -1    0    0  501    0  0.00000000000E+00  0.00000000000E+00  0.15487669662E+04  0.15487669662E+04  0.50400001928E-02 0. -1.
       -1   -1    0    0    0  501  0.00000000000E+00  0.00000000000E+00 -0.92689064228E+03  0.92689064230E+03  0.50400001928E-02 0.  1.
    10030    2    1    2    0    0  0.00000000000E+00  0.00000000000E+00  0.62187632390E+03  0.24756576085E+04  0.23962784547E+04 0.  0.
        2    1    3    3  502    0 -0.42396255970E+03 -0.10496501095E+04  0.71640294625E+03  0.13396801058E+04  0.25500000920E-02 0. -1.
       -2    1    3    3    0  502  0.42396255970E+03  0.10496501095E+04 -0.94526622343E+02  0.11359775027E+04  0.25500000920E-02 0.  1.
</event>
<event>
 5   0  0.1506985E-05  0.2412467E+04  0.7818609E-02  0.8434851E-01
        1   -1    0    0  501    0  0.00000000000E+00  0.00000000000E+00  0.21251436528E+04  0.21251436528E+04  0.50400001928E-02 0.  1.
       -1   -1    0    0    0  501  0.00000000000E+00  0.00000000000E+00 -0.68465904428E+03  0.68465904430E+03  0.50400001928E-02 0. -1.
    10030    2    1    2    0    0  0.00000000000E+00  0.00000000000E+00  0.14404846085E+04  0.28098026971E+04  0.24124666401E+04 0.  0.
        3    1    3    3  502    0  0.56830915697E+03  0.94642908025E+03  0.12864062945E+04  0.16951532281E+04  0.10100000352E+00 0.  1.
       -3    1    3    3    0  502 -0.56830915697E+03 -0.94642908025E+03  0.15407831403E+03  0.11146494691E+04  0.10100000352E+00 0. -1.
</event>
<event>
 5   0  0.3310037E-05  0.2434329E+04  0.7818609E-02  0.8426762E-01
        2   -1    0    0  501    0  0.00000000000E+00  0.00000000000E+00  0.11769819069E+04  0.11769819069E+04  0.25500000920E-02 0. -1.
       -2   -1    0    0    0  501  0.00000000000E+00  0.00000000000E+00 -0.12587192078E+04  0.12587192078E+04  0.25500000920E-02 0.  1.
    10030    2    1    2    0    0  0.00000000000E+00  0.00000000000E+00 -0.81737300867E+02  0.24357011147E+04  0.24343292575E+04 0.  0.
        2    1    3    3  502    0 -0.50824070115E+01  0.10679660739E+04 -0.62507470635E+03  0.12374553545E+04  0.25500000920E-02 0.  1.
       -2    1    3    3    0  502  0.50824070115E+01 -0.10679660739E+04  0.54333740548E+03  0.11982457603E+04  0.25500000920E-02 0. -1.
</event>
<event>
 5   0  0.3215208E-05  0.2408693E+04  0.7818609E-02  0.8436256E-01
        2   -1    0    0  501    0  0.00000000000E+00  0.00000000000E+00  0.23054516988E+04  0.23054516988E+04  0.25500000920E-02 0. -1.
       -2   -1    0    0    0  501  0.00000000000E+00  0.00000000000E+00 -0.62913918743E+03  0.62913918744E+03  0.25500000920E-02 0.  1.
    10030    2    1    2    0    0  0.00000000000E+00  0.00000000000E+00  0.16763125114E+04  0.29345908862E+04  0.24086925984E+04 0.  0.
        1    1    3    3  502    0 -0.68368434034E+03  0.82990546799E+03  0.14990756741E+04  0.18448293254E+04  0.50400001928E-02 0. -1.
       -1    1    3    3    0  502  0.68368434034E+03 -0.82990546799E+03  0.17723683726E+03  0.10897615609E+04  0.50400001928E-02 0.  1.
</event>
<event>
 5   0  0.1407158E-05  0.2391960E+04  0.7818609E-02  0.8442520E-01
        1   -1    0    0  501    0  0.00000000000E+00  0.00000000000E+00  0.22255142767E+04  0.22255142767E+04  0.50400001928E-02 0. -1.
       -1   -1    0    0    0  501  0.00000000000E+00  0.00000000000E+00 -0.64271341496E+03  0.64271341498E+03  0.50400001928E-02 0.  1.
    10030    2    1    2    0    0  0.00000000000E+00  0.00000000000E+00  0.15828008617E+04  0.28682276917E+04  0.23919597663E+04 0.  0.
        1    1    3    3  502    0 -0.63625366272E+02  0.11322338421E+04  0.12470096960E+04  0.16855369597E+04  0.50400001928E-02 0. -1.
       -1    1    3    3    0  502  0.63625366272E+02 -0.11322338421E+04  0.33579116576E+03  0.11826907320E+04  0.50400001928E-02 0.  1.
</event>
<event>
 5   0  0.3310037E-05  0.2380635E+04  0.7818609E-02  0.8446789E-01
        2   -1    0    0  501    0  0.00000000000E+00  0.00000000000E+00  0.15512174605E+04  0.15512174605E+04  0.25500000920E-02 0.  1.
       -2   -1    0    0    0  501  0.00000000000E+00  0.00000000000E+00 -0.91338311288E+03  0.91338311288E+03  0.25500000920E-02 0. -1.
    10030    2    1    2    0    0  0.00000000000E+00  0.00000000000E+00  0.63783434760E+03  0.24646005734E+04  0.23806350689E+04 0.  0.
        2    1    3    3  502    0  0.42684380148E+03 -0.41882922025E+03  0.13844120689E+04  0.15080485149E+04  0.25500000920E-02 0.  1.
       -2    1    3    3    0  502 -0.42684380148E+03  0.41882922025E+03 -0.74657772133E+03  0.95655205849E+03  0.25500000920E-02 0. -1.
</event>
<event>
 5   0  0.1393026E-05  0.2388441E+04  0.7818609E-02  0.8443844E-01
       -1   -1    0    0    0  501  0.00000000000E+00  0.00000000000E+00  0.96905501842E+03  0.96905501843E+03  0.50400001928E-02 0. -1.
        1   -1    0    0  501    0  0.00000000000E+00  0.00000000000E+00 -0.14717050016E+04  0.14717050016E+04  0.50400001928E-02 0.  1.
    10030    2    1    2    0    0  0.00000000000E+00  0.00000000000E+00 -0.50264998318E+03  0.24407600200E+04  0.23884414311E+04 0.  0.
        4    1    3    3  502    0 -0.48243744701E+03  0.10883072726E+04 -0.15436298996E+03  0.12004116608E+04  0.12699999809E+01 0.  1.
       -4    1    3    3    0  502  0.48243744701E+03 -0.10883072726E+04 -0.34828699322E+03  0.12403483593E+04  0.12699999809E+01 0. -1.
</event>
<event>
 5   0  0.1506985E-05  0.2376871E+04  0.7818609E-02  0.8448214E-01
        1   -1    0    0  501    0  0.00000000000E+00  0.00000000000E+00  0.11673959076E+04  0.11673959076E+04  0.50400001928E-02 0.  1.
       -1   -1    0    0    0  501  0.00000000000E+00  0.00000000000E+00 -0.12098547364E+04  0.12098547364E+04  0.50400001928E-02 0. -1.
    10030    2    1    2    0    0  0.00000000000E+00  0.00000000000E+00 -0.42458828770E+02  0.23772506440E+04  0.23768714463E+04 0.  0.
        3    1    3    3  502    0 -0.16781722469E+03  0.10596315298E+04 -0.53258180721E+03  0.11977583193E+04  0.10100000352E+00 0.  1.
       -3    1    3    3    0  502  0.16781722469E+03 -0.10596315298E+04  0.49012297844E+03  0.11794923247E+04  0.10100000352E+00 0. -1.
</event>
<event>
 5   0  0.3320780E-05  0.2426044E+04  0.7818609E-02  0.8429817E-01
        2   -1    0    0  501    0  0.00000000000E+00  0.00000000000E+00  0.10721787005E+04  0.10721787005E+04  0.25500000920E-02 0. -1.
       -2   -1    0    0    0  501  0.00000000000E+00  0.00000000000E+00 -0.13723670219E+04  0.13723670219E+04  0.25500000920E-02 0.  1.
    10030    2    1    2    0    0  0.00000000000E+00  0.00000000000E+00 -0.30018832143E+03  0.24445457224E+04  0.24260442619E+04 0.  0.
        5    1    3    3  502    0 -0.56695671713E+03 -0.28112578603E+03 -0.11928431529E+04  0.13503216299E+04  0.46999998093E+01 0.  1.
       -5    1    3    3    0  502  0.56695671713E+03  0.28112578603E+03  0.89265483146E+03  0.10942240926E+04  0.46999998093E+01 0. -1.
</event>
<event>
 5   0  0.3310037E-05  0.2398627E+04  0.7818609E-02  0.8440018E-01
        2   -1    0    0  501    0  0.00000000000E+00  0.00000000000E+00  0.13251527975E+04  0.13251527975E+04  0.25500000920E-02 0.  1.
       -2   -1    0    0    0  501  0.00000000000E+00  0.00000000000E+00 -0.10854242149E+04  0.10854242149E+04  0.25500000920E-02 0. -1.
    10030    2    1    2    0    0  0.00000000000E+00  0.00000000000E+00  0.23972858260E+03  0.24105770124E+04  0.23986270530E+04 0.  0.
        2    1    3    3  502    0  0.92711638996E+02  0.58457528487E+03 -0.92841875779E+03  0.11010381926E+04  0.25500000920E-02 0. -1.
       -2    1    3    3    0  502 -0.92711638996E+02 -0.58457528487E+03  0.11681473404E+04  0.13095388198E+04  0.25500000920E-02 0.  1.
</event>
<event>
 5   0  0.1147362E-05  0.2385266E+04  0.7818609E-02  0.8445041E-01
       -3   -1    0    0    0  501  0.00000000000E+00  0.00000000000E+00  0.11461003427E+04  0.11461003472E+04  0.10100000352E+00 0.  1.
        3   -1    0    0  501    0  0.00000000000E+00  0.00000000000E+00 -0.12410545313E+04  0.12410545354E+04  0.10100000352E+00 0. -1.
    10030    2    1    2    0    0  0.00000000000E+00  0.00000000000E+00 -0.94954188556E+02  0.23871548825E+04  0.23852656320E+04 0.  0.
        1    1    3    3  502    0  0.17100434470E+03  0.68448579798E+03 -0.10098049985E+04  0.12318560909E+04  0.50400001928E-02 0. -1.
       -1    1    3    3    0  502 -0.17100434470E+03 -0.68448579798E+03  0.91485080994E+03  0.11552987917E+04  0.50400001928E-02 0.  1.
</event>
<event>
 5   0  0.1434943E-05  0.2414504E+04  0.7818609E-02  0.8434093E-01
       -1   -1    0    0    0  501  0.00000000000E+00  0.00000000000E+00  0.10173645068E+04  0.10173645068E+04  0.50400001928E-02 0. -1.
        1   -1    0    0  501    0  0.00000000000E+00  0.00000000000E+00 -0.14325815422E+04  0.14325815423E+04  0.50400001928E-02 0.  1.
    10030    2    1    2    0    0  0.00000000000E+00  0.00000000000E+00 -0.41521703541E+03  0.24499460491E+04  0.24145041845E+04 0.  0.
        5    1    3    3  502    0  0.53011165653E+03  0.42990850206E+03  0.80279745670E+03  0.10537293462E+04  0.46999998093E+01 0. -1.
       -5    1    3    3    0  502 -0.53011165653E+03 -0.42990850206E+03 -0.12180144921E+04  0.13962167029E+04  0.46999998093E+01 0.  1.
</event>
<event>
 5   0  0.1401596E-05  0.2354026E+04  0.7818609E-02  0.8456919E-01
        1   -1    0    0  501    0  0.00000000000E+00  0.00000000000E+00  0.26661856746E+04  0.26661856746E+04  0.50400001928E-02 0.  1.
       -1   -1    0    0    0  501  0.00000000000E+00  0.00000000000E+00 -0.51960336114E+03  0.51960336116E+03  0.50400001928E-02 0. -1.
    10030    2    1    2    0    0  0.00000000000E+00  0.00000000000E+00  0.21465823134E+04  0.31857890357E+04  0.23540255206E+04 0.  0.
        2    1    3    3  502    0 -0.19293932503E+03 -0.33976831971E+03 -0.42927273859E+03  0.58046806831E+03  0.25500000920E-02 0. -1.
       -2    1    3    3    0  502  0.19293932503E+03  0.33976831971E+03  0.25758550520E+04  0.26053209674E+04  0.25500000920E-02 0.  1.
</event>
<event>
 5   0  0.1407158E-05  0.2397277E+04  0.7818609E-02  0.8440524E-01
       -1   -1    0    0    0  501  0.00000000000E+00  0.00000000000E+00  0.17222211071E+04  0.17222211071E+04  0.50400001928E-02 0. -1.
        1   -1    0    0  501    0  0.00000000000E+00  0.00000000000E+00 -0.83423346136E+03  0.83423346138E+03  0.50400001928E-02 0.  1.
    10030    2    1    2    0    0  0.00000000000E+00  0.00000000000E+00  0.88798764571E+03  0.25564545685E+04  0.23972771850E+04 0.  0.
        1    1    3    3  502    0  0.71053339768E+03 -0.33427800331E+03 -0.52175123748E+03  0.94277454704E+03  0.50400001928E-02 0.  1.
       -1    1    3    3    0  502 -0.71053339768E+03  0.33427800331E+03  0.14097388832E+04  0.16136800214E+04  0.50400001928E-02 0. -1.
</event>
<event>
 5   0  0.3310037E-05  0.1988106E+04  0.7818609E-02  0.8612202E-01
       -2   -1    0    0    0  501  0.00000000000E+00  0.00000000000E+00  0.59944918279E+03  0.59944918280E+03  0.25500000920E-02 0. -1.
        2   -1    0    0  501    0  0.00000000000E+00  0.00000000000E+00 -0.16484163906E+04  0.16484163906E+04  0.25500000920E-02 0.  1.
    10030    2    1    2    0    0  0.00000000000E+00  0.00000000000E+00 -0.10489672078E+04  0.22478655734E+04  0.19881064944E+04 0.  0.
        2    1    3    3  502    0 -0.14709007383E+03  0.98106587057E+03 -0.59613660064E+03  0.11573696812E+04  0.25500000920E-02 0. -1.
       -2    1    3    3    0  502  0.14709007383E+03 -0.98106587057E+03 -0.45283060717E+03  0.10904958923E+04  0.25500000920E-02 0.  1.
</event>
<event>
 5   0  0.1407158E-05  0.2462247E+04  0.7818609E-02  0.8416560E-01
       -1   -1    0    0    0  501  0.00000000000E+00  0.00000000000E+00  0.12304274472E+04  0.12304274472E+04  0.50400001928E-02 0.  1.
        1   -1    0    0  501    0  0.00000000000E+00  0.00000000000E+00 -0.12318203346E+04  0.12318203346E+04  0.50400001928E-02 0. -1.
    10030    2    1    2    0    0  0.00000000000E+00  0.00000000000E+00 -0.13928873521E+01  0.24622477818E+04  0.24622473878E+04 0.  0.
        1    1    3    3  502    0 -0.10485551036E+03  0.39319137964E+03  0.11612294759E+04  0.12304665923E+04  0.50400001928E-02 0.  1.
       -1    1    3    3    0  502  0.10485551036E+03 -0.39319137964E+03 -0.11626223633E+04  0.12317811895E+04  0.50400001928E-02 0. -1.
</event>
<event>
 5   0  0.3320780E-05  0.2386371E+04  0.7818609E-02  0.8444624E-01
        2   -1    0    0  501    0  0.00000000000E+00  0.00000000000E+00  0.11995016803E+04  0.11995016803E+04  0.25500000920E-02 0.  1.
       -2   -1    0    0    0  501  0.00000000000E+00  0.00000000000E+00 -0.11869028570E+04  0.11869028570E+04  0.25500000920E-02 0. -1.
    10030    2    1    2    0    0  0.00000000000E+00  0.00000000000E+00  0.12598823235E+02  0.23864045373E+04  0.23863712799E+04 0.  0.
        5    1    3    3  502    0 -0.10657619960E+04  0.53569305294E+03  0.35526557863E+02  0.11933565709E+04  0.46999998093E+01 0.  1.
       -5    1    3    3    0  502  0.10657619960E+04 -0.53569305294E+03 -0.22927734627E+02  0.11930479664E+04  0.46999998093E+01 0. -1.
</event>
<event>
 5   0  0.1506985E-05  0.2370547E+04  0.7818609E-02  0.8450613E-01
       -1   -1    0    0    0  501  0.00000000000E+00  0.00000000000E+00  0.10303588068E+04  0.10303588068E+04  0.50400001928E-02 0. -1.
        1   -1    0    0  501    0  0.00000000000E+00  0.00000000000E+00 -0.13634797227E+04  0.13634797227E+04  0.50400001928E-02 0.  1.
    10030    2    1    2    0    0  0.00000000000E+00  0.00000000000E+00 -0.33312091583E+03  0.23938385295E+04  0.23705470594E+04 0.  0.
        3    1    3    3  502    0  0.38731421163E+03  0.92064819568E+03  0.47788531423E+03  0.11072397132E+04  0.10100000352E+00 0. -1.
       -3    1    3    3    0  502 -0.38731421163E+03 -0.92064819568E+03 -0.81100623006E+03  0.12865988163E+04  0.10100000352E+00 0.  1.
</event>
<event>
 5   0  0.1147362E-05  0.2405639E+04  0.7818609E-02  0.8437395E-01
       -3   -1    0    0    0  501  0.00000000000E+00  0.00000000000E+00  0.13562746150E+04  0.13562746188E+04  0.10100000352E+00 0.  1.
        3   -1    0    0  501    0  0.00000000000E+00  0.00000000000E+00 -0.10667268337E+04  0.10667268384E+04  0.10100000352E+00 0. -1.
    10030    2    1    2    0    0  0.00000000000E+00  0.00000000000E+00  0.28954778135E+03  0.24230014572E+04  0.24056388224E+04 0.  0.
        4    1    3    3  502    0  0.24838698483E+03  0.94282663206E+03  0.85424029888E+03  0.12962817030E+04  0.12699999809E+01 0.  1.
       -4    1    3    3    0  502 -0.24838698483E+03 -0.94282663206E+03 -0.56469251753E+03  0.11267197542E+04  0.12699999809E+01 0. -1.
</event>
<event>
 5   0  0.1434943E-05  0.2352453E+04  0.7818609E-02  0.8457522E-01
       -1   -1    0    0    0  501  0.00000000000E+00  0.00000000000E+00  0.97362328385E+03  0.97362328386E+03  0.50400001928E-02 0. -1.
        1   -1    0    0  501    0  0.00000000000E+00  0.00000000000E+00 -0.14209897583E+04  0.14209897583E+04  0.50400001928E-02 0.  1.
    10030    2    1    2    0    0  0.00000000000E+00  0.00000000000E+00 -0.44736647449E+03  0.23946130422E+04  0.23524529452E+04 0.  0.
        5    1    3    3  502    0  0.96144660666E+03 -0.61734171113E+03 -0.50796649586E+03  0.12504168972E+04  0.46999998093E+01 0.  1.
       -5    1    3    3    0  502 -0.96144660666E+03  0.61734171113E+03  0.60600021379E+02  0.11441961451E+04  0.46999998093E+01 0. -1.
</event>
<event>
 5   0  0.3310037E-05  0.2412009E+04  0.7818609E-02  0.8435021E-01
       -2   -1    0    0    0  501  0.00000000000E+00  0.00000000000E+00  0.67117106758E+03  0.67117106758E+03  0.25500000920E-02 0.  1.
        2   -1    0    0  501    0  0.00000000000E+00  0.00000000000E+00 -0.21670282997E+04  0.21670282997E+04  0.25500000920E-02 0. -1.
    10030    2    1    2    0    0  0.00000000000E+00  0.00000000000E+00 -0.14958572321E+04  0.28381993673E+04  0.24120088701E+04 0.  0.
        2    1    3    3  502    0 -0.85989430468E+03  0.53402728676E+03 -0.15193987166E+04  0.18256987205E+04  0.25500000920E-02 0. -1.
       -2    1    3    3    0  502  0.85989430468E+03 -0.53402728676E+03  0.23541484414E+02  0.10125006468E+04  0.25500000920E-02 0.  1.
</event>
<event>
 5   0  0.1147362E-05  0.2411347E+04  0.7818609E-02  0.8435268E-01
       -3   -1    0    0    0  501  0.00000000000E+00  0.00000000000E+00  0.14777204394E+04  0.14777204428E+04  0.10100000352E+00 0. -1.
        3   -1    0    0  501    0  0.00000000000E+00  0.00000000000E+00 -0.98371010498E+03  0.98371011017E+03  0.10100000352E+00 0.  1.
    10030    2    1    2    0    0  0.00000000000E+00  0.00000000000E+00  0.49401033438E+03  0.24614305530E+04  0.24113469590E+04 0.  0.
        1    1    3    3  502    0  0.50813548795E+03 -0.92259890482E+03  0.84592677718E+03  0.13509191411E+04  0.50400001928E-02 0. -1.
       -1    1    3    3    0  502 -0.50813548795E+03  0.92259890482E+03 -0.35191644280E+03  0.11105114119E+04  0.50400001928E-02 0.  1.
</event>
<event>
 5   0  0.1407158E-05  0.2380176E+04  0.7818609E-02  0.8446963E-01
       -1   -1    0    0    0  501  0.00000000000E+00  0.00000000000E+00  0.12227379461E+04  0.12227379461E+04  0.50400001928E-02 0. -1.
        1   -1    0    0  501    0  0.00000000000E+00  0.00000000000E+00 -0.11583096530E+04  0.11583096530E+04  0.50400001928E-02 0.  1.
    10030    2    1    2    0    0  0.00000000000E+00  0.00000000000E+00  0.64428293088E+02  0.23810475991E+04  0.23801757633E+04 0.  0.
        1    1    3    3  502    0  0.94170498937E+03 -0.63998798426E+03 -0.31420196662E+03  0.11811501949E+04  0.50400001928E-02 0.  1.
       -1    1    3    3    0  502 -0.94170498937E+03  0.63998798426E+03  0.37863025971E+03  0.11998974042E+04  0.50400001928E-02 0. -1.
</event>
<event>
 5   0  0.3310037E-05  0.2356089E+04  0.7818609E-02  0.8456129E-01
       -2   -1    0    0    0  501  0.00000000000E+00  0.00000000000E+00  0.94601048247E+03  0.94601048248E+03  0.25500000920E-02 0.  1.
        2   -1    0    0  501    0  0.00000000000E+00  0.00000000000E+00 -0.14669910075E+04  0.14669910075E+04  0.25500000920E-02 0. -1.
    10030    2    1    2    0    0  0.00000000000E+00  0.00000000000E+00 -0.52098052498E+03  0.24130014899E+04  0.23560890227E+04 0.  0.
        2    1    3    3  502    0  0.47153218308E+03  0.27433653072E+03 -0.13298310752E+04  0.14373774105E+04  0.25500000920E-02 0. -1.
       -2    1    3    3    0  502 -0.47153218308E+03 -0.27433653072E+03  0.80885055020E+03  0.97562407941E+03  0.25500000920E-02 0.  1.
</event>
<event>
 5   0  0.1401596E-05  0.2357782E+04  0.7818609E-02  0.8455481E-01
        1   -1    0    0  501    0  0.00000000000E+00  0.00000000000E+00  0.14212506459E+04  0.14212506459E+04  0.50400001928E-02 0.  1.
       -1   -1    0    0    0  501  0.00000000000E+00  0.00000000000E+00 -0.97785969571E+03  0.97785969573E+03  0.50400001928E-02 0. -1.
    10030    2    1    2    0    0  0.00000000000E+00  0.00000000000E+00  0.44339095014E+03  0.23991103416E+04  0.23577817746E+04 0.  0.
        2    1    3    3  502    0 -0.62857792680E+03  0.93987664575E+03  0.56116808805E+03  0.12622947130E+04  0.25500000920E-02 0.  1.
       -2    1    3    3    0  502  0.62857792680E+03 -0.93987664575E+03 -0.11777713791E+03  0.11368156286E+04  0.25500000920E-02 0. -1.
</event>
<event>
 5   0  0.1401596E-05  0.2502308E+04  0.7818609E-02  0.8402164E-01
        1   -1    0    0  501    0  0.00000000000E+00  0.00000000000E+00  0.13947954822E+04  0.13947954822E+04  0.50400001928E-02 0. -1.
       -1   -1    0    0    0  501  0.00000000000E+00  0.00000000000E+00 -0.11223055326E+04  0.11223055326E+04  0.50400001928E-02 0.  1.
    10030    2    1    2    0    0  0.00000000000E+00  0.00000000000E+00  0.27248994959E+03  0.25171010148E+04  0.25023082836E+04 0.  0.
        2    1    3    3  502    0  0.52351304810E+03 -0.69242104154E+03  0.10426120373E+04  0.13566696984E+04  0.25500000920E-02 0. -1.
       -2    1    3    3    0  502 -0.52351304810E+03  0.69242104154E+03 -0.77012208766E+03  0.11604313165E+04  0.25500000920E-02 0.  1.
</event>
<event>
 5   0  0.1393026E-05  0.2407937E+04  0.7818609E-02  0.8436538E-01
       -1   -1    0    0    0  501  0.00000000000E+00  0.00000000000E+00  0.83082735894E+03  0.83082735895E+03  0.50400001928E-02 0.  1.
        1   -1    0    0  501    0  0.00000000000E+00  0.00000000000E+00 -0.17446944091E+04  0.17446944091E+04  0.50400001928E-02 0. -1.
    10030    2    1    2    0    0  0.00000000000E+00  0.00000000000E+00 -0.91386705015E+03  0.25755217680E+04  0.24079367501E+04 0.  0.
        4    1    3    3  502    0  0.36949699253E+03  0.34957488636E+03  0.71025484051E+03  0.87360985573E+03  0.12699999809E+01 0.  1.
       -4    1    3    3    0  502 -0.36949699253E+03 -0.34957488636E+03 -0.16241218907E+04  0.17019119123E+04  0.12699999809E+01 0. -1.
</event>
<event>
 5   0  0.1393026E-05  0.2369822E+04  0.7818609E-02  0.8450889E-01
       -1   -1    0    0    0  501  0.00000000000E+00  0.00000000000E+00  0.11334753884E+04  0.11334753885E+04  0.50400001928E-02 0.  1.
        1   -1    0    0  501    0  0.00000000000E+00  0.00000000000E+00 -0.12386804826E+04  0.12386804826E+04  0.50400001928E-02 0. -1.
    10030    2    1    2    0    0  0.00000000000E+00  0.00000000000E+00 -0.10520509411E+03  0.23721558710E+04  0.23698218002E+04 0.  0.
        4    1    3    3  502    0 -0.28782739448E+03 -0.81628810001E+03  0.75741715468E+03  0.11501535681E+04  0.12699999809E+01 0.  1.
       -4    1    3    3    0  502  0.28782739448E+03  0.81628810001E+03 -0.86262224878E+03  0.12220023029E+04  0.12699999809E+01 0. -1.
</event>
<event>
 5   0  0.1434943E-05  0.2422748E+04  0.7818609E-02  0.8431036E-01
        1   -1    0    0  501    0  0.00000000000E+00  0.00000000000E+00  0.15977588923E+04  0.15977588923E+04  0.50400001928E-02 0. -1.
       -1   -1    0    0    0  501  0.00000000000E+00  0.00000000000E+00 -0.91842820672E+03  0.91842820673E+03  0.50400001928E-02 0.  1.
    10030    2    1    2    0    0  0.00000000000E+00  0.00000000000E+00  0.67933068558E+03  0.25161870990E+04  0.24227478897E+04 0.  0.
        5    1    3    3  502    0  0.60200102355E+03 -0.10370427645E+04  0.16115914255E+03  0.12098997012E+04  0.46999998093E+01 0.  1.
       -5    1    3    3    0  502 -0.60200102355E+03  0.10370427645E+04  0.51817154302E+03  0.13062873978E+04  0.46999998093E+01 0. -1.
</event>
<event>
 5   0  0.1506985E-05  0.2400185E+04  0.7818609E-02  0.8439434E-01
       -1   -1    0    0    0  501  0.00000000000E+00  0.00000000000E+00  0.86406677667E+03  0.86406677669E+03  0.50400001928E-02 0. -1.
        1   -1    0    0  501    0  0.00000000000E+00  0.00000000000E+00 -0.16667948486E+04  0.16667948486E+04  0.50400001928E-02 0.  1.
    10030    2    1    2    0    0  0.00000000000E+00  0.00000000000E+00 -0.80272807190E+03  0.25308616253E+04  0.24001850364E+04 0.  0.
        3    1    3    3  502    0 -0.18334285411E+03  0.11559585535E+04 -0.68107468724E+03  0.13541482635E+04  0.10100000352E+00 0.  1.
       -3    1    3    3    0  502  0.18334285411E+03 -0.11559585535E+04 -0.12165338465E+03  0.11767133618E+04  0.10100000352E+00 0. -1.
</event>
<event>
 5   0  0.3320780E-05  0.2425293E+04  0.7818609E-02  0.8430094E-01
        2   -1    0    0  501    0  0.00000000000E+00  0.00000000000E+00  0.15991643653E+04  0.15991643653E+04  0.25500000920E-02 0.  1.
       -2   -1    0    0    0  501  0.00000000000E+00  0.00000000000E+00 -0.91955010144E+03  0.91955010144E+03  0.25500000920E-02 0. -1.
    10030    2    1    2    0    0  0.00000000000E+00  0.00000000000E+00  0.67961426387E+03  0.25187144668E+04  0.24252931817E+04 0.  0.
        5    1    3    3  502    0 -0.42878680340E+03 -0.95578771684E+03 -0.29454166363E+03  0.10881935324E+04  0.46999998093E+01 0. -1.
       -5    1    3    3    0  502  0.42878680340E+03  0.95578771684E+03  0.97415592751E+03  0.14305209343E+04  0.46999998093E+01 0.  1.
</event>
<event>
 5   0  0.1434943E-05  0.2423630E+04  0.7818609E-02  0.8430709E-01
       -1   -1    0    0    0  501  0.00000000000E+00  0.00000000000E+00  0.70772363532E+03  0.70772363534E+03  0.50400001928E-02 0.  1.
        1   -1    0    0  501    0  0.00000000000E+00  0.00000000000E+00 -0.20749563153E+04  0.20749563153E+04  0.50400001928E-02 0. -1.
    10030    2    1    2    0    0  0.00000000000E+00  0.00000000000E+00 -0.13672326800E+04  0.27826799506E+04  0.24236300267E+04 0.  0.
        5    1    3    3  502    0  0.83181849731E+03 -0.20309894024E+03  0.30091582650E+03  0.90760322644E+03  0.46999998093E+01 0.  1.
       -5    1    3    3    0  502 -0.83181849731E+03  0.20309894024E+03 -0.16681485065E+04  0.18750767242E+04  0.46999998093E+01 0. -1.
</event>
<event>
 5   0  0.3215208E-05  0.2454192E+04  0.7818609E-02  0.8419489E-01
        2   -1    0    0  501    0  0.00000000000E+00  0.00000000000E+00  0.15255883040E+04  0.15255883040E+04  0.25500000920E-02 0.  1.
       -2   -1    0    0    0  501  0.00000000000E+00  0.00000000000E+00 -0.98700556347E+03  0.98700556348E+03  0.25500000920E-02 0. -1.
    10030    2    1    2    0    0  0.00000000000E+00  0.00000000000E+00  0.53858274054E+03  0.25125938675E+04  0.24541916336E+04 0.  0.
        1    1    3    3  502    0  0.28511395549E+03 -0.26080084150E+03 -0.92309459405E+03  0.10007050895E+04  0.50400001928E-02 0. -1.
       -1    1    3    3    0  502 -0.28511395549E+03  0.26080084150E+03  0.14616773346E+04  0.15118887780E+04  0.50400001928E-02 0.  1.
</event>
<event>
 5   0  0.1506985E-05  0.2403227E+04  0.7818609E-02  0.8438296E-01
        1   -1    0    0  501    0  0.00000000000E+00  0.00000000000E+00  0.94652401294E+03  0.94652401295E+03  0.50400001928E-02 0.  1.
       -1   -1    0    0    0  501  0.00000000000E+00  0.00000000000E+00 -0.15254505284E+04  0.15254505284E+04  0.50400001928E-02 0. -1.
    10030    2    1    2    0    0  0.00000000000E+00  0.00000000000E+00 -0.57892651545E+03  0.24719745413E+04  0.24032274596E+04 0.  0.
        3    1    3    3  502    0  0.96830267320E+03  0.52769565499E+03  0.20147697076E+03  0.11210110397E+04  0.10100000352E+00 0. -1.
       -3    1    3    3    0  502 -0.96830267320E+03 -0.52769565499E+03 -0.78040348621E+03  0.13509635016E+04  0.10100000352E+00 0.  1.
</event>
<event>
 5   0  0.1401596E-05  0.2229701E+04  0.7818609E-02  0.8506167E-01
       -1   -1    0    0    0  501  0.00000000000E+00  0.00000000000E+00  0.72027277874E+03  0.72027277876E+03  0.50400001928E-02 0. -1.
        1   -1    0    0  501    0  0.00000000000E+00  0.00000000000E+00 -0.17255848425E+04  0.17255848425E+04  0.50400001928E-02 0.  1.
    10030    2    1    2    0    0  0.00000000000E+00  0.00000000000E+00 -0.10053120637E+04  0.24458576213E+04  0.22297011365E+04 0.  0.
        2    1    3    3  502    0 -0.42514060259E+03  0.54732982305E+03  0.45525783452E+03  0.82920091839E+03  0.25500000920E-02 0. -1.
       -2    1    3    3    0  502  0.42514060259E+03 -0.54732982305E+03 -0.14605698983E+04  0.16166567029E+04  0.25500000920E-02 0.  1.
</event>
<event>
 5   0  0.3215208E-05  0.2395225E+04  0.7818609E-02  0.8441293E-01
       -2   -1    0    0    0  501  0.00000000000E+00  0.00000000000E+00  0.74956755454E+03  0.74956755454E+03  0.25500000920E-02 0.  1.
        2   -1    0    0  501    0  0.00000000000E+00  0.00000000000E+00 -0.19134715949E+04  0.19134715949E+04  0.25500000920E-02 0. -1.
    10030    2    1    2    0    0  0.00000000000E+00  0.00000000000E+00 -0.11639040403E+04  0.26630391494E+04  0.23952254375E+04 0.  0.
        1    1    3    3  502    0  0.12858019704E+03 -0.16772887871E+03 -0.18925747048E+04  0.19043384303E+04  0.50400001928E-02 0. -1.
       -1    1    3    3    0  502 -0.12858019704E+03  0.16772887871E+03  0.72867066450E+03  0.75870071909E+03  0.50400001928E-02 0.  1.
</event>
<event>
 5   0  0.3347728E-05  0.2434984E+04  0.7818609E-02  0.8426521E-01
        2   -1    0    0  501    0  0.00000000000E+00  0.00000000000E+00  0.26223909822E+04  0.26223909822E+04  0.25500000920E-02 0. -1.
       -2   -1    0    0    0  501  0.00000000000E+00  0.00000000000E+00 -0.56524252210E+03  0.56524252211E+03  0.25500000920E-02 0.  1.
    10030    2    1    2    0    0  0.00000000000E+00  0.00000000000E+00  0.20571484601E+04  0.31876335043E+04  0.24349841008E+04 0.  0.
        3    1    3    3  502    0 -0.11706973494E+04  0.33283113044E+03  0.98763402959E+03  0.15673958759E+04  0.10100000352E+00 0. -1.
       -3    1    3    3    0  502  0.11706973494E+04 -0.33283113044E+03  0.10695144305E+04  0.16202376284E+04  0.10100000352E+00 0.  1.
</event>
<event>
 5   0  0.3215208E-05  0.2380412E+04  0.7818609E-02  0.8446874E-01
       -2   -1    0    0    0  501  0.00000000000E+00  0.00000000000E+00  0.69216527673E+03  0.69216527674E+03  0.25500000920E-02 0.  1.
        2   -1    0    0  501    0  0.00000000000E+00  0.00000000000E+00 -0.20466070450E+04  0.20466070450E+04  0.25500000920E-02 0. -1.
    10030    2    1    2    0    0  0.00000000000E+00  0.00000000000E+00 -0.13544417683E+04  0.27387723218E+04  0.23804120078E+04 0.  0.
        1    1    3    3  502    0 -0.11582667613E+04  0.25453746079E+03 -0.56091261373E+03  0.13118666737E+04  0.50400001928E-02 0.  1.
       -1    1    3    3    0  502  0.11582667613E+04 -0.25453746079E+03 -0.79352915456E+03  0.14269056481E+04  0.50400001928E-02 0. -1.
</event>
<event>
 5   0  0.3347728E-05  0.2230456E+04  0.7818609E-02  0.8505858E-01
        2   -1    0    0  501    0  0.00000000000E+00  0.00000000000E+00  0.21391920080E+04  0.21391920080E+04  0.25500000920E-02 0. -1.
       -2   -1    0    0    0  501  0.00000000000E+00  0.00000000000E+00 -0.58140317315E+03  0.58140317316E+03  0.25500000920E-02 0.  1.
    10030    2    1    2    0    0  0.00000000000E+00  0.00000000000E+00  0.15577888349E+04  0.27205951812E+04  0.22304555781E+04 0.  0.
        3    1    3    3  502    0 -0.81719567704E+03 -0.55959427227E+03  0.15362778899E+03  0.10022754272E+04  0.10100000352E+00 0.  1.
       -3    1    3    3    0  502  0.81719567704E+03  0.55959427227E+03  0.14041610459E+04  0.17183197541E+04  0.10100000352E+00 0. -1.
</event>
<event>
 5   0  0.3310037E-05  0.2377861E+04  0.7818609E-02  0.8447839E-01
       -2   -1    0    0    0  501  0.00000000000E+00  0.00000000000E+00  0.81519255878E+03  0.81519255879E+03  0.25500000920E-02 0. -1.
        2   -1    0    0  501    0  0.00000000000E+00  0.00000000000E+00 -0.17340150481E+04  0.17340150481E+04  0.25500000920E-02 0.  1.
    10030    2    1    2    0    0  0.00000000000E+00  0.00000000000E+00 -0.91882248930E+03  0.25492076069E+04  0.23778613618E+04 0.  0.
        2    1    3    3  502    0  0.79937891715E+02  0.70759631837E+03  0.56128435702E+03  0.90670984650E+03  0.25500000920E-02 0. -1.
       -2    1    3    3    0  502 -0.79937891715E+02 -0.70759631837E+03 -0.14801068463E+04  0.16424977604E+04  0.25500000920E-02 0.  1.
</event>
<event>
 5   0  0.3215208E-05  0.2316700E+04  0.7818609E-02  0.8471365E-01
       -2   -1    0    0    0  501  0.00000000000E+00  0.00000000000E+00  0.74204689138E+03  0.74204689138E+03  0.25500000920E-02 0.  1.
        2   -1    0    0  501    0  0.00000000000E+00  0.00000000000E+00 -0.18082081125E+04  0.18082081125E+04  0.25500000920E-02 0. -1.
    10030    2    1    2    0    0  0.00000000000E+00  0.00000000000E+00 -0.10661612211E+04  0.25502550039E+04  0.23167004199E+04 0.  0.
        1    1    3    3  502    0 -0.68710689809E+03 -0.93069216447E+03 -0.46822210117E+03  0.12480127125E+04  0.50400001928E-02 0. -1.
       -1    1    3    3    0  502  0.68710689809E+03  0.93069216447E+03 -0.59793911998E+03  0.13022422915E+04  0.50400001928E-02 0.  1.
</event>
<event>
 5   0  0.1434943E-05  0.2362123E+04  0.7818609E-02  0.8453822E-01
       -1   -1    0    0    0  501  0.00000000000E+00  0.00000000000E+00  0.12054942071E+04  0.12054942071E+04  0.50400001928E-02 0.  1.
        1   -1    0    0  501    0  0.00000000000E+00  0.00000000000E+00 -0.11571235149E+04  0.11571235149E+04  0.50400001928E-02 0. -1.
    10030    2    1    2    0    0  0.00000000000E+00  0.00000000000E+00  0.48370692272E+02  0.23626177220E+04  0.23621225151E+04 0.  0.
        5    1    3    3  502    0 -0.79936991215E+03  0.83103665785E+03  0.27971771327E+03  0.11865404638E+04  0.46999998093E+01 0.  1.
       -5    1    3    3    0  502  0.79936991215E+03 -0.83103665785E+03 -0.23134702099E+03  0.11760772582E+04  0.46999998093E+01 0. -1.
</event>
<event>
 5   0  0.1434943E-05  0.2380306E+04  0.7818609E-02  0.8446914E-01
        1   -1    0    0  501    0  0.00000000000E+00  0.00000000000E+00  0.82961922769E+03  0.82961922770E+03  0.50400001928E-02 0. -1.
       -1   -1    0    0    0  501  0.00000000000E+00  0.00000000000E+00 -0.17073664584E+04  0.17073664584E+04  0.50400001928E-02 0.  1.
    10030    2    1    2    0    0  0.00000000000E+00  0.00000000000E+00 -0.87774723068E+03  0.25369856861E+04  0.23803058985E+04 0.  0.
        5    1    3    3  502    0 -0.95707414247E+03  0.68231073365E+03 -0.63799470124E+03  0.13373848288E+04  0.46999998093E+01 0.  1.
       -5    1    3    3    0  502  0.95707414247E+03 -0.68231073365E+03 -0.23975252944E+03  0.11996008573E+04  0.46999998093E+01 0. -1.
</event>
<event>
 5   0  0.3310037E-05  0.2427103E+04  0.7818609E-02  0.8429426E-01
       -2   -1    0    0    0  501  0.00000000000E+00  0.00000000000E+00  0.11063129944E+04  0.11063129944E+04  0.25500000920E-02 0.  1.
        2   -1    0    0  501    0  0.00000000000E+00  0.00000000000E+00 -0.13311845410E+04  0.13311845410E+04  0.25500000920E-02 0. -1.
    10030    2    1    2    0    0  0.00000000000E+00  0.00000000000E+00 -0.22487154659E+03  0.24374975354E+04  0.24271025983E+04 0.  0.
        2    1    3    3  502    0 -0.52675628240E+03 -0.33735999738E+03 -0.11568043888E+04  0.13150970849E+04  0.25500000920E-02 0. -1.
       -2    1    3    3    0  502  0.52675628240E+03  0.33735999738E+03  0.93193284220E+03  0.11224004505E+04  0.25500000920E-02 0.  1.
</event>
<event>
 5   0  0.1506985E-05  0.2388541E+04  0.7818609E-02  0.8443806E-01
        1   -1    0    0  501    0  0.00000000000E+00  0.00000000000E+00  0.14777161142E+04  0.14777161142E+04  0.50400001928E-02 0. -1.
       -1   -1    0    0    0  501  0.00000000000E+00  0.00000000000E+00 -0.96519375103E+03  0.96519375104E+03  0.50400001928E-02 0.  1.
    10030    2    1    2    0    0  0.00000000000E+00  0.00000000000E+00  0.51252236316E+03  0.24429098652E+04  0.23885412780E+04 0.  0.
        3    1    3    3  502    0  0.10734047097E+04 -0.21924687841E+03 -0.22997110065E+03  0.11194434250E+04  0.10100000352E+00 0.  1.
       -3    1    3    3    0  502 -0.10734047097E+04  0.21924687841E+03  0.74249346381E+03  0.13234664402E+04  0.10100000352E+00 0. -1.
</event>
<event>
 5   0  0.1434943E-05  0.2358263E+04  0.7818609E-02  0.8455297E-01
       -1   -1    0    0    0  501  0.00000000000E+00  0.00000000000E+00  0.83039431931E+03  0.83039431932E+03  0.50400001928E-02 0. -1.
        1   -1    0    0  501    0  0.00000000000E+00  0.00000000000E+00 -0.16743258809E+04  0.16743258809E+04  0.50400001928E-02 0.  1.
    10030    2    1    2    0    0  0.00000000000E+00  0.00000000000E+00 -0.84393156160E+03  0.25047202002E+04  0.23582626658E+04 0.  0.
        5    1    3    3  502    0 -0.40357649344E+03 -0.26069503193E+03  0.72170508164E+03  0.86701568648E+03  0.46999998093E+01 0. -1.
       -5    1    3    3    0  502  0.40357649344E+03  0.26069503193E+03 -0.15656366432E+04  0.16377045138E+04  0.46999998093E+01 0.  1.
</event>
<event>
 5   0  0.3320780E-05  0.2030930E+04  0.7818609E-02  0.8592295E-01
       -2   -1    0    0    0  501  0.00000000000E+00  0.00000000000E+00  0.66065006474E+03  0.66065006474E+03  0.25500000920E-02 0. -1.
        2   -1    0    0  501    0  0.00000000000E+00  0.00000000000E+00 -0.15608401014E+04  0.15608401014E+04  0.25500000920E-02 0.  1.
    10030    2    1    2    0    0  0.00000000000E+00  0.00000000000E+00 -0.90019003667E+03  0.22214901662E+04  0.20309299486E+04 0.  0.
        5    1    3    3  502    0  0.12659192104E+03  0.51581982712E+03 -0.13967795167E+04  0.14943596344E+04  0.46999998093E+01 0.  1.
       -5    1    3    3    0  502 -0.12659192104E+03 -0.51581982712E+03  0.49658948006E+03  0.72713053177E+03  0.46999998093E+01 0. -1.
</event>
<event>
 5   0  0.3347728E-05  0.2409539E+04  0.7818609E-02  0.8435941E-01
        2   -1    0    0  501    0  0.00000000000E+00  0.00000000000E+00  0.11529757037E+04  0.11529757037E+04  0.25500000920E-02 0. -1.
       -2   -1    0    0    0  501  0.00000000000E+00  0.00000000000E+00 -0.12588899159E+04  0.12588899159E+04  0.25500000920E-02 0.  1.
    10030    2    1    2    0    0  0.00000000000E+00  0.00000000000E+00 -0.10591421216E+03  0.24118656196E+04  0.24095389490E+04 0.  0.
        3    1    3    3  502    0  0.33050028934E+03 -0.24851044915E+03 -0.11856334380E+04  0.12556729447E+04  0.10100000352E+00 0.  1.
       -3    1    3    3    0  502 -0.33050028934E+03  0.24851044915E+03  0.10797192258E+04  0.11561926749E+04  0.10100000352E+00 0. -1.
</event>
<event>
 5   0  0.1434943E-05  0.2465733E+04  0.7818609E-02  0.8415296E-01
        1   -1    0    0  501    0  0.00000000000E+00  0.00000000000E+00  0.24439984295E+04  0.24439984295E+04  0.50400001928E-02 0. -1.
       -1   -1    0    0    0  501  0.00000000000E+00  0.00000000000E+00 -0.62191497281E+03  0.62191497283E+03  0.50400001928E-02 0.  1.
    10030    2    1    2    0    0  0.00000000000E+00  0.00000000000E+00  0.18220834567E+04  0.30659134024E+04  0.24657325215E+04 0.  0.
        5    1    3    3  502    0  0.12026258114E+04 -0.14660139106E+03  0.11949539538E+04  0.17016867666E+04  0.46999998093E+01 0.  1.
       -5    1    3    3    0  502 -0.12026258114E+04  0.14660139106E+03  0.62712950297E+03  0.13642266357E+04  0.46999998093E+01 0. -1.
</event>
<event>
 5   0  0.3310037E-05  0.2413021E+04  0.7818609E-02  0.8434645E-01
       -2   -1    0    0    0  501  0.00000000000E+00  0.00000000000E+00  0.10131833077E+04  0.10131833077E+04  0.25500000920E-02 0. -1.
        2   -1    0    0  501    0  0.00000000000E+00  0.00000000000E+00 -0.14367268112E+04  0.14367268112E+04  0.25500000920E-02 0.  1.
    10030    2    1    2    0    0  0.00000000000E+00  0.00000000000E+00 -0.42354350349E+03  0.24499101190E+04  0.24130210301E+04 0.  0.
        2    1    3    3  502    0  0.14271798605E+03  0.55504741416E+03  0.86616601801E+03  0.10385998393E+04  0.25500000920E-02 0. -1.
       -2    1    3    3    0  502 -0.14271798605E+03 -0.55504741416E+03 -0.12897095215E+04  0.14113102796E+04  0.25500000920E-02 0.  1.
</event>
<event>
 5   0  0.1407158E-05  0.2461933E+04  0.7818609E-02  0.8416674E-01
        1   -1    0    0  501    0  0.00000000000E+00  0.00000000000E+00  0.18652098002E+04  0.18652098002E+04  0.50400001928E-02 0.  1.
       -1   -1    0    0    0  501  0.00000000000E+00  0.00000000000E+00 -0.81239007884E+03  0.81239007886E+03  0.50400001928E-02 0. -1.
    10030    2    1    2    0    0  0.00000000000E+00  0.00000000000E+00  0.10528197213E+04  0.26775998790E+04  0.24619325228E+04 0.  0.
        1    1    3    3  502    0  0.67105007818E+03  0.90822499916E+03  0.10593310316E+04  0.15483420459E+04  0.50400001928E-02 0. -1.
       -1    1    3    3    0  502 -0.67105007818E+03 -0.90822499916E+03 -0.65113102988E+01  0.11292578331E+04  0.50400001928E-02 0.  1.
</event>
<event>
 5   0  0.3215208E-05  0.2401589E+04  0.7818609E-02  0.8438909E-01
       -2   -1    0    0    0  501  0.00000000000E+00  0.00000000000E+00  0.64429686896E+03  0.64429686897E+03  0.25500000920E-02 0.  1.
        2   -1    0    0  501    0  0.00000000000E+00  0.00000000000E+00 -0.22379543549E+04  0.22379543549E+04  0.25500000920E-02 0. -1.
    10030    2    1    2    0    0  0.00000000000E+00  0.00000000000E+00 -0.15936574860E+04  0.28822512239E+04  0.24015886274E+04 0.  0.
        1    1    3    3  502    0  0.66842786052E+03 -0.82132172884E+03 -0.11735051198E+03  0.10654277684E+04  0.50400001928E-02 0.  1.
       -1    1    3    3    0  502 -0.66842786052E+03  0.82132172884E+03 -0.14763069740E+04  0.18168234555E+04  0.50400001928E-02 0. -1.
</event>
<event>
 5   0  0.1401596E-05  0.2413267E+04  0.7818609E-02  0.8434553E-01
       -1   -1    0    0    0  501  0.00000000000E+00  0.00000000000E+00  0.85481859252E+03  0.85481859253E+03  0.50400001928E-02 0. -1.
        1   -1    0    0  501    0  0.00000000000E+00  0.00000000000E+00 -0.17032439688E+04  0.17032439688E+04  0.50400001928E-02 0.  1.
    10030    2    1    2    0    0  0.00000000000E+00  0.00000000000E+00 -0.84842537625E+03  0.25580625613E+04  0.24132671730E+04 0.  0.
        2    1    3    3  502    0  0.14060643580E+03 -0.10879849331E+04 -0.95683827157E+03  0.14556857018E+04  0.25500000920E-02 0. -1.
       -2    1    3    3    0  502 -0.14060643580E+03  0.10879849331E+04  0.10841289533E+03  0.11023768595E+04  0.25500000920E-02 0.  1.
</event>
<event>
 5   0  0.1506985E-05  0.2406394E+04  0.7818609E-02  0.8437114E-01
        1   -1    0    0  501    0  0.00000000000E+00  0.00000000000E+00  0.72464017533E+03  0.72464017535E+03  0.50400001928E-02 0.  1.
       -1   -1    0    0    0  501  0.00000000000E+00  0.00000000000E+00 -0.19977954588E+04  0.19977954588E+04  0.50400001928E-02 0. -1.
    10030    2    1    2    0    0  0.00000000000E+00  0.00000000000E+00 -0.12731552834E+04  0.27224356341E+04  0.24063938593E+04 0.  0.
        3    1    3    3  502    0 -0.33491186283E+03  0.77445612137E+03 -0.16069792344E+04  0.18150290658E+04  0.10100000352E+00 0. -1.
       -3    1    3    3    0  502  0.33491186283E+03 -0.77445612137E+03  0.33382395095E+03  0.90740656832E+03  0.10100000352E+00 0.  1.
</event>
<event>
 5   0  0.1434943E-05  0.2374824E+04  0.7818609E-02  0.8448990E-01
       -1   -1    0    0    0  501  0.00000000000E+00  0.00000000000E+00  0.10467903324E+04  0.10467903324E+04  0.50400001928E-02 0.  1.
        1   -1    0    0  501    0  0.00000000000E+00  0.00000000000E+00 -0.13469243755E+04  0.13469243755E+04  0.50400001928E-02 0. -1.
    10030    2    1    2    0    0  0.00000000000E+00  0.00000000000E+00 -0.30013404316E+03  0.23937147079E+04  0.23748241322E+04 0.  0.
        5    1    3    3  502    0 -0.30965091536E+03 -0.80289178402E+03 -0.97474779764E+03  0.13002593069E+04  0.46999998093E+01 0. -1.
       -5    1    3    3    0  502  0.30965091536E+03  0.80289178402E+03  0.67461375448E+03  0.10934554010E+04  0.46999998093E+01 0.  1.
</event>
<event>
 5   0  0.1401596E-05  0.2220834E+04  0.7818609E-02  0.8509806E-01
        1   -1    0    0  501    0  0.00000000000E+00  0.00000000000E+00  0.19340357700E+04  0.19340357700E+04  0.50400001928E-02 0.  1.
       -1   -1    0    0    0  501  0.00000000000E+00  0.00000000000E+00 -0.63754010542E+03  0.63754010544E+03  0.50400001928E-02 0. -1.
    10030    2    1    2    0    0  0.00000000000E+00  0.00000000000E+00  0.12964956646E+04  0.25715758755E+04  0.22208335091E+04 0.  0.
        2    1    3    3  502    0  0.72529520398E+03 -0.23566437106E+03  0.15828326725E+04  0.17569718546E+04  0.25500000920E-02 0.  1.
       -2    1    3    3    0  502 -0.72529520398E+03  0.23566437106E+03 -0.28633700791E+03  0.81460402087E+03  0.25500000920E-02 0. -1.
</event>
<event>
 5   0  0.3345974E-05  0.2396320E+04  0.7818609E-02  0.8440883E-01
        2   -1    0    0  501    0  0.00000000000E+00  0.00000000000E+00  0.11722637811E+04  0.11722637811E+04  0.25500000920E-02 0. -1.
       -2   -1    0    0    0  501  0.00000000000E+00  0.00000000000E+00 -0.12246283157E+04  0.12246283157E+04  0.25500000920E-02 0.  1.
    10030    2    1    2    0    0  0.00000000000E+00  0.00000000000E+00 -0.52364534585E+02  0.23968920968E+04  0.23963200285E+04 0.  0.
        4    1    3    3  502    0 -0.10269020414E+04 -0.39789733844E+03 -0.49824377954E+03  0.12087591039E+04  0.12699999809E+01 0.  1.
       -4    1    3    3    0  502  0.10269020414E+04  0.39789733844E+03  0.44587924496E+03  0.11881329928E+04  0.12699999809E+01 0. -1.
</event>
<event>
 5   0  0.1393026E-05  0.2435147E+04  0.7818609E-02  0.8426461E-01
        1   -1    0    0  501    0  0.00000000000E+00  0.00000000000E+00  0.53058178271E+03  0.53058178274E+03  0.50400001928E-02 0. -1.
       -1   -1    0    0    0  501  0.00000000000E+00  0.00000000000E+00 -0.27940746147E+04  0.27940746147E+04  0.50400001928E-02 0.  1.
    10030    2    1    2    0    0  0.00000000000E+00  0.00000000000E+00 -0.22634928320E+04  0.33246563975E+04  0.24351468869E+04 0.  0.
        4    1    3    3  502    0  0.11499334949E+04 -0.66660056791E+02 -0.16704575716E+04  0.20290935704E+04  0.12699999809E+01 0.  1.
       -4    1    3    3    0  502 -0.11499334949E+04  0.66660056791E+02 -0.59303526041E+03  0.12955628271E+04  0.12699999809E+01 0. -1.
</event>
<event>
 5   0  0.1434943E-05  0.2409105E+04  0.7818609E-02  0.8436103E-01
        1   -1    0    0  501    0  0.00000000000E+00  0.00000000000E+00  0.16503413149E+04  0.16503413149E+04  0.50400001928E-02 0.  1.
       -1   -1    0    0    0  501  0.00000000000E+00  0.00000000000E+00 -0.87918002600E+03  0.87918002601E+03  0.50400001928E-02 0. -1.
    10030    2    1    2    0    0  0.00000000000E+00  0.00000000000E+00  0.77116128894E+03  0.25295213410E+04  0.24091053279E+04 0.  0.
        5    1    3    3  502    0 -0.52327596455E+03 -0.53000207182E+03  0.13795803711E+04  0.15677959120E+04  0.46999998093E+01 0.  1.
       -5    1    3    3    0  502  0.52327596455E+03  0.53000207182E+03 -0.60841908218E+03  0.96172542899E+03  0.46999998093E+01 0. -1.
</event>
<event>
 5   0  0.1147362E-05  0.2397748E+04  0.7818609E-02  0.8440347E-01
        4   -1    0    0  501    0  0.00000000000E+00  0.00000000000E+00  0.19032441773E+04  0.19032446010E+04  0.12699999809E+01 0.  1.
       -4   -1    0    0    0  501  0.00000000000E+00  0.00000000000E+00 -0.75518269579E+03  0.75518376367E+03  0.12699999809E+01 0. -1.
    10030    2    1    2    0    0  0.00000000000E+00  0.00000000000E+00  0.11480614815E+04  0.26584283647E+04  0.23977481529E+04 0.  0.
        3    1    3    3  502    0 -0.54360921450E+03 -0.10303458533E+04  0.26009396301E+03  0.11936383184E+04  0.10100000352E+00 0.  1.
       -3    1    3    3    0  502  0.54360921450E+03  0.10303458533E+04  0.88796751849E+03  0.14647900462E+04  0.10100000352E+00 0. -1.
</event>
<event>
 5   0  0.3215208E-05  0.2418051E+04  0.7818609E-02  0.8432776E-01
        2   -1    0    0  501    0  0.00000000000E+00  0.00000000000E+00  0.10919762080E+04  0.10919762080E+04  0.25500000920E-02 0.  1.
       -2   -1    0    0    0  501  0.00000000000E+00  0.00000000000E+00 -0.13386208987E+04  0.13386208988E+04  0.25500000920E-02 0. -1.
    10030    2    1    2    0    0  0.00000000000E+00  0.00000000000E+00 -0.24664469077E+03  0.24305971067E+04  0.24180505974E+04 0.  0.
        1    1    3    3  502    0 -0.48024861408E+03  0.91743133350E+03  0.50395340318E+03  0.11516457857E+04  0.50400001928E-02 0.  1.
       -1    1    3    3    0  502  0.48024861408E+03 -0.91743133350E+03 -0.75059809395E+03  0.12789513211E+04  0.50400001928E-02 0. -1.
</event>
<event>
 5   0  0.3347728E-05  0.2398402E+04  0.7818609E-02  0.8440102E-01
       -2   -1    0    0    0  501  0.00000000000E+00  0.00000000000E+00  0.14356795044E+04  0.14356795044E+04  0.25500000920E-02 0.  1.
        2   -1    0    0  501    0  0.00000000000E+00  0.00000000000E+00 -0.10016741398E+04  0.10016741398E+04  0.25500000920E-02 0. -1.
    10030    2    1    2    0    0  0.00000000000E+00  0.00000000000E+00  0.43400536464E+03  0.24373536442E+04  0.23984019952E+04 0.  0.
        3    1    3    3  502    0 -0.64343999466E+03  0.97213285497E+03  0.50268329455E+03  0.12695463045E+04  0.10100000352E+00 0.  1.
       -3    1    3    3    0  502  0.64343999466E+03 -0.97213285497E+03 -0.68677929913E+02  0.11678073397E+04  0.10100000352E+00 0. -1.
</event>
<event>
 5   0  0.3347728E-05  0.2421557E+04  0.7818609E-02  0.8431477E-01
       -2   -1    0    0    0  501  0.00000000000E+00  0.00000000000E+00  0.74807687535E+03  0.74807687535E+03  0.25500000920E-02 0. -1.
        2   -1    0    0  501    0  0.00000000000E+00  0.00000000000E+00 -0.19596716505E+04  0.19596716505E+04  0.25500000920E-02 0.  1.
    10030    2    1    2    0    0  0.00000000000E+00  0.00000000000E+00 -0.12115947752E+04  0.27077485259E+04  0.24215573873E+04 0.  0.
        3    1    3    3  502    0 -0.10179457478E+03  0.56872636878E+02 -0.19533786034E+04  0.19568557971E+04  0.10100000352E+00 0.  1.
       -3    1    3    3    0  502  0.10179457478E+03 -0.56872636878E+02  0.74178382816E+03  0.75089272882E+03  0.10100000352E+00 0. -1.
</event>
<event>
 5   0  0.1393026E-05  0.2386726E+04  0.7818609E-02  0.8444490E-01
        1   -1    0    0  501    0  0.00000000000E+00  0.00000000000E+00  0.99928958906E+03  0.99928958907E+03  0.50400001928E-02 0.  1.
       -1   -1    0    0    0  501  0.00000000000E+00  0.00000000000E+00 -0.14251275344E+04  0.14251275344E+04  0.50400001928E-02 0. -1.
    10030    2    1    2    0    0  0.00000000000E+00  0.00000000000E+00 -0.42583794529E+03  0.24244171234E+04  0.23867258814E+04 0.  0.
        4    1    3    3  502    0 -0.32061156359E+03 -0.56462653271E+03 -0.12299893827E+04  0.13908523972E+04  0.12699999809E+01 0. -1.
       -4    1    3    3    0  502  0.32061156359E+03  0.56462653271E+03  0.80415143744E+03  0.10335647263E+04  0.12699999809E+01 0.  1.
</event>
<event>
 5   0  0.3215208E-05  0.2185630E+04  0.7818609E-02  0.8524433E-01
        2   -1    0    0  501    0  0.00000000000E+00  0.00000000000E+00  0.10126110667E+04  0.10126110667E+04  0.25500000920E-02 0. -1.
       -2   -1    0    0    0  501  0.00000000000E+00  0.00000000000E+00 -0.11793711558E+04  0.11793711558E+04  0.25500000920E-02 0.  1.
    10030    2    1    2    0    0  0.00000000000E+00  0.00000000000E+00 -0.16676008909E+03  0.21919822224E+04  0.21856296887E+04 0.  0.
        1    1    3    3  502    0 -0.18352635699E+02 -0.10833392896E+04  0.59453871262E+02  0.10851246926E+04  0.50400001928E-02 0. -1.
       -1    1    3    3    0  502  0.18352635699E+02  0.10833392896E+04 -0.22621396035E+03  0.11068575299E+04  0.50400001928E-02 0.  1.
</event>
<event>
 5   0  0.1401596E-05  0.2427744E+04  0.7818609E-02  0.8429189E-01
       -1   -1    0    0    0  501  0.00000000000E+00  0.00000000000E+00  0.19102382986E+04  0.19102382986E+04  0.50400001928E-02 0. -1.
        1   -1    0    0  501    0  0.00000000000E+00  0.00000000000E+00 -0.77136201158E+03  0.77136201159E+03  0.50400001928E-02 0.  1.
    10030    2    1    2    0    0  0.00000000000E+00  0.00000000000E+00  0.11388762870E+04  0.26816003102E+04  0.24277440200E+04 0.  0.
        2    1    3    3  502    0 -0.10917824867E+04 -0.39157403344E+03  0.17400084704E+03  0.11728578416E+04  0.25500000920E-02 0.  1.
       -2    1    3    3    0  502  0.10917824867E+04  0.39157403344E+03  0.96487543996E+03  0.15087424686E+04  0.25500000920E-02 0. -1.
</event>
<event>
 5   0  0.1407158E-05  0.2404001E+04  0.7818609E-02  0.8438007E-01
       -1   -1    0    0    0  501  0.00000000000E+00  0.00000000000E+00  0.82581916132E+03  0.82581916133E+03  0.50400001928E-02 0.  1.
        1   -1    0    0  501    0  0.00000000000E+00  0.00000000000E+00 -0.17495416606E+04  0.17495416606E+04  0.50400001928E-02 0. -1.
    10030    2    1    2    0    0  0.00000000000E+00  0.00000000000E+00 -0.92372249924E+03  0.25753608219E+04  0.24040008543E+04 0.  0.
        1    1    3    3  502    0 -0.91702099213E+03  0.57472131066E+03  0.98463798767E+02  0.10867047458E+04  0.50400001928E-02 0.  1.
       -1    1    3    3    0  502  0.91702099213E+03 -0.57472131066E+03 -0.10221862980E+04  0.14886560761E+04  0.50400001928E-02 0. -1.
</event>
<event>
 5   0  0.1434943E-05  0.2378230E+04  0.7818609E-02  0.8447699E-01
       -1   -1    0    0    0  501  0.00000000000E+00  0.00000000000E+00  0.13681174741E+04  0.13681174741E+04  0.50400001928E-02 0. -1.
        1   -1    0    0  501    0  0.00000000000E+00  0.00000000000E+00 -0.10335326395E+04  0.10335326395E+04  0.50400001928E-02 0.  1.
    10030    2    1    2    0    0  0.00000000000E+00  0.00000000000E+00  0.33458483460E+03  0.24016501136E+04  0.23782296476E+04 0.  0.
        5    1    3    3  502    0  0.51976895776E+03 -0.10405802656E+04  0.41671648853E+03  0.12355734622E+04  0.46999998093E+01 0.  1.
       -5    1    3    3    0  502 -0.51976895776E+03  0.10405802656E+04 -0.82131653937E+02  0.11660766515E+04  0.46999998093E+01 0. -1.
</event>
<event>
 5   0  0.3310037E-05  0.2328434E+04  0.7818609E-02  0.8466794E-01
        2   -1    0    0  501    0  0.00000000000E+00  0.00000000000E+00  0.17217589179E+04  0.17217589179E+04  0.25500000920E-02 0.  1.
       -2   -1    0    0    0  501  0.00000000000E+00  0.00000000000E+00 -0.78721886983E+03  0.78721886984E+03  0.25500000920E-02 0. -1.
    10030    2    1    2    0    0  0.00000000000E+00  0.00000000000E+00  0.93454004809E+03  0.25089777878E+04  0.23284339024E+04 0.  0.
        2    1    3    3  502    0  0.36861376641E+02  0.10138064571E+03  0.17163621021E+04  0.17197487206E+04  0.25500000920E-02 0.  1.
       -2    1    3    3    0  502 -0.36861376641E+02 -0.10138064571E+03 -0.78182205399E+03  0.78922906720E+03  0.25500000920E-02 0. -1.
</event>
<event>
 5   0  0.3215208E-05  0.2388884E+04  0.7818609E-02  0.8443677E-01
        2   -1    0    0  501    0  0.00000000000E+00  0.00000000000E+00  0.21740319809E+04  0.21740319809E+04  0.25500000920E-02 0. -1.
       -2   -1    0    0    0  501  0.00000000000E+00  0.00000000000E+00 -0.65624243019E+03  0.65624243019E+03  0.25500000920E-02 0.  1.
    10030    2    1    2    0    0  0.00000000000E+00  0.00000000000E+00  0.15177895507E+04  0.28302744111E+04  0.23888842839E+04 0.  0.
        1    1    3    3  502    0 -0.83786232778E+03  0.85022131214E+03  0.70859482965E+03  0.13881628840E+04  0.50400001928E-02 0. -1.
       -1    1    3    3    0  502  0.83786232778E+03 -0.85022131214E+03  0.80919472109E+03  0.14421115271E+04  0.50400001928E-02 0.  1.
</event>
<event>
 5   0  0.3347728E-05  0.2503222E+04  0.7818609E-02  0.8401839E-01
       -2   -1    0    0    0  501  0.00000000000E+00  0.00000000000E+00  0.10277616076E+04  0.10277616076E+04  0.25500000920E-02 0.  1.
        2   -1    0    0  501    0  0.00000000000E+00  0.00000000000E+00 -0.15242156479E+04  0.15242156479E+04  0.25500000920E-02 0. -1.
    10030    2    1    2    0    0  0.00000000000E+00  0.00000000000E+00 -0.49645404031E+03  0.25519772555E+04  0.25032221832E+04 0.  0.
        3    1    3    3  502    0  0.47881487769E+03 -0.45667645686E+03 -0.13313286529E+04  0.14866919874E+04  0.10100000352E+00 0. -1.
       -3    1    3    3    0  502 -0.47881487769E+03  0.45667645686E+03  0.83487461257E+03  0.10652852680E+04  0.10100000352E+00 0.  1.
</event>
<event>
 5   0  0.1147362E-05  0.2471268E+04  0.7818609E-02  0.8413294E-01
        3   -1    0    0  501    0  0.00000000000E+00  0.00000000000E+00  0.80807992047E+03  0.80807992678E+03  0.10100000352E+00 0.  1.
       -3   -1    0    0    0  501  0.00000000000E+00  0.00000000000E+00 -0.18894056438E+04  0.18894056465E+04  0.10100000352E+00 0. -1.
    10030    2    1    2    0    0  0.00000000000E+00  0.00000000000E+00 -0.10813257234E+04  0.26974855733E+04  0.24712675084E+04 0.  0.
        3    1    3    3  502    0 -0.13959111423E+03  0.12098584107E+04 -0.76844624479E+03  0.14400530179E+04  0.10100000352E+00 0.  1.
       -3    1    3    3    0  502  0.13959111423E+03 -0.12098584107E+04 -0.31287947859E+03  0.12574325554E+04  0.10100000352E+00 0. -1.
</event>
<event>
 5   0  0.1147362E-05  0.2271025E+04  0.7818609E-02  0.8489434E-01
       -4   -1    0    0    0  501  0.00000000000E+00  0.00000000000E+00  0.16798414733E+04  0.16798419534E+04  0.12699999809E+01 0.  1.
        4   -1    0    0  501    0  0.00000000000E+00  0.00000000000E+00 -0.76756464771E+03  0.76756569837E+03  0.12699999809E+01 0. -1.
    10030    2    1    2    0    0  0.00000000000E+00  0.00000000000E+00  0.91227682558E+03  0.24474076517E+04  0.22710251446E+04 0.  0.
        1    1    3    3  502    0 -0.76124195975E+03  0.82792050064E+03  0.62463777778E+03  0.12865123513E+04  0.50400001928E-02 0. -1.
       -1    1    3    3    0  502  0.76124195975E+03 -0.82792050064E+03  0.28763904780E+03  0.11608953004E+04  0.50400001928E-02 0.  1.
</event>
<event>
 5   0  0.3345974E-05  0.2423763E+04  0.7818609E-02  0.8430660E-01
       -2   -1    0    0    0  501  0.00000000000E+00  0.00000000000E+00  0.67703050163E+03  0.67703050163E+03  0.25500000920E-02 0. -1.
        2   -1    0    0  501    0  0.00000000000E+00  0.00000000000E+00 -0.21692616048E+04  0.21692616048E+04  0.25500000920E-02 0.  1.
    10030    2    1    2    0    0  0.00000000000E+00  0.00000000000E+00 -0.14922311032E+04  0.28462921064E+04  0.24237625894E+04 0.  0.
        4    1    3    3  502    0 -0.23648274312E+03  0.70289806643E+03 -0.18716737286E+04  0.20132446297E+04  0.12699999809E+01 0.  1.
       -4    1    3    3    0  502  0.23648274312E+03 -0.70289806643E+03  0.37944262547E+03  0.83304747674E+03  0.12699999809E+01 0. -1.
</event>
<event>
 5   0  0.3215208E-05  0.2389145E+04  0.7818609E-02  0.8443579E-01
        2   -1    0    0  501    0  0.00000000000E+00  0.00000000000E+00  0.23999476799E+04  0.23999476799E+04  0.25500000920E-02 0. -1.
       -2   -1    0    0    0  501  0.00000000000E+00  0.00000000000E+00 -0.59459752723E+03  0.59459752724E+03  0.25500000920E-02 0.  1.
    10030    2    1    2    0    0  0.00000000000E+00  0.00000000000E+00  0.18053501526E+04  0.29945452071E+04  0.23891445799E+04 0.  0.
        1    1    3    3  502    0 -0.86634309757E+03  0.82225130120E+03  0.92630387188E+03  0.15115179219E+04  0.50400001928E-02 0.  1.
       -1    1    3    3    0  502  0.86634309757E+03 -0.82225130120E+03  0.87904628075E+03  0.14830272852E+04  0.50400001928E-02 0. -1.
</event>
<event>
 5   0  0.1407158E-05  0.2375364E+04  0.7818609E-02  0.8448785E-01
       -1   -1    0    0    0  501  0.00000000000E+00  0.00000000000E+00  0.10926405557E+04  0.10926405557E+04  0.50400001928E-02 0. -1.
        1   -1    0    0  501    0  0.00000000000E+00  0.00000000000E+00 -0.12909902509E+04  0.12909902509E+04  0.50400001928E-02 0.  1.
    10030    2    1    2    0    0  0.00000000000E+00  0.00000000000E+00 -0.19834969522E+03  0.23836308067E+04  0.23753638081E+04 0.  0.
        1    1    3    3  502    0  0.10699216000E+04  0.50803134187E+03 -0.10776088224E+02  0.11844594542E+04  0.50400001928E-02 0. -1.
       -1    1    3    3    0  502 -0.10699216000E+04 -0.50803134187E+03 -0.18757360700E+03  0.11991713525E+04  0.50400001928E-02 0.  1.
</event>
<event>
 5   0  0.1434943E-05  0.2360282E+04  0.7818609E-02  0.8454525E-01
        1   -1    0    0  501    0  0.00000000000E+00  0.00000000000E+00  0.13082530379E+04  0.13082530379E+04  0.50400001928E-02 0.  1.
       -1   -1    0    0    0  501  0.00000000000E+00  0.00000000000E+00 -0.10645743763E+04  0.10645743763E+04  0.50400001928E-02 0. -1.
    10030    2    1    2    0    0  0.00000000000E+00  0.00000000000E+00  0.24367866161E+03  0.23728274143E+04  0.23602819001E+04 0.  0.
        5    1    3    3  502    0  0.10452697297E+04  0.11236389731E+03  0.66087594808E+03  0.12417703339E+04  0.46999998093E+01 0.  1.
       -5    1    3    3    0  502 -0.10452697297E+04 -0.11236389731E+03 -0.41719728647E+03  0.11310570804E+04  0.46999998093E+01 0. -1.
</event>
<event>
 5   0  0.3320780E-05  0.2374635E+04  0.7818609E-02  0.8449061E-01
        2   -1    0    0  501    0  0.00000000000E+00  0.00000000000E+00  0.21016702303E+04  0.21016702303E+04  0.25500000920E-02 0. -1.
       -2   -1    0    0    0  501  0.00000000000E+00  0.00000000000E+00 -0.67076292436E+03  0.67076292437E+03  0.25500000920E-02 0.  1.
    10030    2    1    2    0    0  0.00000000000E+00  0.00000000000E+00  0.14309073060E+04  0.27724331547E+04  0.23746346833E+04 0.  0.
        5    1    3    3  502    0  0.10707512226E+04 -0.31758329444E+03  0.11858541279E+04  0.16289995188E+04  0.46999998093E+01 0. -1.
       -5    1    3    3    0  502 -0.10707512226E+04  0.31758329444E+03  0.24505317801E+03  0.11434336359E+04  0.46999998093E+01 0.  1.
</event>
<event>
 5   0  0.3320780E-05  0.2404937E+04  0.7818609E-02  0.8437658E-01
       -2   -1    0    0    0  501  0.00000000000E+00  0.00000000000E+00  0.70730465122E+03  0.70730465123E+03  0.25500000920E-02 0. -1.
        2   -1    0    0  501    0  0.00000000000E+00  0.00000000000E+00 -0.20442823257E+04  0.20442823257E+04  0.25500000920E-02 0.  1.
    10030    2    1    2    0    0  0.00000000000E+00  0.00000000000E+00 -0.13369776744E+04  0.27515869769E+04  0.24049369201E+04 0.  0.
        5    1    3    3  502    0 -0.22323063469E+03 -0.11583308947E+04 -0.40176424108E+03  0.12461937944E+04  0.46999998093E+01 0. -1.
       -5    1    3    3    0  502  0.22323063469E+03  0.11583308947E+04 -0.93521343336E+03  0.15053931825E+04  0.46999998093E+01 0.  1.
</event>
<event>
 5   0  0.3320780E-05  0.2339875E+04  0.7818609E-02  0.8462363E-01
        2   -1    0    0  501    0  0.00000000000E+00  0.00000000000E+00  0.19584233452E+04  0.19584233452E+04  0.25500000920E-02 0. -1.
       -2   -1    0    0    0  501  0.00000000000E+00  0.00000000000E+00 -0.69890614574E+03  0.69890614575E+03  0.25500000920E-02 0.  1.
    10030    2    1    2    0    0  0.00000000000E+00  0.00000000000E+00  0.12595171995E+04  0.26573294910E+04  0.23398753060E+04 0.  0.
        5    1    3    3  502    0 -0.20644154387E+03  0.82563025363E+03 -0.28193065021E+03  0.89654358972E+03  0.46999998093E+01 0.  1.
       -5    1    3    3    0  502  0.20644154387E+03 -0.82563025363E+03  0.15414478497E+04  0.17607859013E+04  0.46999998093E+01 0. -1.
</event>
<event>
 5   0  0.3345974E-05  0.2403686E+04  0.7818609E-02  0.8438125E-01
        2   -1    0    0  501    0  0.00000000000E+00  0.00000000000E+00  0.94023296321E+03  0.94023296321E+03  0.25500000920E-02 0. -1.
       -2   -1    0    0    0  501  0.00000000000E+00  0.00000000000E+00 -0.15362433389E+04  0.15362433389E+04  0.25500000920E-02 0.  1.
    10030    2    1    2    0    0  0.00000000000E+00  0.00000000000E+00 -0.59601037569E+03  0.24764763021E+04  0.24036860250E+04 0.  0.
        4    1    3    3  502    0 -0.33110874044E+03 -0.10793015345E+04  0.12666658997E+03  0.11360329389E+04  0.12699999809E+01 0. -1.
       -4    1    3    3    0  502  0.33110874044E+03  0.10793015345E+04 -0.72267696566E+03  0.13404433632E+04  0.12699999809E+01 0.  1.
</event>
<event>
 5   0  0.3345974E-05  0.2387147E+04  0.7818609E-02  0.8444331E-01
       -2   -1    0    0    0  501  0.00000000000E+00  0.00000000000E+00  0.10097568599E+04  0.10097568599E+04  0.25500000920E-02 0. -1.
        2   -1    0    0  501    0  0.00000000000E+00  0.00000000000E+00 -0.14108520306E+04  0.14108520306E+04  0.25500000920E-02 0.  1.
    10030    2    1    2    0    0  0.00000000000E+00  0.00000000000E+00 -0.40109517070E+03  0.24206088905E+04  0.23871468461E+04 0.  0.
        4    1    3    3  502    0  0.10199534043E+04 -0.33967906689E+03  0.32530544128E+03  0.11231705384E+04  0.12699999809E+01 0.  1.
       -4    1    3    3    0  502 -0.10199534043E+04  0.33967906689E+03 -0.72640061198E+03  0.12974383521E+04  0.12699999809E+01 0. -1.
</event>
<event>
 5   0  0.1434943E-05  0.2316870E+04  0.7818609E-02  0.8471299E-01
        1   -1    0    0  501    0  0.00000000000E+00  0.00000000000E+00  0.14078097891E+04  0.14078097891E+04  0.50400001928E-02 0. -1.
       -1   -1    0    0    0  501  0.00000000000E+00  0.00000000000E+00 -0.95323362565E+03  0.95323362567E+03  0.50400001928E-02 0.  1.
    10030    2    1    2    0    0  0.00000000000E+00  0.00000000000E+00  0.45457616341E+03  0.23610434147E+04  0.23168699830E+04 0.  0.
        5    1    3    3  502    0  0.35994044386E+03 -0.10935092660E+04  0.35870375001E+03  0.12058234151E+04  0.46999998093E+01 0. -1.
       -5    1    3    3    0  502 -0.35994044386E+03  0.10935092660E+04  0.95872413404E+02  0.11552199997E+04  0.46999998093E+01 0.  1.
</event>
<event>
 5   0  0.3347728E-05  0.2106171E+04  0.7818609E-02  0.8558530E-01
        2   -1    0    0  501    0  0.00000000000E+00  0.00000000000E+00  0.89563750516E+03  0.89563750516E+03  0.25500000920E-02 0.  1.
       -2   -1    0    0    0  501  0.00000000000E+00  0.00000000000E+00 -0.12382114408E+04  0.12382114408E+04  0.25500000920E-02 0. -1.
    10030    2    1    2    0    0  0.00000000000E+00  0.00000000000E+00 -0.34257393562E+03  0.21338489459E+04  0.21061705588E+04 0.  0.
        3    1    3    3  502    0  0.91084908496E+03 -0.49208336452E+03  0.24111514754E+02  0.10355546671E+04  0.10100000352E+00 0.  1.
       -3    1    3    3    0  502 -0.91084908496E+03  0.49208336452E+03 -0.36668545037E+03  0.10982942788E+04  0.10100000352E+00 0. -1.
</event>
<event>
 5   0  0.3310037E-05  0.2459187E+04  0.7818609E-02  0.8417671E-01
        2   -1    0    0  501    0  0.00000000000E+00  0.00000000000E+00  0.23755769313E+04  0.23755769313E+04  0.25500000920E-02 0.  1.
       -2   -1    0    0    0  501  0.00000000000E+00  0.00000000000E+00 -0.63643512020E+03  0.63643512020E+03  0.25500000920E-02 0. -1.
    10030    2    1    2    0    0  0.00000000000E+00  0.00000000000E+00  0.17391418111E+04  0.30120120515E+04  0.24591873372E+04 0.  0.
        2    1    3    3  502    0  0.29226515479E+03  0.48917617270E+03 -0.46494852902E+03  0.73545182255E+03  0.25500000920E-02 0. -1.
       -2    1    3    3    0  502 -0.29226515479E+03 -0.48917617270E+03  0.22040903401E+04  0.22765602289E+04  0.25500000920E-02 0.  1.
</event>
<event>
 5   0  0.1506985E-05  0.2287289E+04  0.7818609E-02  0.8482950E-01
        1   -1    0    0  501    0  0.00000000000E+00  0.00000000000E+00  0.72945063516E+03  0.72945063518E+03  0.50400001928E-02 0. -1.
       -1   -1    0    0    0  501  0.00000000000E+00  0.00000000000E+00 -0.17930240324E+04  0.17930240324E+04  0.50400001928E-02 0.  1.
    10030    2    1    2    0    0  0.00000000000E+00  0.00000000000E+00 -0.10635733972E+04  0.25224746676E+04  0.22872888050E+04 0.  0.
        3    1    3    3  502    0  0.39708840303E+02  0.55211541364E+03  0.57187096591E+03  0.79589235065E+03  0.10100000352E+00 0. -1.
       -3    1    3    3    0  502 -0.39708840303E+02 -0.55211541364E+03 -0.16354443631E+04  0.17265823169E+04  0.10100000352E+00 0.  1.
</event>
<event>
 5   0  0.3320780E-05  0.2403570E+04  0.7818609E-02  0.8438168E-01
        2   -1    0    0  501    0  0.00000000000E+00  0.00000000000E+00  0.85800010727E+03  0.85800010727E+03  0.25500000920E-02 0. -1.
       -2   -1    0    0    0  501  0.00000000000E+00  0.00000000000E+00 -0.16833187729E+04  0.16833187729E+04  0.25500000920E-02 0.  1.
    10030    2    1    2    0    0  0.00000000000E+00  0.00000000000E+00 -0.82531866566E+03  0.25413188802E+04  0.24035704173E+04 0.  0.
        5    1    3    3  502    0  0.42011556456E+03  0.35914062867E+03  0.71563776605E+03  0.90423369819E+03  0.46999998093E+01 0. -1.
       -5    1    3    3    0  502 -0.42011556456E+03 -0.35914062867E+03 -0.15409564317E+04  0.16370851820E+04  0.46999998093E+01 0.  1.
</event>
<event>
 5   0  0.3310037E-05  0.2389235E+04  0.7818609E-02  0.8443545E-01
        2   -1    0    0  501    0  0.00000000000E+00  0.00000000000E+00  0.12612605359E+04  0.12612605359E+04  0.25500000920E-02 0.  1.
       -2   -1    0    0    0  501  0.00000000000E+00  0.00000000000E+00 -0.11314956184E+04  0.11314956184E+04  0.25500000920E-02 0. -1.
    10030    2    1    2    0    0  0.00000000000E+00  0.00000000000E+00  0.12976491750E+03  0.23927561543E+04  0.23892348315E+04 0.  0.
        2    1    3    3  502    0  0.81852572856E+03  0.85904018246E+03 -0.73800394038E+02  0.11888569727E+04  0.25500000920E-02 0.  1.
       -2    1    3    3    0  502 -0.81852572856E+03 -0.85904018246E+03  0.20356531153E+03  0.12038991816E+04  0.25500000920E-02 0. -1.
</event>
<event>
 5   0  0.1407158E-05  0.2412313E+04  0.7818609E-02  0.8434908E-01
       -1   -1    0    0    0  501  0.00000000000E+00  0.00000000000E+00  0.13208274318E+04  0.13208274319E+04  0.50400001928E-02 0. -1.
        1   -1    0    0  501    0  0.00000000000E+00  0.00000000000E+00 -0.11014413656E+04  0.11014413656E+04  0.50400001928E-02 0.  1.
    10030    2    1    2    0    0  0.00000000000E+00  0.00000000000E+00  0.21938606623E+03  0.24222687975E+04  0.24123133878E+04 0.  0.
        1    1    3    3  502    0 -0.57362366289E+03  0.80657910664E+03 -0.58249936840E+03  0.11484421954E+04  0.50400001928E-02 0.  1.
       -1    1    3    3    0  502  0.57362366289E+03 -0.80657910664E+03  0.80188543464E+03  0.12738266021E+04  0.50400001928E-02 0. -1.
</event>
<event>
 5   0  0.3320780E-05  0.2363011E+04  0.7818609E-02  0.8453483E-01
        2   -1    0    0  501    0  0.00000000000E+00  0.00000000000E+00  0.72491316646E+03  0.72491316646E+03  0.25500000920E-02 0. -1.
       -2   -1    0    0    0  501  0.00000000000E+00  0.00000000000E+00 -0.19256864117E+04  0.19256864117E+04  0.25500000920E-02 0.  1.
    10030    2    1    2    0    0  0.00000000000E+00  0.00000000000E+00 -0.12007732453E+04  0.26505995782E+04  0.23630111590E+04 0.  0.
        5    1    3    3  502    0 -0.14345558599E+03 -0.14118604352E+03 -0.19063029488E+04  0.19169053254E+04  0.46999998093E+01 0.  1.
       -5    1    3    3    0  502  0.14345558599E+03  0.14118604352E+03  0.70552970351E+03  0.73369425279E+03  0.46999998093E+01 0. -1.
</event>
<event>
 5   0  0.3320780E-05  0.2404330E+04  0.7818609E-02  0.8437884E-01
        2   -1    0    0  501    0  0.00000000000E+00  0.00000000000E+00  0.12999882883E+04  0.12999882883E+04  0.25500000920E-02 0. -1.
       -2   -1    0    0    0  501  0.00000000000E+00  0.00000000000E+00 -0.11117026810E+04  0.11117026810E+04  0.25500000920E-02 0.  1.
    10030    2    1    2    0    0  0.00000000000E+00  0.00000000000E+00  0.18828560724E+03  0.24116909693E+04  0.24043298155E+04 0.  0.
        5    1    3    3  502    0  0.93395850444E+03  0.57491487230E+02 -0.66288277353E+03  0.11467429618E+04  0.46999998093E+01 0.  1.
       -5    1    3    3    0  502 -0.93395850444E+03 -0.57491487230E+02  0.85116838077E+03  0.12649480074E+04  0.46999998093E+01 0. -1.
</event>
<event>
 5   0  0.3347728E-05  0.2398953E+04  0.7818609E-02  0.8439896E-01
       -2   -1    0    0    0  501  0.00000000000E+00  0.00000000000E+00  0.57329370784E+03  0.57329370784E+03  0.25500000920E-02 0.  1.
        2   -1    0    0  501    0  0.00000000000E+00  0.00000000000E+00 -0.25096104629E+04  0.25096104629E+04  0.25500000920E-02 0. -1.
    10030    2    1    2    0    0  0.00000000000E+00  0.00000000000E+00 -0.19363167550E+04  0.30829041707E+04  0.23989530112E+04 0.  0.
        3    1    3    3  502    0 -0.11824119768E+03  0.39234184595E+02  0.56495703053E+03  0.57852982517E+03  0.10100000352E+00 0.  1.
       -3    1    3    3    0  502  0.11824119768E+03 -0.39234184595E+02 -0.25012737856E+04  0.25043743455E+04  0.10100000352E+00 0. -1.
</event>
<event>
 5   0  0.1401596E-05  0.2383648E+04  0.7818609E-02  0.8445651E-01
        1   -1    0    0  501    0  0.00000000000E+00  0.00000000000E+00  0.18925565554E+04  0.18925565554E+04  0.50400001928E-02 0.  1.
       -1   -1    0    0    0  501  0.00000000000E+00  0.00000000000E+00 -0.75054251872E+03  0.75054251874E+03  0.50400001928E-02 0. -1.
    10030    2    1    2    0    0  0.00000000000E+00  0.00000000000E+00  0.11420140366E+04  0.26430990741E+04  0.23836477625E+04 0.  0.
        2    1    3    3  502    0  0.60511941797E+03  0.93616899878E+03  0.10336527996E+03  0.11194937630E+04  0.25500000920E-02 0.  1.
       -2    1    3    3    0  502 -0.60511941797E+03 -0.93616899878E+03  0.10386487567E+04  0.15236053111E+04  0.25500000920E-02 0. -1.
</event>
<event>
 5   0  0.1434943E-05  0.2388696E+04  0.7818609E-02  0.8443748E-01
       -1   -1    0    0    0  501  0.00000000000E+00  0.00000000000E+00  0.95305883768E+03  0.95305883769E+03  0.50400001928E-02 0.  1.
        1   -1    0    0  501    0  0.00000000000E+00  0.00000000000E+00 -0.14967249974E+04  0.14967249974E+04  0.50400001928E-02 0. -1.
    10030    2    1    2    0    0  0.00000000000E+00  0.00000000000E+00 -0.54366615973E+03  0.24497838351E+04  0.23886958671E+04 0.  0.
        5    1    3    3  502    0 -0.19418877460E+03  0.43491406819E+03 -0.13950987518E+04  0.14741716807E+04  0.46999998093E+01 0. -1.
       -5    1    3    3    0  502  0.19418877460E+03 -0.43491406819E+03  0.85143259210E+03  0.97561215439E+03  0.46999998093E+01 0.  1.
</event>
<event>
 5   0  0.3310037E-05  0.2391092E+04  0.7818609E-02  0.8442846E-01
       -2   -1    0    0    0  501  0.00000000000E+00  0.00000000000E+00  0.12233661732E+04  0.12233661732E+04  0.25500000920E-02 0.  1.
        2   -1    0    0  501    0  0.00000000000E+00  0.00000000000E+00 -0.11683588639E+04  0.11683588640E+04  0.25500000920E-02 0. -1.
    10030    2    1    2    0    0  0.00000000000E+00  0.00000000000E+00  0.55007309249E+02  0.23917250371E+04  0.23910923966E+04 0.  0.
        2    1    3    3  502    0  0.54020600629E+03  0.10409372574E+04 -0.20484600775E+03  0.11905187062E+04  0.25500000920E-02 0. -1.
       -2    1    3    3    0  502 -0.54020600629E+03 -0.10409372574E+04  0.25985331700E+03  0.12012063309E+04  0.25500000920E-02 0.  1.
</event>
<event>
 5   0  0.3215208E-05  0.2405207E+04  0.7818609E-02  0.8437557E-01
       -2   -1    0    0    0  501  0.00000000000E+00  0.00000000000E+00  0.52460527991E+03  0.52460527991E+03  0.25500000920E-02 0.  1.
        2   -1    0    0  501    0  0.00000000000E+00  0.00000000000E+00 -0.27568451517E+04  0.27568451517E+04  0.25500000920E-02 0. -1.
    10030    2    1    2    0    0  0.00000000000E+00  0.00000000000E+00 -0.22322398718E+04  0.32814504316E+04  0.24052072863E+04 0.  0.
        1    1    3    3  502    0  0.62188351883E+03  0.64622195597E+03 -0.23040750721E+02  0.89714703566E+03  0.50400001928E-02 0.  1.
       -1    1    3    3    0  502 -0.62188351883E+03 -0.64622195597E+03 -0.22091991211E+04  0.23843033960E+04  0.50400001928E-02 0. -1.
</event>
<event>
 5   0  0.1401596E-05  0.2410014E+04  0.7818609E-02  0.8435764E-01
        1   -1    0    0  501    0  0.00000000000E+00  0.00000000000E+00  0.14742829282E+04  0.14742829282E+04  0.50400001928E-02 0.  1.
       -1   -1    0    0    0  501  0.00000000000E+00  0.00000000000E+00 -0.98491435611E+03  0.98491435613E+03  0.50400001928E-02 0. -1.
    10030    2    1    2    0    0  0.00000000000E+00  0.00000000000E+00  0.48936857211E+03  0.24591972844E+04  0.24100144572E+04 0.  0.
        2    1    3    3  502    0 -0.84655365059E+03  0.85599765481E+03  0.29728580885E+03  0.12400660952E+04  0.25500000920E-02 0.  1.
       -2    1    3    3    0  502  0.84655365059E+03 -0.85599765481E+03  0.19208276326E+03  0.12191311891E+04  0.25500000920E-02 0. -1.
</event>
<event>
 5   0  0.1506985E-05  0.2445724E+04  0.7818609E-02  0.8422581E-01
        1   -1    0    0  501    0  0.00000000000E+00  0.00000000000E+00  0.15510687566E+04  0.15510687566E+04  0.50400001928E-02 0. -1.
       -1   -1    0    0    0  501  0.00000000000E+00  0.00000000000E+00 -0.96410356457E+03  0.96410356459E+03  0.50400001928E-02 0.  1.
    10030    2    1    2    0    0  0.00000000000E+00  0.00000000000E+00  0.58696519199E+03  0.25151723212E+04  0.24457235470E+04 0.  0.
        3    1    3    3  502    0  0.58240834969E+03 -0.10752401422E+04  0.28620654434E+03  0.12558881501E+04  0.10100000352E+00 0.  1.
       -3    1    3    3    0  502 -0.58240834969E+03  0.10752401422E+04  0.30075864764E+03  0.12592841711E+04  0.10100000352E+00 0. -1.
</event>
<event>
 5   0  0.3310037E-05  0.2495581E+04  0.7818609E-02  0.8404562E-01
        2   -1    0    0  501    0  0.00000000000E+00  0.00000000000E+00  0.10975916403E+04  0.10975916403E+04  0.25500000920E-02 0.  1.
       -2   -1    0    0    0  501  0.00000000000E+00  0.00000000000E+00 -0.14185426619E+04  0.14185426619E+04  0.25500000920E-02 0. -1.
    10030    2    1    2    0    0  0.00000000000E+00  0.00000000000E+00 -0.32095102159E+03  0.25161343023E+04  0.24955805475E+04 0.  0.
        2    1    3    3  502    0  0.49847642206E+03 -0.31651319962E+03  0.94781452242E+03  0.11166967887E+04  0.25500000920E-02 0.  1.
       -2    1    3    3    0  502 -0.49847642206E+03  0.31651319962E+03 -0.12687655440E+04  0.13994375136E+04  0.25500000920E-02 0. -1.
</event>
<event>
 5   0  0.1407158E-05  0.2176574E+04  0.7818609E-02  0.8528242E-01
        1   -1    0    0  501    0  0.00000000000E+00  0.00000000000E+00  0.11136916626E+04  0.11136916626E+04  0.50400001928E-02 0. -1.
       -1   -1    0    0    0  501  0.00000000000E+00  0.00000000000E+00 -0.10634617680E+04  0.10634617680E+04  0.50400001928E-02 0.  1.
    10030    2    1    2    0    0  0.00000000000E+00  0.00000000000E+00  0.50229894577E+02  0.21771534306E+04  0.21765739174E+04 0.  0.
        1    1    3    3  502    0 -0.52165875116E+03 -0.54360859262E+03  0.81064585227E+03  0.11066999830E+04  0.50400001928E-02 0. -1.
       -1    1    3    3    0  502  0.52165875116E+03  0.54360859262E+03 -0.76041595769E+03  0.10704534475E+04  0.50400001928E-02 0.  1.
</event>
<event>
 5   0  0.1407158E-05  0.2388895E+04  0.7818609E-02  0.8443673E-01
        1   -1    0    0  501    0  0.00000000000E+00  0.00000000000E+00  0.19889672600E+04  0.19889672600E+04  0.50400001928E-02 0. -1.
       -1   -1    0    0    0  501  0.00000000000E+00  0.00000000000E+00 -0.71730963336E+03  0.71730963338E+03  0.50400001928E-02 0.  1.
    10030    2    1    2    0    0  0.00000000000E+00  0.00000000000E+00  0.12716576267E+04  0.27062768934E+04  0.23888954570E+04 0.  0.
        1    1    3    3  502    0  0.10588049934E+04 -0.19099861415E+03  0.48098843684E+02  0.10769688869E+04  0.50400001928E-02 0.  1.
       -1    1    3    3    0  502 -0.10588049934E+04  0.19099861415E+03  0.12235587830E+04  0.16293080065E+04  0.50400001928E-02 0. -1.
</event>
<event>
 5   0  0.1401596E-05  0.2396176E+04  0.7818609E-02  0.8440936E-01
       -1   -1    0    0    0  501  0.00000000000E+00  0.00000000000E+00  0.10373771389E+04  0.10373771389E+04  0.50400001928E-02 0. -1.
        1   -1    0    0  501    0  0.00000000000E+00  0.00000000000E+00 -0.13836965308E+04  0.13836965308E+04  0.50400001928E-02 0.  1.
    10030    2    1    2    0    0  0.00000000000E+00  0.00000000000E+00 -0.34631939190E+03  0.24210736697E+04  0.23961762441E+04 0.  0.
        2    1    3    3  502    0 -0.37709118331E+03  0.19522732596E+03 -0.13051143975E+04  0.13724558498E+04  0.25500000920E-02 0.  1.
       -2    1    3    3    0  502  0.37709118331E+03 -0.19522732596E+03  0.95879500556E+03  0.10486178198E+04  0.25500000920E-02 0. -1.
</event>
<event>
 5   0  0.3345974E-05  0.2324269E+04  0.7818609E-02  0.8468413E-01
        2   -1    0    0  501    0  0.00000000000E+00  0.00000000000E+00  0.16661577623E+04  0.16661577623E+04  0.25500000920E-02 0.  1.
       -2   -1    0    0    0  501  0.00000000000E+00  0.00000000000E+00 -0.81058157064E+03  0.81058157065E+03  0.25500000920E-02 0. -1.
    10030    2    1    2    0    0  0.00000000000E+00  0.00000000000E+00  0.85557619166E+03  0.24767393330E+04  0.23242691547E+04 0.  0.
        4    1    3    3  502    0 -0.20871319356E+03 -0.78097384405E+03  0.13174669508E+04  0.15457044096E+04  0.12699999809E+01 0.  1.
       -4    1    3    3    0  502  0.20871319356E+03  0.78097384405E+03 -0.46189075919E+03  0.93103492339E+03  0.12699999809E+01 0. -1.
</event>
<event>
 5   0  0.3320780E-05  0.2398515E+04  0.7818609E-02  0.8440060E-01
       -2   -1    0    0    0  501  0.00000000000E+00  0.00000000000E+00  0.88788322757E+03  0.88788322757E+03  0.25500000920E-02 0.  1.
        2   -1    0    0  501    0  0.00000000000E+00  0.00000000000E+00 -0.16198285786E+04  0.16198285786E+04  0.25500000920E-02 0. -1.
    10030    2    1    2    0    0  0.00000000000E+00  0.00000000000E+00 -0.73194535103E+03  0.25077118062E+04  0.23985150627E+04 0.  0.
        5    1    3    3  502    0 -0.30265146676E+03  0.10150428966E+04  0.22202489614E+03  0.10822324781E+04  0.46999998093E+01 0.  1.
       -5    1    3    3    0  502  0.30265146676E+03 -0.10150428966E+04 -0.95397024717E+03  0.14254793280E+04  0.46999998093E+01 0. -1.
</event>
<event>
 5   0  0.3345974E-05  0.2396652E+04  0.7818609E-02  0.8440758E-01
        2   -1    0    0  501    0  0.00000000000E+00  0.00000000000E+00  0.98461505571E+03  0.98461505571E+03  0.25500000920E-02 0.  1.
       -2   -1    0    0    0  501  0.00000000000E+00  0.00000000000E+00 -0.14584224913E+04  0.14584224913E+04  0.25500000920E-02 0. -1.
    10030    2    1    2    0    0  0.00000000000E+00  0.00000000000E+00 -0.47380743561E+03  0.24430375470E+04  0.23966516164E+04 0.  0.
        4    1    3    3  502    0 -0.91452705531E+03  0.73528023288E+03 -0.48447546573E+03  0.12695333180E+04  0.12699999809E+01 0. -1.
       -4    1    3    3    0  502  0.91452705531E+03 -0.73528023288E+03  0.10668030119E+02  0.11735042290E+04  0.12699999809E+01 0.  1.
</event>
<event>
 5   0  0.3215208E-05  0.2483291E+04  0.7818609E-02  0.8408962E-01
       -2   -1    0    0    0  501  0.00000000000E+00  0.00000000000E+00  0.10502397599E+04  0.10502397599E+04  0.25500000920E-02 0. -1.
        2   -1    0    0  501    0  0.00000000000E+00  0.00000000000E+00 -0.14679348633E+04  0.14679348633E+04  0.25500000920E-02 0.  1.
    10030    2    1    2    0    0  0.00000000000E+00  0.00000000000E+00 -0.41769510338E+03  0.25181746232E+04  0.24832910086E+04 0.  0.
        1    1    3    3  502    0 -0.23725918556E+03  0.89071801414E+03 -0.10524063729E+04  0.13990102485E+04  0.50400001928E-02 0.  1.
       -1    1    3    3    0  502  0.23725918556E+03 -0.89071801414E+03  0.63471126950E+03  0.11191643747E+04  0.50400001928E-02 0. -1.
</event>
<event>
 5   0  0.3320780E-05  0.2392828E+04  0.7818609E-02  0.8442194E-01
       -2   -1    0    0    0  501  0.00000000000E+00  0.00000000000E+00  0.61130528868E+03  0.61130528869E+03  0.25500000920E-02 0.  1.
        2   -1    0    0  501    0  0.00000000000E+00  0.00000000000E+00 -0.23415570143E+04  0.23415570143E+04  0.25500000920E-02 0. -1.
    10030    2    1    2    0    0  0.00000000000E+00  0.00000000000E+00 -0.17302517256E+04  0.29528623030E+04  0.23928277720E+04 0.  0.
        5    1    3    3  502    0  0.53651718472E+03 -0.95931135534E+03 -0.28204004412E+03  0.11347676601E+04  0.46999998093E+01 0. -1.
       -5    1    3    3    0  502 -0.53651718472E+03  0.95931135534E+03 -0.14482116815E+04  0.18180946428E+04  0.46999998093E+01 0.  1.
</event>
<event>
 5   0  0.3347728E-05  0.2426693E+04  0.7818609E-02  0.8429577E-01
       -2   -1    0    0    0  501  0.00000000000E+00  0.00000000000E+00  0.96344199299E+03  0.96344199300E+03  0.25500000920E-02 0.  1.
        2   -1    0    0  501    0  0.00000000000E+00  0.00000000000E+00 -0.15280724369E+04  0.15280724369E+04  0.25500000920E-02 0. -1.
    10030    2    1    2    0    0  0.00000000000E+00  0.00000000000E+00 -0.56463044392E+03  0.24915144299E+04  0.24266925261E+04 0.  0.
        3    1    3    3  502    0 -0.77128964648E+03  0.19108071566E+03 -0.12237657020E+04  0.14591100240E+04  0.10100000352E+00 0. -1.
       -3    1    3    3    0  502  0.77128964648E+03 -0.19108071566E+03  0.65913525807E+03  0.10324044059E+04  0.10100000352E+00 0.  1.
</event>
<event>
 5   0  0.3345974E-05  0.2408355E+04  0.7818609E-02  0.8436382E-01
        2   -1    0    0  501    0  0.00000000000E+00  0.00000000000E+00  0.20201771280E+04  0.20201771280E+04  0.25500000920E-02 0. -1.
       -2   -1    0    0    0  501  0.00000000000E+00  0.00000000000E+00 -0.71778030374E+03  0.71778030374E+03  0.25500000920E-02 0.  1.
    10030    2    1    2    0    0  0.00000000000E+00  0.00000000000E+00  0.13023968243E+04  0.27379574318E+04  0.24083549178E+04 0.  0.
        4    1    3    3  502    0  0.85400094815E+03 -0.84106359109E+03  0.51991146935E+03  0.13065278920E+04  0.12699999809E+01 0.  1.
       -4    1    3    3    0  502 -0.85400094815E+03  0.84106359109E+03  0.78248535493E+03  0.14314295398E+04  0.12699999809E+01 0. -1.
</event>
<event>
 5   0  0.1506985E-05  0.2381456E+04  0.7818609E-02  0.8446479E-01
        1   -1    0    0  501    0  0.00000000000E+00  0.00000000000E+00  0.17682727172E+04  0.17682727172E+04  0.50400001928E-02 0.  1.
       -1   -1    0    0    0  501  0.00000000000E+00  0.00000000000E+00 -0.80181842914E+03  0.80181842916E+03  0.50400001928E-02 0. -1.
    10030    2    1    2    0    0  0.00000000000E+00  0.00000000000E+00  0.96645428808E+03  0.25700911464E+04  0.23814564052E+04 0.  0.
        3    1    3    3  502    0 -0.68252484708E+03 -0.95607565869E+03  0.27309190989E+03  0.12060265476E+04  0.10100000352E+00 0. -1.
       -3    1    3    3    0  502  0.68252484708E+03  0.95607565869E+03  0.69336237819E+03  0.13640645988E+04  0.10100000352E+00 0.  1.
</event>
<event>
 5   0  0.1401596E-05  0.2268136E+04  0.7818609E-02  0.8490592E-01
        1   -1    0    0  501    0  0.00000000000E+00  0.00000000000E+00  0.12948282317E+04  0.12948282317E+04  0.50400001928E-02 0. -1.
       -1   -1    0    0    0  501  0.00000000000E+00  0.00000000000E+00 -0.99326699531E+03  0.99326699532E+03  0.50400001928E-02 0.  1.
    10030    2    1    2    0    0  0.00000000000E+00  0.00000000000E+00  0.30156123637E+03  0.22880952270E+04  0.22681359282E+04 0.  0.
        2    1    3    3  502    0 -0.35341247800E+03  0.10218438527E+04  0.49590948061E+03  0.11895341323E+04  0.25500000920E-02 0. -1.
       -2    1    3    3    0  502  0.35341247800E+03 -0.10218438527E+04 -0.19434824424E+03  0.10985610947E+04  0.25500000920E-02 0.  1.
</event>
<event>
 5   0  0.1434943E-05  0.2390740E+04  0.7818609E-02  0.8442978E-01
       -1   -1    0    0    0  501  0.00000000000E+00  0.00000000000E+00  0.10948042093E+04  0.10948042093E+04  0.50400001928E-02 0. -1.
        1   -1    0    0  501    0  0.00000000000E+00  0.00000000000E+00 -0.13051739228E+04  0.13051739228E+04  0.50400001928E-02 0.  1.
    10030    2    1    2    0    0  0.00000000000E+00  0.00000000000E+00 -0.21036971354E+03  0.23999781322E+04  0.23907403913E+04 0.  0.
        5    1    3    3  502    0 -0.49281005230E+03  0.80424286300E+03 -0.84233788501E+03  0.12646041012E+04  0.46999998093E+01 0.  1.
       -5    1    3    3    0  502  0.49281005230E+03 -0.80424286300E+03  0.63196817147E+03  0.11353740309E+04  0.46999998093E+01 0. -1.
</event>
<event>
 5   0  0.3345974E-05  0.2393917E+04  0.7818609E-02  0.8441785E-01
        2   -1    0    0  501    0  0.00000000000E+00  0.00000000000E+00  0.16357357553E+04  0.16357357553E+04  0.25500000920E-02 0.  1.
       -2   -1    0    0    0  501  0.00000000000E+00  0.00000000000E+00 -0.87588072403E+03  0.87588072403E+03  0.25500000920E-02 0. -1.
    10030    2    1    2    0    0  0.00000000000E+00  0.00000000000E+00  0.75985503131E+03  0.25116164794E+04  0.23939168053E+04 0.  0.
        4    1    3    3  502    0  0.17065255010E+03 -0.18070957399E+03 -0.84850652104E+03  0.88416241275E+03  0.12699999809E+01 0. -1.
       -4    1    3    3    0  502 -0.17065255010E+03  0.18070957399E+03  0.16083615523E+04  0.16274540666E+04  0.12699999809E+01 0.  1.
</event>
<event>
 5   0  0.1407158E-05  0.2280786E+04  0.7818609E-02  0.8485535E-01
       -1   -1    0    0    0  501  0.00000000000E+00  0.00000000000E+00  0.59582193118E+03  0.59582193120E+03  0.50400001928E-02 0. -1.
        1   -1    0    0  501    0  0.00000000000E+00  0.00000000000E+00 -0.21826936385E+04  0.21826936385E+04  0.50400001928E-02 0.  1.
    10030    2    1    2    0    0  0.00000000000E+00  0.00000000000E+00 -0.15868717073E+04  0.27785155697E+04  0.22807864774E+04 0.  0.
        1    1    3    3  502    0  0.10696662961E+03 -0.39240299024E+03  0.50446178109E+03  0.64799973395E+03  0.50400001928E-02 0. -1.
       -1    1    3    3    0  502 -0.10696662961E+03  0.39240299024E+03 -0.20913334884E+04  0.21305158358E+04  0.50400001928E-02 0.  1.
</event>
<event>
 5   0  0.1434943E-05  0.2379049E+04  0.7818609E-02  0.8447389E-01
       -1   -1    0    0    0  501  0.00000000000E+00  0.00000000000E+00  0.78134628535E+03  0.78134628537E+03  0.50400001928E-02 0. -1.
        1   -1    0    0  501    0  0.00000000000E+00  0.00000000000E+00 -0.18109372207E+04  0.18109372207E+04  0.50400001928E-02 0.  1.
    10030    2    1    2    0    0  0.00000000000E+00  0.00000000000E+00 -0.10295909353E+04  0.25922835060E+04  0.23790494492E+04 0.  0.
        5    1    3    3  502    0  0.10768974247E+04  0.12435224782E+03  0.18762207801E+02  0.10842258322E+04  0.46999998093E+01 0. -1.
       -5    1    3    3    0  502 -0.10768974247E+04 -0.12435224782E+03 -0.10483531431E+04  0.15080576738E+04  0.46999998093E+01 0.  1.
</event>
<event>
 5   0  0.1407158E-05  0.2382706E+04  0.7818609E-02  0.8446007E-01
        1   -1    0    0  501    0  0.00000000000E+00  0.00000000000E+00  0.13722678087E+04  0.13722678087E+04  0.50400001928E-02 0. -1.
       -1   -1    0    0    0  501  0.00000000000E+00  0.00000000000E+00 -0.10342893110E+04  0.10342893110E+04  0.50400001928E-02 0.  1.
    10030    2    1    2    0    0  0.00000000000E+00  0.00000000000E+00  0.33797849771E+03  0.24065571198E+04  0.23827059629E+04 0.  0.
        1    1    3    3  502    0 -0.30840579363E+02 -0.47693067903E+03  0.12712004313E+04  0.13580738384E+04  0.50400001928E-02 0. -1.
       -1    1    3    3    0  502  0.30840579363E+02  0.47693067903E+03 -0.93322193360E+03  0.10484832814E+04  0.50400001928E-02 0.  1.
</event>
<event>
 5   0  0.1401596E-05  0.2397614E+04  0.7818609E-02  0.8440398E-01
        1   -1    0    0  501    0  0.00000000000E+00  0.00000000000E+00  0.26300571172E+04  0.26300571172E+04  0.50400001928E-02 0. -1.
       -1   -1    0    0    0  501  0.00000000000E+00  0.00000000000E+00 -0.54642831672E+03  0.54642831674E+03  0.50400001928E-02 0.  1.
    10030    2    1    2    0    0  0.00000000000E+00  0.00000000000E+00  0.20836288005E+04  0.31764854340E+04  0.23976135498E+04 0.  0.
        2    1    3    3  502    0 -0.58703981458E+03  0.14966021944E+03 -0.32870342032E+03  0.68924586594E+03  0.25500000920E-02 0.  1.
       -2    1    3    3    0  502  0.58703981458E+03 -0.14966021944E+03  0.24123322208E+04  0.24872395680E+04  0.25500000920E-02 0. -1.
</event>
<event>
 5   0  0.3320780E-05  0.2438741E+04  0.7818609E-02  0.8425140E-01
        2   -1    0    0  501    0  0.00000000000E+00  0.00000000000E+00  0.15803171961E+04  0.15803171961E+04  0.25500000920E-02 0. -1.
       -2   -1    0    0    0  501  0.00000000000E+00  0.00000000000E+00 -0.94086446221E+03  0.94086446221E+03  0.25500000920E-02 0.  1.
    10030    2    1    2    0    0  0.00000000000E+00  0.00000000000E+00  0.63945273387E+03  0.25211816583E+04  0.24387408955E+04 0.  0.
        5    1    3    3  502    0  0.12085834120E+04 -0.37781341107E+02  0.15711673358E+03  0.12193477976E+04  0.46999998093E+01 0. -1.
       -5    1    3    3    0  502 -0.12085834120E+04  0.37781341107E+02  0.48233600030E+03  0.13018338607E+04  0.46999998093E+01 0.  1.
</event>
<event>
 5   0  0.3345974E-05  0.2238296E+04  0.7818609E-02  0.8502655E-01
        2   -1    0    0  501    0  0.00000000000E+00  0.00000000000E+00  0.25379605914E+04  0.25379605914E+04  0.25500000920E-02 0.  1.
       -2   -1    0    0    0  501  0.00000000000E+00  0.00000000000E+00 -0.49350337112E+03  0.49350337113E+03  0.25500000920E-02 0. -1.
    10030    2    1    2    0    0  0.00000000000E+00  0.00000000000E+00  0.20444572203E+04  0.30314639626E+04  0.22382958765E+04 0.  0.
        4    1    3    3  502    0  0.26808886504E+03 -0.10110037902E+04  0.15614115101E+04  0.18793636743E+04  0.12699999809E+01 0.  1.
       -4    1    3    3    0  502 -0.26808886504E+03  0.10110037902E+04  0.48304571018E+03  0.11521002883E+04  0.12699999809E+01 0. -1.
</event>
<event>
 5   0  0.1506985E-05  0.2353977E+04  0.7818609E-02  0.8456938E-01
       -1   -1    0    0    0  501  0.00000000000E+00  0.00000000000E+00  0.11463453864E+04  0.11463453864E+04  0.50400001928E-02 0.  1.
        1   -1    0    0  501    0  0.00000000000E+00  0.00000000000E+00 -0.12084503540E+04  0.12084503540E+04  0.50400001928E-02 0. -1.
    10030    2    1    2    0    0  0.00000000000E+00  0.00000000000E+00 -0.62104967594E+02  0.23547957405E+04  0.23539766253E+04 0.  0.
        3    1    3    3  502    0  0.97734117599E+03  0.27034686002E+03 -0.62877046581E+03  0.11931619789E+04  0.10100000352E+00 0. -1.
       -3    1    3    3    0  502 -0.97734117599E+03 -0.27034686002E+03  0.56666549822E+03  0.11616337616E+04  0.10100000352E+00 0.  1.
</event>
<event>
 5   0  0.1401596E-05  0.2409548E+04  0.7818609E-02  0.8435938E-01
       -1   -1    0    0    0  501  0.00000000000E+00  0.00000000000E+00  0.92888643212E+03  0.92888643213E+03  0.50400001928E-02 0.  1.
        1   -1    0    0  501    0  0.00000000000E+00  0.00000000000E+00 -0.15626026632E+04  0.15626026632E+04  0.50400001928E-02 0. -1.
    10030    2    1    2    0    0  0.00000000000E+00  0.00000000000E+00 -0.63371623109E+03  0.24914890953E+04  0.24095480179E+04 0.  0.
        2    1    3    3  502    0 -0.92528050469E+02 -0.67915700348E+03  0.70762546108E+03  0.98516469115E+03  0.25500000920E-02 0.  1.
       -2    1    3    3    0  502  0.92528050469E+02  0.67915700348E+03 -0.13413416922E+04  0.15063244042E+04  0.25500000920E-02 0. -1.
</event>
<event>
 5   0  0.3345974E-05  0.2392268E+04  0.7818609E-02  0.8442404E-01
       -2   -1    0    0    0  501  0.00000000000E+00  0.00000000000E+00  0.69733257347E+03  0.69733257347E+03  0.25500000920E-02 0.  1.
        2   -1    0    0  501    0  0.00000000000E+00  0.00000000000E+00 -0.20517274930E+04  0.20517274930E+04  0.25500000920E-02 0. -1.
    10030    2    1    2    0    0  0.00000000000E+00  0.00000000000E+00 -0.13543949196E+04  0.27490600665E+04  0.23922678887E+04 0.  0.
        4    1    3    3  502    0  0.50535243184E+03  0.19797525600E+03  0.54768403609E+03  0.77106076196E+03  0.12699999809E+01 0.  1.
       -4    1    3    3    0  502 -0.50535243184E+03 -0.19797525600E+03 -0.19020789557E+04  0.19779993045E+04  0.12699999809E+01 0. -1.
</event>
<event>
 5   0  0.1407158E-05  0.2339608E+04  0.7818609E-02  0.8462466E-01
       -1   -1    0    0    0  501  0.00000000000E+00  0.00000000000E+00  0.90078260084E+03  0.90078260085E+03  0.50400001928E-02 0. -1.
        1   -1    0    0  501    0  0.00000000000E+00  0.00000000000E+00 -0.15191699582E+04  0.15191699582E+04  0.50400001928E-02 0.  1.
    10030    2    1    2    0    0  0.00000000000E+00  0.00000000000E+00 -0.61838735736E+03  0.24199525590E+04  0.23396083998E+04 0.  0.
        1    1    3    3  502    0  0.77814139459E+02 -0.44208710175E+03  0.80815578943E+03  0.92445217607E+03  0.50400001928E-02 0. -1.
       -1    1    3    3    0  502 -0.77814139459E+02  0.44208710175E+03 -0.14265431468E+04  0.14955003830E+04  0.50400001928E-02 0.  1.
</event>
<event>
 5   0  0.3215208E-05  0.2325565E+04  0.7818609E-02  0.8467909E-01
       -2   -1    0    0    0  501  0.00000000000E+00  0.00000000000E+00  0.14643725352E+04  0.14643725352E+04  0.25500000920E-02 0.  1.
        2   -1    0    0  501    0  0.00000000000E+00  0.00000000000E+00 -0.92330553117E+03  0.92330553117E+03  0.25500000920E-02 0. -1.
    10030    2    1    2    0    0  0.00000000000E+00  0.00000000000E+00  0.54106700403E+03  0.23876780664E+04  0.23255651025E+04 0.  0.
        1    1    3    3  502    0 -0.11691684227E+03  0.96288222456E+03  0.92895049983E+03  0.13430416068E+04  0.50400001928E-02 0.  1.
       -1    1    3    3    0  502  0.11691684227E+03 -0.96288222456E+03 -0.38788349580E+03  0.10446364596E+04  0.50400001928E-02 0. -1.
</event>
<event>
 5   0  0.1407158E-05  0.2400830E+04  0.7818609E-02  0.8439193E-01
        1   -1    0    0  501    0  0.00000000000E+00  0.00000000000E+00  0.16751552934E+04  0.16751552934E+04  0.50400001928E-02 0. -1.
       -1   -1    0    0    0  501  0.00000000000E+00  0.00000000000E+00 -0.86021647519E+03  0.86021647521E+03  0.50400001928E-02 0.  1.
    10030    2    1    2    0    0  0.00000000000E+00  0.00000000000E+00  0.81493881820E+03  0.25353717686E+04  0.24008300081E+04 0.  0.
        1    1    3    3  502    0 -0.57224453393E+03  0.88652781834E+03  0.10119087425E+04  0.14619694533E+04  0.50400001928E-02 0. -1.
       -1    1    3    3    0  502  0.57224453393E+03 -0.88652781834E+03 -0.19696992432E+03  0.10734023153E+04  0.50400001928E-02 0.  1.
</event>
<event>
 5   0  0.1407158E-05  0.2385194E+04  0.7818609E-02  0.8445068E-01
        1   -1    0    0  501    0  0.00000000000E+00  0.00000000000E+00  0.17302516657E+04  0.17302516657E+04  0.50400001928E-02 0. -1.
       -1   -1    0    0    0  501  0.00000000000E+00  0.00000000000E+00 -0.82201178810E+03  0.82201178812E+03  0.50400001928E-02 0.  1.
    10030    2    1    2    0    0  0.00000000000E+00  0.00000000000E+00  0.90823987763E+03  0.25522634538E+04  0.23851937159E+04 0.  0.
        1    1    3    3  502    0  0.64826226118E+03 -0.33511568397E+02  0.15246567118E+04  0.16570893378E+04  0.50400001928E-02 0. -1.
       -1    1    3    3    0  502 -0.64826226118E+03  0.33511568397E+02 -0.61641683422E+03  0.89517411604E+03  0.50400001928E-02 0.  1.
</event>
<event>
 5   0  0.3347728E-05  0.2370113E+04  0.7818609E-02  0.8450778E-01
       -2   -1    0    0    0  501  0.00000000000E+00  0.00000000000E+00  0.10533384669E+04  0.10533384669E+04  0.25500000920E-02 0.  1.
        2   -1    0    0  501    0  0.00000000000E+00  0.00000000000E+00 -0.13332459957E+04  0.13332459958E+04  0.25500000920E-02 0. -1.
    10030    2    1    2    0    0  0.00000000000E+00  0.00000000000E+00 -0.27990752887E+03  0.23865844626E+04  0.23701133248E+04 0.  0.
        3    1    3    3  502    0 -0.44016362164E+03  0.10527849796E+04 -0.46195577704E+03  0.12310578286E+04  0.10100000352E+00 0. -1.
       -3    1    3    3    0  502  0.44016362164E+03 -0.10527849796E+04  0.18204824817E+03  0.11555266341E+04  0.10100000352E+00 0.  1.
</event>
<event>
 5   0  0.1434943E-05  0.2403777E+04  0.7818609E-02  0.8438091E-01
        1   -1    0    0  501    0  0.00000000000E+00  0.00000000000E+00  0.94633918588E+03  0.94633918589E+03  0.50400001928E-02 0.  1.
       -1   -1    0    0    0  501  0.00000000000E+00  0.00000000000E+00 -0.15264457097E+04  0.15264457097E+04  0.50400001928E-02 0. -1.
    10030    2    1    2    0    0  0.00000000000E+00  0.00000000000E+00 -0.58010652379E+03  0.24727848956E+04  0.24037765206E+04 0.  0.
        5    1    3    3  502    0  0.49409023265E+03  0.86798660050E+02 -0.14135864889E+04  0.14999693387E+04  0.46999998093E+01 0. -1.
       -5    1    3    3    0  502 -0.49409023265E+03 -0.86798660050E+02  0.83347996514E+03  0.97281555686E+03  0.46999998093E+01 0.  1.
</event>
<event>
 5   0  0.3347728E-05  0.2388211E+04  0.7818609E-02  0.8443930E-01
        2   -1    0    0  501    0  0.00000000000E+00  0.00000000000E+00  0.12616734226E+04  0.12616734226E+04  0.25500000920E-02 0. -1.
       -2   -1    0    0    0  501  0.00000000000E+00  0.00000000000E+00 -0.11301565511E+04  0.11301565511E+04  0.25500000920E-02 0.  1.
    10030    2    1    2    0    0  0.00000000000E+00  0.00000000000E+00  0.13151687156E+03  0.23918299737E+04  0.23882114512E+04 0.  0.
        3    1    3    3  502    0 -0.81599609362E+02  0.66289646676E+02  0.12570293173E+04  0.12614180624E+04  0.10100000352E+00 0. -1.
       -3    1    3    3    0  502  0.81599609362E+02 -0.66289646676E+02 -0.11255124457E+04  0.11304119113E+04  0.10100000352E+00 0.  1.
</event>
<event>
 5   0  0.3345974E-05  0.2336288E+04  0.7818609E-02  0.8463749E-01
       -2   -1    0    0    0  501  0.00000000000E+00  0.00000000000E+00  0.74466144990E+03  0.74466144990E+03  0.25500000920E-02 0.  1.
        2   -1    0    0  501    0  0.00000000000E+00  0.00000000000E+00 -0.18324575475E+04  0.18324575475E+04  0.25500000920E-02 0. -1.
    10030    2    1    2    0    0  0.00000000000E+00  0.00000000000E+00 -0.10877960976E+04  0.25771189974E+04  0.23362880766E+04 0.  0.
        4    1    3    3  502    0  0.11228412853E+04  0.27618315966E+03 -0.36094190648E+03  0.12113341250E+04  0.12699999809E+01 0. -1.
       -4    1    3    3    0  502 -0.11228412853E+04 -0.27618315966E+03 -0.72685419114E+03  0.13657848724E+04  0.12699999809E+01 0.  1.
</event>
<event>
 5   0  0.3347728E-05  0.2410973E+04  0.7818609E-02  0.8435407E-01
        2   -1    0    0  501    0  0.00000000000E+00  0.00000000000E+00  0.22004755875E+04  0.22004755875E+04  0.25500000920E-02 0. -1.
       -2   -1    0    0    0  501  0.00000000000E+00  0.00000000000E+00 -0.66040157054E+03  0.66040157055E+03  0.25500000920E-02 0.  1.
    10030    2    1    2    0    0  0.00000000000E+00  0.00000000000E+00  0.15400740170E+04  0.28608771581E+04  0.24109728609E+04 0.  0.
        3    1    3    3  502    0 -0.81211152452E+03  0.37931558575E+03  0.17265570982E+04  0.19453546889E+04  0.10100000352E+00 0.  1.
       -3    1    3    3    0  502  0.81211152452E+03 -0.37931558575E+03 -0.18648308124E+03  0.91552246921E+03  0.10100000352E+00 0. -1.
</event>
<event>
 5   0  0.3215208E-05  0.2295280E+04  0.7818609E-02  0.8479785E-01
        2   -1    0    0  501    0  0.00000000000E+00  0.00000000000E+00  0.18212155578E+04  0.18212155578E+04  0.25500000920E-02 0. -1.
       -2   -1    0    0    0  501  0.00000000000E+00  0.00000000000E+00 -0.72318590810E+03  0.72318590810E+03  0.25500000920E-02 0.  1.
    10030    2    1    2    0    0  0.00000000000E+00  0.00000000000E+00  0.10980296497E+04  0.25444014659E+04  0.22952798757E+04 0.  0.
        1    1    3    3  502    0 -0.81027608024E+03 -0.19049265412E+03 -0.32682906947E+03  0.89423264208E+03  0.50400001928E-02 0.  1.
       -1    1    3    3    0  502  0.81027608024E+03  0.19049265412E+03  0.14248587191E+04  0.16501688238E+04  0.50400001928E-02 0. -1.
</event>
<event>
 5   0  0.1401596E-05  0.2393265E+04  0.7818609E-02  0.8442029E-01
        1   -1    0    0  501    0  0.00000000000E+00  0.00000000000E+00  0.12320846513E+04  0.12320846514E+04  0.50400001928E-02 0.  1.
       -1   -1    0    0    0  501  0.00000000000E+00  0.00000000000E+00 -0.11622005146E+04  0.11622005146E+04  0.50400001928E-02 0. -1.
    10030    2    1    2    0    0  0.00000000000E+00  0.00000000000E+00  0.69884136729E+02  0.23942851660E+04  0.23932650634E+04 0.  0.
        2    1    3    3  502    0  0.71127962294E+03  0.50540693776E+03 -0.78429313158E+03  0.11732308345E+04  0.25500000920E-02 0. -1.
       -2    1    3    3    0  502 -0.71127962294E+03 -0.50540693776E+03  0.85417726831E+03  0.12210543315E+04  0.25500000920E-02 0.  1.
</event>
<event>
 5   0  0.1393026E-05  0.2388601E+04  0.7818609E-02  0.8443784E-01
        1   -1    0    0  501    0  0.00000000000E+00  0.00000000000E+00  0.85734983152E+03  0.85734983153E+03  0.50400001928E-02 0. -1.
       -1   -1    0    0    0  501  0.00000000000E+00  0.00000000000E+00 -0.16636770315E+04  0.16636770315E+04  0.50400001928E-02 0.  1.
    10030    2    1    2    0    0  0.00000000000E+00  0.00000000000E+00 -0.80632720001E+03  0.25210268631E+04  0.23886006135E+04 0.  0.
        4    1    3    3  502    0  0.11457612004E+04  0.17710763213E+03 -0.10053393780E+03  0.11637201241E+04  0.12699999809E+01 0. -1.
       -4    1    3    3    0  502 -0.11457612004E+04 -0.17710763213E+03 -0.70579326221E+03  0.13573067390E+04  0.12699999809E+01 0.  1.
</event>
<event>
 5   0  0.3320780E-05  0.2363806E+04  0.7818609E-02  0.8453180E-01
       -2   -1    0    0    0  501  0.00000000000E+00  0.00000000000E+00  0.86879698797E+03  0.86879698798E+03  0.25500000920E-02 0.  1.
        2   -1    0    0  501    0  0.00000000000E+00  0.00000000000E+00 -0.16078499109E+04  0.16078499109E+04  0.25500000920E-02 0. -1.
    10030    2    1    2    0    0  0.00000000000E+00  0.00000000000E+00 -0.73905292292E+03  0.24766468989E+04  0.23638063878E+04 0.  0.
        5    1    3    3  502    0 -0.74012468023E+03 -0.58872928208E+03 -0.11122280098E+04  0.14599520354E+04  0.46999998093E+01 0. -1.
       -5    1    3    3    0  502  0.74012468023E+03  0.58872928208E+03  0.37317508691E+03  0.10166948634E+04  0.46999998093E+01 0.  1.
</event>
<event>
 5   0  0.1407158E-05  0.2304953E+04  0.7818609E-02  0.8475971E-01
        1   -1    0    0  501    0  0.00000000000E+00  0.00000000000E+00  0.19785873158E+04  0.19785873158E+04  0.50400001928E-02 0. -1.
       -1   -1    0    0    0  501  0.00000000000E+00  0.00000000000E+00 -0.67128792965E+03  0.67128792966E+03  0.50400001928E-02 0.  1.
    10030    2    1    2    0    0  0.00000000000E+00  0.00000000000E+00  0.13072993861E+04  0.26498752454E+04  0.23049527395E+04 0.  0.
        1    1    3    3  502    0 -0.93292615293E+03  0.63321406314E+03  0.92785974973E+03  0.14602174399E+04  0.50400001928E-02 0. -1.
       -1    1    3    3    0  502  0.93292615293E+03 -0.63321406314E+03  0.37943963639E+03  0.11896578055E+04  0.50400001928E-02 0.  1.
</event>
<event>
 5   0  0.1393026E-05  0.2407617E+04  0.7818609E-02  0.8436657E-01
        1   -1    0    0  501    0  0.00000000000E+00  0.00000000000E+00  0.13297815032E+04  0.13297815032E+04  0.50400001928E-02 0.  1.
       -1   -1    0    0    0  501  0.00000000000E+00  0.00000000000E+00 -0.10897689097E+04  0.10897689097E+04  0.50400001928E-02 0. -1.
    10030    2    1    2    0    0  0.00000000000E+00  0.00000000000E+00  0.24001259351E+03  0.24195504129E+04  0.24076166961E+04 0.  0.
        4    1    3    3  502    0 -0.33252266277E+03 -0.12037970194E+03  0.12764011131E+04  0.13244863187E+04  0.12699999809E+01 0.  1.
       -4    1    3    3    0  502  0.33252266277E+03  0.12037970194E+03 -0.10363885196E+04  0.10950640942E+04  0.12699999809E+01 0. -1.
</event>
<event>
 5   0  0.1434943E-05  0.2396114E+04  0.7818609E-02  0.8440960E-01
        1   -1    0    0  501    0  0.00000000000E+00  0.00000000000E+00  0.68156338980E+03  0.68156338982E+03  0.50400001928E-02 0.  1.
       -1   -1    0    0    0  501  0.00000000000E+00  0.00000000000E+00 -0.21059523387E+04  0.21059523387E+04  0.50400001928E-02 0. -1.
    10030    2    1    2    0    0  0.00000000000E+00  0.00000000000E+00 -0.14243889489E+04  0.27875157286E+04  0.23961135322E+04 0.  0.
        5    1    3    3  502    0 -0.25915718457E+03  0.53557838512E+03  0.49752674842E+03  0.77560402804E+03  0.46999998093E+01 0.  1.
       -5    1    3    3    0  502  0.25915718457E+03 -0.53557838512E+03 -0.19219156974E+04  0.20119117005E+04  0.46999998093E+01 0. -1.
</event>
<event>
 5   0  0.3345974E-05  0.2383474E+04  0.7818609E-02  0.8445717E-01
        2   -1    0    0  501    0  0.00000000000E+00  0.00000000000E+00  0.12971279313E+04  0.12971279313E+04  0.25500000920E-02 0.  1.
       -2   -1    0    0    0  501  0.00000000000E+00  0.00000000000E+00 -0.10949087081E+04  0.10949087081E+04  0.25500000920E-02 0. -1.
    10030    2    1    2    0    0  0.00000000000E+00  0.00000000000E+00  0.20221922319E+03  0.23920366395E+04  0.23834736563E+04 0.  0.
        4    1    3    3  502    0 -0.99572836656E+03 -0.35840162109E+03  0.65108236872E+03  0.12425121994E+04  0.12699999809E+01 0.  1.
       -4    1    3    3    0  502  0.99572836656E+03  0.35840162109E+03 -0.44886314553E+03  0.11495244401E+04  0.12699999809E+01 0. -1.
</event>
<event>
 5   0  0.1407158E-05  0.2411051E+04  0.7818609E-02  0.8435378E-01
        1   -1    0    0  501    0  0.00000000000E+00  0.00000000000E+00  0.10810891407E+04  0.10810891407E+04  0.50400001928E-02 0. -1.
       -1   -1    0    0    0  501  0.00000000000E+00  0.00000000000E+00 -0.13442852214E+04  0.13442852214E+04  0.50400001928E-02 0.  1.
    10030    2    1    2    0    0  0.00000000000E+00  0.00000000000E+00 -0.26319608066E+03  0.24253743621E+04  0.24110513515E+04 0.  0.
        1    1    3    3  502    0  0.68464454099E+03  0.17262269880E+03  0.85132244509E+03  0.11060228972E+04  0.50400001928E-02 0. -1.
       -1    1    3    3    0  502 -0.68464454099E+03 -0.17262269880E+03 -0.11145185257E+04  0.13193514649E+04  0.50400001928E-02 0.  1.
</event>
<event>
 5   0  0.3310037E-05  0.2351179E+04  0.7818609E-02  0.8458011E-01
       -2   -1    0    0    0  501  0.00000000000E+00  0.00000000000E+00  0.78772314388E+03  0.78772314388E+03  0.25500000920E-02 0. -1.
        2   -1    0    0  501    0  0.00000000000E+00  0.00000000000E+00 -0.17544367200E+04  0.17544367200E+04  0.25500000920E-02 0.  1.
    10030    2    1    2    0    0  0.00000000000E+00  0.00000000000E+00 -0.96671357615E+03  0.25421598639E+04  0.23511787757E+04 0.  0.
        2    1    3    3  502    0  0.10874618458E+04  0.29695457657E+03 -0.84399954364E+03  0.14082224669E+04  0.25500000920E-02 0. -1.
       -2    1    3    3    0  502 -0.10874618458E+04 -0.29695457657E+03 -0.12271403251E+03  0.11339373970E+04  0.25500000920E-02 0.  1.
</event>
<event>
 5   0  0.3320780E-05  0.2398331E+04  0.7818609E-02  0.8440129E-01
        2   -1    0    0  501    0  0.00000000000E+00  0.00000000000E+00  0.11027403773E+04  0.11027403773E+04  0.25500000920E-02 0. -1.
       -2   -1    0    0    0  501  0.00000000000E+00  0.00000000000E+00 -0.13040219512E+04  0.13040219512E+04  0.25500000920E-02 0.  1.
    10030    2    1    2    0    0  0.00000000000E+00  0.00000000000E+00 -0.20128157392E+03  0.24067623285E+04  0.23983308016E+04 0.  0.
        5    1    3    3  502    0 -0.53333214895E+03 -0.49404936488E+03  0.85636147353E+03  0.11233454586E+04  0.46999998093E+01 0. -1.
       -5    1    3    3    0  502  0.53333214895E+03  0.49404936488E+03 -0.10576430474E+04  0.12834168699E+04  0.46999998093E+01 0.  1.
</event>
<event>
 5   0  0.1506985E-05  0.2406460E+04  0.7818609E-02  0.8437089E-01
        1   -1    0    0  501    0  0.00000000000E+00  0.00000000000E+00  0.19764131194E+04  0.19764131194E+04  0.50400001928E-02 0.  1.
       -1   -1    0    0    0  501  0.00000000000E+00  0.00000000000E+00 -0.73252010700E+03  0.73252010702E+03  0.50400001928E-02 0. -1.
    10030    2    1    2    0    0  0.00000000000E+00  0.00000000000E+00  0.12438930124E+04  0.27089332264E+04  0.24064599309E+04 0.  0.
        3    1    3    3  502    0  0.21303263915E+03  0.90255043013E+03  0.14849804233E+04  0.17507561373E+04  0.10100000352E+00 0.  1.
       -3    1    3    3    0  502 -0.21303263915E+03 -0.90255043013E+03 -0.24108741094E+03  0.95817708915E+03  0.10100000352E+00 0. -1.
</event>
<event>
 5   0  0.1434943E-05  0.2417376E+04  0.7818609E-02  0.8433027E-01
       -1   -1    0    0    0  501  0.00000000000E+00  0.00000000000E+00  0.82081070305E+03  0.82081070306E+03  0.50400001928E-02 0. -1.
        1   -1    0    0  501    0  0.00000000000E+00  0.00000000000E+00 -0.17798583127E+04  0.17798583127E+04  0.50400001928E-02 0.  1.
    10030    2    1    2    0    0  0.00000000000E+00  0.00000000000E+00 -0.95904760961E+03  0.26006690157E+04  0.24173760593E+04 0.  0.
        5    1    3    3  502    0 -0.76407690895E+03 -0.93013202850E+03 -0.36194096708E+03  0.12569735347E+04  0.46999998093E+01 0.  1.
       -5    1    3    3    0  502  0.76407690895E+03  0.93013202850E+03 -0.59710664253E+03  0.13436954810E+04  0.46999998093E+01 0. -1.
</event>
<event>
 5   0  0.3310037E-05  0.2405562E+04  0.7818609E-02  0.8437424E-01
       -2   -1    0    0    0  501  0.00000000000E+00  0.00000000000E+00  0.85049362412E+03  0.85049362412E+03  0.25500000920E-02 0. -1.
        2   -1    0    0  501    0  0.00000000000E+00  0.00000000000E+00 -0.17009909053E+04  0.17009909053E+04  0.25500000920E-02 0.  1.
    10030    2    1    2    0    0  0.00000000000E+00  0.00000000000E+00 -0.85049728116E+03  0.25514845294E+04  0.24055618218E+04 0.  0.
        2    1    3    3  502    0  0.86030138690E+03 -0.16002275591E+03  0.45000916718E+03  0.98398882578E+03  0.25500000920E-02 0. -1.
       -2    1    3    3    0  502 -0.86030138690E+03  0.16002275591E+03 -0.13005064483E+04  0.15674957036E+04  0.25500000920E-02 0.  1.
</event>
<event>
 5   0  0.1393026E-05  0.2353391E+04  0.7818609E-02  0.8457162E-01
        1   -1    0    0  501    0  0.00000000000E+00  0.00000000000E+00  0.13444458140E+04  0.13444458140E+04  0.50400001928E-02 0.  1.
       -1   -1    0    0    0  501  0.00000000000E+00  0.00000000000E+00 -0.10298761067E+04  0.10298761068E+04  0.50400001928E-02 0. -1.
    10030    2    1    2    0    0  0.00000000000E+00  0.00000000000E+00  0.31456970722E+03  0.23743219207E+04  0.23533912727E+04 0.  0.
        4    1    3    3  502    0  0.56643129162E+03 -0.60792922564E+03  0.99787485487E+03  0.12985292413E+04  0.12699999809E+01 0.  1.
       -4    1    3    3    0  502 -0.56643129162E+03  0.60792922564E+03 -0.68330514765E+03  0.10757926795E+04  0.12699999809E+01 0. -1.
</event>
<event>
 5   0  0.3347728E-05  0.2402810E+04  0.7818609E-02  0.8438452E-01
       -2   -1    0    0    0  501  0.00000000000E+00  0.00000000000E+00  0.10830308247E+04  0.10830308247E+04  0.25500000920E-02 0. -1.
        2   -1    0    0  501    0  0.00000000000E+00  0.00000000000E+00 -0.13327176483E+04  0.13327176483E+04  0.25500000920E-02 0.  1.
    10030    2    1    2    0    0  0.00000000000E+00  0.00000000000E+00 -0.24968682360E+03  0.24157484729E+04  0.24028102660E+04 0.  0.
        3    1    3    3  502    0  0.21810257879E+03 -0.12688916622E+03 -0.13057765373E+04  0.13299330701E+04  0.10100000352E+00 0.  1.
       -3    1    3    3    0  502 -0.21810257879E+03  0.12688916622E+03  0.10560897137E+04  0.10858154028E+04  0.10100000352E+00 0. -1.
</event>
<event>
 5   0  0.3320780E-05  0.2337828E+04  0.7818609E-02  0.8463154E-01
        2   -1    0    0  501    0  0.00000000000E+00  0.00000000000E+00  0.21254785130E+04  0.21254785130E+04  0.25500000920E-02 0.  1.
       -2   -1    0    0    0  501  0.00000000000E+00  0.00000000000E+00 -0.64284834528E+03  0.64284834529E+03  0.25500000920E-02 0. -1.
    10030    2    1    2    0    0  0.00000000000E+00  0.00000000000E+00  0.14826301677E+04  0.27683268583E+04  0.23378283470E+04 0.  0.
        5    1    3    3  502    0  0.32232402533E+03  0.70472045310E+03 -0.29493971723E+03  0.82917743645E+03  0.46999998093E+01 0. -1.
       -5    1    3    3    0  502 -0.32232402533E+03 -0.70472045310E+03  0.17775698849E+04  0.19391494218E+04  0.46999998093E+01 0.  1.
</event>
<event>
 5   0  0.3215208E-05  0.2397875E+04  0.7818609E-02  0.8440300E-01
        2   -1    0    0  501    0  0.00000000000E+00  0.00000000000E+00  0.14345800479E+04  0.14345800479E+04  0.25500000920E-02 0.  1.
       -2   -1    0    0    0  501  0.00000000000E+00  0.00000000000E+00 -0.10020012038E+04  0.10020012038E+04  0.25500000920E-02 0. -1.
    10030    2    1    2    0    0  0.00000000000E+00  0.00000000000E+00  0.43257884401E+03  0.24365812517E+04  0.23978748382E+04 0.  0.
        1    1    3    3  502    0  0.89523785415E+03 -0.76119531471E+03  0.45799841807E+03  0.12612024713E+04  0.50400001928E-02 0.  1.
       -1    1    3    3    0  502 -0.89523785415E+03  0.76119531471E+03 -0.25419574055E+02  0.11753787804E+04  0.50400001928E-02 0. -1.
</event>
<event>
 5   0  0.1393026E-05  0.2416918E+04  0.7818609E-02  0.8433197E-01
       -1   -1    0    0    0  501  0.00000000000E+00  0.00000000000E+00  0.11083371895E+04  0.11083371895E+04  0.50400001928E-02 0.  1.
        1   -1    0    0  501    0  0.00000000000E+00  0.00000000000E+00 -0.13176258438E+04  0.13176258438E+04  0.50400001928E-02 0. -1.
    10030    2    1    2    0    0  0.00000000000E+00  0.00000000000E+00 -0.20928865433E+03  0.24259630333E+04  0.24169184715E+04 0.  0.
        4    1    3    3  502    0 -0.10212681462E+04 -0.61971354069E+03 -0.28791625109E+03  0.12287924477E+04  0.12699999809E+01 0.  1.
       -4    1    3    3    0  502  0.10212681462E+04  0.61971354069E+03  0.78627596762E+02  0.11971705856E+04  0.12699999809E+01 0. -1.
</event>
<event>
 5   0  0.3215208E-05  0.2441225E+04  0.7818609E-02  0.8424229E-01
       -2   -1    0    0    0  501  0.00000000000E+00  0.00000000000E+00  0.79999298097E+03  0.79999298098E+03  0.25500000920E-02 0.  1.
        2   -1    0    0  501    0  0.00000000000E+00  0.00000000000E+00 -0.18623847137E+04  0.18623847137E+04  0.25500000920E-02 0. -1.
    10030    2    1    2    0    0  0.00000000000E+00  0.00000000000E+00 -0.10623917327E+04  0.26623776946E+04  0.24412248555E+04 0.  0.
        1    1    3    3  502    0  0.58760508424E+02  0.59192599893E+03  0.63122546560E+03  0.86733775082E+03  0.50400001928E-02 0.  1.
       -1    1    3    3    0  502 -0.58760508424E+02 -0.59192599893E+03 -0.16936171983E+04  0.17950399438E+04  0.50400001928E-02 0. -1.
</event>
<event>
 5   0  0.1393026E-05  0.2415670E+04  0.7818609E-02  0.8433660E-01
        1   -1    0    0  501    0  0.00000000000E+00  0.00000000000E+00  0.10942926575E+04  0.10942926575E+04  0.50400001928E-02 0.  1.
       -1   -1    0    0    0  501  0.00000000000E+00  0.00000000000E+00 -0.13331586209E+04  0.13331586209E+04  0.50400001928E-02 0. -1.
    10030    2    1    2    0    0  0.00000000000E+00  0.00000000000E+00 -0.23886596342E+03  0.24274512785E+04  0.24156702508E+04 0.  0.
        4    1    3    3  502    0  0.46799653188E+03  0.23331224840E+03  0.97464160279E+03  0.11060665558E+04  0.12699999809E+01 0.  1.
       -4    1    3    3    0  502 -0.46799653188E+03 -0.23331224840E+03 -0.12135075662E+04  0.13213847226E+04  0.12699999809E+01 0. -1.
</event>
<event>
 5   0  0.3345974E-05  0.2327363E+04  0.7818609E-02  0.8467210E-01
       -2   -1    0    0    0  501  0.00000000000E+00  0.00000000000E+00  0.79917596829E+03  0.79917596830E+03  0.25500000920E-02 0.  1.
        2   -1    0    0  501    0  0.00000000000E+00  0.00000000000E+00 -0.16944387256E+04  0.16944387256E+04  0.25500000920E-02 0. -1.
    10030    2    1    2    0    0  0.00000000000E+00  0.00000000000E+00 -0.89526275735E+03  0.24936146939E+04  0.23273630652E+04 0.  0.
        4    1    3    3  502    0 -0.12096842082E+03 -0.18355980403E+03  0.77672483351E+03  0.80723642162E+03  0.12699999809E+01 0.  1.
       -4    1    3    3    0  502  0.12096842082E+03  0.18355980403E+03 -0.16719875909E+04  0.16863782723E+04  0.12699999809E+01 0. -1.
</event>
<event>
 5   0  0.1407158E-05  0.2410342E+04  0.7818609E-02  0.8435642E-01
        1   -1    0    0  501    0  0.00000000000E+00  0.00000000000E+00  0.13028774834E+04  0.13028774834E+04  0.50400001928E-02 0.  1.
       -1   -1    0    0    0  501  0.00000000000E+00  0.00000000000E+00 -0.11147914543E+04  0.11147914543E+04  0.50400001928E-02 0. -1.
    10030    2    1    2    0    0  0.00000000000E+00  0.00000000000E+00  0.18808602910E+03  0.24176689377E+04  0.24103416227E+04 0.  0.
        1    1    3    3  502    0  0.46626510061E+03 -0.62132801829E+03 -0.83016184471E+03  0.11369346238E+04  0.50400001928E-02 0. -1.
       -1    1    3    3    0  502 -0.46626510061E+03  0.62132801829E+03  0.10182478738E+04  0.12807343139E+04  0.50400001928E-02 0.  1.
</event>
<event>
 5   0  0.3320780E-05  0.2436635E+04  0.7818609E-02  0.8425914E-01
       -2   -1    0    0    0  501  0.00000000000E+00  0.00000000000E+00  0.60433033630E+03  0.60433033631E+03  0.25500000920E-02 0.  1.
        2   -1    0    0  501    0  0.00000000000E+00  0.00000000000E+00 -0.24561024524E+04  0.24561024524E+04  0.25500000920E-02 0. -1.
    10030    2    1    2    0    0  0.00000000000E+00  0.00000000000E+00 -0.18517721161E+04  0.30604327887E+04  0.24366347458E+04 0.  0.
        5    1    3    3  502    0  0.54051044893E+03 -0.22371449633E+02  0.44519102194E+03  0.70062055578E+03  0.46999998093E+01 0.  1.
       -5    1    3    3    0  502 -0.54051044893E+03  0.22371449633E+02 -0.22969631381E+04  0.23598122330E+04  0.46999998093E+01 0. -1.
</event>
<event>
 5   0  0.3320780E-05  0.2412207E+04  0.7818609E-02  0.8434948E-01
        2   -1    0    0  501    0  0.00000000000E+00  0.00000000000E+00  0.18172614580E+04  0.18172614580E+04  0.25500000920E-02 0. -1.
       -2   -1    0    0    0  501  0.00000000000E+00  0.00000000000E+00 -0.80048199762E+03  0.80048199762E+03  0.25500000920E-02 0.  1.
    10030    2    1    2    0    0  0.00000000000E+00  0.00000000000E+00  0.10167794604E+04  0.26177434556E+04  0.24122065269E+04 0.  0.
        5    1    3    3  502    0 -0.72560396262E+03  0.45150251376E+03  0.14319687182E+04  0.16676067074E+04  0.46999998093E+01 0. -1.
       -5    1    3    3    0  502  0.72560396262E+03 -0.45150251376E+03 -0.41518925787E+03  0.95013674823E+03  0.46999998093E+01 0.  1.
</event>
<event>
 5   0  0.3310037E-05  0.2415223E+04  0.7818609E-02  0.8433826E-01
        2   -1    0    0  501    0  0.00000000000E+00  0.00000000000E+00  0.92009527416E+03  0.92009527417E+03  0.25500000920E-02 0.  1.
       -2   -1    0    0    0  501  0.00000000000E+00  0.00000000000E+00 -0.15849723900E+04  0.15849723900E+04  0.25500000920E-02 0. -1.
    10030    2    1    2    0    0  0.00000000000E+00  0.00000000000E+00 -0.66487711585E+03  0.25050676642E+04  0.24152230586E+04 0.  0.
        2    1    3    3  502    0  0.10735343779E+04 -0.44058107175E+03  0.14268272781E+02  0.11605133885E+04  0.25500000920E-02 0.  1.
       -2    1    3    3    0  502 -0.10735343779E+04  0.44058107175E+03 -0.67914538863E+03  0.13445542757E+04  0.25500000920E-02 0. -1.
</event>
<event>
 5   0  0.3310037E-05  0.2389781E+04  0.7818609E-02  0.8443339E-01
       -2   -1    0    0    0  501  0.00000000000E+00  0.00000000000E+00  0.84724326556E+03  0.84724326556E+03  0.25500000920E-02 0. -1.
        2   -1    0    0  501    0  0.00000000000E+00  0.00000000000E+00 -0.16851875958E+04  0.16851875958E+04  0.25500000920E-02 0.  1.
    10030    2    1    2    0    0  0.00000000000E+00  0.00000000000E+00 -0.83794433026E+03  0.25324308614E+04  0.23897814475E+04 0.  0.
        2    1    3    3  502    0 -0.87593173551E+03 -0.32810039163E+02 -0.12794983133E+04  0.15509509462E+04  0.25500000920E-02 0.  1.
       -2    1    3    3    0  502  0.87593173551E+03  0.32810039163E+02  0.44155398301E+03  0.98147991515E+03  0.25500000920E-02 0. -1.
</event>
<event>
 5   0  0.3215208E-05  0.2428495E+04  0.7818609E-02  0.8428912E-01
       -2   -1    0    0    0  501  0.00000000000E+00  0.00000000000E+00  0.94822460108E+03  0.94822460108E+03  0.25500000920E-02 0.  1.
        2   -1    0    0  501    0  0.00000000000E+00  0.00000000000E+00 -0.15549026696E+04  0.15549026696E+04  0.25500000920E-02 0. -1.
    10030    2    1    2    0    0  0.00000000000E+00  0.00000000000E+00 -0.60667806857E+03  0.25031272707E+04  0.24284949773E+04 0.  0.
        1    1    3    3  502    0 -0.67054245087E+03  0.94649040695E+03  0.66757878488E+02  0.11618639693E+04  0.50400001928E-02 0.  1.
       -1    1    3    3    0  502  0.67054245087E+03 -0.94649040695E+03 -0.67343594706E+03  0.13412633014E+04  0.50400001928E-02 0. -1.
</event>
<event>
 5   0  0.1434943E-05  0.2157520E+04  0.7818609E-02  0.8536320E-01
        1   -1    0    0  501    0  0.00000000000E+00  0.00000000000E+00  0.15050873549E+04  0.15050873549E+04  0.50400001928E-02 0. -1.
       -1   -1    0    0    0  501  0.00000000000E+00  0.00000000000E+00 -0.77319293924E+03  0.77319293925E+03  0.50400001928E-02 0.  1.
    10030    2    1    2    0    0  0.00000000000E+00  0.00000000000E+00  0.73189441565E+03  0.22782802942E+04  0.21575197944E+04 0.  0.
        5    1    3    3  502    0 -0.10373712217E+04  0.58979812566E+01  0.53538337312E+02  0.10387792265E+04  0.46999998093E+01 0.  1.
       -5    1    3    3    0  502  0.10373712217E+04 -0.58979812566E+01  0.67835607834E+03  0.12395010677E+04  0.46999998093E+01 0. -1.
</event>
<event>
 5   0  0.1506985E-05  0.2414942E+04  0.7818609E-02  0.8433930E-01
        1   -1    0    0  501    0  0.00000000000E+00  0.00000000000E+00  0.16517520143E+04  0.16517520143E+04  0.50400001928E-02 0.  1.
       -1   -1    0    0    0  501  0.00000000000E+00  0.00000000000E+00 -0.88269108839E+03  0.88269108841E+03  0.50400001928E-02 0. -1.
    10030    2    1    2    0    0  0.00000000000E+00  0.00000000000E+00  0.76906092590E+03  0.25344431027E+04  0.24149424699E+04 0.  0.
        3    1    3    3  502    0 -0.38440877698E+03 -0.63602513765E+03  0.13832998646E+04  0.15702918866E+04  0.10100000352E+00 0.  1.
       -3    1    3    3    0  502  0.38440877698E+03  0.63602513765E+03 -0.61423893869E+03  0.96415121611E+03  0.10100000352E+00 0. -1.
</event>
<event>
 5   0  0.3347728E-05  0.2389528E+04  0.7818609E-02  0.8443435E-01
       -2   -1    0    0    0  501  0.00000000000E+00  0.00000000000E+00  0.78652604002E+03  0.78652604003E+03  0.25500000920E-02 0. -1.
        2   -1    0    0  501    0  0.00000000000E+00  0.00000000000E+00 -0.18148934642E+04  0.18148934642E+04  0.25500000920E-02 0.  1.
    10030    2    1    2    0    0  0.00000000000E+00  0.00000000000E+00 -0.10283674242E+04  0.26014195042E+04  0.23895279613E+04 0.  0.
        3    1    3    3  502    0  0.19016710318E+03 -0.16812388516E+03  0.75683302048E+03  0.79826399078E+03  0.10100000352E+00 0. -1.
       -3    1    3    3    0  502 -0.19016710318E+03  0.16812388516E+03 -0.17852004446E+04  0.18031555134E+04  0.10100000352E+00 0.  1.
</event>
<event>
 5   0  0.1407158E-05  0.2398900E+04  0.7818609E-02  0.8439916E-01
       -1   -1    0    0    0  501  0.00000000000E+00  0.00000000000E+00  0.11668105212E+04  0.11668105212E+04  0.50400001928E-02 0. -1.
        1   -1    0    0  501    0  0.00000000000E+00  0.00000000000E+00 -0.12330022947E+04  0.12330022947E+04  0.50400001928E-02 0.  1.
    10030    2    1    2    0    0  0.00000000000E+00  0.00000000000E+00 -0.66191773529E+02  0.23998128159E+04  0.23988997896E+04 0.  0.
        1    1    3    3  502    0 -0.24803801576E+03  0.12127931074E+03  0.11345880690E+04  0.11676992827E+04  0.50400001928E-02 0. -1.
       -1    1    3    3    0  502  0.24803801576E+03 -0.12127931074E+03 -0.12007798425E+04  0.12321135332E+04  0.50400001928E-02 0.  1.
</event>
<event>
 5   0  0.3310037E-05  0.2398098E+04  0.7818609E-02  0.8440216E-01
       -2   -1    0    0    0  501  0.00000000000E+00  0.00000000000E+00  0.21185499806E+04  0.21185499806E+04  0.25500000920E-02 0. -1.
        2   -1    0    0  501    0  0.00000000000E+00  0.00000000000E+00 -0.67863312458E+03  0.67863312458E+03  0.25500000920E-02 0.  1.
    10030    2    1    2    0    0  0.00000000000E+00  0.00000000000E+00  0.14399168560E+04  0.27971831052E+04  0.23980977402E+04 0.  0.
        2    1    3    3  502    0 -0.82774836556E+03  0.37000636234E+03 -0.19524911918E+03  0.92746659423E+03  0.25500000920E-02 0.  1.
       -2    1    3    3    0  502  0.82774836556E+03 -0.37000636234E+03  0.16351659752E+04  0.18697165110E+04  0.25500000920E-02 0. -1.
</event>
<event>
 5   0  0.1393026E-05  0.2398703E+04  0.7818609E-02  0.8439989E-01
        1   -1    0    0  501    0  0.00000000000E+00  0.00000000000E+00  0.12006787325E+04  0.12006787325E+04  0.50400001928E-02 0. -1.
       -1   -1    0    0    0  501  0.00000000000E+00  0.00000000000E+00 -0.11980260670E+04  0.11980260670E+04  0.50400001928E-02 0.  1.
    10030    2    1    2    0    0  0.00000000000E+00  0.00000000000E+00  0.26526654542E+01  0.23987047996E+04  0.23987033328E+04 0.  0.
        4    1    3    3  502    0 -0.79550268134E+03  0.80222608792E+03 -0.40123023822E+03  0.11989072229E+04  0.12699999809E+01 0.  1.
       -4    1    3    3    0  502  0.79550268134E+03 -0.80222608792E+03  0.40388290368E+03  0.11997975767E+04  0.12699999809E+01 0. -1.
</event>
<event>
 5   0  0.1407158E-05  0.2394893E+04  0.7818609E-02  0.8441418E-01
        1   -1    0    0  501    0  0.00000000000E+00  0.00000000000E+00  0.16937823490E+04  0.16937823490E+04  0.50400001928E-02 0. -1.
       -1   -1    0    0    0  501  0.00000000000E+00  0.00000000000E+00 -0.84655384298E+03  0.84655384300E+03  0.50400001928E-02 0.  1.
    10030    2    1    2    0    0  0.00000000000E+00  0.00000000000E+00  0.84722850603E+03  0.25403361920E+04  0.23948928634E+04 0.  0.
        1    1    3    3  502    0  0.86097720316E+02 -0.72076200625E+03  0.14337992475E+04  0.16070752843E+04  0.50400001928E-02 0. -1.
       -1    1    3    3    0  502 -0.86097720316E+02  0.72076200625E+03 -0.58657074150E+03  0.93326090773E+03  0.50400001928E-02 0.  1.
</event>
<event>
 5   0  0.1401596E-05  0.2237769E+04  0.7818609E-02  0.8502870E-01
        1   -1    0    0  501    0  0.00000000000E+00  0.00000000000E+00  0.21289896421E+04  0.21289896421E+04  0.50400001928E-02 0. -1.
       -1   -1    0    0    0  501  0.00000000000E+00  0.00000000000E+00 -0.58802676656E+03  0.58802676658E+03  0.50400001928E-02 0.  1.
    10030    2    1    2    0    0  0.00000000000E+00  0.00000000000E+00  0.15409628755E+04  0.27170164087E+04  0.22377693316E+04 0.  0.
        2    1    3    3  502    0  0.42375572130E+03 -0.20468862817E+03 -0.46202038712E+03  0.65949161022E+03  0.25500000920E-02 0.  1.
       -2    1    3    3    0  502 -0.42375572130E+03  0.20468862817E+03  0.20029832627E+04  0.20575247985E+04  0.25500000920E-02 0. -1.
</event>
<event>
 5   0  0.1506985E-05  0.2426825E+04  0.7818609E-02  0.8429529E-01
        1   -1    0    0  501    0  0.00000000000E+00  0.00000000000E+00  0.17536678541E+04  0.17536678541E+04  0.50400001928E-02 0.  1.
       -1   -1    0    0    0  501  0.00000000000E+00  0.00000000000E+00 -0.83959433092E+03  0.83959433094E+03  0.50400001928E-02 0. -1.
    10030    2    1    2    0    0  0.00000000000E+00  0.00000000000E+00  0.91407352318E+03  0.25932621850E+04  0.24268247474E+04 0.  0.
        3    1    3    3  502    0 -0.10920686761E+03  0.95064990392E+03  0.12543368658E+04  0.15776635772E+04  0.10100000352E+00 0.  1.
       -3    1    3    3    0  502  0.10920686761E+03 -0.95064990392E+03 -0.34026334259E+03  0.10155986079E+04  0.10100000352E+00 0. -1.
</event>
<event>
 5   0  0.3345974E-05  0.2465161E+04  0.7818609E-02  0.8415503E-01
       -2   -1    0    0    0  501  0.00000000000E+00  0.00000000000E+00  0.64308980303E+03  0.64308980303E+03  0.25500000920E-02 0. -1.
        2   -1    0    0  501    0  0.00000000000E+00  0.00000000000E+00 -0.23624304328E+04  0.23624304328E+04  0.25500000920E-02 0.  1.
    10030    2    1    2    0    0  0.00000000000E+00  0.00000000000E+00 -0.17193406298E+04  0.30055202358E+04  0.24651611888E+04 0.  0.
        4    1    3    3  502    0  0.10995171640E+04 -0.30993638275E+03 -0.14240086696E+04  0.18255960285E+04  0.12699999809E+01 0.  1.
       -4    1    3    3    0  502 -0.10995171640E+04  0.30993638275E+03 -0.29533196018E+03  0.11799242073E+04  0.12699999809E+01 0. -1.
</event>
<event>
 5   0  0.3345974E-05  0.2612875E+04  0.7818609E-02  0.8363841E-01
        2   -1    0    0  501    0  0.00000000000E+00  0.00000000000E+00  0.21182120867E+04  0.21182120867E+04  0.25500000920E-02 0. -1.
       -2   -1    0    0    0  501  0.00000000000E+00  0.00000000000E+00 -0.80576364727E+03  0.80576364728E+03  0.25500000920E-02 0.  1.
    10030    2    1    2    0    0  0.00000000000E+00  0.00000000000E+00  0.13124484395E+04  0.29239757340E+04  0.26128745065E+04 0.  0.
        4    1    3    3  502    0 -0.76667284607E+01 -0.12986770536E+04  0.81509915998E+03  0.15333000756E+04  0.12699999809E+01 0.  1.
       -4    1    3    3    0  502  0.76667284607E+01  0.12986770536E+04  0.49734927950E+03  0.13906756584E+04  0.12699999809E+01 0. -1.
</event>
<event>
 5   0  0.1401596E-05  0.2386508E+04  0.7818609E-02  0.8444572E-01
        1   -1    0    0  501    0  0.00000000000E+00  0.00000000000E+00  0.96450545876E+03  0.96450545877E+03  0.50400001928E-02 0. -1.
       -1   -1    0    0    0  501  0.00000000000E+00  0.00000000000E+00 -0.14762541372E+04  0.14762541372E+04  0.50400001928E-02 0.  1.
    10030    2    1    2    0    0  0.00000000000E+00  0.00000000000E+00 -0.51174867844E+03  0.24407595960E+04  0.23865080548E+04 0.  0.
        2    1    3    3  502    0 -0.40229091191E+02 -0.11340604957E+04 -0.63323853673E+03  0.12995009165E+04  0.25500000920E-02 0. -1.
       -2    1    3    3    0  502  0.40229091191E+02  0.11340604957E+04  0.12148985830E+03  0.11412586794E+04  0.25500000920E-02 0.  1.
</event>
<event>
 5   0  0.3345974E-05  0.2405197E+04  0.7818609E-02  0.8437560E-01
        2   -1    0    0  501    0  0.00000000000E+00  0.00000000000E+00  0.11491751442E+04  0.11491751442E+04  0.25500000920E-02 0.  1.
       -2   -1    0    0    0  501  0.00000000000E+00  0.00000000000E+00 -0.12585056783E+04  0.12585056783E+04  0.25500000920E-02 0. -1.
    10030    2    1    2    0    0  0.00000000000E+00  0.00000000000E+00 -0.10933053411E+03  0.24076808224E+04  0.24051972428E+04 0.  0.
        4    1    3    3  502    0 -0.47427331758E+02 -0.63469804337E+03 -0.10760868963E+04  0.12502222120E+04  0.12699999809E+01 0. -1.
       -4    1    3    3    0  502  0.47427331758E+02  0.63469804337E+03  0.96675636221E+03  0.11574586104E+04  0.12699999809E+01 0.  1.
</event>
<event>
 5   0  0.3215208E-05  0.2379225E+04  0.7818609E-02  0.8447323E-01
       -2   -1    0    0    0  501  0.00000000000E+00  0.00000000000E+00  0.78711793825E+03  0.78711793826E+03  0.25500000920E-02 0. -1.
        2   -1    0    0  501    0  0.00000000000E+00  0.00000000000E+00 -0.17979232335E+04  0.17979232335E+04  0.25500000920E-02 0.  1.
    10030    2    1    2    0    0  0.00000000000E+00  0.00000000000E+00 -0.10108052953E+04  0.25850411718E+04  0.23792247718E+04 0.  0.
        1    1    3    3  502    0  0.95109569657E+03 -0.65688744400E+03 -0.81096677159E+03  0.14120025647E+04  0.50400001928E-02 0.  1.
       -1    1    3    3    0  502 -0.95109569657E+03  0.65688744400E+03 -0.19983852369E+03  0.11730386071E+04  0.50400001928E-02 0. -1.
</event>
<event>
 5   0  0.3345974E-05  0.2388214E+04  0.7818609E-02  0.8443929E-01
       -2   -1    0    0    0  501  0.00000000000E+00  0.00000000000E+00  0.86328277099E+03  0.86328277099E+03  0.25500000920E-02 0.  1.
        2   -1    0    0  501    0  0.00000000000E+00  0.00000000000E+00 -0.16517078824E+04  0.16517078824E+04  0.25500000920E-02 0. -1.
    10030    2    1    2    0    0  0.00000000000E+00  0.00000000000E+00 -0.78842511141E+03  0.25149906534E+04  0.23882135228E+04 0.  0.
        4    1    3    3  502    0 -0.39824332177E+03 -0.16414566519E+03  0.77861716517E+03  0.88982461504E+03  0.12699999809E+01 0.  1.
       -4    1    3    3    0  502  0.39824332177E+03  0.16414566519E+03 -0.15670422766E+04  0.16251660384E+04  0.12699999809E+01 0. -1.
</event>
<event>
 5   0  0.1434943E-05  0.2380182E+04  0.7818609E-02  0.8446960E-01
       -1   -1    0    0    0  501  0.00000000000E+00  0.00000000000E+00  0.10962249151E+04  0.10962249151E+04  0.50400001928E-02 0.  1.
        1   -1    0    0  501    0  0.00000000000E+00  0.00000000000E+00 -0.12919950494E+04  0.12919950494E+04  0.50400001928E-02 0. -1.
    10030    2    1    2    0    0  0.00000000000E+00  0.00000000000E+00 -0.19577013434E+03  0.23882199645E+04  0.23801824832E+04 0.  0.
        5    1    3    3  502    0  0.47589545009E+03  0.70643113035E+03 -0.93181958795E+03  0.12624702990E+04  0.46999998093E+01 0. -1.
       -5    1    3    3    0  502 -0.47589545009E+03 -0.70643113035E+03  0.73604945361E+03  0.11257496656E+04  0.46999998093E+01 0.  1.
</event>
<event>
 5   0  0.3320780E-05  0.2467686E+04  0.7818609E-02  0.8414589E-01
        2   -1    0    0  501    0  0.00000000000E+00  0.00000000000E+00  0.15173516583E+04  0.15173516583E+04  0.25500000920E-02 0. -1.
       -2   -1    0    0    0  501  0.00000000000E+00  0.00000000000E+00 -0.10033062963E+04  0.10033062963E+04  0.25500000920E-02 0.  1.
    10030    2    1    2    0    0  0.00000000000E+00  0.00000000000E+00  0.51404536191E+03  0.25206579546E+04  0.24676859383E+04 0.  0.
        5    1    3    3  502    0  0.60146682261E+03  0.10747076400E+04  0.18066828303E+03  0.12447577952E+04  0.46999998093E+01 0.  1.
       -5    1    3    3    0  502 -0.60146682261E+03 -0.10747076400E+04  0.33337707889E+03  0.12759001594E+04  0.46999998093E+01 0. -1.
</event>
<event>
 5   0  0.1434943E-05  0.2448280E+04  0.7818609E-02  0.8421646E-01
       -1   -1    0    0    0  501  0.00000000000E+00  0.00000000000E+00  0.14888603514E+04  0.14888603514E+04  0.50400001928E-02 0.  1.
        1   -1    0    0  501    0  0.00000000000E+00  0.00000000000E+00 -0.10064869672E+04  0.10064869672E+04  0.50400001928E-02 0. -1.
    10030    2    1    2    0    0  0.00000000000E+00  0.00000000000E+00  0.48237338417E+03  0.24953473186E+04  0.24482798367E+04 0.  0.
        5    1    3    3  502    0 -0.37871982917E+03  0.11637811863E+04  0.26778613344E+03  0.12528155738E+04  0.46999998093E+01 0. -1.
       -5    1    3    3    0  502  0.37871982917E+03 -0.11637811863E+04  0.21458725074E+03  0.12425317448E+04  0.46999998093E+01 0.  1.
</event>
<event>
 5   0  0.1506985E-05  0.2404901E+04  0.7818609E-02  0.8437671E-01
       -1   -1    0    0    0  501  0.00000000000E+00  0.00000000000E+00  0.17606276558E+04  0.17606276558E+04  0.50400001928E-02 0. -1.
        1   -1    0    0  501    0  0.00000000000E+00  0.00000000000E+00 -0.82123405845E+03  0.82123405846E+03  0.50400001928E-02 0.  1.
    10030    2    1    2    0    0  0.00000000000E+00  0.00000000000E+00  0.93939359739E+03  0.25818617143E+04  0.24049011583E+04 0.  0.
        3    1    3    3  502    0  0.23255291251E+03  0.10293344126E+04 -0.14915408260E+03  0.10657659878E+04  0.10100000352E+00 0.  1.
       -3    1    3    3    0  502 -0.23255291251E+03 -0.10293344126E+04  0.10885476800E+04  0.15160957265E+04  0.10100000352E+00 0. -1.
</event>
<event>
 5   0  0.3347728E-05  0.2378802E+04  0.7818609E-02  0.8447483E-01
        2   -1    0    0  501    0  0.00000000000E+00  0.00000000000E+00  0.15222479767E+04  0.15222479767E+04  0.25500000920E-02 0. -1.
       -2   -1    0    0    0  501  0.00000000000E+00  0.00000000000E+00 -0.92933261336E+03  0.92933261337E+03  0.25500000920E-02 0.  1.
    10030    2    1    2    0    0  0.00000000000E+00  0.00000000000E+00  0.59291536336E+03  0.24515805901E+04  0.23788019593E+04 0.  0.
        3    1    3    3  502    0  0.37749783051E+03 -0.10897619313E+04 -0.32824095052E+01  0.11532980809E+04  0.10100000352E+00 0. -1.
       -3    1    3    3    0  502 -0.37749783051E+03  0.10897619313E+04  0.59619777287E+03  0.12982825092E+04  0.10100000352E+00 0.  1.
</event>
<event>
 5   0  0.1407158E-05  0.2407879E+04  0.7818609E-02  0.8436560E-01
        1   -1    0    0  501    0  0.00000000000E+00  0.00000000000E+00  0.15165774754E+04  0.15165774755E+04  0.50400001928E-02 0.  1.
       -1   -1    0    0    0  501  0.00000000000E+00  0.00000000000E+00 -0.95575071411E+03  0.95575071413E+03  0.50400001928E-02 0. -1.
    10030    2    1    2    0    0  0.00000000000E+00  0.00000000000E+00  0.56082676133E+03  0.24723281896E+04  0.24078787388E+04 0.  0.
        1    1    3    3  502    0 -0.24294451929E+03 -0.86486007301E+03 -0.54257982925E+03  0.10494750385E+04  0.50400001928E-02 0. -1.
       -1    1    3    3    0  502  0.24294451929E+03  0.86486007301E+03  0.11034065906E+04  0.14228531511E+04  0.50400001928E-02 0.  1.
</event>
<event>
 5   0  0.1393026E-05  0.2381393E+04  0.7818609E-02  0.8446503E-01
        1   -1    0    0  501    0  0.00000000000E+00  0.00000000000E+00  0.10139761792E+04  0.10139761792E+04  0.50400001928E-02 0.  1.
       -1   -1    0    0    0  501  0.00000000000E+00  0.00000000000E+00 -0.13982161580E+04  0.13982161580E+04  0.50400001928E-02 0. -1.
    10030    2    1    2    0    0  0.00000000000E+00  0.00000000000E+00 -0.38423997881E+03  0.24121923373E+04  0.23813927670E+04 0.  0.
        4    1    3    3  502    0  0.88726627714E+03 -0.75316236917E+03  0.62650919013E+02  0.11655135140E+04  0.12699999809E+01 0.  1.
       -4    1    3    3    0  502 -0.88726627714E+03  0.75316236917E+03 -0.44689089782E+03  0.12466788232E+04  0.12699999809E+01 0. -1.
</event>
<event>
 5   0  0.1434943E-05  0.2374492E+04  0.7818609E-02  0.8449115E-01
        1   -1    0    0  501    0  0.00000000000E+00  0.00000000000E+00  0.25223176959E+04  0.25223176959E+04  0.50400001928E-02 0. -1.
       -1   -1    0    0    0  501  0.00000000000E+00  0.00000000000E+00 -0.55883256560E+03  0.55883256563E+03  0.50400001928E-02 0.  1.
    10030    2    1    2    0    0  0.00000000000E+00  0.00000000000E+00  0.19634851303E+04  0.30811502616E+04  0.23744921725E+04 0.  0.
        5    1    3    3  502    0 -0.51855225162E+03 -0.41085462050E+03 -0.29745612778E+03  0.72539657761E+03  0.46999998093E+01 0.  1.
       -5    1    3    3    0  502  0.51855225162E+03  0.41085462050E+03  0.22609412581E+04  0.23557536840E+04  0.46999998093E+01 0. -1.
</event>
<event>
 5   0  0.1393026E-05  0.2502915E+04  0.7818609E-02  0.8401948E-01
       -1   -1    0    0    0  501  0.00000000000E+00  0.00000000000E+00  0.15224432284E+04  0.15224432284E+04  0.50400001928E-02 0.  1.
        1   -1    0    0  501    0  0.00000000000E+00  0.00000000000E+00 -0.10287054602E+04  0.10287054602E+04  0.50400001928E-02 0. -1.
    10030    2    1    2    0    0  0.00000000000E+00  0.00000000000E+00  0.49373776818E+03  0.25511486886E+04  0.25029148303E+04 0.  0.
        4    1    3    3  502    0  0.19429571387E+03  0.10614794985E+03 -0.10085842410E+04  0.10325996299E+04  0.12699999809E+01 0. -1.
       -4    1    3    3    0  502 -0.19429571387E+03 -0.10614794985E+03  0.15023220091E+04  0.15185490587E+04  0.12699999809E+01 0.  1.
</event>
<event>
 5   0  0.1407158E-05  0.2408634E+04  0.7818609E-02  0.8436278E-01
       -1   -1    0    0    0  501  0.00000000000E+00  0.00000000000E+00  0.94993836710E+03  0.94993836712E+03  0.50400001928E-02 0. -1.
        1   -1    0    0  501    0  0.00000000000E+00  0.00000000000E+00 -0.15268145737E+04  0.15268145737E+04  0.50400001928E-02 0.  1.
    10030    2    1    2    0    0  0.00000000000E+00  0.00000000000E+00 -0.57687620661E+03  0.24767529408E+04  0.24086342545E+04 0.  0.
        1    1    3    3  502    0 -0.10117597268E+04 -0.64938452806E+03 -0.21556980321E+03  0.12214042533E+04  0.50400001928E-02 0.  1.
       -1    1    3    3    0  502  0.10117597268E+04  0.64938452806E+03 -0.36130640340E+03  0.12553486875E+04  0.50400001928E-02 0. -1.
</event>
<event>
 5   0  0.3345974E-05  0.2403901E+04  0.7818609E-02  0.8438044E-01
        2   -1    0    0  501    0  0.00000000000E+00  0.00000000000E+00  0.23403068759E+04  0.23403068759E+04  0.25500000920E-02 0.  1.
       -2   -1    0    0    0  501  0.00000000000E+00  0.00000000000E+00 -0.61730590524E+03  0.61730590525E+03  0.25500000920E-02 0. -1.
    10030    2    1    2    0    0  0.00000000000E+00  0.00000000000E+00  0.17230009706E+04  0.29576127811E+04  0.24039012081E+04 0.  0.
        4    1    3    3  502    0  0.62008452979E+03 -0.10260024095E+04  0.96803583715E+03  0.15408701319E+04  0.12699999809E+01 0. -1.
       -4    1    3    3    0  502 -0.62008452979E+03  0.10260024095E+04  0.75496513346E+03  0.14167426492E+04  0.12699999809E+01 0.  1.
</event>
<event>
 5   0  0.1393026E-05  0.2418302E+04  0.7818609E-02  0.8432683E-01
       -1   -1    0    0    0  501  0.00000000000E+00  0.00000000000E+00  0.17436285278E+04  0.17436285278E+04  0.50400001928E-02 0.  1.
        1   -1    0    0  501    0  0.00000000000E+00  0.00000000000E+00 -0.83850811672E+03  0.83850811674E+03  0.50400001928E-02 0. -1.
    10030    2    1    2    0    0  0.00000000000E+00  0.00000000000E+00  0.90512041111E+03  0.25821366446E+04  0.24183024403E+04 0.  0.
        4    1    3    3  502    0 -0.40405947810E+03 -0.10295269562E+04 -0.69278151170E+02  0.11081475040E+04  0.12699999809E+01 0. -1.
       -4    1    3    3    0  502  0.40405947810E+03  0.10295269562E+04  0.97439856228E+03  0.14739891406E+04  0.12699999809E+01 0.  1.
</event>
<event>
 5   0  0.1407158E-05  0.2400321E+04  0.7818609E-02  0.8439383E-01
        1   -1    0    0  501    0  0.00000000000E+00  0.00000000000E+00  0.18252933305E+04  0.18252933305E+04  0.50400001928E-02 0.  1.
       -1   -1    0    0    0  501  0.00000000000E+00  0.00000000000E+00 -0.78912539946E+03  0.78912539947E+03  0.50400001928E-02 0. -1.
    10030    2    1    2    0    0  0.00000000000E+00  0.00000000000E+00  0.10361679311E+04  0.26144187300E+04  0.24003210857E+04 0.  0.
        1    1    3    3  502    0  0.73695021986E+03 -0.39158196148E+03 -0.42137677157E+03  0.93487455990E+03  0.50400001928E-02 0. -1.
       -1    1    3    3    0  502 -0.73695021986E+03  0.39158196148E+03  0.14575447026E+04  0.16795441701E+04  0.50400001928E-02 0.  1.
</event>
<event>
 5   0  0.1506985E-05  0.2388180E+04  0.7818609E-02  0.8443942E-01
       -1   -1    0    0    0  501  0.00000000000E+00  0.00000000000E+00  0.81606837054E+03  0.81606837055E+03  0.50400001928E-02 0.  1.
        1   -1    0    0  501    0  0.00000000000E+00  0.00000000000E+00 -0.17472192467E+04  0.17472192467E+04  0.50400001928E-02 0. -1.
    10030    2    1    2    0    0  0.00000000000E+00  0.00000000000E+00 -0.93115087615E+03  0.25632876172E+04  0.23881795273E+04 0.  0.
        3    1    3    3  502    0 -0.66079825833E+03 -0.17300780691E+03 -0.15168097138E+04  0.16635196895E+04  0.10100000352E+00 0. -1.
       -3    1    3    3    0  502  0.66079825833E+03  0.17300780691E+03  0.58565883762E+03  0.89976792772E+03  0.10100000352E+00 0.  1.
</event>
<event>
 5   0  0.1506985E-05  0.2296129E+04  0.7818609E-02  0.8479449E-01
        1   -1    0    0  501    0  0.00000000000E+00  0.00000000000E+00  0.12678498995E+04  0.12678498995E+04  0.50400001928E-02 0. -1.
       -1   -1    0    0    0  501  0.00000000000E+00  0.00000000000E+00 -0.10395965099E+04  0.10395965099E+04  0.50400001928E-02 0.  1.
    10030    2    1    2    0    0  0.00000000000E+00  0.00000000000E+00  0.22825338959E+03  0.23074464095E+04  0.22961292043E+04 0.  0.
        3    1    3    3  502    0 -0.64875747888E+03 -0.60627347872E+03  0.84544877107E+03  0.12260658351E+04  0.10100000352E+00 0. -1.
       -3    1    3    3    0  502  0.64875747888E+03  0.60627347872E+03 -0.61719538148E+03  0.10813805743E+04  0.10100000352E+00 0.  1.
</event>
<event>
 5   0  0.3345974E-05  0.2442301E+04  0.7818609E-02  0.8423834E-01
        2   -1    0    0  501    0  0.00000000000E+00  0.00000000000E+00  0.17153158308E+04  0.17153158308E+04  0.25500000920E-02 0. -1.
       -2   -1    0    0    0  501  0.00000000000E+00  0.00000000000E+00 -0.86934900222E+03  0.86934900222E+03  0.25500000920E-02 0.  1.
    10030    2    1    2    0    0  0.00000000000E+00  0.00000000000E+00  0.84596682860E+03  0.25846648330E+04  0.24423006416E+04 0.  0.
        4    1    3    3  502    0 -0.10489503098E+04  0.38381705706E+03 -0.99338910636E+02  0.11213751012E+04  0.12699999809E+01 0.  1.
       -4    1    3    3    0  502  0.10489503098E+04 -0.38381705706E+03  0.94530573923E+03  0.14632897318E+04  0.12699999809E+01 0. -1.
</event>
<event>
 5   0  0.1401596E-05  0.2396474E+04  0.7818609E-02  0.8440825E-01
        1   -1    0    0  501    0  0.00000000000E+00  0.00000000000E+00  0.16133956685E+04  0.16133956685E+04  0.50400001928E-02 0.  1.
       -1   -1    0    0    0  501  0.00000000000E+00  0.00000000000E+00 -0.88990719807E+03  0.88990719808E+03  0.50400001928E-02 0. -1.
    10030    2    1    2    0    0  0.00000000000E+00  0.00000000000E+00  0.72348847041E+03  0.25033028666E+04  0.23964744261E+04 0.  0.
        2    1    3    3  502    0 -0.27728717067E+03  0.84817262942E+03  0.11970714012E+04  0.14930723104E+04  0.25500000920E-02 0.  1.
       -2    1    3    3    0  502  0.27728717067E+03 -0.84817262942E+03 -0.47358293082E+03  0.10102305562E+04  0.25500000920E-02 0. -1.
</event>
<event>
 5   0  0.1393026E-05  0.2117393E+04  0.7818609E-02  0.8553620E-01
       -1   -1    0    0    0  501  0.00000000000E+00  0.00000000000E+00  0.97898922249E+03  0.97898922250E+03  0.50400001928E-02 0.  1.
        1   -1    0    0  501    0  0.00000000000E+00  0.00000000000E+00 -0.11448928811E+04  0.11448928811E+04  0.50400001928E-02 0. -1.
    10030    2    1    2    0    0  0.00000000000E+00  0.00000000000E+00 -0.16590365862E+03  0.21238821036E+04  0.21173925395E+04 0.  0.
        4    1    3    3  502    0 -0.13216818891E+03  0.55120131512E+03  0.81396143013E+03  0.99188010494E+03  0.12699999809E+01 0.  1.
       -4    1    3    3    0  502  0.13216818891E+03 -0.55120131512E+03 -0.97986508875E+03  0.11320019987E+04  0.12699999809E+01 0. -1.
</event>
<event>
 5   0  0.3345974E-05  0.2403845E+04  0.7818609E-02  0.8438065E-01
       -2   -1    0    0    0  501  0.00000000000E+00  0.00000000000E+00  0.19135473933E+04  0.19135473933E+04  0.25500000920E-02 0. -1.
        2   -1    0    0  501    0  0.00000000000E+00  0.00000000000E+00 -0.75494223358E+03  0.75494223358E+03  0.25500000920E-02 0.  1.
    10030    2    1    2    0    0  0.00000000000E+00  0.00000000000E+00  0.11586051598E+04  0.26684896269E+04  0.24038450393E+04 0.  0.
        4    1    3    3  502    0  0.44039985976E+03  0.10545219985E+04  0.99264977208E+03  0.15137119490E+04  0.12699999809E+01 0. -1.
       -4    1    3    3    0  502 -0.44039985976E+03 -0.10545219985E+04  0.16595538768E+03  0.11547776779E+04  0.12699999809E+01 0.  1.
</event>
<event>
 5   0  0.3320780E-05  0.2376928E+04  0.7818609E-02  0.8448192E-01
       -2   -1    0    0    0  501  0.00000000000E+00  0.00000000000E+00  0.53827637839E+03  0.53827637840E+03  0.25500000920E-02 0.  1.
        2   -1    0    0  501    0  0.00000000000E+00  0.00000000000E+00 -0.26240175125E+04  0.26240175125E+04  0.25500000920E-02 0. -1.
    10030    2    1    2    0    0  0.00000000000E+00  0.00000000000E+00 -0.20857411341E+04  0.31622938909E+04  0.23769279698E+04 0.  0.
        5    1    3    3  502    0 -0.60386993404E+03  0.36453466209E+03 -0.23154013801E+04  0.24204648434E+04  0.46999998093E+01 0. -1.
       -5    1    3    3    0  502  0.60386993404E+03 -0.36453466209E+03  0.22966024601E+03  0.74182904749E+03  0.46999998093E+01 0.  1.
</event>
<event>
 5   0  0.1393026E-05  0.2403726E+04  0.7818609E-02  0.8438110E-01
       -1   -1    0    0    0  501  0.00000000000E+00  0.00000000000E+00  0.17575849513E+04  0.17575849513E+04  0.50400001928E-02 0.  1.
        1   -1    0    0  501    0  0.00000000000E+00  0.00000000000E+00 -0.82185210187E+03  0.82185210189E+03  0.50400001928E-02 0. -1.
    10030    2    1    2    0    0  0.00000000000E+00  0.00000000000E+00  0.93573284946E+03  0.25794370532E+04  0.24037261795E+04 0.  0.
        4    1    3    3  502    0  0.11143513793E+04  0.34528156284E+03  0.77790657929E+03  0.14021906480E+04  0.12699999809E+01 0. -1.
       -4    1    3    3    0  502 -0.11143513793E+04 -0.34528156284E+03  0.15782627017E+03  0.11772464053E+04  0.12699999809E+01 0.  1.
</event>
<event>
 5   0  0.3345974E-05  0.2449595E+04  0.7818609E-02  0.8421166E-01
       -2   -1    0    0    0  501  0.00000000000E+00  0.00000000000E+00  0.11467077255E+04  0.11467077255E+04  0.25500000920E-02 0. -1.
        2   -1    0    0  501    0  0.00000000000E+00  0.00000000000E+00 -0.13082046508E+04  0.13082046508E+04  0.25500000920E-02 0.  1.
    10030    2    1    2    0    0  0.00000000000E+00  0.00000000000E+00 -0.16149692535E+03  0.24549123763E+04  0.24495945621E+04 0.  0.
        4    1    3    3  502    0  0.10467661945E+04  0.27754157561E+03 -0.65416011614E+03  0.12651781940E+04  0.12699999809E+01 0.  1.
       -4    1    3    3    0  502 -0.10467661945E+04 -0.27754157561E+03  0.49266319079E+03  0.11897341823E+04  0.12699999809E+01 0. -1.
</event>
<event>
 5   0  0.3347728E-05  0.2421804E+04  0.7818609E-02  0.8431385E-01
        2   -1    0    0  501    0  0.00000000000E+00  0.00000000000E+00  0.10033555152E+04  0.10033555152E+04  0.25500000920E-02 0. -1.
       -2   -1    0    0    0  501  0.00000000000E+00  0.00000000000E+00 -0.14613804018E+04  0.14613804018E+04  0.25500000920E-02 0.  1.
    10030    2    1    2    0    0  0.00000000000E+00  0.00000000000E+00 -0.45802488657E+03  0.24647359169E+04  0.24218043570E+04 0.  0.
        3    1    3    3  502    0 -0.15410265529E+03 -0.75179015985E+03 -0.11822854237E+04  0.14095158410E+04  0.10100000352E+00 0.  1.
       -3    1    3    3    0  502  0.15410265529E+03  0.75179015985E+03  0.72426053712E+03  0.10552200759E+04  0.10100000352E+00 0. -1.
</event>
<event>
 5   0  0.1434943E-05  0.2398247E+04  0.7818609E-02  0.8440160E-01
       -1   -1    0    0    0  501  0.00000000000E+00  0.00000000000E+00  0.66132400225E+03  0.66132400227E+03  0.50400001928E-02 0. -1.
        1   -1    0    0  501    0  0.00000000000E+00  0.00000000000E+00 -0.21742709590E+04  0.21742709590E+04  0.50400001928E-02 0.  1.
    10030    2    1    2    0    0  0.00000000000E+00  0.00000000000E+00 -0.15129469568E+04  0.28355949613E+04  0.23982473372E+04 0.  0.
        5    1    3    3  502    0 -0.60486769743E+03  0.27332598508E+03  0.42429265230E+03  0.78779335508E+03  0.46999998093E+01 0. -1.
       -5    1    3    3    0  502  0.60486769743E+03 -0.27332598508E+03 -0.19372396091E+04  0.20478016062E+04  0.46999998093E+01 0.  1.
</event>
<event>
 5   0  0.3310037E-05  0.2427050E+04  0.7818609E-02  0.8429445E-01
       -2   -1    0    0    0  501  0.00000000000E+00  0.00000000000E+00  0.22303972781E+04  0.22303972781E+04  0.25500000920E-02 0.  1.
        2   -1    0    0  501    0  0.00000000000E+00  0.00000000000E+00 -0.66026050758E+03  0.66026050758E+03  0.25500000920E-02 0. -1.
    10030    2    1    2    0    0  0.00000000000E+00  0.00000000000E+00  0.15701367705E+04  0.28906577857E+04  0.24270502582E+04 0.  0.
        2    1    3    3  502    0 -0.82901803497E+03  0.69010638740E+02  0.18373571398E+04  0.20169071941E+04  0.25500000920E-02 0.  1.
       -2    1    3    3    0  502  0.82901803497E+03 -0.69010638740E+02 -0.26722036923E+03  0.87375059159E+03  0.25500000920E-02 0. -1.
</event>
<event>
 5   0  0.1147362E-05  0.2360459E+04  0.7818609E-02  0.8454457E-01
       -3   -1    0    0    0  501  0.00000000000E+00  0.00000000000E+00  0.72455241691E+03  0.72455242395E+03  0.10100000352E+00 0. -1.
        3   -1    0    0  501    0  0.00000000000E+00  0.00000000000E+00 -0.19224854816E+04  0.19224854843E+04  0.10100000352E+00 0.  1.
    10030    2    1    2    0    0  0.00000000000E+00  0.00000000000E+00 -0.11979330647E+04  0.26470379082E+04  0.23604588664E+04 0.  0.
        2    1    3    3  502    0 -0.20096784279E+03  0.11551214810E+04 -0.75045132708E+03  0.13920743170E+04  0.25500000920E-02 0.  1.
       -2    1    3    3    0  502  0.20096784279E+03 -0.11551214810E+04 -0.44748173763E+03  0.12549635912E+04  0.25500000920E-02 0. -1.
</event>
<event>
 5   0  0.3310037E-05  0.2396522E+04  0.7818609E-02  0.8440807E-01
       -2   -1    0    0    0  501  0.00000000000E+00  0.00000000000E+00  0.10152024084E+04  0.10152024084E+04  0.25500000920E-02 0. -1.
        2   -1    0    0  501    0  0.00000000000E+00  0.00000000000E+00 -0.14143282720E+04  0.14143282720E+04  0.25500000920E-02 0.  1.
    10030    2    1    2    0    0  0.00000000000E+00  0.00000000000E+00 -0.39912586352E+03  0.24295306804E+04  0.23965220366E+04 0.  0.
        2    1    3    3  502    0  0.89961829555E+03  0.28530432248E+03 -0.94805319679E+03  0.13377281107E+04  0.25500000920E-02 0.  1.
       -2    1    3    3    0  502 -0.89961829555E+03 -0.28530432248E+03  0.54892733326E+03  0.10918025698E+04  0.25500000920E-02 0. -1.
</event>
<event>
 5   0  0.1506985E-05  0.2422778E+04  0.7818609E-02  0.8431025E-01
       -1   -1    0    0    0  501  0.00000000000E+00  0.00000000000E+00  0.11939262040E+04  0.11939262040E+04  0.50400001928E-02 0. -1.
        1   -1    0    0  501    0  0.00000000000E+00  0.00000000000E+00 -0.12291068747E+04  0.12291068747E+04  0.50400001928E-02 0.  1.
    10030    2    1    2    0    0  0.00000000000E+00  0.00000000000E+00 -0.35180670739E+02  0.24230330787E+04  0.24227776665E+04 0.  0.
        3    1    3    3  502    0  0.57331932697E+03  0.39156513531E+03  0.97520993346E+03  0.11971018045E+04  0.10100000352E+00 0. -1.
       -3    1    3    3    0  502 -0.57331932697E+03 -0.39156513531E+03 -0.10103906042E+04  0.12259312742E+04  0.10100000352E+00 0.  1.
</event>
<event>
 5   0  0.3347728E-05  0.2428387E+04  0.7818609E-02  0.8428952E-01
        2   -1    0    0  501    0  0.00000000000E+00  0.00000000000E+00  0.14631514954E+04  0.14631514954E+04  0.25500000920E-02 0.  1.
       -2   -1    0    0    0  501  0.00000000000E+00  0.00000000000E+00 -0.10075957711E+04  0.10075957711E+04  0.25500000920E-02 0. -1.
    10030    2    1    2    0    0  0.00000000000E+00  0.00000000000E+00  0.45555572436E+03  0.24707472665E+04  0.24283865089E+04 0.  0.
        3    1    3    3  502    0 -0.65833927315E+03 -0.42434050581E+02  0.12648992052E+04  0.14265977908E+04  0.10100000352E+00 0.  1.
       -3    1    3    3    0  502  0.65833927315E+03  0.42434050581E+02 -0.80934348088E+03  0.10441494756E+04  0.10100000352E+00 0. -1.
</event>
<event>
 5   0  0.1401596E-05  0.2326243E+04  0.7818609E-02  0.8467645E-01
       -1   -1    0    0    0  501  0.00000000000E+00  0.00000000000E+00  0.12714253171E+04  0.12714253171E+04  0.50400001928E-02 0.  1.
        1   -1    0    0  501    0  0.00000000000E+00  0.00000000000E+00 -0.10640429907E+04  0.10640429907E+04  0.50400001928E-02 0. -1.
    10030    2    1    2    0    0  0.00000000000E+00  0.00000000000E+00  0.20738232638E+03  0.23354683078E+04  0.23262426330E+04 0.  0.
        2    1    3    3  502    0  0.97213734212E+03  0.62241137593E+03 -0.39718836622E+02  0.11549997917E+04  0.25500000920E-02 0.  1.
       -2    1    3    3    0  502 -0.97213734212E+03 -0.62241137593E+03  0.24710116300E+03  0.11804685161E+04  0.25500000920E-02 0. -1.
</event>
<event>
 5   0  0.1407158E-05  0.2391262E+04  0.7818609E-02  0.8442782E-01
       -1   -1    0    0    0  501  0.00000000000E+00  0.00000000000E+00  0.10657991218E+04  0.10657991218E+04  0.50400001928E-02 0. -1.
        1   -1    0    0  501    0  0.00000000000E+00  0.00000000000E+00 -0.13412782002E+04  0.13412782002E+04  0.50400001928E-02 0.  1.
    10030    2    1    2    0    0  0.00000000000E+00  0.00000000000E+00 -0.27547907846E+03  0.24070773220E+04  0.23912616987E+04 0.  0.
        1    1    3    3  502    0 -0.15372074723E+03  0.48671669715E+03  0.95061910537E+03  0.10789809521E+04  0.50400001928E-02 0. -1.
       -1    1    3    3    0  502  0.15372074723E+03 -0.48671669715E+03 -0.12260981838E+04  0.13280963699E+04  0.50400001928E-02 0.  1.
</event>
<event>
 5   0  0.3310037E-05  0.2404610E+04  0.7818609E-02  0.8437780E-01
       -2   -1    0    0    0  501  0.00000000000E+00  0.00000000000E+00  0.12792382783E+04  0.12792382783E+04  0.25500000920E-02 0.  1.
        2   -1    0    0  501    0  0.00000000000E+00  0.00000000000E+00 -0.11299983952E+04  0.11299983952E+04  0.25500000920E-02 0. -1.
    10030    2    1    2    0    0  0.00000000000E+00  0.00000000000E+00  0.14923988316E+03  0.24092366735E+04  0.24046099073E+04 0.  0.
        2    1    3    3  502    0 -0.71594833035E+02 -0.48834639977E+03  0.11730547122E+04  0.12726607498E+04  0.25500000920E-02 0.  1.
       -2    1    3    3    0  502  0.71594833035E+02  0.48834639977E+03 -0.10238148290E+04  0.11365759237E+04  0.25500000920E-02 0. -1.
</event>
<event>
 5   0  0.1506985E-05  0.2403511E+04  0.7818609E-02  0.8438190E-01
        1   -1    0    0  501    0  0.00000000000E+00  0.00000000000E+00  0.16873312301E+04  0.16873312301E+04  0.50400001928E-02 0. -1.
       -1   -1    0    0    0  501  0.00000000000E+00  0.00000000000E+00 -0.85591713584E+03  0.85591713586E+03  0.50400001928E-02 0.  1.
    10030    2    1    2    0    0  0.00000000000E+00  0.00000000000E+00  0.83141409429E+03  0.25432483660E+04  0.24035105273E+04 0.  0.
        3    1    3    3  502    0  0.99013551610E+03  0.54305635224E+02 -0.30265814436E+03  0.10367832005E+04  0.10100000352E+00 0.  1.
       -3    1    3    3    0  502 -0.99013551610E+03 -0.54305635224E+02  0.11340722386E+04  0.15064651655E+04  0.10100000352E+00 0. -1.
</event>
<event>
 5   0  0.3345974E-05  0.2397275E+04  0.7818609E-02  0.8440525E-01
       -2   -1    0    0    0  501  0.00000000000E+00  0.00000000000E+00  0.11572220327E+04  0.11572220327E+04  0.25500000920E-02 0.  1.
        2   -1    0    0  501    0  0.00000000000E+00  0.00000000000E+00 -0.12415349689E+04  0.12415349689E+04  0.25500000920E-02 0. -1.
    10030    2    1    2    0    0  0.00000000000E+00  0.00000000000E+00 -0.84312936180E+02  0.23987570016E+04  0.23972748031E+04 0.  0.
        4    1    3    3  502    0 -0.53473438565E+03  0.97128697972E+03 -0.49783977882E+03  0.12153951285E+04  0.12699999809E+01 0. -1.
       -4    1    3    3    0  502  0.53473438565E+03 -0.97128697972E+03  0.41352684264E+03  0.11833618731E+04  0.12699999809E+01 0.  1.
</event>
<event>
 5   0  0.3347728E-05  0.2564442E+04  0.7818609E-02  0.8380381E-01
       -2   -1    0    0    0  501  0.00000000000E+00  0.00000000000E+00  0.11907723160E+04  0.11907723160E+04  0.25500000920E-02 0. -1.
        2   -1    0    0  501    0  0.00000000000E+00  0.00000000000E+00 -0.13806931383E+04  0.13806931383E+04  0.25500000920E-02 0.  1.
    10030    2    1    2    0    0  0.00000000000E+00  0.00000000000E+00 -0.18992082235E+03  0.25714654543E+04  0.25644423690E+04 0.  0.
        3    1    3    3  502    0  0.48670121230E+03 -0.51193189227E+01 -0.12844582001E+04  0.13735855108E+04  0.10100000352E+00 0.  1.
       -3    1    3    3    0  502 -0.48670121230E+03  0.51193189227E+01  0.10945373778E+04  0.11978799435E+04  0.10100000352E+00 0. -1.
</event>
<event>
 5   0  0.3320780E-05  0.2376243E+04  0.7818609E-02  0.8448452E-01
       -2   -1    0    0    0  501  0.00000000000E+00  0.00000000000E+00  0.62748068241E+03  0.62748068242E+03  0.25500000920E-02 0. -1.
        2   -1    0    0  501    0  0.00000000000E+00  0.00000000000E+00 -0.22496828987E+04  0.22496828987E+04  0.25500000920E-02 0.  1.
    10030    2    1    2    0    0  0.00000000000E+00  0.00000000000E+00 -0.16222022163E+04  0.28771635811E+04  0.23762428836E+04 0.  0.
        5    1    3    3  502    0 -0.27160555801E+03 -0.31736054876E+03 -0.21578300585E+04  0.21978944353E+04  0.46999998093E+01 0.  1.
       -5    1    3    3    0  502  0.27160555801E+03  0.31736054876E+03  0.53562784228E+03  0.67926914583E+03  0.46999998093E+01 0. -1.
</event>
<event>
 5   0  0.1393026E-05  0.2409263E+04  0.7818609E-02  0.8436044E-01
       -1   -1    0    0    0  501  0.00000000000E+00  0.00000000000E+00  0.10368835984E+04  0.10368835984E+04  0.50400001928E-02 0. -1.
        1   -1    0    0  501    0  0.00000000000E+00  0.00000000000E+00 -0.13995181960E+04  0.13995181960E+04  0.50400001928E-02 0.  1.
    10030    2    1    2    0    0  0.00000000000E+00  0.00000000000E+00 -0.36263459760E+03  0.24364017945E+04  0.24092633423E+04 0.  0.
        4    1    3    3  502    0  0.75122585853E+03 -0.30746032936E+03  0.71880085015E+03  0.10842271071E+04  0.12699999809E+01 0. -1.
       -4    1    3    3    0  502 -0.75122585853E+03  0.30746032936E+03 -0.10814354478E+04  0.13521746874E+04  0.12699999809E+01 0.  1.
</event>
<event>
 5   0  0.1506985E-05  0.2330500E+04  0.7818609E-02  0.8465992E-01
       -1   -1    0    0    0  501  0.00000000000E+00  0.00000000000E+00  0.52391657559E+03  0.52391657562E+03  0.50400001928E-02 0. -1.
        1   -1    0    0  501    0  0.00000000000E+00  0.00000000000E+00 -0.25916479297E+04  0.25916479297E+04  0.50400001928E-02 0.  1.
    10030    2    1    2    0    0  0.00000000000E+00  0.00000000000E+00 -0.20677313541E+04  0.31155645053E+04  0.23304997820E+04 0.  0.
        3    1    3    3  502    0  0.12114250319E+03  0.11248070478E+04 -0.14070903805E+04  0.18054832456E+04  0.10100000352E+00 0. -1.
       -3    1    3    3    0  502 -0.12114250319E+03 -0.11248070478E+04 -0.66064097363E+03  0.13100812598E+04  0.10100000352E+00 0.  1.
</event>
<event>
 5   0  0.1434943E-05  0.2397482E+04  0.7818609E-02  0.8440447E-01
       -1   -1    0    0    0  501  0.00000000000E+00  0.00000000000E+00  0.17463186844E+04  0.17463186844E+04  0.50400001928E-02 0. -1.
        1   -1    0    0  501    0  0.00000000000E+00  0.00000000000E+00 -0.82286213927E+03  0.82286213929E+03  0.50400001928E-02 0.  1.
    10030    2    1    2    0    0  0.00000000000E+00  0.00000000000E+00  0.92345654511E+03  0.25691808237E+04  0.23974816191E+04 0.  0.
        5    1    3    3  502    0 -0.94218394576E+03 -0.24043227085E+03 -0.28950406056E+03  0.10145703305E+04  0.46999998093E+01 0.  1.
       -5    1    3    3    0  502  0.94218394576E+03  0.24043227085E+03  0.12129606057E+04  0.15546104932E+04  0.46999998093E+01 0. -1.
</event>
<event>
 5   0  0.3345974E-05  0.2397584E+04  0.7818609E-02  0.8440409E-01
       -2   -1    0    0    0  501  0.00000000000E+00  0.00000000000E+00  0.17086594414E+04  0.17086594414E+04  0.25500000920E-02 0. -1.
        2   -1    0    0  501    0  0.00000000000E+00  0.00000000000E+00 -0.84107017039E+03  0.84107017040E+03  0.25500000920E-02 0.  1.
    10030    2    1    2    0    0  0.00000000000E+00  0.00000000000E+00  0.86758927104E+03  0.25497296118E+04  0.23975841904E+04 0.  0.
        4    1    3    3  502    0 -0.13891579375E+02  0.11969692984E+04  0.50248773176E+03  0.12982388111E+04  0.12699999809E+01 0.  1.
       -4    1    3    3    0  502  0.13891579375E+02 -0.11969692984E+04  0.36510153928E+03  0.12514908007E+04  0.12699999809E+01 0. -1.
</event>
<event>
 5   0  0.3215208E-05  0.2359945E+04  0.7818609E-02  0.8454654E-01
       -2   -1    0    0    0  501  0.00000000000E+00  0.00000000000E+00  0.92388813882E+03  0.92388813882E+03  0.25500000920E-02 0. -1.
        2   -1    0    0  501    0  0.00000000000E+00  0.00000000000E+00 -0.15070385745E+04  0.15070385745E+04  0.25500000920E-02 0.  1.
    10030    2    1    2    0    0  0.00000000000E+00  0.00000000000E+00 -0.58315043565E+03  0.24309267133E+04  0.23599449686E+04 0.  0.
        1    1    3    3  502    0  0.26895790960E+03  0.63343462417E+03 -0.12789235292E+04  0.14523164854E+04  0.50400001928E-02 0.  1.
       -1    1    3    3    0  502 -0.26895790960E+03 -0.63343462417E+03  0.69577309359E+03  0.97861022784E+03  0.50400001928E-02 0. -1.
</event>
<event>
 5   0  0.3320780E-05  0.2429079E+04  0.7818609E-02  0.8428696E-01
       -2   -1    0    0    0  501  0.00000000000E+00  0.00000000000E+00  0.11476685460E+04  0.11476685460E+04  0.25500000920E-02 0. -1.
        2   -1    0    0  501    0  0.00000000000E+00  0.00000000000E+00 -0.12853069422E+04  0.12853069422E+04  0.25500000920E-02 0.  1.
    10030    2    1    2    0    0  0.00000000000E+00  0.00000000000E+00 -0.13763839625E+03  0.24329754882E+04  0.24290791255E+04 0.  0.
        5    1    3    3  502    0 -0.31445699767E+02  0.30718767845E+03  0.11076845296E+04  0.11499305235E+04  0.46999998093E+01 0. -1.
       -5    1    3    3    0  502  0.31445699767E+02 -0.30718767845E+03 -0.12453229258E+04  0.12830449647E+04  0.46999998093E+01 0.  1.
</event>
<event>
 5   0  0.3345974E-05  0.2419513E+04  0.7818609E-02  0.8432234E-01
       -2   -1    0    0    0  501  0.00000000000E+00  0.00000000000E+00  0.11597257476E+04  0.11597257476E+04  0.25500000920E-02 0. -1.
        2   -1    0    0  501    0  0.00000000000E+00  0.00000000000E+00 -0.12619458740E+04  0.12619458740E+04  0.25500000920E-02 0.  1.
    10030    2    1    2    0    0  0.00000000000E+00  0.00000000000E+00 -0.10222012640E+03  0.24216716215E+04  0.24195132751E+04 0.  0.
        4    1    3    3  502    0 -0.85140608337E+03  0.85878134602E+03 -0.17736802232E+02  0.12094271066E+04  0.12699999809E+01 0. -1.
       -4    1    3    3    0  502  0.85140608337E+03 -0.85878134602E+03 -0.84483324165E+02  0.12122445150E+04  0.12699999809E+01 0.  1.
</event>
<event>
 5   0  0.3310037E-05  0.2391974E+04  0.7818609E-02  0.8442515E-01
        2   -1    0    0  501    0  0.00000000000E+00  0.00000000000E+00  0.26384466743E+04  0.26384466743E+04  0.25500000920E-02 0. -1.
       -2   -1    0    0    0  501  0.00000000000E+00  0.00000000000E+00 -0.54213134516E+03  0.54213134516E+03  0.25500000920E-02 0.  1.
    10030    2    1    2    0    0  0.00000000000E+00  0.00000000000E+00  0.20963153292E+04  0.31805780195E+04  0.23919737830E+04 0.  0.
        2    1    3    3  502    0  0.69704688064E+03 -0.28599170423E+03 -0.18689173367E+03  0.77626936615E+03  0.25500000920E-02 0.  1.
       -2    1    3    3    0  502 -0.69704688064E+03  0.28599170423E+03  0.22832070628E+04  0.24043086533E+04  0.25500000920E-02 0. -1.
</event>
<event>
 5   0  0.3320780E-05  0.2558846E+04  0.7818609E-02  0.8382316E-01
       -2   -1    0    0    0  501  0.00000000000E+00  0.00000000000E+00  0.11934815068E+04  0.11934815068E+04  0.25500000920E-02 0. -1.
        2   -1    0    0  501    0  0.00000000000E+00  0.00000000000E+00 -0.13715530548E+04  0.13715530548E+04  0.25500000920E-02 0.  1.
    10030    2    1    2    0    0  0.00000000000E+00  0.00000000000E+00 -0.17807154802E+03  0.25650345616E+04  0.25588459950E+04 0.  0.
        5    1    3    3  502    0 -0.11194335763E+03  0.44199359362E+03 -0.12873395538E+04  0.13657067287E+04  0.46999998093E+01 0.  1.
       -5    1    3    3    0  502  0.11194335763E+03 -0.44199359362E+03  0.11092680058E+04  0.11993278329E+04  0.46999998093E+01 0. -1.
</event>
<event>
 5   0  0.3320780E-05  0.2434479E+04  0.7818609E-02  0.8426707E-01
       -2   -1    0    0    0  501  0.00000000000E+00  0.00000000000E+00  0.70516157696E+03  0.70516157697E+03  0.25500000920E-02 0.  1.
        2   -1    0    0  501    0  0.00000000000E+00  0.00000000000E+00 -0.21011814640E+04  0.21011814640E+04  0.25500000920E-02 0. -1.
    10030    2    1    2    0    0  0.00000000000E+00  0.00000000000E+00 -0.13960198871E+04  0.28063430410E+04  0.24344793568E+04 0.  0.
        5    1    3    3  502    0 -0.97827053647E+03  0.67119302514E+03 -0.10118817005E+04  0.15593075339E+04  0.46999998093E+01 0. -1.
       -5    1    3    3    0  502  0.97827053647E+03 -0.67119302514E+03 -0.38413818656E+03  0.12470355071E+04  0.46999998093E+01 0.  1.
</event>
<event>
 5   0  0.1401596E-05  0.2383705E+04  0.7818609E-02  0.8445630E-01
        1   -1    0    0  501    0  0.00000000000E+00  0.00000000000E+00  0.12713540988E+04  0.12713540988E+04  0.50400001928E-02 0.  1.
       -1   -1    0    0    0  501  0.00000000000E+00  0.00000000000E+00 -0.11173219818E+04  0.11173219818E+04  0.50400001928E-02 0. -1.
    10030    2    1    2    0    0  0.00000000000E+00  0.00000000000E+00  0.15403211703E+03  0.23886760806E+04  0.23837045801E+04 0.  0.
        2    1    3    3  502    0  0.43628705773E+03 -0.25233313184E+02 -0.10341377431E+04  0.11226860596E+04  0.25500000920E-02 0. -1.
       -2    1    3    3    0  502 -0.43628705773E+03  0.25233313184E+02  0.11881698601E+04  0.12659900210E+04  0.25500000920E-02 0.  1.
</event>
<event>
 5   0  0.1401596E-05  0.2247760E+04  0.7818609E-02  0.8498808E-01
       -1   -1    0    0    0  501  0.00000000000E+00  0.00000000000E+00  0.13614749785E+04  0.13614749785E+04  0.50400001928E-02 0. -1.
        1   -1    0    0  501    0  0.00000000000E+00  0.00000000000E+00 -0.92774861679E+03  0.92774861681E+03  0.50400001928E-02 0.  1.
    10030    2    1    2    0    0  0.00000000000E+00  0.00000000000E+00  0.43372636169E+03  0.22892235953E+04  0.22477602435E+04 0.  0.
        2    1    3    3  502    0  0.16825299686E+03 -0.71859873228E+03  0.10800909759E+04  0.13081627289E+04  0.25500000920E-02 0. -1.
       -2    1    3    3    0  502 -0.16825299686E+03  0.71859873228E+03 -0.64636461426E+03  0.98106086639E+03  0.25500000920E-02 0.  1.
</event>
<event>
 5   0  0.1147362E-05  0.2397095E+04  0.7818609E-02  0.8440592E-01
        4   -1    0    0  501    0  0.00000000000E+00  0.00000000000E+00  0.85401019581E+03  0.85401114012E+03  0.12699999809E+01 0.  1.
       -4   -1    0    0    0  501  0.00000000000E+00  0.00000000000E+00 -0.16820813690E+04  0.16820818485E+04  0.12699999809E+01 0. -1.
    10030    2    1    2    0    0  0.00000000000E+00  0.00000000000E+00 -0.82807117323E+03  0.25360929886E+04  0.23970952795E+04 0.  0.
        3    1    3    3  502    0  0.10555286005E+04 -0.52001931340E+03 -0.17288042190E+03  0.11893058325E+04  0.10100000352E+00 0. -1.
       -3    1    3    3    0  502 -0.10555286005E+04  0.52001931340E+03 -0.65519075133E+03  0.13467871560E+04  0.10100000352E+00 0.  1.
</event>
<event>
 5   0  0.1434943E-05  0.2404583E+04  0.7818609E-02  0.8437790E-01
       -1   -1    0    0    0  501  0.00000000000E+00  0.00000000000E+00  0.10630534385E+04  0.10630534385E+04  0.50400001928E-02 0.  1.
        1   -1    0    0  501    0  0.00000000000E+00  0.00000000000E+00 -0.13597673897E+04  0.13597673897E+04  0.50400001928E-02 0. -1.
    10030    2    1    2    0    0  0.00000000000E+00  0.00000000000E+00 -0.29671395114E+03  0.24228208282E+04  0.24045834560E+04 0.  0.
        5    1    3    3  502    0 -0.45283171351E+03  0.65176555054E+03  0.76161416198E+03  0.10999695975E+04  0.46999998093E+01 0.  1.
       -5    1    3    3    0  502  0.45283171351E+03 -0.65176555054E+03 -0.10583281131E+04  0.13228512307E+04  0.46999998093E+01 0. -1.
</event>
<event>
 5   0  0.3347728E-05  0.2396041E+04  0.7818609E-02  0.8440987E-01
        2   -1    0    0  501    0  0.00000000000E+00  0.00000000000E+00  0.18846973676E+04  0.18846973676E+04  0.25500000920E-02 0.  1.
       -2   -1    0    0    0  501  0.00000000000E+00  0.00000000000E+00 -0.76152990650E+03  0.76152990651E+03  0.25500000920E-02 0. -1.
    10030    2    1    2    0    0  0.00000000000E+00  0.00000000000E+00  0.11231674611E+04  0.26462272741E+04  0.23960412435E+04 0.  0.
        3    1    3    3  502    0 -0.60607469510E+03  0.10297712822E+04  0.46595140747E+03  0.12825233542E+04  0.10100000352E+00 0. -1.
       -3    1    3    3    0  502  0.60607469510E+03 -0.10297712822E+04  0.65721605360E+03  0.13637039199E+04  0.10100000352E+00 0.  1.
</event>
<event>
 5   0  0.1407158E-05  0.2405193E+04  0.7818609E-02  0.8437562E-01
       -1   -1    0    0    0  501  0.00000000000E+00  0.00000000000E+00  0.74251668192E+03  0.74251668193E+03  0.50400001928E-02 0. -1.
        1   -1    0    0  501    0  0.00000000000E+00  0.00000000000E+00 -0.19477515982E+04  0.19477515982E+04  0.50400001928E-02 0.  1.
    10030    2    1    2    0    0  0.00000000000E+00  0.00000000000E+00 -0.12052349163E+04  0.26902682802E+04  0.24051927606E+04 0.  0.
        1    1    3    3  502    0  0.31911546427E+03 -0.86481053952E+01 -0.18994933578E+04  0.19261320011E+04  0.50400001928E-02 0.  1.
       -1    1    3    3    0  502 -0.31911546427E+03  0.86481053952E+01  0.69425844154E+03  0.76413627903E+03  0.50400001928E-02 0. -1.
</event>
<event>
 5   0  0.1401596E-05  0.2249735E+04  0.7818609E-02  0.8498008E-01
       -1   -1    0    0    0  501  0.00000000000E+00  0.00000000000E+00  0.13612825375E+04  0.13612825375E+04  0.50400001928E-02 0.  1.
        1   -1    0    0  501    0  0.00000000000E+00  0.00000000000E+00 -0.92951092359E+03  0.92951092360E+03  0.50400001928E-02 0. -1.
    10030    2    1    2    0    0  0.00000000000E+00  0.00000000000E+00  0.43177161395E+03  0.22907934611E+04  0.22497350855E+04 0.  0.
        2    1    3    3  502    0 -0.32689476336E+03 -0.43481612934E+03 -0.78666513644E+03  0.95643467605E+03  0.25500000920E-02 0. -1.
       -2    1    3    3    0  502  0.32689476336E+03  0.43481612934E+03  0.12184367504E+04  0.13343587851E+04  0.25500000920E-02 0.  1.
</event>
<event>
 5   0  0.1434943E-05  0.2429874E+04  0.7818609E-02  0.8428403E-01
       -1   -1    0    0    0  501  0.00000000000E+00  0.00000000000E+00  0.17178570927E+04  0.17178570927E+04  0.50400001928E-02 0. -1.
        1   -1    0    0  501    0  0.00000000000E+00  0.00000000000E+00 -0.85925162683E+03  0.85925162684E+03  0.50400001928E-02 0.  1.
    10030    2    1    2    0    0  0.00000000000E+00  0.00000000000E+00  0.85860546590E+03  0.25771087196E+04  0.24298736606E+04 0.  0.
        5    1    3    3  502    0 -0.42275313166E+03 -0.31227889826E+03 -0.73242801220E+03  0.90150496598E+03  0.46999998093E+01 0.  1.
       -5    1    3    3    0  502  0.42275313166E+03  0.31227889826E+03  0.15910334781E+04  0.16756037536E+04  0.46999998093E+01 0. -1.
</event>
<event>
 5   0  0.3310037E-05  0.2397888E+04  0.7818609E-02  0.8440295E-01
        2   -1    0    0  501    0  0.00000000000E+00  0.00000000000E+00  0.12068290926E+04  0.12068290926E+04  0.25500000920E-02 0.  1.
       -2   -1    0    0    0  501  0.00000000000E+00  0.00000000000E+00 -0.11911108236E+04  0.11911108236E+04  0.25500000920E-02 0. -1.
    10030    2    1    2    0    0  0.00000000000E+00  0.00000000000E+00  0.15718268970E+02  0.23979399162E+04  0.23978883998E+04 0.  0.
        2    1    3    3  502    0 -0.50931907426E+03 -0.10776111150E+04 -0.12181847501E+03  0.11981199337E+04  0.25500000920E-02 0. -1.
       -2    1    3    3    0  502  0.50931907426E+03  0.10776111150E+04  0.13753674398E+03  0.11998199826E+04  0.25500000920E-02 0.  1.
</event>
<event>
 5   0  0.3345974E-05  0.2395799E+04  0.7818609E-02  0.8441078E-01
        2   -1    0    0  501    0  0.00000000000E+00  0.00000000000E+00  0.14107208734E+04  0.14107208734E+04  0.25500000920E-02 0.  1.
       -2   -1    0    0    0  501  0.00000000000E+00  0.00000000000E+00 -0.10171847363E+04  0.10171847363E+04  0.25500000920E-02 0. -1.
    10030    2    1    2    0    0  0.00000000000E+00  0.00000000000E+00  0.39353613713E+03  0.24279056097E+04  0.23957994403E+04 0.  0.
        4    1    3    3  502    0 -0.11930412589E+04  0.10647282855E+03  0.21367146739E+03  0.12166926553E+04  0.12699999809E+01 0. -1.
       -4    1    3    3    0  502  0.11930412589E+04 -0.10647282855E+03  0.17986466974E+03  0.12112129544E+04  0.12699999809E+01 0.  1.
</event>
<event>
 5   0  0.1506985E-05  0.2384878E+04  0.7818609E-02  0.8445187E-01
        1   -1    0    0  501    0  0.00000000000E+00  0.00000000000E+00  0.14107352239E+04  0.14107352239E+04  0.50400001928E-02 0. -1.
       -1   -1    0    0    0  501  0.00000000000E+00  0.00000000000E+00 -0.10079216305E+04  0.10079216305E+04  0.50400001928E-02 0.  1.
    10030    2    1    2    0    0  0.00000000000E+00  0.00000000000E+00  0.40281359334E+03  0.24186568544E+04  0.23848778142E+04 0.  0.
        3    1    3    3  502    0  0.74642158410E+03  0.53928051086E+03  0.96972670105E+03  0.13372877535E+04  0.10100000352E+00 0.  1.
       -3    1    3    3    0  502 -0.74642158410E+03 -0.53928051086E+03 -0.56691310772E+03  0.10813691010E+04  0.10100000352E+00 0. -1.
</event>
<event>
 5   0  0.3310037E-05  0.2433063E+04  0.7818609E-02  0.8427228E-01
       -2   -1    0    0    0  501  0.00000000000E+00  0.00000000000E+00  0.77651218082E+03  0.77651218082E+03  0.25500000920E-02 0. -1.
        2   -1    0    0  501    0  0.00000000000E+00  0.00000000000E+00 -0.19058923704E+04  0.19058923704E+04  0.25500000920E-02 0.  1.
    10030    2    1    2    0    0  0.00000000000E+00  0.00000000000E+00 -0.11293801896E+04  0.26824045512E+04  0.24330627949E+04 0.  0.
        2    1    3    3  502    0 -0.55046796524E+03 -0.96572415860E+01  0.63130595049E+03  0.83764876064E+03  0.25500000920E-02 0. -1.
       -2    1    3    3    0  502  0.55046796524E+03  0.96572415860E+01 -0.17606861400E+04  0.18447557906E+04  0.25500000920E-02 0.  1.
</event>
<event>
 5   0  0.1434943E-05  0.2362643E+04  0.7818609E-02  0.8453623E-01
        1   -1    0    0  501    0  0.00000000000E+00  0.00000000000E+00  0.15774032543E+04  0.15774032543E+04  0.50400001928E-02 0. -1.
       -1   -1    0    0    0  501  0.00000000000E+00  0.00000000000E+00 -0.88469496520E+03  0.88469496521E+03  0.50400001928E-02 0.  1.
    10030    2    1    2    0    0  0.00000000000E+00  0.00000000000E+00  0.69270828912E+03  0.24620982195E+04  0.23626431954E+04 0.  0.
        5    1    3    3  502    0 -0.10715729624E+04 -0.16823407189E+03  0.83394685618E+03  0.13682327162E+04  0.46999998093E+01 0. -1.
       -5    1    3    3    0  502  0.10715729624E+04  0.16823407189E+03 -0.14123856706E+03  0.10938655034E+04  0.46999998093E+01 0.  1.
</event>
<event>
 5   0  0.1393026E-05  0.2297219E+04  0.7818609E-02  0.8479019E-01
        1   -1    0    0  501    0  0.00000000000E+00  0.00000000000E+00  0.11292247145E+04  0.11292247145E+04  0.50400001928E-02 0. -1.
       -1   -1    0    0    0  501  0.00000000000E+00  0.00000000000E+00 -0.11683266736E+04  0.11683266736E+04  0.50400001928E-02 0.  1.
    10030    2    1    2    0    0  0.00000000000E+00  0.00000000000E+00 -0.39101959068E+02  0.22975513881E+04  0.22972186264E+04 0.  0.
        4    1    3    3  502    0  0.41083216017E+03  0.55494736031E+03 -0.93759031255E+03  0.11643997783E+04  0.12699999809E+01 0.  1.
       -4    1    3    3    0  502 -0.41083216017E+03 -0.55494736031E+03  0.89848835348E+03  0.11331516098E+04  0.12699999809E+01 0. -1.
</event>
<event>
 5   0  0.1401596E-05  0.2403618E+04  0.7818609E-02  0.8438150E-01
       -1   -1    0    0    0  501  0.00000000000E+00  0.00000000000E+00  0.11077326214E+04  0.11077326214E+04  0.50400001928E-02 0. -1.
        1   -1    0    0  501    0  0.00000000000E+00  0.00000000000E+00 -0.13038754528E+04  0.13038754528E+04  0.50400001928E-02 0.  1.
    10030    2    1    2    0    0  0.00000000000E+00  0.00000000000E+00 -0.19614283137E+03  0.24116080742E+04  0.24036184167E+04 0.  0.
        2    1    3    3  502    0 -0.66228441386E+03 -0.47618202048E+03  0.78745818105E+03  0.11337814377E+04  0.25500000920E-02 0. -1.
       -2    1    3    3    0  502  0.66228441386E+03  0.47618202048E+03 -0.98360101242E+03  0.12778266366E+04  0.25500000920E-02 0.  1.
</event>
<event>
 5   0  0.1434943E-05  0.2412866E+04  0.7818609E-02  0.8434702E-01
        1   -1    0    0  501    0  0.00000000000E+00  0.00000000000E+00  0.14086354360E+04  0.14086354360E+04  0.50400001928E-02 0. -1.
       -1   -1    0    0    0  501  0.00000000000E+00  0.00000000000E+00 -0.10332557727E+04  0.10332557728E+04  0.50400001928E-02 0.  1.
    10030    2    1    2    0    0  0.00000000000E+00  0.00000000000E+00  0.37537966322E+03  0.24418912087E+04  0.24128660932E+04 0.  0.
        5    1    3    3  502    0 -0.11800975636E+04 -0.17433951554E+03  0.54287763386E+01  0.11929275283E+04  0.46999998093E+01 0.  1.
       -5    1    3    3    0  502  0.11800975636E+04  0.17433951554E+03  0.36995088689E+03  0.12489636804E+04  0.46999998093E+01 0. -1.
</event>
<event>
 5   0  0.1407158E-05  0.2128856E+04  0.7818609E-02  0.8548637E-01
        1   -1    0    0  501    0  0.00000000000E+00  0.00000000000E+00  0.17019374136E+04  0.17019374136E+04  0.50400001928E-02 0.  1.
       -1   -1    0    0    0  501  0.00000000000E+00  0.00000000000E+00 -0.66571620381E+03  0.66571620383E+03  0.50400001928E-02 0. -1.
    10030    2    1    2    0    0  0.00000000000E+00  0.00000000000E+00  0.10362212098E+04  0.23676536174E+04  0.21288563259E+04 0.  0.
        1    1    3    3  502    0  0.44818503946E+03  0.71554970438E+03  0.12389883992E+04  0.14993243353E+04  0.50400001928E-02 0.  1.
       -1    1    3    3    0  502 -0.44818503946E+03 -0.71554970438E+03 -0.20276718944E+03  0.86832928211E+03  0.50400001928E-02 0. -1.
</event>
<event>
 5   0  0.3347728E-05  0.2398140E+04  0.7818609E-02  0.8440200E-01
        2   -1    0    0  501    0  0.00000000000E+00  0.00000000000E+00  0.15960150682E+04  0.15960150682E+04  0.25500000920E-02 0.  1.
       -2   -1    0    0    0  501  0.00000000000E+00  0.00000000000E+00 -0.90084901520E+03  0.90084901520E+03  0.25500000920E-02 0. -1.
    10030    2    1    2    0    0  0.00000000000E+00  0.00000000000E+00  0.69516605302E+03  0.24968640834E+04  0.23981397811E+04 0.  0.
        3    1    3    3  502    0 -0.20963075103E+03 -0.37370775278E+03  0.15135813610E+04  0.15730642335E+04  0.10100000352E+00 0.  1.
       -3    1    3    3    0  502  0.20963075103E+03  0.37370775278E+03 -0.81841530794E+03  0.92379984993E+03  0.10100000352E+00 0. -1.
</event>
<event>
 5   0  0.3347728E-05  0.2403494E+04  0.7818609E-02  0.8438197E-01
       -2   -1    0    0    0  501  0.00000000000E+00  0.00000000000E+00  0.76741070092E+03  0.76741070093E+03  0.25500000920E-02 0.  1.
        2   -1    0    0  501    0  0.00000000000E+00  0.00000000000E+00 -0.18819065893E+04  0.18819065893E+04  0.25500000920E-02 0. -1.
    10030    2    1    2    0    0  0.00000000000E+00  0.00000000000E+00 -0.11144958883E+04  0.26493172902E+04  0.24034935030E+04 0.  0.
        3    1    3    3  502    0 -0.69936660136E+02  0.94927115501E+03 -0.13658934563E+04  0.16648338675E+04  0.10100000352E+00 0. -1.
       -3    1    3    3    0  502  0.69936660136E+02 -0.94927115501E+03  0.25139756797E+03  0.98448342269E+03  0.10100000352E+00 0.  1.
</event>
<event>
 5   0  0.1434943E-05  0.2405412E+04  0.7818609E-02  0.8437480E-01
       -1   -1    0    0    0  501  0.00000000000E+00  0.00000000000E+00  0.15042771118E+04  0.15042771118E+04  0.50400001928E-02 0.  1.
        1   -1    0    0  501    0  0.00000000000E+00  0.00000000000E+00 -0.96159250729E+03  0.96159250731E+03  0.50400001928E-02 0. -1.
    10030    2    1    2    0    0  0.00000000000E+00  0.00000000000E+00  0.54268460455E+03  0.24658696192E+04  0.24054118979E+04 0.  0.
        5    1    3    3  502    0 -0.43253997127E+03 -0.21667574608E+03 -0.85744167856E+03  0.98451385354E+03  0.46999998093E+01 0. -1.
       -5    1    3    3    0  502  0.43253997127E+03  0.21667574608E+03  0.14001262831E+04  0.14813557656E+04  0.46999998093E+01 0.  1.
</event>
<event>
 5   0  0.1506985E-05  0.2405913E+04  0.7818609E-02  0.8437293E-01
        1   -1    0    0  501    0  0.00000000000E+00  0.00000000000E+00  0.11423404108E+04  0.11423404108E+04  0.50400001928E-02 0.  1.
       -1   -1    0    0    0  501  0.00000000000E+00  0.00000000000E+00 -0.12667893504E+04  0.12667893504E+04  0.50400001928E-02 0. -1.
    10030    2    1    2    0    0  0.00000000000E+00  0.00000000000E+00 -0.12444893962E+03  0.24091297612E+04  0.24059132710E+04 0.  0.
        3    1    3    3  502    0 -0.50765777805E+03  0.90818333929E+03  0.54239670297E+03  0.11733318333E+04  0.10100000352E+00 0.  1.
       -3    1    3    3    0  502  0.50765777805E+03 -0.90818333929E+03 -0.66684564260E+03  0.12357979279E+04  0.10100000352E+00 0. -1.
</event>
<event>
 5   0  0.1506985E-05  0.2381060E+04  0.7818609E-02  0.8446629E-01
        1   -1    0    0  501    0  0.00000000000E+00  0.00000000000E+00  0.13128651992E+04  0.13128651992E+04  0.50400001928E-02 0.  1.
       -1   -1    0    0    0  501  0.00000000000E+00  0.00000000000E+00 -0.10795943480E+04  0.10795943480E+04  0.50400001928E-02 0. -1.
    10030    2    1    2    0    0  0.00000000000E+00  0.00000000000E+00  0.23327085114E+03  0.23924595472E+04  0.23810601410E+04 0.  0.
        3    1    3    3  502    0  0.94761610584E+02 -0.79155843908E+03 -0.77180207177E+03  0.11096048727E+04  0.10100000352E+00 0. -1.
       -3    1    3    3    0  502 -0.94761610584E+02  0.79155843908E+03  0.10050729229E+04  0.12828546745E+04  0.10100000352E+00 0.  1.
</event>
<event>
 5   0  0.3310037E-05  0.2424700E+04  0.7818609E-02  0.8430314E-01
        2   -1    0    0  501    0  0.00000000000E+00  0.00000000000E+00  0.23436368580E+04  0.23436368580E+04  0.25500000920E-02 0.  1.
       -2   -1    0    0    0  501  0.00000000000E+00  0.00000000000E+00 -0.62714167543E+03  0.62714167543E+03  0.25500000920E-02 0. -1.
    10030    2    1    2    0    0  0.00000000000E+00  0.00000000000E+00  0.17164951826E+04  0.29707785334E+04  0.24246998542E+04 0.  0.
        2    1    3    3  502    0 -0.46215435727E+03 -0.10080931251E+04  0.14584202952E+04  0.18321648824E+04  0.25500000920E-02 0.  1.
       -2    1    3    3    0  502  0.46215435727E+03  0.10080931251E+04  0.25807488731E+03  0.11386136510E+04  0.25500000920E-02 0. -1.
</event>
<event>
 5   0  0.3310037E-05  0.2406463E+04  0.7818609E-02  0.8437088E-01
        2   -1    0    0  501    0  0.00000000000E+00  0.00000000000E+00  0.13426547197E+04  0.13426547197E+04  0.25500000920E-02 0. -1.
       -2   -1    0    0    0  501  0.00000000000E+00  0.00000000000E+00 -0.10782857648E+04  0.10782857648E+04  0.25500000920E-02 0.  1.
    10030    2    1    2    0    0  0.00000000000E+00  0.00000000000E+00  0.26436895487E+03  0.24209404845E+04  0.24064625252E+04 0.  0.
        2    1    3    3  502    0  0.59153807211E+03  0.33897551281E+03  0.11295844455E+04  0.13193872474E+04  0.25500000920E-02 0. -1.
       -2    1    3    3    0  502 -0.59153807211E+03 -0.33897551281E+03 -0.86521549064E+03  0.11015532372E+04  0.25500000920E-02 0.  1.
</event>
<event>
 5   0  0.1393026E-05  0.2371285E+04  0.7818609E-02  0.8450333E-01
        1   -1    0    0  501    0  0.00000000000E+00  0.00000000000E+00  0.85702591936E+03  0.85702591938E+03  0.50400001928E-02 0. -1.
       -1   -1    0    0    0  501  0.00000000000E+00  0.00000000000E+00 -0.16402638502E+04  0.16402638502E+04  0.50400001928E-02 0.  1.
    10030    2    1    2    0    0  0.00000000000E+00  0.00000000000E+00 -0.78323793084E+03  0.24972897696E+04  0.23712854187E+04 0.  0.
        4    1    3    3  502    0  0.90319507067E+03  0.31421346852E+03 -0.11297591622E+04  0.14801516196E+04  0.12699999809E+01 0.  1.
       -4    1    3    3    0  502 -0.90319507067E+03 -0.31421346852E+03  0.34652123137E+03  0.10171381500E+04  0.12699999809E+01 0. -1.
</event>
<event>
 5   0  0.3215208E-05  0.2101171E+04  0.7818609E-02  0.8560728E-01
        2   -1    0    0  501    0  0.00000000000E+00  0.00000000000E+00  0.10360921019E+04  0.10360921019E+04  0.25500000920E-02 0. -1.
       -2   -1    0    0    0  501  0.00000000000E+00  0.00000000000E+00 -0.10652812098E+04  0.10652812098E+04  0.25500000920E-02 0.  1.
    10030    2    1    2    0    0  0.00000000000E+00  0.00000000000E+00 -0.29189107830E+02  0.21013733117E+04  0.21011705764E+04 0.  0.
        1    1    3    3  502    0  0.57709418661E+03  0.87789003211E+03 -0.13678466657E+02  0.10506739309E+04  0.50400001928E-02 0.  1.
       -1    1    3    3    0  502 -0.57709418661E+03 -0.87789003211E+03 -0.15510641173E+02  0.10506993808E+04  0.50400001928E-02 0. -1.
</event>
<event>
 5   0  0.3320780E-05  0.2385704E+04  0.7818609E-02  0.8444875E-01
        2   -1    0    0  501    0  0.00000000000E+00  0.00000000000E+00  0.24950371527E+04  0.24950371527E+04  0.25500000920E-02 0.  1.
       -2   -1    0    0    0  501  0.00000000000E+00  0.00000000000E+00 -0.57029041573E+03  0.57029041574E+03  0.25500000920E-02 0. -1.
    10030    2    1    2    0    0  0.00000000000E+00  0.00000000000E+00  0.19247467370E+04  0.30653275684E+04  0.23857039004E+04 0.  0.
        5    1    3    3  502    0 -0.46493686411E+03  0.95389824830E+03  0.16623470504E+04  0.19721835517E+04  0.46999998093E+01 0.  1.
       -5    1    3    3    0  502  0.46493686411E+03 -0.95389824830E+03  0.26239968654E+03  0.10931440167E+04  0.46999998093E+01 0. -1.
</event>
<event>
 5   0  0.3320780E-05  0.2396466E+04  0.7818609E-02  0.8440828E-01
        2   -1    0    0  501    0  0.00000000000E+00  0.00000000000E+00  0.18844287324E+04  0.18844287324E+04  0.25500000920E-02 0.  1.
       -2   -1    0    0    0  501  0.00000000000E+00  0.00000000000E+00 -0.76190847084E+03  0.76190847084E+03  0.25500000920E-02 0. -1.
    10030    2    1    2    0    0  0.00000000000E+00  0.00000000000E+00  0.11225202615E+04  0.26463372032E+04  0.23964659095E+04 0.  0.
        5    1    3    3  502    0 -0.54130576195E+03 -0.10196565037E+04  0.20681152735E+03  0.11728190020E+04  0.46999998093E+01 0. -1.
       -5    1    3    3    0  502  0.54130576195E+03  0.10196565037E+04  0.91570873419E+03  0.14735182012E+04  0.46999998093E+01 0.  1.
</event>
<event>
 5   0  0.3310037E-05  0.2368744E+04  0.7818609E-02  0.8451299E-01
        2   -1    0    0  501    0  0.00000000000E+00  0.00000000000E+00  0.81456931996E+03  0.81456931996E+03  0.25500000920E-02 0. -1.
       -2   -1    0    0    0  501  0.00000000000E+00  0.00000000000E+00 -0.17220592508E+04  0.17220592508E+04  0.25500000920E-02 0.  1.
    10030    2    1    2    0    0  0.00000000000E+00  0.00000000000E+00 -0.90748993082E+03  0.25366285708E+04  0.23687436610E+04 0.  0.
        2    1    3    3  502    0  0.82002679794E+03  0.73120490667E+03 -0.92739637872E+03  0.14377651436E+04  0.25500000920E-02 0.  1.
       -2    1    3    3    0  502 -0.82002679794E+03 -0.73120490667E+03  0.19906447893E+02  0.10988634272E+04  0.25500000920E-02 0. -1.
</event>
<event>
 5   0  0.1434943E-05  0.2406595E+04  0.7818609E-02  0.8437039E-01
        1   -1    0    0  501    0  0.00000000000E+00  0.00000000000E+00  0.14802165364E+04  0.14802165364E+04  0.50400001928E-02 0. -1.
       -1   -1    0    0    0  501  0.00000000000E+00  0.00000000000E+00 -0.97818451948E+03  0.97818451950E+03  0.50400001928E-02 0.  1.
    10030    2    1    2    0    0  0.00000000000E+00  0.00000000000E+00  0.50203201687E+03  0.24584010559E+04  0.24065950232E+04 0.  0.
        5    1    3    3  502    0 -0.39806076971E+03 -0.30097991489E+03  0.13695114823E+04  0.14576093700E+04  0.46999998093E+01 0. -1.
       -5    1    3    3    0  502  0.39806076971E+03  0.30097991489E+03 -0.86747946539E+03  0.10007916858E+04  0.46999998093E+01 0.  1.
</event>
<event>
 5   0  0.3347728E-05  0.2396104E+04  0.7818609E-02  0.8440964E-01
       -2   -1    0    0    0  501  0.00000000000E+00  0.00000000000E+00  0.85250250451E+03  0.85250250452E+03  0.25500000920E-02 0.  1.
        2   -1    0    0  501    0  0.00000000000E+00  0.00000000000E+00 -0.16836645226E+04  0.16836645226E+04  0.25500000920E-02 0. -1.
    10030    2    1    2    0    0  0.00000000000E+00  0.00000000000E+00 -0.83116201804E+03  0.25361670271E+04  0.23961036891E+04 0.  0.
        3    1    3    3  502    0 -0.79598594313E+03 -0.23303153782E+03  0.49949625750E+03  0.96819101459E+03  0.10100000352E+00 0.  1.
       -3    1    3    3    0  502  0.79598594313E+03  0.23303153782E+03 -0.13306582755E+04  0.15679760125E+04  0.10100000352E+00 0. -1.
</event>
<event>
 5   0  0.1506985E-05  0.2400583E+04  0.7818609E-02  0.8439285E-01
        1   -1    0    0  501    0  0.00000000000E+00  0.00000000000E+00  0.10209306515E+04  0.10209306515E+04  0.50400001928E-02 0. -1.
       -1   -1    0    0    0  501  0.00000000000E+00  0.00000000000E+00 -0.14111634157E+04  0.14111634157E+04  0.50400001928E-02 0.  1.
    10030    2    1    2    0    0  0.00000000000E+00  0.00000000000E+00 -0.39023276418E+03  0.24320940672E+04  0.24005832503E+04 0.  0.
        3    1    3    3  502    0  0.11016562733E+04  0.33917388643E+03 -0.53419525406E+03  0.12704526947E+04  0.10100000352E+00 0.  1.
       -3    1    3    3    0  502 -0.11016562733E+04 -0.33917388643E+03  0.14396248988E+03  0.11616413726E+04  0.10100000352E+00 0. -1.
</event>
<event>
 5   0  0.3345974E-05  0.2466310E+04  0.7818609E-02  0.8415087E-01
       -2   -1    0    0    0  501  0.00000000000E+00  0.00000000000E+00  0.77472057261E+03  0.77472057261E+03  0.25500000920E-02 0.  1.
        2   -1    0    0  501    0  0.00000000000E+00  0.00000000000E+00 -0.19628633982E+04  0.19628633982E+04  0.25500000920E-02 0. -1.
    10030    2    1    2    0    0  0.00000000000E+00  0.00000000000E+00 -0.11881428256E+04  0.27375839708E+04  0.24663095149E+04 0.  0.
        4    1    3    3  502    0 -0.32854555618E+03 -0.58674390096E+03  0.55328590784E+03  0.87082575554E+03  0.12699999809E+01 0.  1.
       -4    1    3    3    0  502  0.32854555618E+03  0.58674390096E+03 -0.17414287334E+04  0.18667582152E+04  0.12699999809E+01 0. -1.
</event>
<event>
 5   0  0.1401596E-05  0.2411527E+04  0.7818609E-02  0.8435201E-01
       -1   -1    0    0    0  501  0.00000000000E+00  0.00000000000E+00  0.13769556129E+04  0.13769556130E+04  0.50400001928E-02 0. -1.
        1   -1    0    0  501    0  0.00000000000E+00  0.00000000000E+00 -0.10558550650E+04  0.10558550650E+04  0.50400001928E-02 0.  1.
    10030    2    1    2    0    0  0.00000000000E+00  0.00000000000E+00  0.32110054797E+03  0.24328106779E+04  0.24115269505E+04 0.  0.
        2    1    3    3  502    0 -0.75537006622E+03 -0.26993240263E+03  0.10687278296E+04  0.13362734049E+04  0.25500000920E-02 0. -1.
       -2    1    3    3    0  502  0.75537006622E+03  0.26993240263E+03 -0.74762728161E+03  0.10965372730E+04  0.25500000920E-02 0.  1.
</event>
<event>
 5   0  0.1407158E-05  0.2369622E+04  0.7818609E-02  0.8450965E-01
        1   -1    0    0  501    0  0.00000000000E+00  0.00000000000E+00  0.22822305588E+04  0.22822305588E+04  0.50400001928E-02 0. -1.
       -1   -1    0    0    0  501  0.00000000000E+00  0.00000000000E+00 -0.61509010320E+03  0.61509010322E+03  0.50400001928E-02 0.  1.
    10030    2    1    2    0    0  0.00000000000E+00  0.00000000000E+00  0.16671404556E+04  0.28973206620E+04  0.23696222737E+04 0.  0.
        1    1    3    3  502    0  0.10555587205E+04  0.33530800629E+03  0.13481798659E+04  0.17447706504E+04  0.50400001928E-02 0. -1.
       -1    1    3    3    0  502 -0.10555587205E+04 -0.33530800629E+03  0.31896058970E+03  0.11525500117E+04  0.50400001928E-02 0.  1.
</event>
<event>
 5   0  0.3320780E-05  0.2391596E+04  0.7818609E-02  0.8442657E-01
        2   -1    0    0  501    0  0.00000000000E+00  0.00000000000E+00  0.11941083790E+04  0.11941083790E+04  0.25500000920E-02 0.  1.
       -2   -1    0    0    0  501  0.00000000000E+00  0.00000000000E+00 -0.11974895212E+04  0.11974895212E+04  0.25500000920E-02 0. -1.
    10030    2    1    2    0    0  0.00000000000E+00  0.00000000000E+00 -0.33811421490E+01  0.23915979002E+04  0.23915955101E+04 0.  0.
        5    1    3    3  502    0 -0.84037282262E+03  0.82940350604E+03 -0.19082966188E+03  0.11960663471E+04  0.46999998093E+01 0. -1.
       -5    1    3    3    0  502  0.84037282262E+03 -0.82940350604E+03  0.18744851973E+03  0.11955315531E+04  0.46999998093E+01 0.  1.
</event>
<event>
 5   0  0.1434943E-05  0.2371064E+04  0.7818609E-02  0.8450417E-01
        1   -1    0    0  501    0  0.00000000000E+00  0.00000000000E+00  0.14138132775E+04  0.14138132775E+04  0.50400001928E-02 0. -1.
       -1   -1    0    0    0  501  0.00000000000E+00  0.00000000000E+00 -0.99411027158E+03  0.99411027159E+03  0.50400001928E-02 0.  1.
    10030    2    1    2    0    0  0.00000000000E+00  0.00000000000E+00  0.41970300595E+03  0.24079235491E+04  0.23710641504E+04 0.  0.
        5    1    3    3  502    0  0.38738720380E+02 -0.11615809068E+04 -0.27650093077E+02  0.11625650559E+04  0.46999998093E+01 0. -1.
       -5    1    3    3    0  502 -0.38738720380E+02  0.11615809068E+04  0.44735309902E+03  0.12453584932E+04  0.46999998093E+01 0.  1.
</event>
<event>
 5   0  0.3347728E-05  0.2394299E+04  0.7818609E-02  0.8441641E-01
        2   -1    0    0  501    0  0.00000000000E+00  0.00000000000E+00  0.14956088832E+04  0.14956088832E+04  0.25500000920E-02 0.  1.
       -2   -1    0    0    0  501  0.00000000000E+00  0.00000000000E+00 -0.95824960454E+03  0.95824960455E+03  0.25500000920E-02 0. -1.
    10030    2    1    2    0    0  0.00000000000E+00  0.00000000000E+00  0.53735927865E+03  0.24538584877E+04  0.23942987457E+04 0.  0.
        3    1    3    3  502    0  0.89952568219E+02 -0.33519254252E+03 -0.90556181851E+03  0.96978746251E+03  0.10100000352E+00 0. -1.
       -3    1    3    3    0  502 -0.89952568219E+02  0.33519254252E+03  0.14429210972E+04  0.14840710252E+04  0.10100000352E+00 0.  1.
</event>
<event>
 5   0  0.3215208E-05  0.2399997E+04  0.7818609E-02  0.8439505E-01
        2   -1    0    0  501    0  0.00000000000E+00  0.00000000000E+00  0.80741617928E+03  0.80741617928E+03  0.25500000920E-02 0. -1.
       -2   -1    0    0    0  501  0.00000000000E+00  0.00000000000E+00 -0.17834624063E+04  0.17834624063E+04  0.25500000920E-02 0.  1.
    10030    2    1    2    0    0  0.00000000000E+00  0.00000000000E+00 -0.97604622699E+03  0.25908785856E+04  0.23999970016E+04 0.  0.
        1    1    3    3  502    0  0.99288787310E+03 -0.19694593845E+03  0.20773838532E+03  0.10333292157E+04  0.50400001928E-02 0. -1.
       -1    1    3    3    0  502 -0.99288787310E+03  0.19694593845E+03 -0.11837846123E+04  0.15575493699E+04  0.50400001928E-02 0.  1.
</event>
<event>
 5   0  0.1401596E-05  0.2409020E+04  0.7818609E-02  0.8436134E-01
        1   -1    0    0  501    0  0.00000000000E+00  0.00000000000E+00  0.12794488761E+04  0.12794488761E+04  0.50400001928E-02 0. -1.
       -1   -1    0    0    0  501  0.00000000000E+00  0.00000000000E+00 -0.11339604332E+04  0.11339604332E+04  0.50400001928E-02 0.  1.
    10030    2    1    2    0    0  0.00000000000E+00  0.00000000000E+00  0.14548844287E+03  0.24134093093E+04  0.24090200513E+04 0.  0.
        2    1    3    3  502    0 -0.15207335861E+03  0.74224553180E+03 -0.86533232947E+03  0.11501542402E+04  0.25500000920E-02 0.  1.
       -2    1    3    3    0  502  0.15207335861E+03 -0.74224553180E+03  0.10108207723E+04  0.12632550691E+04  0.25500000920E-02 0. -1.
</event>
<event>
 5   0  0.1401596E-05  0.2380283E+04  0.7818609E-02  0.8446923E-01
       -1   -1    0    0    0  501  0.00000000000E+00  0.00000000000E+00  0.12622947203E+04  0.12622947203E+04  0.50400001928E-02 0.  1.
        1   -1    0    0  501    0  0.00000000000E+00  0.00000000000E+00 -0.11221121881E+04  0.11221121881E+04  0.50400001928E-02 0. -1.
    10030    2    1    2    0    0  0.00000000000E+00  0.00000000000E+00  0.14018253224E+03  0.23844069084E+04  0.23802825804E+04 0.  0.
        2    1    3    3  502    0 -0.73124717869E+03 -0.88873864249E+03 -0.23351387102E+03  0.11743540944E+04  0.25500000920E-02 0. -1.
       -2    1    3    3    0  502  0.73124717869E+03  0.88873864249E+03  0.37369640327E+03  0.12100528141E+04  0.25500000920E-02 0.  1.
</event>
<event>
 5   0  0.3347728E-05  0.2383561E+04  0.7818609E-02  0.8445684E-01
        2   -1    0    0  501    0  0.00000000000E+00  0.00000000000E+00  0.14711480697E+04  0.14711480697E+04  0.25500000920E-02 0.  1.
       -2   -1    0    0    0  501  0.00000000000E+00  0.00000000000E+00 -0.96546455232E+03  0.96546455232E+03  0.25500000920E-02 0. -1.
    10030    2    1    2    0    0  0.00000000000E+00  0.00000000000E+00  0.50568351738E+03  0.24366126220E+04  0.23835614634E+04 0.  0.
        3    1    3    3  502    0  0.11642147565E+04 -0.33191130612E+02 -0.54550228303E+01  0.11647005701E+04  0.10100000352E+00 0. -1.
       -3    1    3    3    0  502 -0.11642147565E+04  0.33191130612E+02  0.51113854021E+03  0.12719120520E+04  0.10100000352E+00 0.  1.
</event>
<event>
 5   0  0.3347728E-05  0.2399046E+04  0.7818609E-02  0.8439861E-01
       -2   -1    0    0    0  501  0.00000000000E+00  0.00000000000E+00  0.64390162875E+03  0.64390162875E+03  0.25500000920E-02 0.  1.
        2   -1    0    0  501    0  0.00000000000E+00  0.00000000000E+00 -0.22345883920E+04  0.22345883920E+04  0.25500000920E-02 0. -1.
    10030    2    1    2    0    0  0.00000000000E+00  0.00000000000E+00 -0.15906867632E+04  0.28784900208E+04  0.23990457313E+04 0.  0.
        3    1    3    3  502    0 -0.79632375634E+02  0.43089770779E+03  0.54443118544E+03  0.69887014224E+03  0.10100000352E+00 0.  1.
       -3    1    3    3    0  502  0.79632375634E+02 -0.43089770779E+03 -0.21351179487E+04  0.21796198785E+04  0.10100000352E+00 0. -1.
</event>
<event>
 5   0  0.1393026E-05  0.2403532E+04  0.7818609E-02  0.8438182E-01
        1   -1    0    0  501    0  0.00000000000E+00  0.00000000000E+00  0.16652818539E+04  0.16652818539E+04  0.50400001928E-02 0.  1.
       -1   -1    0    0    0  501  0.00000000000E+00  0.00000000000E+00 -0.86726578941E+03  0.86726578942E+03  0.50400001928E-02 0. -1.
    10030    2    1    2    0    0  0.00000000000E+00  0.00000000000E+00  0.79801606445E+03  0.25325476433E+04  0.24035323851E+04 0.  0.
        4    1    3    3  502    0  0.55634804747E+03  0.10695330385E+03  0.15157460803E+04  0.16181625233E+04  0.12699999809E+01 0.  1.
       -4    1    3    3    0  502 -0.55634804747E+03 -0.10695330385E+03 -0.71773001581E+03  0.91438511997E+03  0.12699999809E+01 0. -1.
</event>
<event>
 5   0  0.1393026E-05  0.2445679E+04  0.7818609E-02  0.8422597E-01
        1   -1    0    0  501    0  0.00000000000E+00  0.00000000000E+00  0.16587515615E+04  0.16587515615E+04  0.50400001928E-02 0.  1.
       -1   -1    0    0    0  501  0.00000000000E+00  0.00000000000E+00 -0.90148297180E+03  0.90148297182E+03  0.50400001928E-02 0. -1.
    10030    2    1    2    0    0  0.00000000000E+00  0.00000000000E+00  0.75726858972E+03  0.25602345333E+04  0.24456788728E+04 0.  0.
        4    1    3    3  502    0 -0.66839898227E+03 -0.65560943229E+03  0.12020880992E+04  0.15236792111E+04  0.12699999809E+01 0.  1.
       -4    1    3    3    0  502  0.66839898227E+03  0.65560943229E+03 -0.44481950946E+03  0.10365553223E+04  0.12699999809E+01 0. -1.
</event>
<event>
 5   0  0.1407158E-05  0.2398808E+04  0.7818609E-02  0.8439950E-01
        1   -1    0    0  501    0  0.00000000000E+00  0.00000000000E+00  0.20696986644E+04  0.20696986644E+04  0.50400001928E-02 0. -1.
       -1   -1    0    0    0  501  0.00000000000E+00  0.00000000000E+00 -0.69506256761E+03  0.69506256763E+03  0.50400001928E-02 0.  1.
    10030    2    1    2    0    0  0.00000000000E+00  0.00000000000E+00  0.13746360968E+04  0.27647612321E+04  0.23988080940E+04 0.  0.
        1    1    3    3  502    0 -0.34170782290E+03  0.21043466233E+03 -0.61538822264E+03  0.73467656009E+03  0.50400001928E-02 0.  1.
       -1    1    3    3    0  502  0.34170782290E+03 -0.21043466233E+03  0.19900243195E+04  0.20300846720E+04  0.50400001928E-02 0. -1.
</event>
<event>
 5   0  0.1407158E-05  0.2386633E+04  0.7818609E-02  0.8444525E-01
       -1   -1    0    0    0  501  0.00000000000E+00  0.00000000000E+00  0.14061932271E+04  0.14061932271E+04  0.50400001928E-02 0. -1.
        1   -1    0    0  501    0  0.00000000000E+00  0.00000000000E+00 -0.10126662343E+04  0.10126662343E+04  0.50400001928E-02 0.  1.
    10030    2    1    2    0    0  0.00000000000E+00  0.00000000000E+00  0.39352699284E+03  0.24188594614E+04  0.23866331096E+04 0.  0.
        1    1    3    3  502    0  0.69416822111E+03 -0.45265953056E+03  0.10669808119E+04  0.13510063740E+04  0.50400001928E-02 0. -1.
       -1    1    3    3    0  502 -0.69416822111E+03  0.45265953056E+03 -0.67345381901E+03  0.10678530874E+04  0.50400001928E-02 0.  1.
</event>
<event>
 5   0  0.1401596E-05  0.2311151E+04  0.7818609E-02  0.8473537E-01
       -1   -1    0    0    0  501  0.00000000000E+00  0.00000000000E+00  0.11678637310E+04  0.11678637310E+04  0.50400001928E-02 0.  1.
        1   -1    0    0  501    0  0.00000000000E+00  0.00000000000E+00 -0.11434163729E+04  0.11434163729E+04  0.50400001928E-02 0. -1.
    10030    2    1    2    0    0  0.00000000000E+00  0.00000000000E+00  0.24447358099E+02  0.23112801039E+04  0.23111508054E+04 0.  0.
        2    1    3    3  502    0 -0.52932687075E+03  0.10114252776E+04  0.19163963322E+03  0.11575378081E+04  0.25500000920E-02 0. -1.
       -2    1    3    3    0  502  0.52932687075E+03 -0.10114252776E+04 -0.16719227512E+03  0.11537422958E+04  0.25500000920E-02 0.  1.
</event>
<event>
 5   0  0.1434943E-05  0.2419822E+04  0.7818609E-02  0.8432119E-01
       -1   -1    0    0    0  501  0.00000000000E+00  0.00000000000E+00  0.74453450065E+03  0.74453450067E+03  0.50400001928E-02 0.  1.
        1   -1    0    0  501    0  0.00000000000E+00  0.00000000000E+00 -0.19661750270E+04  0.19661750271E+04  0.50400001928E-02 0. -1.
    10030    2    1    2    0    0  0.00000000000E+00  0.00000000000E+00 -0.12216405264E+04  0.27107095277E+04  0.24198224249E+04 0.  0.
        5    1    3    3  502    0  0.11878103454E+03  0.11694631942E+04 -0.93181461675E+03  0.15000178888E+04  0.46999998093E+01 0.  1.
       -5    1    3    3    0  502 -0.11878103454E+03 -0.11694631942E+04 -0.28982590964E+03  0.12106916389E+04  0.46999998093E+01 0. -1.
</event>
<event>
 5   0  0.1401596E-05  0.2419876E+04  0.7818609E-02  0.8432100E-01
       -1   -1    0    0    0  501  0.00000000000E+00  0.00000000000E+00  0.72099407780E+03  0.72099407782E+03  0.50400001928E-02 0. -1.
        1   -1    0    0  501    0  0.00000000000E+00  0.00000000000E+00 -0.20304602370E+04  0.20304602370E+04  0.50400001928E-02 0.  1.
    10030    2    1    2    0    0  0.00000000000E+00  0.00000000000E+00 -0.13094661592E+04  0.27514543149E+04  0.24198758697E+04 0.  0.
        2    1    3    3  502    0  0.99730224124E+03 -0.45406945728E+02 -0.14319747448E+04  0.17456303220E+04  0.25500000920E-02 0.  1.
       -2    1    3    3    0  502 -0.99730224124E+03  0.45406945728E+02  0.12250858562E+03  0.10058239929E+04  0.25500000920E-02 0. -1.
</event>
<event>
 5   0  0.3215208E-05  0.2384809E+04  0.7818609E-02  0.8445213E-01
       -2   -1    0    0    0  501  0.00000000000E+00  0.00000000000E+00  0.12926406957E+04  0.12926406957E+04  0.25500000920E-02 0. -1.
        2   -1    0    0  501    0  0.00000000000E+00  0.00000000000E+00 -0.10999406352E+04  0.10999406352E+04  0.25500000920E-02 0.  1.
    10030    2    1    2    0    0  0.00000000000E+00  0.00000000000E+00  0.19270006048E+03  0.23925813309E+04  0.23848086112E+04 0.  0.
        1    1    3    3  502    0  0.91692575433E+03  0.54352508946E+03 -0.43985958810E+03  0.11531039932E+04  0.50400001928E-02 0.  1.
       -1    1    3    3    0  502 -0.91692575433E+03 -0.54352508946E+03  0.63255964858E+03  0.12394773378E+04  0.50400001928E-02 0. -1.
</event>
<event>
 5   0  0.3215208E-05  0.2274798E+04  0.7818609E-02  0.8487925E-01
       -2   -1    0    0    0  501  0.00000000000E+00  0.00000000000E+00  0.11588674029E+04  0.11588674029E+04  0.25500000920E-02 0. -1.
        2   -1    0    0  501    0  0.00000000000E+00  0.00000000000E+00 -0.11163280100E+04  0.11163280100E+04  0.25500000920E-02 0.  1.
    10030    2    1    2    0    0  0.00000000000E+00  0.00000000000E+00  0.42539392927E+02  0.22751954129E+04  0.22747976980E+04 0.  0.
        1    1    3    3  502    0 -0.84327815509E+03  0.37222303534E+03  0.68772552917E+03  0.11500584500E+04  0.50400001928E-02 0. -1.
       -1    1    3    3    0  502  0.84327815509E+03 -0.37222303534E+03 -0.64518613624E+03  0.11251369629E+04  0.50400001928E-02 0.  1.
</event>
<event>
 5   0  0.3310037E-05  0.2429105E+04  0.7818609E-02  0.8428687E-01
       -2   -1    0    0    0  501  0.00000000000E+00  0.00000000000E+00  0.14195494896E+04  0.14195494897E+04  0.25500000920E-02 0. -1.
        2   -1    0    0  501    0  0.00000000000E+00  0.00000000000E+00 -0.10391593226E+04  0.10391593226E+04  0.25500000920E-02 0.  1.
    10030    2    1    2    0    0  0.00000000000E+00  0.00000000000E+00  0.38039016701E+03  0.24587088123E+04  0.24291052559E+04 0.  0.
        2    1    3    3  502    0  0.11050155696E+04 -0.49831449064E+03  0.26702364895E+03  0.12412406575E+04  0.25500000920E-02 0.  1.
       -2    1    3    3    0  502 -0.11050155696E+04  0.49831449064E+03  0.11336651806E+03  0.12174681548E+04  0.25500000920E-02 0. -1.
</event>
<event>
 5   0  0.1393026E-05  0.2433086E+04  0.7818609E-02  0.8427219E-01
        1   -1    0    0  501    0  0.00000000000E+00  0.00000000000E+00  0.17524609271E+04  0.17524609271E+04  0.50400001928E-02 0.  1.
       -1   -1    0    0    0  501  0.00000000000E+00  0.00000000000E+00 -0.84451365575E+03  0.84451365576E+03  0.50400001928E-02 0. -1.
    10030    2    1    2    0    0  0.00000000000E+00  0.00000000000E+00  0.90794727133E+03  0.25969745828E+04  0.24330862575E+04 0.  0.
        4    1    3    3  502    0 -0.39912169028E+03  0.13070218500E+03 -0.76468321485E+03  0.87242375987E+03  0.12699999809E+01 0. -1.
       -4    1    3    3    0  502  0.39912169028E+03 -0.13070218500E+03  0.16726304862E+04  0.17245508230E+04  0.12699999809E+01 0.  1.
</event>
<event>
 5   0  0.1393026E-05  0.2403207E+04  0.7818609E-02  0.8438304E-01
       -1   -1    0    0    0  501  0.00000000000E+00  0.00000000000E+00  0.70222572855E+03  0.70222572856E+03  0.50400001928E-02 0. -1.
        1   -1    0    0  501    0  0.00000000000E+00  0.00000000000E+00 -0.20561064848E+04  0.20561064848E+04  0.50400001928E-02 0.  1.
    10030    2    1    2    0    0  0.00000000000E+00  0.00000000000E+00 -0.13538807562E+04  0.27583322133E+04  0.24032069193E+04 0.  0.
        4    1    3    3  502    0 -0.11743519311E+04  0.23693086992E+03 -0.57043506836E+03  0.13268897751E+04  0.12699999809E+01 0.  1.
       -4    1    3    3    0  502  0.11743519311E+04 -0.23693086992E+03 -0.78344568786E+03  0.14314424382E+04  0.12699999809E+01 0. -1.
</event>
<event>
 5   0  0.1407158E-05  0.2351356E+04  0.7818609E-02  0.8457943E-01
       -1   -1    0    0    0  501  0.00000000000E+00  0.00000000000E+00  0.81959460258E+03  0.81959460260E+03  0.50400001928E-02 0. -1.
        1   -1    0    0  501    0  0.00000000000E+00  0.00000000000E+00 -0.16864667266E+04  0.16864667266E+04  0.50400001928E-02 0.  1.
    10030    2    1    2    0    0  0.00000000000E+00  0.00000000000E+00 -0.86687212401E+03  0.25060613292E+04  0.23513562270E+04 0.  0.
        1    1    3    3  502    0  0.32142421207E+03  0.11277060279E+04 -0.34309710313E+03  0.12217814991E+04  0.50400001928E-02 0. -1.
       -1    1    3    3    0  502 -0.32142421207E+03 -0.11277060279E+04 -0.52377502087E+03  0.12842798301E+04  0.50400001928E-02 0.  1.
</event>
<event>
 5   0  0.1401596E-05  0.2401621E+04  0.7818609E-02  0.8438897E-01
        1   -1    0    0  501    0  0.00000000000E+00  0.00000000000E+00  0.10660332398E+04  0.10660332398E+04  0.50400001928E-02 0. -1.
       -1   -1    0    0    0  501  0.00000000000E+00  0.00000000000E+00 -0.13526273740E+04  0.13526273740E+04  0.50400001928E-02 0.  1.
    10030    2    1    2    0    0  0.00000000000E+00  0.00000000000E+00 -0.28659413420E+03  0.24186606138E+04  0.24016209041E+04 0.  0.
        2    1    3    3  502    0 -0.72053102685E+02 -0.14426949677E+03 -0.13416726862E+04  0.13513293212E+04  0.25500000920E-02 0.  1.
       -2    1    3    3    0  502  0.72053102685E+02  0.14426949677E+03  0.10550785520E+04  0.10673312926E+04  0.25500000920E-02 0. -1.
</event>
<event>
 5   0  0.1401596E-05  0.2378895E+04  0.7818609E-02  0.8447447E-01
        1   -1    0    0  501    0  0.00000000000E+00  0.00000000000E+00  0.14018815128E+04  0.14018815128E+04  0.50400001928E-02 0. -1.
       -1   -1    0    0    0  501  0.00000000000E+00  0.00000000000E+00 -0.10092048430E+04  0.10092048430E+04  0.50400001928E-02 0.  1.
    10030    2    1    2    0    0  0.00000000000E+00  0.00000000000E+00  0.39267666979E+03  0.24110863558E+04  0.23788952159E+04 0.  0.
        2    1    3    3  502    0  0.43503436461E+03  0.10974771718E+04  0.49203053336E+02  0.11815802899E+04  0.25500000920E-02 0. -1.
       -2    1    3    3    0  502 -0.43503436461E+03 -0.10974771718E+04  0.34347361645E+03  0.12295060659E+04  0.25500000920E-02 0.  1.
</event>
<event>
 5   0  0.3347728E-05  0.2348741E+04  0.7818609E-02  0.8458948E-01
       -2   -1    0    0    0  501  0.00000000000E+00  0.00000000000E+00  0.67754553711E+03  0.67754553712E+03  0.25500000920E-02 0.  1.
        2   -1    0    0  501    0  0.00000000000E+00  0.00000000000E+00 -0.20355023027E+04  0.20355023027E+04  0.25500000920E-02 0. -1.
    10030    2    1    2    0    0  0.00000000000E+00  0.00000000000E+00 -0.13579567655E+04  0.27130478398E+04  0.23487405144E+04 0.  0.
        3    1    3    3  502    0 -0.10402015091E+04 -0.53436893737E+03 -0.80325931021E+03  0.14187300203E+04  0.10100000352E+00 0. -1.
       -3    1    3    3    0  502  0.10402015091E+04  0.53436893737E+03 -0.55469745533E+03  0.12943178195E+04  0.10100000352E+00 0.  1.
</event>
<event>
 5   0  0.3215208E-05  0.2395628E+04  0.7818609E-02  0.8441142E-01
        2   -1    0    0  501    0  0.00000000000E+00  0.00000000000E+00  0.15231529830E+04  0.15231529830E+04  0.25500000920E-02 0. -1.
       -2   -1    0    0    0  501  0.00000000000E+00  0.00000000000E+00 -0.94196611177E+03  0.94196611178E+03  0.25500000920E-02 0.  1.
    10030    2    1    2    0    0  0.00000000000E+00  0.00000000000E+00  0.58118687121E+03  0.24651190948E+04  0.23956280955E+04 0.  0.
        1    1    3    3  502    0 -0.24192333974E+03  0.69467327947E+03 -0.68216458350E+03  0.10032180155E+04  0.50400001928E-02 0.  1.
       -1    1    3    3    0  502  0.24192333974E+03 -0.69467327947E+03  0.12633514547E+04  0.14619010793E+04  0.50400001928E-02 0. -1.
</event>
<event>
 5   0  0.3347728E-05  0.2427735E+04  0.7818609E-02  0.8429192E-01
       -2   -1    0    0    0  501  0.00000000000E+00  0.00000000000E+00  0.10432849132E+04  0.10432849132E+04  0.25500000920E-02 0. -1.
        2   -1    0    0  501    0  0.00000000000E+00  0.00000000000E+00 -0.14123413043E+04  0.14123413043E+04  0.25500000920E-02 0.  1.
    10030    2    1    2    0    0  0.00000000000E+00  0.00000000000E+00 -0.36905639104E+03  0.24556262175E+04  0.24277350557E+04 0.  0.
        3    1    3    3  502    0  0.49797521277E+02  0.50467962567E+03 -0.13000551899E+04  0.13954658092E+04  0.10100000352E+00 0.  1.
       -3    1    3    3    0  502 -0.49797521277E+02 -0.50467962567E+03  0.93099879886E+03  0.10601604083E+04  0.10100000352E+00 0. -1.
</event>
<event>
 5   0  0.1407158E-05  0.2409313E+04  0.7818609E-02  0.8436025E-01
        1   -1    0    0  501    0  0.00000000000E+00  0.00000000000E+00  0.14486136932E+04  0.14486136932E+04  0.50400001928E-02 0.  1.
       -1   -1    0    0    0  501  0.00000000000E+00  0.00000000000E+00 -0.10017838114E+04  0.10017838114E+04  0.50400001928E-02 0. -1.
    10030    2    1    2    0    0  0.00000000000E+00  0.00000000000E+00  0.44682988182E+03  0.24503975046E+04  0.24093133851E+04 0.  0.
        1    1    3    3  502    0  0.61718084403E+03  0.97291208196E+03  0.58116243563E+03  0.12904339929E+04  0.50400001928E-02 0.  1.
       -1    1    3    3    0  502 -0.61718084403E+03 -0.97291208196E+03 -0.13433255381E+03  0.11599635117E+04  0.50400001928E-02 0. -1.
</event>
<event>
 5   0  0.3310037E-05  0.2392959E+04  0.7818609E-02  0.8442144E-01
        2   -1    0    0  501    0  0.00000000000E+00  0.00000000000E+00  0.23589376455E+04  0.23589376455E+04  0.25500000920E-02 0. -1.
       -2   -1    0    0    0  501  0.00000000000E+00  0.00000000000E+00 -0.60686797329E+03  0.60686797330E+03  0.25500000920E-02 0.  1.
    10030    2    1    2    0    0  0.00000000000E+00  0.00000000000E+00  0.17520696722E+04  0.29658056188E+04  0.23929594297E+04 0.  0.
        2    1    3    3  502    0  0.36567928021E+03  0.82702480481E+02 -0.53218649497E+03  0.65098656030E+03  0.25500000920E-02 0.  1.
       -2    1    3    3    0  502 -0.36567928021E+03 -0.82702480481E+02  0.22842561671E+04  0.23148190585E+04  0.25500000920E-02 0. -1.
</event>
<event>
 5   0  0.3310037E-05  0.2409348E+04  0.7818609E-02  0.8436012E-01
       -2   -1    0    0    0  501  0.00000000000E+00  0.00000000000E+00  0.75442221431E+03  0.75442221432E+03  0.25500000920E-02 0. -1.
        2   -1    0    0  501    0  0.00000000000E+00  0.00000000000E+00 -0.19236434384E+04  0.19236434384E+04  0.25500000920E-02 0.  1.
    10030    2    1    2    0    0  0.00000000000E+00  0.00000000000E+00 -0.11692212241E+04  0.26780656527E+04  0.24093479137E+04 0.  0.
        2    1    3    3  502    0 -0.96840078953E+03  0.47182353413E+03 -0.11840360725E+04  0.16007370045E+04  0.25500000920E-02 0.  1.
       -2    1    3    3    0  502  0.96840078953E+03 -0.47182353413E+03  0.14814848456E+02  0.10773286482E+04  0.25500000920E-02 0. -1.
</event>
<event>
 5   0  0.1407158E-05  0.2381851E+04  0.7818609E-02  0.8446330E-01
        1   -1    0    0  501    0  0.00000000000E+00  0.00000000000E+00  0.83491635651E+03  0.83491635653E+03  0.50400001928E-02 0.  1.
       -1   -1    0    0    0  501  0.00000000000E+00  0.00000000000E+00 -0.16987374496E+04  0.16987374496E+04  0.50400001928E-02 0. -1.
    10030    2    1    2    0    0  0.00000000000E+00  0.00000000000E+00 -0.86382109308E+03  0.25336538061E+04  0.23818511138E+04 0.  0.
        1    1    3    3  502    0  0.19858424304E+03 -0.86762469075E+03 -0.12736019874E+04  0.15537922409E+04  0.50400001928E-02 0. -1.
       -1    1    3    3    0  502 -0.19858424304E+03  0.86762469075E+03  0.40978089433E+03  0.97986156521E+03  0.50400001928E-02 0.  1.
</event>
<event>
 5   0  0.1393026E-05  0.2427396E+04  0.7818609E-02  0.8429318E-01
        1   -1    0    0  501    0  0.00000000000E+00  0.00000000000E+00  0.10900020324E+04  0.10900020324E+04  0.50400001928E-02 0. -1.
       -1   -1    0    0    0  501  0.00000000000E+00  0.00000000000E+00 -0.13514308547E+04  0.13514308547E+04  0.50400001928E-02 0.  1.
    10030    2    1    2    0    0  0.00000000000E+00  0.00000000000E+00 -0.26142882226E+03  0.24414328871E+04  0.24273956235E+04 0.  0.
        4    1    3    3  502    0  0.11605835198E+04  0.35203292717E+03 -0.83759569296E+02  0.12156885155E+04  0.12699999809E+01 0.  1.
       -4    1    3    3    0  502 -0.11605835198E+04 -0.35203292717E+03 -0.17766925296E+03  0.12257443716E+04  0.12699999809E+01 0. -1.
</event>
<event>
 5   0  0.1434943E-05  0.2410456E+04  0.7818609E-02  0.8435599E-01
        1   -1    0    0  501    0  0.00000000000E+00  0.00000000000E+00  0.21504243863E+04  0.21504243863E+04  0.50400001928E-02 0.  1.
       -1   -1    0    0    0  501  0.00000000000E+00  0.00000000000E+00 -0.67548254932E+03  0.67548254934E+03  0.50400001928E-02 0. -1.
    10030    2    1    2    0    0  0.00000000000E+00  0.00000000000E+00  0.14749418370E+04  0.28259069356E+04  0.24104556802E+04 0.  0.
        5    1    3    3  502    0  0.22158807957E+03 -0.96462301346E+03 -0.68775500257E+02  0.99214464396E+03  0.46999998093E+01 0. -1.
       -5    1    3    3    0  502 -0.22158807957E+03  0.96462301346E+03  0.15437173372E+04  0.18337622917E+04  0.46999998093E+01 0.  1.
</event>
<event>
 5   0  0.3345974E-05  0.2163256E+04  0.7818609E-02  0.8533879E-01
        2   -1    0    0  501    0  0.00000000000E+00  0.00000000000E+00  0.10985520759E+04  0.10985520759E+04  0.25500000920E-02 0.  1.
       -2   -1    0    0    0  501  0.00000000000E+00  0.00000000000E+00 -0.10649649833E+04  0.10649649833E+04  0.25500000920E-02 0. -1.
    10030    2    1    2    0    0  0.00000000000E+00  0.00000000000E+00  0.33587092570E+02  0.21635170591E+04  0.21632563353E+04 0.  0.
        4    1    3    3  502    0 -0.82601164963E+03 -0.48867211124E+03  0.51567447814E+03  0.10895033079E+04  0.12699999809E+01 0. -1.
       -4    1    3    3    0  502  0.82601164963E+03  0.48867211124E+03 -0.48208738557E+03  0.10740137512E+04  0.12699999809E+01 0.  1.
</event>
<event>
 5   0  0.1434943E-05  0.2404428E+04  0.7818609E-02  0.8437848E-01
        1   -1    0    0  501    0  0.00000000000E+00  0.00000000000E+00  0.20343299719E+04  0.20343299719E+04  0.50400001928E-02 0. -1.
       -1   -1    0    0    0  501  0.00000000000E+00  0.00000000000E+00 -0.71046423260E+03  0.71046423262E+03  0.50400001928E-02 0.  1.
    10030    2    1    2    0    0  0.00000000000E+00  0.00000000000E+00  0.13238657393E+04  0.27447942045E+04  0.24044281502E+04 0.  0.
        5    1    3    3  502    0  0.52143876683E+03 -0.18141609748E+03 -0.55717754224E+03  0.78439727916E+03  0.46999998093E+01 0.  1.
       -5    1    3    3    0  502 -0.52143876683E+03  0.18141609748E+03  0.18810432815E+04  0.19603969254E+04  0.46999998093E+01 0. -1.
</event>
<event>
 5   0  0.3215208E-05  0.2390330E+04  0.7818609E-02  0.8443133E-01
       -2   -1    0    0    0  501  0.00000000000E+00  0.00000000000E+00  0.10643714924E+04  0.10643714924E+04  0.25500000920E-02 0.  1.
        2   -1    0    0  501    0  0.00000000000E+00  0.00000000000E+00 -0.13420303215E+04  0.13420303216E+04  0.25500000920E-02 0. -1.
    10030    2    1    2    0    0  0.00000000000E+00  0.00000000000E+00 -0.27765882915E+03  0.24064018140E+04  0.23903295306E+04 0.  0.
        1    1    3    3  502    0  0.25134023628E+03 -0.11383550597E+04 -0.40402933846E+03  0.12338005765E+04  0.50400001928E-02 0. -1.
       -1    1    3    3    0  502 -0.25134023628E+03  0.11383550597E+04  0.12637050931E+03  0.11726012374E+04  0.50400001928E-02 0.  1.
</event>
<event>
 5   0  0.1434943E-05  0.2465600E+04  0.7818609E-02  0.8415344E-01
        1   -1    0    0  501    0  0.00000000000E+00  0.00000000000E+00  0.85136719617E+03  0.85136719619E+03  0.50400001928E-02 0.  1.
       -1   -1    0    0    0  501  0.00000000000E+00  0.00000000000E+00 -0.17851233600E+04  0.17851233600E+04  0.50400001928E-02 0. -1.
    10030    2    1    2    0    0  0.00000000000E+00  0.00000000000E+00 -0.93375616379E+03  0.26364905562E+04  0.24655996997E+04 0.  0.
        5    1    3    3  502    0  0.10369125443E+04 -0.66666010180E+03 -0.45377897031E+03  0.13136060139E+04  0.46999998093E+01 0. -1.
       -5    1    3    3    0  502 -0.10369125443E+04  0.66666010180E+03 -0.47997719347E+03  0.13228845422E+04  0.46999998093E+01 0.  1.
</event>
<event>
 5   0  0.1506985E-05  0.2416749E+04  0.7818609E-02  0.8433259E-01
       -1   -1    0    0    0  501  0.00000000000E+00  0.00000000000E+00  0.11557342214E+04  0.11557342214E+04  0.50400001928E-02 0.  1.
        1   -1    0    0  501    0  0.00000000000E+00  0.00000000000E+00 -0.12634124313E+04  0.12634124313E+04  0.50400001928E-02 0. -1.
    10030    2    1    2    0    0  0.00000000000E+00  0.00000000000E+00 -0.10767820991E+03  0.24191466526E+04  0.24167490416E+04 0.  0.
        3    1    3    3  502    0  0.45504616599E+03 -0.49886419146E+03 -0.10569492854E+04  0.12542225866E+04  0.10100000352E+00 0. -1.
       -3    1    3    3    0  502 -0.45504616599E+03  0.49886419146E+03  0.94927107547E+03  0.11649240660E+04  0.10100000352E+00 0.  1.
</event>
<event>
 5   0  0.1506985E-05  0.2414327E+04  0.7818609E-02  0.8434159E-01
        1   -1    0    0  501    0  0.00000000000E+00  0.00000000000E+00  0.28339209526E+04  0.28339209526E+04  0.50400001928E-02 0. -1.
       -1   -1    0    0    0  501  0.00000000000E+00  0.00000000000E+00 -0.51421465596E+03  0.51421465598E+03  0.50400001928E-02 0.  1.
    10030    2    1    2    0    0  0.00000000000E+00  0.00000000000E+00  0.23197062967E+04  0.33481356086E+04  0.24143269768E+04 0.  0.
        3    1    3    3  502    0 -0.58630739367E+02  0.73841333347E+03  0.24817020495E+04  0.25898912887E+04  0.10100000352E+00 0. -1.
       -3    1    3    3    0  502  0.58630739367E+02 -0.73841333347E+03 -0.16199575277E+03  0.75824431997E+03  0.10100000352E+00 0.  1.
</event>
<event>
 5   0  0.1434943E-05  0.2378171E+04  0.7818609E-02  0.8447721E-01
        1   -1    0    0  501    0  0.00000000000E+00  0.00000000000E+00  0.16005426119E+04  0.16005426119E+04  0.50400001928E-02 0. -1.
       -1   -1    0    0    0  501  0.00000000000E+00  0.00000000000E+00 -0.88340311673E+03  0.88340311674E+03  0.50400001928E-02 0.  1.
    10030    2    1    2    0    0  0.00000000000E+00  0.00000000000E+00  0.71713949516E+03  0.24839457286E+04  0.23781710046E+04 0.  0.
        5    1    3    3  502    0  0.70398813545E+03  0.86555498798E+03 -0.70960063059E+02  0.11179633950E+04  0.46999998093E+01 0.  1.
       -5    1    3    3    0  502 -0.70398813545E+03 -0.86555498798E+03  0.78809955822E+03  0.13659823336E+04  0.46999998093E+01 0. -1.
</event>
<event>
 5   0  0.3345974E-05  0.2403192E+04  0.7818609E-02  0.8438309E-01
        2   -1    0    0  501    0  0.00000000000E+00  0.00000000000E+00  0.86575081817E+03  0.86575081817E+03  0.25500000920E-02 0. -1.
       -2   -1    0    0    0  501  0.00000000000E+00  0.00000000000E+00 -0.16677241163E+04  0.16677241163E+04  0.25500000920E-02 0.  1.
    10030    2    1    2    0    0  0.00000000000E+00  0.00000000000E+00 -0.80197329809E+03  0.25334749344E+04  0.24031924751E+04 0.  0.
        4    1    3    3  502    0 -0.10792839528E+04 -0.52656162400E+03 -0.44459219425E+03  0.12805408337E+04  0.12699999809E+01 0. -1.
       -4    1    3    3    0  502  0.10792839528E+04  0.52656162400E+03 -0.35738110383E+03  0.12529341008E+04  0.12699999809E+01 0.  1.
</event>
<event>
 5   0  0.3347728E-05  0.2399620E+04  0.7818609E-02  0.8439646E-01
        2   -1    0    0  501    0  0.00000000000E+00  0.00000000000E+00  0.86099505941E+03  0.86099505942E+03  0.25500000920E-02 0.  1.
       -2   -1    0    0    0  501  0.00000000000E+00  0.00000000000E+00 -0.16719536434E+04  0.16719536434E+04  0.25500000920E-02 0. -1.
    10030    2    1    2    0    0  0.00000000000E+00  0.00000000000E+00 -0.81095858395E+03  0.25329487028E+04  0.23996198253E+04 0.  0.
        3    1    3    3  502    0 -0.78929801382E+03  0.44782631043E+02  0.54718968182E+03  0.96146419421E+03  0.10100000352E+00 0.  1.
       -3    1    3    3    0  502  0.78929801382E+03 -0.44782631043E+02 -0.13581482658E+04  0.15714845086E+04  0.10100000352E+00 0. -1.
</event>
<event>
 5   0  0.3310037E-05  0.2398956E+04  0.7818609E-02  0.8439895E-01
        2   -1    0    0  501    0  0.00000000000E+00  0.00000000000E+00  0.77455569218E+03  0.77455569219E+03  0.25500000920E-02 0.  1.
       -2   -1    0    0    0  501  0.00000000000E+00  0.00000000000E+00 -0.18575126986E+04  0.18575126986E+04  0.25500000920E-02 0. -1.
    10030    2    1    2    0    0  0.00000000000E+00  0.00000000000E+00 -0.10829570064E+04  0.26320683908E+04  0.23989556344E+04 0.  0.
        2    1    3    3  502    0 -0.60732019378E+03  0.10340455379E+04 -0.56964490766E+03  0.13276231819E+04  0.25500000920E-02 0.  1.
       -2    1    3    3    0  502  0.60732019378E+03 -0.10340455379E+04 -0.51331209874E+03  0.13044452089E+04  0.25500000920E-02 0. -1.
</event>
<event>
 5   0  0.3215208E-05  0.2395428E+04  0.7818609E-02  0.8441217E-01
       -2   -1    0    0    0  501  0.00000000000E+00  0.00000000000E+00  0.85149188535E+03  0.85149188535E+03  0.25500000920E-02 0. -1.
        2   -1    0    0  501    0  0.00000000000E+00  0.00000000000E+00 -0.16847120357E+04  0.16847120357E+04  0.25500000920E-02 0.  1.
    10030    2    1    2    0    0  0.00000000000E+00  0.00000000000E+00 -0.83322015031E+03  0.25362039210E+04  0.23954278345E+04 0.  0.
        1    1    3    3  502    0 -0.62783989264E+03  0.26615290493E+03 -0.14591065861E+04  0.16105937816E+04  0.50400001928E-02 0. -1.
       -1    1    3    3    0  502  0.62783989264E+03 -0.26615290493E+03  0.62588643583E+03  0.92561013941E+03  0.50400001928E-02 0.  1.
</event>
<event>
 5   0  0.3320780E-05  0.2430597E+04  0.7818609E-02  0.8428137E-01
        2   -1    0    0  501    0  0.00000000000E+00  0.00000000000E+00  0.13457117323E+04  0.13457117323E+04  0.25500000920E-02 0. -1.
       -2   -1    0    0    0  501  0.00000000000E+00  0.00000000000E+00 -0.10975234402E+04  0.10975234402E+04  0.25500000920E-02 0.  1.
    10030    2    1    2    0    0  0.00000000000E+00  0.00000000000E+00  0.24818829208E+03  0.24432351725E+04  0.24305967744E+04 0.  0.
        5    1    3    3  502    0 -0.34443272240E+03  0.10549505672E+04  0.62202170741E+03  0.12721979775E+04  0.46999998093E+01 0. -1.
       -5    1    3    3    0  502  0.34443272240E+03 -0.10549505672E+04 -0.37383341533E+03  0.11710371949E+04  0.46999998093E+01 0.  1.
</event>
<event>
 5   0  0.3347728E-05  0.2401043E+04  0.7818609E-02  0.8439113E-01
        2   -1    0    0  501    0  0.00000000000E+00  0.00000000000E+00  0.17179311685E+04  0.17179311685E+04  0.25500000920E-02 0.  1.
       -2   -1    0    0    0  501  0.00000000000E+00  0.00000000000E+00 -0.83894594688E+03  0.83894594688E+03  0.25500000920E-02 0. -1.
    10030    2    1    2    0    0  0.00000000000E+00  0.00000000000E+00  0.87898522166E+03  0.25568771154E+04  0.24010425993E+04 0.  0.
        3    1    3    3  502    0 -0.29487565576E+03  0.12578832057E+02 -0.79970913040E+03  0.85243450354E+03  0.10100000352E+00 0. -1.
       -3    1    3    3    0  502  0.29487565576E+03 -0.12578832057E+02  0.16786943521E+04  0.17044426119E+04  0.10100000352E+00 0.  1.
</event>
<event>
 5   0  0.1407158E-05  0.2391001E+04  0.7818609E-02  0.8442880E-01
       -1   -1    0    0    0  501  0.00000000000E+00  0.00000000000E+00  0.12740543654E+04  0.12740543654E+04  0.50400001928E-02 0.  1.
        1   -1    0    0  501    0  0.00000000000E+00  0.00000000000E+00 -0.11217903229E+04  0.11217903229E+04  0.50400001928E-02 0. -1.
    10030    2    1    2    0    0  0.00000000000E+00  0.00000000000E+00  0.15226404249E+03  0.23958446884E+04  0.23910013451E+04 0.  0.
        1    1    3    3  502    0  0.55728114304E+03 -0.98991939938E+03  0.44933669950E+03  0.12216407652E+04  0.50400001928E-02 0.  1.
       -1    1    3    3    0  502 -0.55728114304E+03  0.98991939938E+03 -0.29707265701E+03  0.11742039232E+04  0.50400001928E-02 0. -1.
</event>
<event>
 5   0  0.1506985E-05  0.2329388E+04  0.7818609E-02  0.8466423E-01
       -1   -1    0    0    0  501  0.00000000000E+00  0.00000000000E+00  0.10720347460E+04  0.10720347460E+04  0.50400001928E-02 0. -1.
        1   -1    0    0  501    0  0.00000000000E+00  0.00000000000E+00 -0.12653620784E+04  0.12653620784E+04  0.50400001928E-02 0.  1.
    10030    2    1    2    0    0  0.00000000000E+00  0.00000000000E+00 -0.19332733242E+03  0.23373968245E+04  0.23293880007E+04 0.  0.
        3    1    3    3  502    0  0.48045856167E+03 -0.66828600390E+02  0.96584687483E+03  0.10808176012E+04  0.10100000352E+00 0. -1.
       -3    1    3    3    0  502 -0.48045856167E+03  0.66828600390E+02 -0.11591742073E+04  0.12565792232E+04  0.10100000352E+00 0.  1.
</event>
<event>
 5   0  0.1434943E-05  0.2351401E+04  0.7818609E-02  0.8457926E-01
        1   -1    0    0  501    0  0.00000000000E+00  0.00000000000E+00  0.15516915960E+04  0.15516915960E+04  0.50400001928E-02 0. -1.
       -1   -1    0    0    0  501  0.00000000000E+00  0.00000000000E+00 -0.89081580620E+03  0.89081580621E+03  0.50400001928E-02 0.  1.
    10030    2    1    2    0    0  0.00000000000E+00  0.00000000000E+00  0.66087578984E+03  0.24425074023E+04  0.23514007741E+04 0.  0.
        5    1    3    3  502    0 -0.72662774959E+03  0.64806733717E+03  0.10149627487E+04  0.14064674299E+04  0.46999998093E+01 0. -1.
       -5    1    3    3    0  502  0.72662774959E+03 -0.64806733717E+03 -0.35408695887E+03  0.10360399724E+04  0.46999998093E+01 0.  1.
</event>
<event>
 5   0  0.1506985E-05  0.2408853E+04  0.7818609E-02  0.8436196E-01
       -1   -1    0    0    0  501  0.00000000000E+00  0.00000000000E+00  0.96406227746E+03  0.96406227747E+03  0.50400001928E-02 0.  1.
        1   -1    0    0  501    0  0.00000000000E+00  0.00000000000E+00 -0.15047198151E+04  0.15047198151E+04  0.50400001928E-02 0. -1.
    10030    2    1    2    0    0  0.00000000000E+00  0.00000000000E+00 -0.54065753764E+03  0.24687820926E+04  0.24088533471E+04 0.  0.
        3    1    3    3  502    0 -0.30156246420E+03 -0.14534469669E+03 -0.14560820550E+04  0.14940682587E+04  0.10100000352E+00 0. -1.
       -3    1    3    3    0  502  0.30156246420E+03  0.14534469669E+03  0.91542451737E+03  0.97471383384E+03  0.10100000352E+00 0.  1.
</event>
<event>
 5   0  0.3310037E-05  0.2425326E+04  0.7818609E-02  0.8430082E-01
       -2   -1    0    0    0  501  0.00000000000E+00  0.00000000000E+00  0.14781514039E+04  0.14781514040E+04  0.25500000920E-02 0.  1.
        2   -1    0    0  501    0  0.00000000000E+00  0.00000000000E+00 -0.99485849922E+03  0.99485849923E+03  0.25500000920E-02 0. -1.
    10030    2    1    2    0    0  0.00000000000E+00  0.00000000000E+00  0.48329290473E+03  0.24730099032E+04  0.24253259471E+04 0.  0.
        2    1    3    3  502    0  0.45649439218E+03 -0.10943527429E+04  0.50072144838E+03  0.12871352007E+04  0.25500000920E-02 0.  1.
       -2    1    3    3    0  502 -0.45649439218E+03  0.10943527429E+04 -0.17428543650E+02  0.11858747025E+04  0.25500000920E-02 0. -1.
</event>
<event>
 5   0  0.3347728E-05  0.2394649E+04  0.7818609E-02  0.8441510E-01
       -2   -1    0    0    0  501  0.00000000000E+00  0.00000000000E+00  0.12004567386E+04  0.12004567386E+04  0.25500000920E-02 0. -1.
        2   -1    0    0  501    0  0.00000000000E+00  0.00000000000E+00 -0.11942002573E+04  0.11942002573E+04  0.25500000920E-02 0.  1.
    10030    2    1    2    0    0  0.00000000000E+00  0.00000000000E+00  0.62564812965E+01  0.23946569960E+04  0.23946488229E+04 0.  0.
        3    1    3    3  502    0  0.66751216378E+03  0.48474884709E+01  0.99710836785E+03  0.11999254537E+04  0.10100000352E+00 0. -1.
       -3    1    3    3    0  502 -0.66751216378E+03 -0.48474884709E+01 -0.99085188655E+03  0.11947315423E+04  0.10100000352E+00 0.  1.
</event>
<event>
 5   0  0.1506985E-05  0.2408919E+04  0.7818609E-02  0.8436172E-01
       -1   -1    0    0    0  501  0.00000000000E+00  0.00000000000E+00  0.13449959000E+04  0.13449959000E+04  0.50400001928E-02 0.  1.
        1   -1    0    0  501    0  0.00000000000E+00  0.00000000000E+00 -0.10786073277E+04  0.10786073277E+04  0.50400001928E-02 0. -1.
    10030    2    1    2    0    0  0.00000000000E+00  0.00000000000E+00  0.26638857227E+03  0.24236032278E+04  0.24089187894E+04 0.  0.
        3    1    3    3  502    0  0.28106309991E+03  0.85373622591E+03 -0.67347905535E+03  0.11231367048E+04  0.10100000352E+00 0. -1.
       -3    1    3    3    0  502 -0.28106309991E+03 -0.85373622591E+03  0.93986762762E+03  0.13004665229E+04  0.10100000352E+00 0.  1.
</event>
<event>
 5   0  0.1401596E-05  0.2361643E+04  0.7818609E-02  0.8454005E-01
       -1   -1    0    0    0  501  0.00000000000E+00  0.00000000000E+00  0.77139880235E+03  0.77139880236E+03  0.50400001928E-02 0.  1.
        1   -1    0    0  501    0  0.00000000000E+00  0.00000000000E+00 -0.18075461465E+04  0.18075461465E+04  0.50400001928E-02 0. -1.
    10030    2    1    2    0    0  0.00000000000E+00  0.00000000000E+00 -0.10361473441E+04  0.25789449488E+04  0.23616425916E+04 0.  0.
        2    1    3    3  502    0 -0.64785958516E+03  0.96235449046E+03 -0.27760570120E+03  0.11928592259E+04  0.25500000920E-02 0. -1.
       -2    1    3    3    0  502  0.64785958516E+03 -0.96235449046E+03 -0.75854164293E+03  0.13860857230E+04  0.25500000920E-02 0.  1.
</event>
<event>
 5   0  0.3310037E-05  0.2404113E+04  0.7818609E-02  0.8437965E-01
       -2   -1    0    0    0  501  0.00000000000E+00  0.00000000000E+00  0.10601645496E+04  0.10601645496E+04  0.25500000920E-02 0. -1.
        2   -1    0    0  501    0  0.00000000000E+00  0.00000000000E+00 -0.13629396802E+04  0.13629396802E+04  0.25500000920E-02 0.  1.
    10030    2    1    2    0    0  0.00000000000E+00  0.00000000000E+00 -0.30277513066E+03  0.24231042298E+04  0.24041134184E+04 0.  0.
        2    1    3    3  502    0  0.51189226903E+03 -0.86147481443E+03  0.51776024930E+03  0.11279398152E+04  0.25500000920E-02 0. -1.
       -2    1    3    3    0  502 -0.51189226903E+03  0.86147481443E+03 -0.82053537996E+03  0.12951644146E+04  0.25500000920E-02 0.  1.
</event>
<event>
 5   0  0.1393026E-05  0.2431882E+04  0.7818609E-02  0.8427663E-01
       -1   -1    0    0    0  501  0.00000000000E+00  0.00000000000E+00  0.61078296175E+03  0.61078296177E+03  0.50400001928E-02 0. -1.
        1   -1    0    0  501    0  0.00000000000E+00  0.00000000000E+00 -0.24206845999E+04  0.24206845999E+04  0.50400001928E-02 0.  1.
    10030    2    1    2    0    0  0.00000000000E+00  0.00000000000E+00 -0.18099016381E+04  0.30314675617E+04  0.24318823240E+04 0.  0.
        4    1    3    3  502    0 -0.79376798496E+03  0.34650931385E+03  0.15891750508E+03  0.88056385621E+03  0.12699999809E+01 0. -1.
       -4    1    3    3    0  502  0.79376798496E+03 -0.34650931385E+03 -0.19688191432E+04  0.21509037055E+04  0.12699999809E+01 0.  1.
</event>
<event>
 5   0  0.3215208E-05  0.2432491E+04  0.7818609E-02  0.8427438E-01
        2   -1    0    0  501    0  0.00000000000E+00  0.00000000000E+00  0.15856621584E+04  0.15856621584E+04  0.25500000920E-02 0.  1.
       -2   -1    0    0    0  501  0.00000000000E+00  0.00000000000E+00 -0.93289330340E+03  0.93289330341E+03  0.25500000920E-02 0. -1.
    10030    2    1    2    0    0  0.00000000000E+00  0.00000000000E+00  0.65276885496E+03  0.25185554618E+04  0.24324914051E+04 0.  0.
        1    1    3    3  502    0 -0.22308097914E+03  0.26378482060E+03 -0.88102526601E+03  0.94633666008E+03  0.50400001928E-02 0. -1.
       -1    1    3    3    0  502  0.22308097914E+03 -0.26378482060E+03  0.15337941210E+04  0.15722188017E+04  0.50400001928E-02 0.  1.
</event>
<event>
 5   0  0.1393026E-05  0.2283575E+04  0.7818609E-02  0.8484426E-01
       -1   -1    0    0    0  501  0.00000000000E+00  0.00000000000E+00  0.30292809880E+04  0.30292809880E+04  0.50400001928E-02 0.  1.
        1   -1    0    0  501    0  0.00000000000E+00  0.00000000000E+00 -0.43035901614E+03  0.43035901616E+03  0.50400001928E-02 0. -1.
    10030    2    1    2    0    0  0.00000000000E+00  0.00000000000E+00  0.25989219719E+04  0.34596400042E+04  0.22835747289E+04 0.  0.
        4    1    3    3  502    0  0.62567361781E+03  0.15491652860E+03  0.27272812844E+04  0.28024152840E+04  0.12699999809E+01 0.  1.
       -4    1    3    3    0  502 -0.62567361781E+03 -0.15491652860E+03 -0.12835931249E+03  0.65722472021E+03  0.12699999809E+01 0. -1.
</event>
<event>
 5   0  0.1506985E-05  0.2368225E+04  0.7818609E-02  0.8451496E-01
        1   -1    0    0  501    0  0.00000000000E+00  0.00000000000E+00  0.13324995265E+04  0.13324995265E+04  0.50400001928E-02 0. -1.
       -1   -1    0    0    0  501  0.00000000000E+00  0.00000000000E+00 -0.10522499940E+04  0.10522499940E+04  0.50400001928E-02 0.  1.
    10030    2    1    2    0    0  0.00000000000E+00  0.00000000000E+00  0.28024953252E+03  0.23847495205E+04  0.23682251741E+04 0.  0.
        3    1    3    3  502    0 -0.10084330599E+04 -0.59794801593E+03  0.30754834639E+03  0.12120499419E+04  0.10100000352E+00 0. -1.
       -3    1    3    3    0  502  0.10084330599E+04  0.59794801593E+03 -0.27298813870E+02  0.11726995786E+04  0.10100000352E+00 0.  1.
</event>
<event>
 5   0  0.1401596E-05  0.2290995E+04  0.7818609E-02  0.8481480E-01
        1   -1    0    0  501    0  0.00000000000E+00  0.00000000000E+00  0.15708062678E+04  0.15708062678E+04  0.50400001928E-02 0.  1.
       -1   -1    0    0    0  501  0.00000000000E+00  0.00000000000E+00 -0.83534444037E+03  0.83534444038E+03  0.50400001928E-02 0. -1.
    10030    2    1    2    0    0  0.00000000000E+00  0.00000000000E+00  0.73546182741E+03  0.24061507082E+04  0.22909947907E+04 0.  0.
        2    1    3    3  502    0  0.19300974050E+03  0.10778550034E+04  0.14460692127E+02  0.10950951009E+04  0.25500000920E-02 0. -1.
       -2    1    3    3    0  502 -0.19300974050E+03 -0.10778550034E+04  0.72100113529E+03  0.13110556073E+04  0.25500000920E-02 0.  1.
</event>
<event>
 5   0  0.3215208E-05  0.2351665E+04  0.7818609E-02  0.8457824E-01
       -2   -1    0    0    0  501  0.00000000000E+00  0.00000000000E+00  0.11223687009E+04  0.11223687009E+04  0.25500000920E-02 0. -1.
        2   -1    0    0  501    0  0.00000000000E+00  0.00000000000E+00 -0.12318428452E+04  0.12318428452E+04  0.25500000920E-02 0.  1.
    10030    2    1    2    0    0  0.00000000000E+00  0.00000000000E+00 -0.10947414432E+03  0.23542115461E+04  0.23516648179E+04 0.  0.
        1    1    3    3  502    0  0.69479852916E+03 -0.94747298321E+03 -0.10095853508E+03  0.11792551360E+04  0.50400001928E-02 0. -1.
       -1    1    3    3    0  502 -0.69479852916E+03  0.94747298321E+03 -0.85156092378E+01  0.11749564101E+04  0.50400001928E-02 0.  1.
</event>
<event>
 5   0  0.3320780E-05  0.2454278E+04  0.7818609E-02  0.8419458E-01
       -2   -1    0    0    0  501  0.00000000000E+00  0.00000000000E+00  0.70416560059E+03  0.70416560060E+03  0.25500000920E-02 0.  1.
        2   -1    0    0  501    0  0.00000000000E+00  0.00000000000E+00 -0.21385163978E+04  0.21385163978E+04  0.25500000920E-02 0. -1.
    10030    2    1    2    0    0  0.00000000000E+00  0.00000000000E+00 -0.14343507972E+04  0.28426819984E+04  0.24542776401E+04 0.  0.
        5    1    3    3  502    0 -0.72914544312E+03 -0.93470368406E+03 -0.34994512658E+03  0.12360451998E+04  0.46999998093E+01 0.  1.
       -5    1    3    3    0  502  0.72914544312E+03  0.93470368406E+03 -0.10844056706E+04  0.16066367986E+04  0.46999998093E+01 0. -1.
</event>
<event>
 5   0  0.1434943E-05  0.2346878E+04  0.7818609E-02  0.8459664E-01
       -1   -1    0    0    0  501  0.00000000000E+00  0.00000000000E+00  0.62001877181E+03  0.62001877183E+03  0.50400001928E-02 0.  1.
        1   -1    0    0  501    0  0.00000000000E+00  0.00000000000E+00 -0.22208349550E+04  0.22208349550E+04  0.50400001928E-02 0. -1.
    10030    2    1    2    0    0  0.00000000000E+00  0.00000000000E+00 -0.16008161832E+04  0.28408537268E+04  0.23468782339E+04 0.  0.
        5    1    3    3  502    0 -0.10827605813E+04  0.36777392440E+03 -0.48172901076E+03  0.12408517501E+04  0.46999998093E+01 0.  1.
       -5    1    3    3    0  502  0.10827605813E+04 -0.36777392440E+03 -0.11190871724E+04  0.16000019767E+04  0.46999998093E+01 0. -1.
</event>
<event>
 5   0  0.3345974E-05  0.2334497E+04  0.7818609E-02  0.8464442E-01
       -2   -1    0    0    0  501  0.00000000000E+00  0.00000000000E+00  0.10700184819E+04  0.10700184819E+04  0.25500000920E-02 0.  1.
        2   -1    0    0  501    0  0.00000000000E+00  0.00000000000E+00 -0.12733131157E+04  0.12733131157E+04  0.25500000920E-02 0. -1.
    10030    2    1    2    0    0  0.00000000000E+00  0.00000000000E+00 -0.20329463384E+03  0.23433315977E+04  0.23344965771E+04 0.  0.
        4    1    3    3  502    0  0.10686947302E+04 -0.44269216194E+03  0.55091567672E+02  0.11580679904E+04  0.12699999809E+01 0.  1.
       -4    1    3    3    0  502 -0.10686947302E+04  0.44269216194E+03 -0.25838620151E+03  0.11852636073E+04  0.12699999809E+01 0. -1.
</event>
<event>
 5   0  0.1407158E-05  0.2065879E+04  0.7818609E-02  0.8576425E-01
        1   -1    0    0  501    0  0.00000000000E+00  0.00000000000E+00  0.14684276473E+04  0.14684276473E+04  0.50400001928E-02 0. -1.
       -1   -1    0    0    0  501  0.00000000000E+00  0.00000000000E+00 -0.72660319843E+03  0.72660319845E+03  0.50400001928E-02 0.  1.
    10030    2    1    2    0    0  0.00000000000E+00  0.00000000000E+00  0.74182444888E+03  0.21950308458E+04  0.20658792077E+04 0.  0.
        1    1    3    3  502    0  0.34867232798E+02 -0.50366708465E+03  0.13283970353E+04  0.14211034233E+04  0.50400001928E-02 0. -1.
       -1    1    3    3    0  502 -0.34867232798E+02  0.50366708465E+03 -0.58657258647E+03  0.77392742250E+03  0.50400001928E-02 0.  1.
</event>
<event>
 5   0  0.1434943E-05  0.2407400E+04  0.7818609E-02  0.8436738E-01
        1   -1    0    0  501    0  0.00000000000E+00  0.00000000000E+00  0.17480736738E+04  0.17480736738E+04  0.50400001928E-02 0.  1.
       -1   -1    0    0    0  501  0.00000000000E+00  0.00000000000E+00 -0.82885150768E+03  0.82885150770E+03  0.50400001928E-02 0. -1.
    10030    2    1    2    0    0  0.00000000000E+00  0.00000000000E+00  0.91922216609E+03  0.25769251815E+04  0.24073998422E+04 0.  0.
        5    1    3    3  502    0 -0.82666597664E+03 -0.66898643870E+03 -0.14396817413E+03  0.10731581511E+04  0.46999998093E+01 0. -1.
       -5    1    3    3    0  502  0.82666597664E+03  0.66898643870E+03  0.10631903402E+04  0.15037670304E+04  0.46999998093E+01 0.  1.
</event>
<event>
 5   0  0.1401596E-05  0.2397842E+04  0.7818609E-02  0.8440312E-01
        1   -1    0    0  501    0  0.00000000000E+00  0.00000000000E+00  0.13830512286E+04  0.13830512286E+04  0.50400001928E-02 0.  1.
       -1   -1    0    0    0  501  0.00000000000E+00  0.00000000000E+00 -0.10393047498E+04  0.10393047498E+04  0.50400001928E-02 0. -1.
    10030    2    1    2    0    0  0.00000000000E+00  0.00000000000E+00  0.34374647886E+03  0.24223559784E+04  0.23978421225E+04 0.  0.
        2    1    3    3  502    0 -0.74142570823E+03 -0.59858142382E+03  0.90691042668E+03  0.13154840644E+04  0.25500000920E-02 0.  1.
       -2    1    3    3    0  502  0.74142570823E+03  0.59858142382E+03 -0.56316394781E+03  0.11068719139E+04  0.25500000920E-02 0. -1.
</event>
<event>
 5   0  0.1401596E-05  0.2421350E+04  0.7818609E-02  0.8431553E-01
        1   -1    0    0  501    0  0.00000000000E+00  0.00000000000E+00  0.17814241749E+04  0.17814241749E+04  0.50400001928E-02 0. -1.
       -1   -1    0    0    0  501  0.00000000000E+00  0.00000000000E+00 -0.82278789731E+03  0.82278789733E+03  0.50400001928E-02 0.  1.
    10030    2    1    2    0    0  0.00000000000E+00  0.00000000000E+00  0.95863627755E+03  0.26042120722E+04  0.24213502440E+04 0.  0.
        2    1    3    3  502    0  0.83606624719E+03  0.87340558773E+03  0.54639959867E+03  0.13267993864E+04  0.25500000920E-02 0.  1.
       -2    1    3    3    0  502 -0.83606624719E+03 -0.87340558773E+03  0.41223667888E+03  0.12774126858E+04  0.25500000920E-02 0. -1.
</event>
<event>
 5   0  0.1434943E-05  0.2445672E+04  0.7818609E-02  0.8422600E-01
       -1   -1    0    0    0  501  0.00000000000E+00  0.00000000000E+00  0.79354949788E+03  0.79354949789E+03  0.50400001928E-02 0.  1.
        1   -1    0    0  501    0  0.00000000000E+00  0.00000000000E+00 -0.18843529238E+04  0.18843529238E+04  0.50400001928E-02 0. -1.
    10030    2    1    2    0    0  0.00000000000E+00  0.00000000000E+00 -0.10908034259E+04  0.26779024217E+04  0.24456715368E+04 0.  0.
        5    1    3    3  502    0  0.93322423979E+03  0.40073411073E+03 -0.12911059901E+04  0.16427026745E+04  0.46999998093E+01 0. -1.
       -5    1    3    3    0  502 -0.93322423979E+03 -0.40073411073E+03  0.20030256421E+03  0.10351997471E+04  0.46999998093E+01 0.  1.
</event>
<event>
 5   0  0.1434943E-05  0.2416972E+04  0.7818609E-02  0.8433177E-01
       -1   -1    0    0    0  501  0.00000000000E+00  0.00000000000E+00  0.59102471989E+03  0.59102471991E+03  0.50400001928E-02 0. -1.
        1   -1    0    0  501    0  0.00000000000E+00  0.00000000000E+00 -0.24710280300E+04  0.24710280300E+04  0.50400001928E-02 0.  1.
    10030    2    1    2    0    0  0.00000000000E+00  0.00000000000E+00 -0.18800033101E+04  0.30620527499E+04  0.24169721962E+04 0.  0.
        5    1    3    3  502    0 -0.52971267310E+03 -0.10811021354E+04 -0.10731114855E+04  0.16127515907E+04  0.46999998093E+01 0.  1.
       -5    1    3    3    0  502  0.52971267310E+03  0.10811021354E+04 -0.80689182461E+03  0.14493011591E+04  0.46999998093E+01 0. -1.
</event>
<event>
 5   0  0.1401596E-05  0.2398859E+04  0.7818609E-02  0.8439931E-01
       -1   -1    0    0    0  501  0.00000000000E+00  0.00000000000E+00  0.95478313374E+03  0.95478313375E+03  0.50400001928E-02 0. -1.
        1   -1    0    0  501    0  0.00000000000E+00  0.00000000000E+00 -0.15067625574E+04  0.15067625574E+04  0.50400001928E-02 0.  1.
    10030    2    1    2    0    0  0.00000000000E+00  0.00000000000E+00 -0.55197942362E+03  0.24615456911E+04  0.23988592925E+04 0.  0.
        2    1    3    3  502    0 -0.10272835798E+04 -0.12393407397E+03 -0.89843844906E+03  0.13703513618E+04  0.25500000920E-02 0.  1.
       -2    1    3    3    0  502  0.10272835798E+04  0.12393407397E+03  0.34645902545E+03  0.10911943293E+04  0.25500000920E-02 0. -1.
</event>
<event>
 5   0  0.1401596E-05  0.2396126E+04  0.7818609E-02  0.8440955E-01
        1   -1    0    0  501    0  0.00000000000E+00  0.00000000000E+00  0.22533621833E+04  0.22533621833E+04  0.50400001928E-02 0. -1.
       -1   -1    0    0    0  501  0.00000000000E+00  0.00000000000E+00 -0.63698362524E+03  0.63698362526E+03  0.50400001928E-02 0.  1.
    10030    2    1    2    0    0  0.00000000000E+00  0.00000000000E+00  0.16163785581E+04  0.28903458086E+04  0.23961258836E+04 0.  0.
        2    1    3    3  502    0 -0.67787372099E+03  0.10316766255E+03 -0.37689295244E+03  0.78243507450E+03  0.25500000920E-02 0.  1.
       -2    1    3    3    0  502  0.67787372099E+03 -0.10316766255E+03  0.19932715105E+04  0.21079107341E+04  0.25500000920E-02 0. -1.
</event>
<event>
 5   0  0.1147362E-05  0.2430800E+04  0.7818609E-02  0.8428062E-01
        4   -1    0    0  501    0  0.00000000000E+00  0.00000000000E+00  0.96350082561E+03  0.96350166261E+03  0.12699999809E+01 0. -1.
       -4   -1    0    0    0  501  0.00000000000E+00  0.00000000000E+00 -0.15331546982E+04  0.15331552242E+04  0.12699999809E+01 0.  1.
    10030    2    1    2    0    0  0.00000000000E+00  0.00000000000E+00 -0.56965387256E+03  0.24966568868E+04  0.24308002953E+04 0.  0.
        3    1    3    3  502    0 -0.14277385342E+03 -0.97432818284E+03 -0.10165161154E+04  0.14152755223E+04  0.10100000352E+00 0. -1.
       -3    1    3    3    0  502  0.14277385342E+03  0.97432818284E+03  0.44686224282E+03  0.10813813644E+04  0.10100000352E+00 0.  1.
</event>
<event>
 5   0  0.3215208E-05  0.2406141E+04  0.7818609E-02  0.8437208E-01
        2   -1    0    0  501    0  0.00000000000E+00  0.00000000000E+00  0.10946825767E+04  0.10946825767E+04  0.25500000920E-02 0. -1.
       -2   -1    0    0    0  501  0.00000000000E+00  0.00000000000E+00 -0.13221903548E+04  0.13221903548E+04  0.25500000920E-02 0.  1.
    10030    2    1    2    0    0  0.00000000000E+00  0.00000000000E+00 -0.22750777806E+03  0.24168729316E+04  0.24061410969E+04 0.  0.
        1    1    3    3  502    0  0.88245690824E+02  0.32221922581E+03 -0.12746622898E+04  0.13177163900E+04  0.50400001928E-02 0.  1.
       -1    1    3    3    0  502 -0.88245690824E+02 -0.32221922581E+03  0.10471545117E+04  0.10991565416E+04  0.50400001928E-02 0. -1.
</event>
<event>
 5   0  0.1434943E-05  0.2424673E+04  0.7818609E-02  0.8430324E-01
        1   -1    0    0  501    0  0.00000000000E+00  0.00000000000E+00  0.14512607329E+04  0.14512607329E+04  0.50400001928E-02 0.  1.
       -1   -1    0    0    0  501  0.00000000000E+00  0.00000000000E+00 -0.10127470525E+04  0.10127470525E+04  0.50400001928E-02 0. -1.
    10030    2    1    2    0    0  0.00000000000E+00  0.00000000000E+00  0.43851368040E+03  0.24640077854E+04  0.24246731983E+04 0.  0.
        5    1    3    3  502    0  0.32446340168E+03  0.91740911971E+03  0.95405112397E+03  0.13627735062E+04  0.46999998093E+01 0.  1.
       -5    1    3    3    0  502 -0.32446340168E+03 -0.91740911971E+03 -0.51553744357E+03  0.11012342792E+04  0.46999998093E+01 0. -1.
</event>
<event>
 5   0  0.1401596E-05  0.2155026E+04  0.7818609E-02  0.8537384E-01
        1   -1    0    0  501    0  0.00000000000E+00  0.00000000000E+00  0.10935455289E+04  0.10935455289E+04  0.50400001928E-02 0.  1.
       -1   -1    0    0    0  501  0.00000000000E+00  0.00000000000E+00 -0.10617160107E+04  0.10617160107E+04  0.50400001928E-02 0. -1.
    10030    2    1    2    0    0  0.00000000000E+00  0.00000000000E+00  0.31829518242E+02  0.21552615396E+04  0.21550264931E+04 0.  0.
        2    1    3    3  502    0  0.76538850631E+03 -0.52529909833E+03  0.56303574685E+03  0.10857108089E+04  0.25500000920E-02 0. -1.
       -2    1    3    3    0  502 -0.76538850631E+03  0.52529909833E+03 -0.53120622861E+03  0.10695507307E+04  0.25500000920E-02 0.  1.
</event>
<event>
 5   0  0.1407158E-05  0.2461683E+04  0.7818609E-02  0.8416765E-01
       -1   -1    0    0    0  501  0.00000000000E+00  0.00000000000E+00  0.10441750180E+04  0.10441750181E+04  0.50400001928E-02 0.  1.
        1   -1    0    0  501    0  0.00000000000E+00  0.00000000000E+00 -0.14508781016E+04  0.14508781016E+04  0.50400001928E-02 0. -1.
    10030    2    1    2    0    0  0.00000000000E+00  0.00000000000E+00 -0.40670308359E+03  0.24950531197E+04  0.24616828943E+04 0.  0.
        1    1    3    3  502    0 -0.51053408092E+03  0.12685413103E+03 -0.13311954272E+04  0.14313693736E+04  0.50400001928E-02 0. -1.
       -1    1    3    3    0  502  0.51053408092E+03 -0.12685413103E+03  0.92449234358E+03  0.10636837461E+04  0.50400001928E-02 0.  1.
</event>
<event>
 5   0  0.3320780E-05  0.2384758E+04  0.7818609E-02  0.8445232E-01
        2   -1    0    0  501    0  0.00000000000E+00  0.00000000000E+00  0.86101688359E+03  0.86101688359E+03  0.25500000920E-02 0.  1.
       -2   -1    0    0    0  501  0.00000000000E+00  0.00000000000E+00 -0.16512661242E+04  0.16512661242E+04  0.25500000920E-02 0. -1.
    10030    2    1    2    0    0  0.00000000000E+00  0.00000000000E+00 -0.79024924057E+03  0.25122830077E+04  0.23847582789E+04 0.  0.
        5    1    3    3  502    0 -0.39208751245E+03 -0.74853014949E+03 -0.12813693761E+04  0.15349135384E+04  0.46999998093E+01 0. -1.
       -5    1    3    3    0  502  0.39208751245E+03  0.74853014949E+03  0.49112013558E+03  0.97736946938E+03  0.46999998093E+01 0.  1.
</event>
<event>
 5   0  0.3320780E-05  0.2412791E+04  0.7818609E-02  0.8434730E-01
       -2   -1    0    0    0  501  0.00000000000E+00  0.00000000000E+00  0.54354185327E+03  0.54354185327E+03  0.25500000920E-02 0.  1.
        2   -1    0    0  501    0  0.00000000000E+00  0.00000000000E+00 -0.26776047736E+04  0.26776047736E+04  0.25500000920E-02 0. -1.
    10030    2    1    2    0    0  0.00000000000E+00  0.00000000000E+00 -0.21340629204E+04  0.32211466269E+04  0.24127911314E+04 0.  0.
        5    1    3    3  502    0  0.42379765685E+03  0.25610267568E+03 -0.25356698606E+04  0.25835705460E+04  0.46999998093E+01 0. -1.
       -5    1    3    3    0  502 -0.42379765685E+03 -0.25610267568E+03  0.40160694024E+03  0.63757608086E+03  0.46999998093E+01 0.  1.
</event>
<event>
 5   0  0.3345974E-05  0.2390766E+04  0.7818609E-02  0.8442969E-01
       -2   -1    0    0    0  501  0.00000000000E+00  0.00000000000E+00  0.14664653333E+04  0.14664653333E+04  0.25500000920E-02 0. -1.
        2   -1    0    0  501    0  0.00000000000E+00  0.00000000000E+00 -0.97441160796E+03  0.97441160796E+03  0.25500000920E-02 0.  1.
    10030    2    1    2    0    0  0.00000000000E+00  0.00000000000E+00  0.49205372537E+03  0.24408769413E+04  0.23907662734E+04 0.  0.
        4    1    3    3  502    0 -0.30621054040E+03 -0.53508999087E+03 -0.79957436417E+03  0.10096568576E+04  0.12699999809E+01 0.  1.
       -4    1    3    3    0  502  0.30621054040E+03  0.53508999087E+03  0.12916280895E+04  0.14312200837E+04  0.12699999809E+01 0. -1.
</event>
<event>
 5   0  0.1434943E-05  0.2373003E+04  0.7818609E-02  0.8449680E-01
        1   -1    0    0  501    0  0.00000000000E+00  0.00000000000E+00  0.19332593745E+04  0.19332593745E+04  0.50400001928E-02 0.  1.
       -1   -1    0    0    0  501  0.00000000000E+00  0.00000000000E+00 -0.72819313480E+03  0.72819313482E+03  0.50400001928E-02 0. -1.
    10030    2    1    2    0    0  0.00000000000E+00  0.00000000000E+00  0.12050662397E+04  0.26614525093E+04  0.23730033328E+04 0.  0.
        5    1    3    3  502    0 -0.11350398756E+04  0.28603167406E+03  0.38495595506E+03  0.12322105401E+04  0.46999998093E+01 0. -1.
       -5    1    3    3    0  502  0.11350398756E+04 -0.28603167406E+03  0.82011028467E+03  0.14292419693E+04  0.46999998093E+01 0.  1.
</event>
<event>
 5   0  0.3310037E-05  0.2397025E+04  0.7818609E-02  0.8440618E-01
       -2   -1    0    0    0  501  0.00000000000E+00  0.00000000000E+00  0.71776984177E+03  0.71776984177E+03  0.25500000920E-02 0.  1.
        2   -1    0    0  501    0  0.00000000000E+00  0.00000000000E+00 -0.20012442650E+04  0.20012442650E+04  0.25500000920E-02 0. -1.
    10030    2    1    2    0    0  0.00000000000E+00  0.00000000000E+00 -0.12834744233E+04  0.27190141068E+04  0.23970254729E+04 0.  0.
        2    1    3    3  502    0 -0.25473314312E+03  0.11525404958E+04 -0.40598727567E+03  0.12482244336E+04  0.25500000920E-02 0.  1.
       -2    1    3    3    0  502  0.25473314312E+03 -0.11525404958E+04 -0.87748714761E+03  0.14707896732E+04  0.25500000920E-02 0. -1.
</event>
<event>
 5   0  0.1401596E-05  0.2431034E+04  0.7818609E-02  0.8427976E-01
        1   -1    0    0  501    0  0.00000000000E+00  0.00000000000E+00  0.11556585797E+04  0.11556585797E+04  0.50400001928E-02 0. -1.
       -1   -1    0    0    0  501  0.00000000000E+00  0.00000000000E+00 -0.12784754578E+04  0.12784754578E+04  0.50400001928E-02 0.  1.
    10030    2    1    2    0    0  0.00000000000E+00  0.00000000000E+00 -0.12281687811E+03  0.24341340375E+04  0.24310336335E+04 0.  0.
        2    1    3    3  502    0 -0.29488651923E+03  0.17609740143E+03  0.11060600538E+04  0.11581611272E+04  0.25500000920E-02 0. -1.
       -2    1    3    3    0  502  0.29488651923E+03 -0.17609740143E+03 -0.12288769319E+04  0.12759729103E+04  0.25500000920E-02 0.  1.
</event>
<event>
 5   0  0.3310037E-05  0.2399476E+04  0.7818609E-02  0.8439700E-01
        2   -1    0    0  501    0  0.00000000000E+00  0.00000000000E+00  0.18595706218E+04  0.18595706218E+04  0.25500000920E-02 0. -1.
       -2   -1    0    0    0  501  0.00000000000E+00  0.00000000000E+00 -0.77403450311E+03  0.77403450311E+03  0.25500000920E-02 0.  1.
    10030    2    1    2    0    0  0.00000000000E+00  0.00000000000E+00  0.10855361187E+04  0.26336051249E+04  0.23994764615E+04 0.  0.
        2    1    3    3  502    0 -0.53338254676E+03  0.97606559979E+03  0.10362751620E+04  0.15202194603E+04  0.25500000920E-02 0. -1.
       -2    1    3    3    0  502  0.53338254676E+03 -0.97606559979E+03  0.49260956761E+02  0.11133856646E+04  0.25500000920E-02 0.  1.
</event>
<event>
 5   0  0.1434943E-05  0.2414477E+04  0.7818609E-02  0.8434103E-01
        1   -1    0    0  501    0  0.00000000000E+00  0.00000000000E+00  0.19469611406E+04  0.19469611406E+04  0.50400001928E-02 0.  1.
       -1   -1    0    0    0  501  0.00000000000E+00  0.00000000000E+00 -0.74856418364E+03  0.74856418365E+03  0.50400001928E-02 0. -1.
    10030    2    1    2    0    0  0.00000000000E+00  0.00000000000E+00  0.11983969570E+04  0.26955253243E+04  0.24144774812E+04 0.  0.
        5    1    3    3  502    0 -0.92562044532E+03  0.69012404705E+03  0.20550460718E+03  0.11727312747E+04  0.46999998093E+01 0. -1.
       -5    1    3    3    0  502  0.92562044532E+03 -0.69012404705E+03  0.99289234977E+03  0.15227940495E+04  0.46999998093E+01 0.  1.
</event>
<event>
 5   0  0.3345974E-05  0.2404442E+04  0.7818609E-02  0.8437842E-01
        2   -1    0    0  501    0  0.00000000000E+00  0.00000000000E+00  0.16546604500E+04  0.16546604500E+04  0.25500000920E-02 0.  1.
       -2   -1    0    0    0  501  0.00000000000E+00  0.00000000000E+00 -0.87349352263E+03  0.87349352264E+03  0.25500000920E-02 0. -1.
    10030    2    1    2    0    0  0.00000000000E+00  0.00000000000E+00  0.78116692736E+03  0.25281539726E+04  0.24044418772E+04 0.  0.
        4    1    3    3  502    0  0.72321825018E+03 -0.69110052445E+03  0.10917281773E+04  0.14807216478E+04  0.12699999809E+01 0.  1.
       -4    1    3    3    0  502 -0.72321825018E+03  0.69110052445E+03 -0.31056124991E+03  0.10474323248E+04  0.12699999809E+01 0. -1.
</event>
<event>
 5   0  0.1407158E-05  0.2387515E+04  0.7818609E-02  0.8444193E-01
       -1   -1    0    0    0  501  0.00000000000E+00  0.00000000000E+00  0.71178917499E+03  0.71178917501E+03  0.50400001928E-02 0. -1.
        1   -1    0    0  501    0  0.00000000000E+00  0.00000000000E+00 -0.20020766573E+04  0.20020766573E+04  0.50400001928E-02 0.  1.
    10030    2    1    2    0    0  0.00000000000E+00  0.00000000000E+00 -0.12902874823E+04  0.27138658323E+04  0.23875146008E+04 0.  0.
        1    1    3    3  502    0 -0.72544562582E+02  0.45502118792E+02  0.70829337132E+03  0.71345122907E+03  0.50400001928E-02 0. -1.
       -1    1    3    3    0  502  0.72544562582E+02 -0.45502118792E+02 -0.19985808536E+04  0.20004146033E+04  0.50400001928E-02 0.  1.
</event>
<event>
 5   0  0.1434943E-05  0.2398072E+04  0.7818609E-02  0.8440226E-01
       -1   -1    0    0    0  501  0.00000000000E+00  0.00000000000E+00  0.11661243777E+04  0.11661243777E+04  0.50400001928E-02 0. -1.
        1   -1    0    0  501    0  0.00000000000E+00  0.00000000000E+00 -0.12328765943E+04  0.12328765943E+04  0.50400001928E-02 0.  1.
    10030    2    1    2    0    0  0.00000000000E+00  0.00000000000E+00 -0.66752216636E+02  0.23990009720E+04  0.23980721017E+04 0.  0.
        5    1    3    3  502    0 -0.78845326879E+03 -0.81169627861E+03  0.36320644901E+03  0.11884655739E+04  0.46999998093E+01 0. -1.
       -5    1    3    3    0  502  0.78845326879E+03  0.81169627861E+03 -0.42995866565E+03  0.12105353981E+04  0.46999998093E+01 0.  1.
</event>
<event>
 5   0  0.1407158E-05  0.2407156E+04  0.7818609E-02  0.8436829E-01
        1   -1    0    0  501    0  0.00000000000E+00  0.00000000000E+00  0.11835958030E+04  0.11835958030E+04  0.50400001928E-02 0.  1.
       -1   -1    0    0    0  501  0.00000000000E+00  0.00000000000E+00 -0.12238977924E+04  0.12238977924E+04  0.50400001928E-02 0. -1.
    10030    2    1    2    0    0  0.00000000000E+00  0.00000000000E+00 -0.40301989352E+02  0.24074935954E+04  0.24071562396E+04 0.  0.
        1    1    3    3  502    0  0.40367319391E+03 -0.74506433522E+03  0.83467773447E+03  0.11894367707E+04  0.50400001928E-02 0.  1.
       -1    1    3    3    0  502 -0.40367319391E+03  0.74506433522E+03 -0.87497972383E+03  0.12180568247E+04  0.50400001928E-02 0. -1.
</event>
<event>
 5   0  0.3310037E-05  0.2361327E+04  0.7818609E-02  0.8454126E-01
        2   -1    0    0  501    0  0.00000000000E+00  0.00000000000E+00  0.12682057459E+04  0.12682057459E+04  0.25500000920E-02 0.  1.
       -2   -1    0    0    0  501  0.00000000000E+00  0.00000000000E+00 -0.10991642389E+04  0.10991642389E+04  0.25500000920E-02 0. -1.
    10030    2    1    2    0    0  0.00000000000E+00  0.00000000000E+00  0.16904150696E+03  0.23673699848E+04  0.23613270874E+04 0.  0.
        2    1    3    3  502    0  0.31355021086E+03 -0.44295067500E+03 -0.96670794835E+03  0.11086222497E+04  0.25500000920E-02 0. -1.
       -2    1    3    3    0  502 -0.31355021086E+03  0.44295067500E+03  0.11357494553E+04  0.12587477350E+04  0.25500000920E-02 0.  1.
</event>
<event>
 5   0  0.3347728E-05  0.2349501E+04  0.7818609E-02  0.8458655E-01
       -2   -1    0    0    0  501  0.00000000000E+00  0.00000000000E+00  0.78310775115E+03  0.78310775116E+03  0.25500000920E-02 0.  1.
        2   -1    0    0  501    0  0.00000000000E+00  0.00000000000E+00 -0.17622585949E+04  0.17622585949E+04  0.25500000920E-02 0. -1.
    10030    2    1    2    0    0  0.00000000000E+00  0.00000000000E+00 -0.97915084376E+03  0.25453663461E+04  0.23495006833E+04 0.  0.
        3    1    3    3  502    0  0.72467299767E+03  0.11802530742E+03  0.50391052346E+03  0.89050926587E+03  0.10100000352E+00 0.  1.
       -3    1    3    3    0  502 -0.72467299767E+03 -0.11802530742E+03 -0.14830613672E+04  0.16548570802E+04  0.10100000352E+00 0. -1.
</event>
<event>
 5   0  0.1434943E-05  0.2408118E+04  0.7818609E-02  0.8436471E-01
        1   -1    0    0  501    0  0.00000000000E+00  0.00000000000E+00  0.18812354314E+04  0.18812354314E+04  0.50400001928E-02 0.  1.
       -1   -1    0    0    0  501  0.00000000000E+00  0.00000000000E+00 -0.77064151225E+03  0.77064151227E+03  0.50400001928E-02 0. -1.
    10030    2    1    2    0    0  0.00000000000E+00  0.00000000000E+00  0.11105939191E+04  0.26518769436E+04  0.24081180351E+04 0.  0.
        5    1    3    3  502    0 -0.12494256570E+03  0.90417829931E+03  0.14200115246E+04  0.16880769715E+04  0.46999998093E+01 0.  1.
       -5    1    3    3    0  502  0.12494256570E+03 -0.90417829931E+03 -0.30941760553E+03  0.96379997213E+03  0.46999998093E+01 0. -1.
</event>
<event>
 5   0  0.3320780E-05  0.2407580E+04  0.7818609E-02  0.8436671E-01
       -2   -1    0    0    0  501  0.00000000000E+00  0.00000000000E+00  0.11683193282E+04  0.11683193282E+04  0.25500000920E-02 0. -1.
        2   -1    0    0  501    0  0.00000000000E+00  0.00000000000E+00 -0.12403371412E+04  0.12403371412E+04  0.25500000920E-02 0.  1.
    10030    2    1    2    0    0  0.00000000000E+00  0.00000000000E+00 -0.72017813016E+02  0.24086564694E+04  0.24075795775E+04 0.  0.
        5    1    3    3  502    0 -0.82357920239E+02  0.16039969200E+03 -0.12267416257E+04  0.12399306410E+04  0.46999998093E+01 0.  1.
       -5    1    3    3    0  502  0.82357920239E+02 -0.16039969200E+03  0.11547238127E+04  0.11687258284E+04  0.46999998093E+01 0. -1.
</event>
<event>
 5   0  0.3320780E-05  0.2333625E+04  0.7818609E-02  0.8464780E-01
       -2   -1    0    0    0  501  0.00000000000E+00  0.00000000000E+00  0.86855509434E+03  0.86855509434E+03  0.25500000920E-02 0.  1.
        2   -1    0    0  501    0  0.00000000000E+00  0.00000000000E+00 -0.15674896385E+04  0.15674896385E+04  0.25500000920E-02 0. -1.
    10030    2    1    2    0    0  0.00000000000E+00  0.00000000000E+00 -0.69893454420E+03  0.24360447329E+04  0.23336247435E+04 0.  0.
        5    1    3    3  502    0  0.96912242395E+02  0.29696346708E+03 -0.15230182488E+04  0.15547301887E+04  0.46999998093E+01 0. -1.
       -5    1    3    3    0  502 -0.96912242395E+02 -0.29696346708E+03  0.82408370462E+03  0.88131454415E+03  0.46999998093E+01 0.  1.
</event>
<event>
 5   0  0.3320780E-05  0.2378634E+04  0.7818609E-02  0.8447546E-01
        2   -1    0    0  501    0  0.00000000000E+00  0.00000000000E+00  0.15702316931E+04  0.15702316931E+04  0.25500000920E-02 0.  1.
       -2   -1    0    0    0  501  0.00000000000E+00  0.00000000000E+00 -0.90080677697E+03  0.90080677698E+03  0.25500000920E-02 0. -1.
    10030    2    1    2    0    0  0.00000000000E+00  0.00000000000E+00  0.66942491611E+03  0.24710384701E+04  0.23786343566E+04 0.  0.
        5    1    3    3  502    0 -0.11811158649E+04  0.13501293005E+03  0.37055018426E+03  0.12452279737E+04  0.46999998093E+01 0. -1.
       -5    1    3    3    0  502  0.11811158649E+04 -0.13501293005E+03  0.29887473185E+03  0.12258104963E+04  0.46999998093E+01 0.  1.
</event>
<event>
 5   0  0.1407158E-05  0.2391619E+04  0.7818609E-02  0.8442648E-01
       -1   -1    0    0    0  501  0.00000000000E+00  0.00000000000E+00  0.11206420929E+04  0.11206420929E+04  0.50400001928E-02 0.  1.
        1   -1    0    0  501    0  0.00000000000E+00  0.00000000000E+00 -0.12760183069E+04  0.12760183069E+04  0.50400001928E-02 0. -1.
    10030    2    1    2    0    0  0.00000000000E+00  0.00000000000E+00 -0.15537621398E+03  0.23966603998E+04  0.23916185532E+04 0.  0.
        1    1    3    3  502    0  0.50364524150E+03  0.67006502621E+03 -0.93231313443E+03  0.12537357972E+04  0.50400001928E-02 0. -1.
       -1    1    3    3    0  502 -0.50364524150E+03 -0.67006502621E+03  0.77693692045E+03  0.11429246025E+04  0.50400001928E-02 0.  1.
</event>
<event>
 5   0  0.3345974E-05  0.2391318E+04  0.7818609E-02  0.8442761E-01
        2   -1    0    0  501    0  0.00000000000E+00  0.00000000000E+00  0.28389987637E+04  0.28389987637E+04  0.25500000920E-02 0. -1.
       -2   -1    0    0    0  501  0.00000000000E+00  0.00000000000E+00 -0.50355779870E+03  0.50355779871E+03  0.25500000920E-02 0.  1.
    10030    2    1    2    0    0  0.00000000000E+00  0.00000000000E+00  0.23354409650E+04  0.33425565624E+04  0.23913176016E+04 0.  0.
        4    1    3    3  502    0 -0.51207634788E+03 -0.63048091900E+03 -0.58730504628E+02  0.81435818923E+03  0.12699999809E+01 0.  1.
       -4    1    3    3    0  502  0.51207634788E+03  0.63048091900E+03  0.23941714696E+04  0.25281983732E+04  0.12699999809E+01 0. -1.
</event>
<event>
 5   0  0.1407158E-05  0.2405158E+04  0.7818609E-02  0.8437575E-01
       -1   -1    0    0    0  501  0.00000000000E+00  0.00000000000E+00  0.11309804085E+04  0.11309804085E+04  0.50400001928E-02 0. -1.
        1   -1    0    0  501    0  0.00000000000E+00  0.00000000000E+00 -0.12787103821E+04  0.12787103821E+04  0.50400001928E-02 0.  1.
    10030    2    1    2    0    0  0.00000000000E+00  0.00000000000E+00 -0.14772997357E+03  0.24096907906E+04  0.24051581156E+04 0.  0.
        1    1    3    3  502    0  0.18887113964E+03  0.34640789204E+03  0.10642889552E+04  0.11350690354E+04  0.50400001928E-02 0. -1.
       -1    1    3    3    0  502 -0.18887113964E+03 -0.34640789204E+03 -0.12120189287E+04  0.12746217551E+04  0.50400001928E-02 0.  1.
</event>
<event>
 5   0  0.1407158E-05  0.2361223E+04  0.7818609E-02  0.8454165E-01
        1   -1    0    0  501    0  0.00000000000E+00  0.00000000000E+00  0.14189969145E+04  0.14189969145E+04  0.50400001928E-02 0. -1.
       -1   -1    0    0    0  501  0.00000000000E+00  0.00000000000E+00 -0.98227405731E+03  0.98227405732E+03  0.50400001928E-02 0.  1.
    10030    2    1    2    0    0  0.00000000000E+00  0.00000000000E+00  0.43672285721E+03  0.24012709718E+04  0.23612232902E+04 0.  0.
        1    1    3    3  502    0 -0.28059673308E+03 -0.11467821030E+04  0.21873954849E+03  0.12007042552E+04  0.50400001928E-02 0.  1.
       -1    1    3    3    0  502  0.28059673308E+03  0.11467821030E+04  0.21798330872E+03  0.12005667167E+04  0.50400001928E-02 0. -1.
</event>
<event>
 5   0  0.1401596E-05  0.2271887E+04  0.7818609E-02  0.8489089E-01
        1   -1    0    0  501    0  0.00000000000E+00  0.00000000000E+00  0.12879150624E+04  0.12879150624E+04  0.50400001928E-02 0. -1.
       -1   -1    0    0    0  501  0.00000000000E+00  0.00000000000E+00 -0.10019042465E+04  0.10019042465E+04  0.50400001928E-02 0.  1.
    10030    2    1    2    0    0  0.00000000000E+00  0.00000000000E+00  0.28601081595E+03  0.22898193089E+04  0.22718869427E+04 0.  0.
        2    1    3    3  502    0  0.33492239449E+03  0.70211022993E+03 -0.69131816664E+03  0.10406981276E+04  0.25500000920E-02 0.  1.
       -2    1    3    3    0  502 -0.33492239449E+03 -0.70211022993E+03  0.97732898260E+03  0.12491211813E+04  0.25500000920E-02 0. -1.
</event>
<event>
 5   0  0.3345974E-05  0.2403327E+04  0.7818609E-02  0.8438259E-01
        2   -1    0    0  501    0  0.00000000000E+00  0.00000000000E+00  0.10852689701E+04  0.10852689701E+04  0.25500000920E-02 0.  1.
       -2   -1    0    0    0  501  0.00000000000E+00  0.00000000000E+00 -0.13305417196E+04  0.13305417197E+04  0.25500000920E-02 0. -1.
    10030    2    1    2    0    0  0.00000000000E+00  0.00000000000E+00 -0.24527274955E+03  0.24158106898E+04  0.24033273949E+04 0.  0.
        4    1    3    3  502    0  0.12977159962E+03 -0.77772360424E+03  0.78888096968E+03  0.11153606905E+04  0.12699999809E+01 0.  1.
       -4    1    3    3    0  502 -0.12977159962E+03  0.77772360424E+03 -0.10341537192E+04  0.13004499993E+04  0.12699999809E+01 0. -1.
</event>
<event>
 5   0  0.1393026E-05  0.2345379E+04  0.7818609E-02  0.8460241E-01
       -1   -1    0    0    0  501  0.00000000000E+00  0.00000000000E+00  0.81802491975E+03  0.81802491977E+03  0.50400001928E-02 0. -1.
        1   -1    0    0  501    0  0.00000000000E+00  0.00000000000E+00 -0.16811236017E+04  0.16811236018E+04  0.50400001928E-02 0.  1.
    10030    2    1    2    0    0  0.00000000000E+00  0.00000000000E+00 -0.86309868199E+03  0.24991485215E+04  0.23453792865E+04 0.  0.
        4    1    3    3  502    0  0.32430242276E+03  0.16962643727E+03  0.75561090787E+03  0.83958004182E+03  0.12699999809E+01 0. -1.
       -4    1    3    3    0  502 -0.32430242276E+03 -0.16962643727E+03 -0.16187095899E+04  0.16595684797E+04  0.12699999809E+01 0.  1.
</event>
<event>
 5   0  0.1506985E-05  0.2356409E+04  0.7818609E-02  0.8456006E-01
       -1   -1    0    0    0  501  0.00000000000E+00  0.00000000000E+00  0.53965662204E+03  0.53965662206E+03  0.50400001928E-02 0.  1.
        1   -1    0    0  501    0  0.00000000000E+00  0.00000000000E+00 -0.25723124481E+04  0.25723124481E+04  0.50400001928E-02 0. -1.
    10030    2    1    2    0    0  0.00000000000E+00  0.00000000000E+00 -0.20326558261E+04  0.31119690702E+04  0.23564086629E+04 0.  0.
        3    1    3    3  502    0  0.10774258071E+02 -0.89393580483E+03 -0.20298093770E+04  0.22179638016E+04  0.10100000352E+00 0. -1.
       -3    1    3    3    0  502 -0.10774258071E+02  0.89393580483E+03 -0.28464490194E+01  0.89400526859E+03  0.10100000352E+00 0.  1.
</event>
<event>
 5   0  0.3215208E-05  0.2405912E+04  0.7818609E-02  0.8437293E-01
       -2   -1    0    0    0  501  0.00000000000E+00  0.00000000000E+00  0.16691144368E+04  0.16691144368E+04  0.25500000920E-02 0. -1.
        2   -1    0    0  501    0  0.00000000000E+00  0.00000000000E+00 -0.86698863994E+03  0.86698863994E+03  0.25500000920E-02 0.  1.
    10030    2    1    2    0    0  0.00000000000E+00  0.00000000000E+00  0.80212579691E+03  0.25361030768E+04  0.24059120977E+04 0.  0.
        1    1    3    3  502    0 -0.35981068172E+03  0.18650219421E+03  0.15949855113E+04  0.16456687323E+04  0.50400001928E-02 0. -1.
       -1    1    3    3    0  502  0.35981068172E+03 -0.18650219421E+03 -0.79285971440E+03  0.89043434450E+03  0.50400001928E-02 0.  1.
</event>
<event>
 5   0  0.3320780E-05  0.2393458E+04  0.7818609E-02  0.8441957E-01
        2   -1    0    0  501    0  0.00000000000E+00  0.00000000000E+00  0.14320247417E+04  0.14320247417E+04  0.25500000920E-02 0.  1.
       -2   -1    0    0    0  501  0.00000000000E+00  0.00000000000E+00 -0.10000949766E+04  0.10000949766E+04  0.25500000920E-02 0. -1.
    10030    2    1    2    0    0  0.00000000000E+00  0.00000000000E+00  0.43192976510E+03  0.24321197184E+04  0.23934583770E+04 0.  0.
        5    1    3    3  502    0 -0.11008267161E+04 -0.27726283054E+03  0.60082335989E+03  0.12844083991E+04  0.46999998093E+01 0.  1.
       -5    1    3    3    0  502  0.11008267161E+04  0.27726283054E+03 -0.16889359479E+03  0.11477113192E+04  0.46999998093E+01 0. -1.
</event>
<event>
 5   0  0.1393026E-05  0.2445705E+04  0.7818609E-02  0.8422588E-01
        1   -1    0    0  501    0  0.00000000000E+00  0.00000000000E+00  0.79050684237E+03  0.79050684238E+03  0.50400001928E-02 0.  1.
       -1   -1    0    0    0  501  0.00000000000E+00  0.00000000000E+00 -0.18916575155E+04  0.18916575155E+04  0.50400001928E-02 0. -1.
    10030    2    1    2    0    0  0.00000000000E+00  0.00000000000E+00 -0.11011506731E+04  0.26821643579E+04  0.24457049777E+04 0.  0.
        4    1    3    3  502    0  0.59643003049E+02 -0.54321862644E+02  0.78758460144E+03  0.79170655543E+03  0.12699999809E+01 0.  1.
       -4    1    3    3    0  502 -0.59643003049E+02  0.54321862644E+02 -0.18887352746E+04  0.18904578024E+04  0.12699999809E+01 0. -1.
</event>
<event>
 5   0  0.3345974E-05  0.2457280E+04  0.7818609E-02  0.8418365E-01
        2   -1    0    0  501    0  0.00000000000E+00  0.00000000000E+00  0.11182958469E+04  0.11182958469E+04  0.25500000920E-02 0.  1.
       -2   -1    0    0    0  501  0.00000000000E+00  0.00000000000E+00 -0.13498724354E+04  0.13498724354E+04  0.25500000920E-02 0. -1.
    10030    2    1    2    0    0  0.00000000000E+00  0.00000000000E+00 -0.23157658852E+03  0.24681682824E+04  0.24572803979E+04 0.  0.
        4    1    3    3  502    0 -0.10920236030E+04 -0.53815644223E+03 -0.28213375078E+03  0.12496915508E+04  0.12699999809E+01 0. -1.
       -4    1    3    3    0  502  0.10920236030E+04  0.53815644223E+03  0.50557162260E+02  0.12184767316E+04  0.12699999809E+01 0.  1.
</event>
<event>
 5   0  0.3310037E-05  0.2379783E+04  0.7818609E-02  0.8447112E-01
       -2   -1    0    0    0  501  0.00000000000E+00  0.00000000000E+00  0.63820282898E+03  0.63820282899E+03  0.25500000920E-02 0. -1.
        2   -1    0    0  501    0  0.00000000000E+00  0.00000000000E+00 -0.22184818781E+04  0.22184818781E+04  0.25500000920E-02 0.  1.
    10030    2    1    2    0    0  0.00000000000E+00  0.00000000000E+00 -0.15802790491E+04  0.28566847071E+04  0.23797826881E+04 0.  0.
        2    1    3    3  502    0 -0.16669128512E+03  0.10137854302E+04 -0.15106724678E+04  0.18269313583E+04  0.25500000920E-02 0.  1.
       -2    1    3    3    0  502  0.16669128512E+03 -0.10137854302E+04 -0.69606581294E+02  0.10297533487E+04  0.25500000920E-02 0. -1.
</event>
<event>
 5   0  0.1407158E-05  0.2400938E+04  0.7818609E-02  0.8439153E-01
       -1   -1    0    0    0  501  0.00000000000E+00  0.00000000000E+00  0.12022861561E+04  0.12022861561E+04  0.50400001928E-02 0. -1.
        1   -1    0    0  501    0  0.00000000000E+00  0.00000000000E+00 -0.11986542420E+04  0.11986542420E+04  0.50400001928E-02 0.  1.
    10030    2    1    2    0    0  0.00000000000E+00  0.00000000000E+00  0.36319141596E+01  0.24009403981E+04  0.24009376511E+04 0.  0.
        1    1    3    3  502    0 -0.12267183001E+03 -0.11930573957E+04 -0.50059661763E+02  0.12003917266E+04  0.50400001928E-02 0.  1.
       -1    1    3    3    0  502  0.12267183001E+03  0.11930573957E+04  0.53691575923E+02  0.12005486716E+04  0.50400001928E-02 0. -1.
</event>
<event>
 5   0  0.3310037E-05  0.2402496E+04  0.7818609E-02  0.8438570E-01
        2   -1    0    0  501    0  0.00000000000E+00  0.00000000000E+00  0.17951375982E+04  0.17951375982E+04  0.25500000920E-02 0.  1.
       -2   -1    0    0    0  501  0.00000000000E+00  0.00000000000E+00 -0.80383596997E+03  0.80383596998E+03  0.25500000920E-02 0. -1.
    10030    2    1    2    0    0  0.00000000000E+00  0.00000000000E+00  0.99130162820E+03  0.25989735681E+04  0.24024955130E+04 0.  0.
        2    1    3    3  502    0  0.78994777477E+03 -0.62304572834E+03  0.12056754996E+04  0.15703047083E+04  0.25500000920E-02 0.  1.
       -2    1    3    3    0  502 -0.78994777477E+03  0.62304572834E+03 -0.21437387144E+03  0.10286688599E+04  0.25500000920E-02 0. -1.
</event>
<event>
 5   0  0.1401596E-05  0.2413333E+04  0.7818609E-02  0.8434529E-01
        1   -1    0    0  501    0  0.00000000000E+00  0.00000000000E+00  0.10482153197E+04  0.10482153197E+04  0.50400001928E-02 0.  1.
       -1   -1    0    0    0  501  0.00000000000E+00  0.00000000000E+00 -0.13890690521E+04  0.13890690522E+04  0.50400001928E-02 0. -1.
    10030    2    1    2    0    0  0.00000000000E+00  0.00000000000E+00 -0.34085373244E+03  0.24372843719E+04  0.24133325180E+04 0.  0.
        2    1    3    3  502    0  0.30278713994E+03 -0.51128754028E+03  0.89020982844E+03  0.10703123561E+04  0.25500000920E-02 0.  1.
       -2    1    3    3    0  502 -0.30278713994E+03  0.51128754028E+03 -0.12310635609E+04  0.13669720158E+04  0.25500000920E-02 0. -1.
</event>
<event>
 5   0  0.1393026E-05  0.2399508E+04  0.7818609E-02  0.8439688E-01
       -1   -1    0    0    0  501  0.00000000000E+00  0.00000000000E+00  0.73414172685E+03  0.73414172687E+03  0.50400001928E-02 0. -1.
        1   -1    0    0  501    0  0.00000000000E+00  0.00000000000E+00 -0.19606699973E+04  0.19606699973E+04  0.50400001928E-02 0.  1.
    10030    2    1    2    0    0  0.00000000000E+00  0.00000000000E+00 -0.12265282704E+04  0.26948117242E+04  0.23995079976E+04 0.  0.
        4    1    3    3  502    0  0.95959657185E+03  0.35493614917E+03 -0.13169566304E+04  0.16676875097E+04  0.12699999809E+01 0.  1.
       -4    1    3    3    0  502 -0.95959657185E+03 -0.35493614917E+03  0.90428360010E+02  0.10271242144E+04  0.12699999809E+01 0. -1.
</event>
<event>
 5   0  0.3215208E-05  0.2347685E+04  0.7818609E-02  0.8459353E-01
        2   -1    0    0  501    0  0.00000000000E+00  0.00000000000E+00  0.14218529030E+04  0.14218529030E+04  0.25500000920E-02 0.  1.
       -2   -1    0    0    0  501  0.00000000000E+00  0.00000000000E+00 -0.96909216763E+03  0.96909216763E+03  0.25500000920E-02 0. -1.
    10030    2    1    2    0    0  0.00000000000E+00  0.00000000000E+00  0.45276073539E+03  0.23909450707E+04  0.23476852531E+04 0.  0.
        1    1    3    3  502    0 -0.30176809834E+03 -0.10754697907E+04  0.59387188605E+03  0.12650624779E+04  0.50400001928E-02 0.  1.
       -1    1    3    3    0  502  0.30176809834E+03  0.10754697907E+04 -0.14111115066E+03  0.11258825928E+04  0.50400001928E-02 0. -1.
</event>
<event>
 5   0  0.3310037E-05  0.2368490E+04  0.7818609E-02  0.8451395E-01
        2   -1    0    0  501    0  0.00000000000E+00  0.00000000000E+00  0.17309922155E+04  0.17309922155E+04  0.25500000920E-02 0.  1.
       -2   -1    0    0    0  501  0.00000000000E+00  0.00000000000E+00 -0.81019222116E+03  0.81019222116E+03  0.25500000920E-02 0. -1.
    10030    2    1    2    0    0  0.00000000000E+00  0.00000000000E+00  0.92079999437E+03  0.25411844367E+04  0.23684901755E+04 0.  0.
        2    1    3    3  502    0 -0.38154148202E+03  0.29503913965E+03 -0.70004106157E+03  0.85010557246E+03  0.25500000920E-02 0. -1.
       -2    1    3    3    0  502  0.38154148202E+03 -0.29503913965E+03  0.16208410559E+04  0.16910788642E+04  0.25500000920E-02 0.  1.
</event>
<event>
 5   0  0.1407158E-05  0.2396921E+04  0.7818609E-02  0.8440657E-01
       -1   -1    0    0    0  501  0.00000000000E+00  0.00000000000E+00  0.17273602267E+04  0.17273602267E+04  0.50400001928E-02 0.  1.
        1   -1    0    0  501    0  0.00000000000E+00  0.00000000000E+00 -0.83150423515E+03  0.83150423517E+03  0.50400001928E-02 0. -1.
    10030    2    1    2    0    0  0.00000000000E+00  0.00000000000E+00  0.89585599150E+03  0.25588644618E+04  0.23969208115E+04 0.  0.
        1    1    3    3  502    0 -0.46295854982E+02 -0.11373105604E+04  0.84835489726E+03  0.14196213047E+04  0.50400001928E-02 0.  1.
       -1    1    3    3    0  502  0.46295854982E+02  0.11373105604E+04  0.47501094243E+02  0.11392431571E+04  0.50400001928E-02 0. -1.
</event>
<event>
 5   0  0.1401596E-05  0.2407929E+04  0.7818609E-02  0.8436541E-01
        1   -1    0    0  501    0  0.00000000000E+00  0.00000000000E+00  0.10560479634E+04  0.10560479635E+04  0.50400001928E-02 0. -1.
       -1   -1    0    0    0  501  0.00000000000E+00  0.00000000000E+00 -0.13725992066E+04  0.13725992066E+04  0.50400001928E-02 0.  1.
    10030    2    1    2    0    0  0.00000000000E+00  0.00000000000E+00 -0.31655124318E+03  0.24286471701E+04  0.24079290661E+04 0.  0.
        2    1    3    3  502    0  0.28714428582E+03 -0.50900726982E+03 -0.12199436198E+04  0.13527019913E+04  0.25500000920E-02 0.  1.
       -2    1    3    3    0  502 -0.28714428582E+03  0.50900726982E+03  0.90339237666E+03  0.10759451788E+04  0.25500000920E-02 0. -1.
</event>
<event>
 5   0  0.3215208E-05  0.2238017E+04  0.7818609E-02  0.8502769E-01
       -2   -1    0    0    0  501  0.00000000000E+00  0.00000000000E+00  0.70649050267E+03  0.70649050268E+03  0.25500000920E-02 0.  1.
        2   -1    0    0  501    0  0.00000000000E+00  0.00000000000E+00 -0.17723944078E+04  0.17723944078E+04  0.25500000920E-02 0. -1.
    10030    2    1    2    0    0  0.00000000000E+00  0.00000000000E+00 -0.10659039051E+04  0.24788849104E+04  0.22380168150E+04 0.  0.
        1    1    3    3  502    0 -0.96770078208E+02  0.18053975251E+03  0.68554744531E+03  0.71549587704E+03  0.50400001928E-02 0.  1.
       -1    1    3    3    0  502  0.96770078208E+02 -0.18053975251E+03 -0.17514513504E+04  0.17633890334E+04  0.50400001928E-02 0. -1.
</event>
<event>
 5   0  0.1401596E-05  0.2468039E+04  0.7818609E-02  0.8414461E-01
       -1   -1    0    0    0  501  0.00000000000E+00  0.00000000000E+00  0.88166054046E+03  0.88166054047E+03  0.50400001928E-02 0. -1.
        1   -1    0    0  501    0  0.00000000000E+00  0.00000000000E+00 -0.17271998132E+04  0.17271998132E+04  0.50400001928E-02 0.  1.
    10030    2    1    2    0    0  0.00000000000E+00  0.00000000000E+00 -0.84553927271E+03  0.26088603536E+04  0.24680388334E+04 0.  0.
        2    1    3    3  502    0 -0.10606130963E+04  0.38286536374E+03  0.10715065542E+03  0.11326814600E+04  0.25500000920E-02 0. -1.
       -2    1    3    3    0  502  0.10606130963E+04 -0.38286536374E+03 -0.95268992813E+03  0.14761788936E+04  0.25500000920E-02 0.  1.
</event>
<event>
 5   0  0.1506985E-05  0.2366364E+04  0.7818609E-02  0.8452205E-01
        1   -1    0    0  501    0  0.00000000000E+00  0.00000000000E+00  0.29739982632E+04  0.29739982632E+04  0.50400001928E-02 0. -1.
       -1   -1    0    0    0  501  0.00000000000E+00  0.00000000000E+00 -0.47071988227E+03  0.47071988230E+03  0.50400001928E-02 0.  1.
    10030    2    1    2    0    0  0.00000000000E+00  0.00000000000E+00  0.25032783809E+04  0.34447181455E+04  0.23663643949E+04 0.  0.
        3    1    3    3  502    0  0.16628673156E+03 -0.11457017808E+04  0.89614930362E+03  0.14640243961E+04  0.10100000352E+00 0.  1.
       -3    1    3    3    0  502 -0.16628673156E+03  0.11457017808E+04  0.16071290773E+04  0.19806937494E+04  0.10100000352E+00 0. -1.
</event>
<event>
 5   0  0.3345974E-05  0.2358288E+04  0.7818609E-02  0.8455287E-01
       -2   -1    0    0    0  501  0.00000000000E+00  0.00000000000E+00  0.15738143614E+04  0.15738143614E+04  0.25500000920E-02 0. -1.
        2   -1    0    0  501    0  0.00000000000E+00  0.00000000000E+00 -0.88344656566E+03  0.88344656566E+03  0.25500000920E-02 0.  1.
    10030    2    1    2    0    0  0.00000000000E+00  0.00000000000E+00  0.69036779572E+03  0.24572609270E+04  0.23582882712E+04 0.  0.
        4    1    3    3  502    0 -0.49121659250E+03 -0.66604622819E+03  0.12203551257E+04  0.14745099405E+04  0.12699999809E+01 0. -1.
       -4    1    3    3    0  502  0.49121659250E+03  0.66604622819E+03 -0.52998732996E+03  0.98275098659E+03  0.12699999809E+01 0.  1.
</event>
<event>
 5   0  0.3345974E-05  0.2364357E+04  0.7818609E-02  0.8452969E-01
        2   -1    0    0  501    0  0.00000000000E+00  0.00000000000E+00  0.12304996246E+04  0.12304996246E+04  0.25500000920E-02 0. -1.
       -2   -1    0    0    0  501  0.00000000000E+00  0.00000000000E+00 -0.11357553892E+04  0.11357553892E+04  0.25500000920E-02 0.  1.
    10030    2    1    2    0    0  0.00000000000E+00  0.00000000000E+00  0.94744235393E+02  0.23662550138E+04  0.23643574857E+04 0.  0.
        4    1    3    3  502    0  0.63992846378E+02 -0.60267530839E+03  0.10631903378E+04  0.12238006043E+04  0.12699999809E+01 0. -1.
       -4    1    3    3    0  502 -0.63992846378E+02  0.60267530839E+03 -0.96844610238E+03  0.11424544095E+04  0.12699999809E+01 0.  1.
</event>
<event>
 5   0  0.3345974E-05  0.2398650E+04  0.7818609E-02  0.8440009E-01
        2   -1    0    0  501    0  0.00000000000E+00  0.00000000000E+00  0.81115463175E+03  0.81115463176E+03  0.25500000920E-02 0.  1.
       -2   -1    0    0    0  501  0.00000000000E+00  0.00000000000E+00 -0.17732513052E+04  0.17732513052E+04  0.25500000920E-02 0. -1.
    10030    2    1    2    0    0  0.00000000000E+00  0.00000000000E+00 -0.96209667349E+03  0.25844059370E+04  0.23986504618E+04 0.  0.
        4    1    3    3  502    0  0.72392067017E+03 -0.87311769737E+03 -0.90108996858E+03  0.14485718465E+04  0.12699999809E+01 0. -1.
       -4    1    3    3    0  502 -0.72392067017E+03  0.87311769737E+03 -0.61006704915E+02  0.11358340905E+04  0.12699999809E+01 0.  1.
</event>
<event>
 5   0  0.3347728E-05  0.2419211E+04  0.7818609E-02  0.8432346E-01
        2   -1    0    0  501    0  0.00000000000E+00  0.00000000000E+00  0.17288427480E+04  0.17288427480E+04  0.25500000920E-02 0.  1.
       -2   -1    0    0    0  501  0.00000000000E+00  0.00000000000E+00 -0.84631466115E+03  0.84631466115E+03  0.25500000920E-02 0. -1.
    10030    2    1    2    0    0  0.00000000000E+00  0.00000000000E+00  0.88252808684E+03  0.25751574091E+04  0.24192105857E+04 0.  0.
        3    1    3    3  502    0 -0.85923086107E+03 -0.85136618672E+03  0.43429220460E+03  0.12851893968E+04  0.10100000352E+00 0. -1.
       -3    1    3    3    0  502  0.85923086107E+03  0.85136618672E+03  0.44823588224E+03  0.12899680123E+04  0.10100000352E+00 0.  1.
</event>
<event>
 5   0  0.1407158E-05  0.2326288E+04  0.7818609E-02  0.8467628E-01
       -1   -1    0    0    0  501  0.00000000000E+00  0.00000000000E+00  0.18546210301E+04  0.18546210301E+04  0.50400001928E-02 0.  1.
        1   -1    0    0  501    0  0.00000000000E+00  0.00000000000E+00 -0.72947752730E+03  0.72947752731E+03  0.50400001928E-02 0. -1.
    10030    2    1    2    0    0  0.00000000000E+00  0.00000000000E+00  0.11251435028E+04  0.25840985575E+04  0.23262883425E+04 0.  0.
        1    1    3    3  502    0 -0.99012909406E+03 -0.20609695439E+03  0.12007623299E+04  0.15699241225E+04  0.50400001928E-02 0.  1.
       -1    1    3    3    0  502  0.99012909406E+03  0.20609695439E+03 -0.75618827025E+02  0.10141744350E+04  0.50400001928E-02 0. -1.
</event>
<event>
 5   0  0.3310037E-05  0.2400484E+04  0.7818609E-02  0.8439322E-01
        2   -1    0    0  501    0  0.00000000000E+00  0.00000000000E+00  0.16551212089E+04  0.16551212089E+04  0.25500000920E-02 0.  1.
       -2   -1    0    0    0  501  0.00000000000E+00  0.00000000000E+00 -0.87037802823E+03  0.87037802824E+03  0.25500000920E-02 0. -1.
    10030    2    1    2    0    0  0.00000000000E+00  0.00000000000E+00  0.78474318063E+03  0.25254992371E+04  0.24004842297E+04 0.  0.
        2    1    3    3  502    0 -0.41714553071E+03  0.53894625259E+03 -0.64706320012E+03  0.93976818521E+03  0.25500000920E-02 0. -1.
       -2    1    3    3    0  502  0.41714553071E+03 -0.53894625259E+03  0.14318063808E+04  0.15857310519E+04  0.25500000920E-02 0.  1.
</event>
<event>
 5   0  0.3215208E-05  0.2364386E+04  0.7818609E-02  0.8452959E-01
       -2   -1    0    0    0  501  0.00000000000E+00  0.00000000000E+00  0.13694535022E+04  0.13694535022E+04  0.25500000920E-02 0. -1.
        2   -1    0    0  501    0  0.00000000000E+00  0.00000000000E+00 -0.10205383033E+04  0.10205383033E+04  0.25500000920E-02 0.  1.
    10030    2    1    2    0    0  0.00000000000E+00  0.00000000000E+00  0.34891519888E+03  0.23899918055E+04  0.23643855468E+04 0.  0.
        1    1    3    3  502    0 -0.11008527733E+03 -0.10706630921E+04  0.66877467895E+03  0.12671613142E+04  0.50400001928E-02 0. -1.
       -1    1    3    3    0  502  0.11008527733E+03  0.10706630921E+04 -0.31985948006E+03  0.11228304912E+04  0.50400001928E-02 0.  1.
</event>
<event>
 5   0  0.1401596E-05  0.2427207E+04  0.7818609E-02  0.8429387E-01
        1   -1    0    0  501    0  0.00000000000E+00  0.00000000000E+00  0.12100101639E+04  0.12100101639E+04  0.50400001928E-02 0.  1.
       -1   -1    0    0    0  501  0.00000000000E+00  0.00000000000E+00 -0.12172075531E+04  0.12172075531E+04  0.50400001928E-02 0. -1.
    10030    2    1    2    0    0  0.00000000000E+00  0.00000000000E+00 -0.71973892755E+01  0.24272177170E+04  0.24272070458E+04 0.  0.
        2    1    3    3  502    0  0.17991061934E+03 -0.24377845640E+03 -0.11787794839E+04  0.12170936030E+04  0.25500000920E-02 0. -1.
       -2    1    3    3    0  502 -0.17991061934E+03  0.24377845640E+03  0.11715820947E+04  0.12101241140E+04  0.25500000920E-02 0.  1.
</event>
<event>
 5   0  0.1401596E-05  0.2373474E+04  0.7818609E-02  0.8449502E-01
        1   -1    0    0  501    0  0.00000000000E+00  0.00000000000E+00  0.12590847281E+04  0.12590847281E+04  0.50400001928E-02 0.  1.
       -1   -1    0    0    0  501  0.00000000000E+00  0.00000000000E+00 -0.11185463172E+04  0.11185463172E+04  0.50400001928E-02 0. -1.
    10030    2    1    2    0    0  0.00000000000E+00  0.00000000000E+00  0.14053841086E+03  0.23776310453E+04  0.23734738977E+04 0.  0.
        2    1    3    3  502    0 -0.99991086016E+03 -0.24981392801E+03 -0.51907735379E+03  0.11539800805E+04  0.25500000920E-02 0. -1.
       -2    1    3    3    0  502  0.99991086016E+03  0.24981392801E+03  0.65961576464E+03  0.12236509649E+04  0.25500000920E-02 0.  1.
</event>
<event>
 5   0  0.3215208E-05  0.2417416E+04  0.7818609E-02  0.8433012E-01
        2   -1    0    0  501    0  0.00000000000E+00  0.00000000000E+00  0.66569266405E+03  0.66569266405E+03  0.25500000920E-02 0. -1.
       -2   -1    0    0    0  501  0.00000000000E+00  0.00000000000E+00 -0.21946689662E+04  0.21946689662E+04  0.25500000920E-02 0.  1.
    10030    2    1    2    0    0  0.00000000000E+00  0.00000000000E+00 -0.15289763021E+04  0.28603616302E+04  0.24174160013E+04 0.  0.
        1    1    3    3  502    0  0.53558882685E+03  0.99489119518E+03 -0.25650962388E+03  0.11586462225E+04  0.50400001928E-02 0.  1.
       -1    1    3    3    0  502 -0.53558882685E+03 -0.99489119518E+03 -0.12724666782E+04  0.17017154077E+04  0.50400001928E-02 0. -1.
</event>
<event>
 5   0  0.3345974E-05  0.2422942E+04  0.7818609E-02  0.8430964E-01
       -2   -1    0    0    0  501  0.00000000000E+00  0.00000000000E+00  0.10370248802E+04  0.10370248802E+04  0.25500000920E-02 0. -1.
        2   -1    0    0  501    0  0.00000000000E+00  0.00000000000E+00 -0.14152618406E+04  0.14152618406E+04  0.25500000920E-02 0.  1.
    10030    2    1    2    0    0  0.00000000000E+00  0.00000000000E+00 -0.37823696031E+03  0.24522867208E+04  0.24229417993E+04 0.  0.
        4    1    3    3  502    0  0.15158526041E+03 -0.11648354428E+04  0.11084990516E+03  0.11798766946E+04  0.12699999809E+01 0. -1.
       -4    1    3    3    0  502 -0.15158526041E+03  0.11648354428E+04 -0.48908686548E+03  0.12724100262E+04  0.12699999809E+01 0.  1.
</event>
<event>
 5   0  0.3345974E-05  0.2449125E+04  0.7818609E-02  0.8421337E-01
       -2   -1    0    0    0  501  0.00000000000E+00  0.00000000000E+00  0.86662999857E+03  0.86662999857E+03  0.25500000920E-02 0. -1.
        2   -1    0    0  501    0  0.00000000000E+00  0.00000000000E+00 -0.17303273546E+04  0.17303273546E+04  0.25500000920E-02 0.  1.
    10030    2    1    2    0    0  0.00000000000E+00  0.00000000000E+00 -0.86369735607E+03  0.25969573532E+04  0.24491252258E+04 0.  0.
        4    1    3    3  502    0  0.59117399591E+02  0.45478534495E+03  0.77212943020E+03  0.89805904416E+03  0.12699999809E+01 0. -1.
       -4    1    3    3    0  502 -0.59117399591E+02 -0.45478534495E+03 -0.16358267863E+04  0.16988983091E+04  0.12699999809E+01 0.  1.
</event>
<event>
 5   0  0.1506985E-05  0.2502341E+04  0.7818609E-02  0.8402152E-01
        1   -1    0    0  501    0  0.00000000000E+00  0.00000000000E+00  0.24920572735E+04  0.24920572735E+04  0.50400001928E-02 0.  1.
       -1   -1    0    0    0  501  0.00000000000E+00  0.00000000000E+00 -0.62816673863E+03  0.62816673865E+03  0.50400001928E-02 0. -1.
    10030    2    1    2    0    0  0.00000000000E+00  0.00000000000E+00  0.18638905349E+04  0.31202240122E+04  0.25023408961E+04 0.  0.
        3    1    3    3  502    0  0.10289732631E+04  0.63332801525E+03  0.52686420701E+03  0.13181336252E+04  0.10100000352E+00 0. -1.
       -3    1    3    3    0  502 -0.10289732631E+04 -0.63332801525E+03  0.13370263279E+04  0.18020903869E+04  0.10100000352E+00 0.  1.
</event>
<event>
 5   0  0.1434943E-05  0.2432517E+04  0.7818609E-02  0.8427429E-01
       -1   -1    0    0    0  501  0.00000000000E+00  0.00000000000E+00  0.91205988677E+03  0.91205988679E+03  0.50400001928E-02 0.  1.
        1   -1    0    0  501    0  0.00000000000E+00  0.00000000000E+00 -0.16219157997E+04  0.16219157997E+04  0.50400001928E-02 0. -1.
    10030    2    1    2    0    0  0.00000000000E+00  0.00000000000E+00 -0.70985591291E+03  0.25339756865E+04  0.24325166726E+04 0.  0.
        5    1    3    3  502    0 -0.16107156729E+03 -0.70690497549E+03 -0.13721846330E+04  0.15519572968E+04  0.46999998093E+01 0. -1.
       -5    1    3    3    0  502  0.16107156729E+03  0.70690497549E+03  0.66232872009E+03  0.98201838965E+03  0.46999998093E+01 0.  1.
</event>
<event>
 5   0  0.3310037E-05  0.2416899E+04  0.7818609E-02  0.8433204E-01
        2   -1    0    0  501    0  0.00000000000E+00  0.00000000000E+00  0.23455548360E+04  0.23455548360E+04  0.25500000920E-02 0.  1.
       -2   -1    0    0    0  501  0.00000000000E+00  0.00000000000E+00 -0.62260310755E+03  0.62260310756E+03  0.25500000920E-02 0. -1.
    10030    2    1    2    0    0  0.00000000000E+00  0.00000000000E+00  0.17229517284E+04  0.29681579435E+04  0.24168986159E+04 0.  0.
        2    1    3    3  502    0  0.11758226014E+04 -0.26779839902E+03  0.76575641472E+03  0.14285158939E+04  0.25500000920E-02 0. -1.
       -2    1    3    3    0  502 -0.11758226014E+04  0.26779839902E+03  0.95719531371E+03  0.15396420496E+04  0.25500000920E-02 0.  1.
</event>
<event>
 5   0  0.1401596E-05  0.2414387E+04  0.7818609E-02  0.8434137E-01
       -1   -1    0    0    0  501  0.00000000000E+00  0.00000000000E+00  0.80544865683E+03  0.80544865684E+03  0.50400001928E-02 0.  1.
        1   -1    0    0  501    0  0.00000000000E+00  0.00000000000E+00 -0.18093222403E+04  0.18093222403E+04  0.50400001928E-02 0. -1.
    10030    2    1    2    0    0  0.00000000000E+00  0.00000000000E+00 -0.10038735835E+04  0.26147708972E+04  0.24143870181E+04 0.  0.
        2    1    3    3  502    0  0.62586329400E+03  0.85570971419E+03  0.12336754345E+03  0.10673160397E+04  0.25500000920E-02 0.  1.
       -2    1    3    3    0  502 -0.62586329400E+03 -0.85570971419E+03 -0.11272411269E+04  0.15474548575E+04  0.25500000920E-02 0. -1.
</event>
<event>
 5   0  0.1401596E-05  0.2382640E+04  0.7818609E-02  0.8446032E-01
       -1   -1    0    0    0  501  0.00000000000E+00  0.00000000000E+00  0.12642373927E+04  0.12642373927E+04  0.50400001928E-02 0.  1.
        1   -1    0    0  501    0  0.00000000000E+00  0.00000000000E+00 -0.11226078363E+04  0.11226078363E+04  0.50400001928E-02 0. -1.
    10030    2    1    2    0    0  0.00000000000E+00  0.00000000000E+00  0.14162955639E+03  0.23868452290E+04  0.23826395481E+04 0.  0.
        2    1    3    3  502    0  0.96232960191E+03  0.66338358006E+02 -0.62953567313E+03  0.11518655322E+04  0.25500000920E-02 0. -1.
       -2    1    3    3    0  502 -0.96232960191E+03 -0.66338358006E+02  0.77116522953E+03  0.12349796969E+04  0.25500000920E-02 0.  1.
</event>
<event>
 5   0  0.1407158E-05  0.2205756E+04  0.7818609E-02  0.8516036E-01
        1   -1    0    0  501    0  0.00000000000E+00  0.00000000000E+00  0.11084859952E+04  0.11084859952E+04  0.50400001928E-02 0.  1.
       -1   -1    0    0    0  501  0.00000000000E+00  0.00000000000E+00 -0.10972982346E+04  0.10972982346E+04  0.50400001928E-02 0. -1.
    10030    2    1    2    0    0  0.00000000000E+00  0.00000000000E+00  0.11187760639E+02  0.22057842298E+04  0.22057558574E+04 0.  0.
        1    1    3    3  502    0  0.11623255963E+03  0.89266365284E+03  0.64276871098E+03  0.11061238723E+04  0.50400001928E-02 0.  1.
       -1    1    3    3    0  502 -0.11623255963E+03 -0.89266365284E+03 -0.63158095034E+03  0.10996603575E+04  0.50400001928E-02 0. -1.
</event>
<event>
 5   0  0.3310037E-05  0.2412322E+04  0.7818609E-02  0.8434905E-01
       -2   -1    0    0    0  501  0.00000000000E+00  0.00000000000E+00  0.16479062360E+04  0.16479062360E+04  0.25500000920E-02 0.  1.
        2   -1    0    0  501    0  0.00000000000E+00  0.00000000000E+00 -0.88283211522E+03  0.88283211522E+03  0.25500000920E-02 0. -1.
    10030    2    1    2    0    0  0.00000000000E+00  0.00000000000E+00  0.76507412078E+03  0.25307383512E+04  0.24123221576E+04 0.  0.
        2    1    3    3  502    0  0.65019431018E+03 -0.90236284407E+03 -0.10707718252E+03  0.11173526151E+04  0.25500000920E-02 0. -1.
       -2    1    3    3    0  502 -0.65019431018E+03  0.90236284407E+03  0.87215130330E+03  0.14133857362E+04  0.25500000920E-02 0.  1.
</event>
<event>
 5   0  0.3345974E-05  0.2373887E+04  0.7818609E-02  0.8449345E-01
        2   -1    0    0  501    0  0.00000000000E+00  0.00000000000E+00  0.12196922946E+04  0.12196922946E+04  0.25500000920E-02 0. -1.
       -2   -1    0    0    0  501  0.00000000000E+00  0.00000000000E+00 -0.11550736187E+04  0.11550736187E+04  0.25500000920E-02 0.  1.
    10030    2    1    2    0    0  0.00000000000E+00  0.00000000000E+00  0.64618675919E+02  0.23747659133E+04  0.23738865958E+04 0.  0.
        4    1    3    3  502    0  0.17361619448E+03 -0.11155299955E+04  0.39889155861E+03  0.11973578589E+04  0.12699999809E+01 0. -1.
       -4    1    3    3    0  502 -0.17361619448E+03  0.11155299955E+04 -0.33427288269E+03  0.11774080545E+04  0.12699999809E+01 0.  1.
</event>
<event>
 5   0  0.1407158E-05  0.2386242E+04  0.7818609E-02  0.8444672E-01
       -1   -1    0    0    0  501  0.00000000000E+00  0.00000000000E+00  0.58070068227E+03  0.58070068230E+03  0.50400001928E-02 0. -1.
        1   -1    0    0  501    0  0.00000000000E+00  0.00000000000E+00 -0.24514145580E+04  0.24514145581E+04  0.50400001928E-02 0.  1.
    10030    2    1    2    0    0  0.00000000000E+00  0.00000000000E+00 -0.18707138758E+04  0.30321152403E+04  0.23862423234E+04 0.  0.
        1    1    3    3  502    0 -0.77566418454E+03  0.90657120060E+03 -0.93098513543E+03  0.15133603640E+04  0.50400001928E-02 0. -1.
       -1    1    3    3    0  502  0.77566418454E+03 -0.90657120060E+03 -0.93972874034E+03  0.15187548763E+04  0.50400001928E-02 0.  1.
</event>
<event>
 5   0  0.3215208E-05  0.2408328E+04  0.7818609E-02  0.8436392E-01
        2   -1    0    0  501    0  0.00000000000E+00  0.00000000000E+00  0.16428857639E+04  0.16428857639E+04  0.25500000920E-02 0.  1.
       -2   -1    0    0    0  501  0.00000000000E+00  0.00000000000E+00 -0.88260007500E+03  0.88260007501E+03  0.25500000920E-02 0. -1.
    10030    2    1    2    0    0  0.00000000000E+00  0.00000000000E+00  0.76028568891E+03  0.25254858389E+04  0.24083281325E+04 0.  0.
        1    1    3    3  502    0  0.30199172093E+03 -0.10796919727E+04 -0.80638550913E+02  0.11240268375E+04  0.50400001928E-02 0. -1.
       -1    1    3    3    0  502 -0.30199172093E+03  0.10796919727E+04  0.84092423982E+03  0.14014590014E+04  0.50400001928E-02 0.  1.
</event>
<event>
 5   0  0.1401596E-05  0.2403655E+04  0.7818609E-02  0.8438137E-01
        1   -1    0    0  501    0  0.00000000000E+00  0.00000000000E+00  0.11019908335E+04  0.11019908335E+04  0.50400001928E-02 0. -1.
       -1   -1    0    0    0  501  0.00000000000E+00  0.00000000000E+00 -0.13107087535E+04  0.13107087535E+04  0.50400001928E-02 0.  1.
    10030    2    1    2    0    0  0.00000000000E+00  0.00000000000E+00 -0.20871791995E+03  0.24126995870E+04  0.24036547437E+04 0.  0.
        2    1    3    3  502    0  0.92172154354E+03 -0.75496965319E+03  0.53838828643E+02  0.11926644124E+04  0.25500000920E-02 0. -1.
       -2    1    3    3    0  502 -0.92172154354E+03  0.75496965319E+03 -0.26255674859E+03  0.12200351746E+04  0.25500000920E-02 0.  1.
</event>
<event>
 5   0  0.1407158E-05  0.2404831E+04  0.7818609E-02  0.8437697E-01
        1   -1    0    0  501    0  0.00000000000E+00  0.00000000000E+00  0.15528751890E+04  0.15528751891E+04  0.50400001928E-02 0.  1.
       -1   -1    0    0    0  501  0.00000000000E+00  0.00000000000E+00 -0.93104946383E+03  0.93104946384E+03  0.50400001928E-02 0. -1.
    10030    2    1    2    0    0  0.00000000000E+00  0.00000000000E+00  0.62182572521E+03  0.24839246529E+04  0.24048314803E+04 0.  0.
        1    1    3    3  502    0  0.10309483668E+03 -0.10144909523E+04  0.96903695103E+03  0.14067171181E+04  0.50400001928E-02 0. -1.
       -1    1    3    3    0  502 -0.10309483668E+03  0.10144909523E+04 -0.34721122582E+03  0.10772075348E+04  0.50400001928E-02 0.  1.
</event>
<event>
 5   0  0.1407158E-05  0.2386150E+04  0.7818609E-02  0.8444707E-01
        1   -1    0    0  501    0  0.00000000000E+00  0.00000000000E+00  0.21845614393E+04  0.21845614393E+04  0.50400001928E-02 0.  1.
       -1   -1    0    0    0  501  0.00000000000E+00  0.00000000000E+00 -0.65158520300E+03  0.65158520302E+03  0.50400001928E-02 0. -1.
    10030    2    1    2    0    0  0.00000000000E+00  0.00000000000E+00  0.15329762363E+04  0.28361466424E+04  0.23861499609E+04 0.  0.
        1    1    3    3  502    0 -0.39860054108E+03  0.46576177418E+03  0.19830412305E+04  0.20756369970E+04  0.50400001928E-02 0.  1.
       -1    1    3    3    0  502  0.39860054108E+03 -0.46576177418E+03 -0.45006499415E+03  0.76050964532E+03  0.50400001928E-02 0. -1.
</event>
<event>
 5   0  0.1407158E-05  0.2428289E+04  0.7818609E-02  0.8428988E-01
       -1   -1    0    0    0  501  0.00000000000E+00  0.00000000000E+00  0.12107135311E+04  0.12107135311E+04  0.50400001928E-02 0.  1.
        1   -1    0    0  501    0  0.00000000000E+00  0.00000000000E+00 -0.12175847666E+04  0.12175847666E+04  0.50400001928E-02 0. -1.
    10030    2    1    2    0    0  0.00000000000E+00  0.00000000000E+00 -0.68712355155E+01  0.24282982977E+04  0.24282885761E+04 0.  0.
        1    1    3    3  502    0 -0.11371011175E+04  0.42307841648E+03 -0.49826041555E+02  0.12142804175E+04  0.50400001928E-02 0. -1.
       -1    1    3    3    0  502  0.11371011175E+04 -0.42307841648E+03  0.42954806039E+02  0.12140178802E+04  0.50400001928E-02 0.  1.
</event>
<event>
 5   0  0.1407158E-05  0.2383224E+04  0.7818609E-02  0.8445811E-01
       -1   -1    0    0    0  501  0.00000000000E+00  0.00000000000E+00  0.98800723405E+03  0.98800723406E+03  0.50400001928E-02 0. -1.
        1   -1    0    0  501    0  0.00000000000E+00  0.00000000000E+00 -0.14371753263E+04  0.14371753263E+04  0.50400001928E-02 0.  1.
    10030    2    1    2    0    0  0.00000000000E+00  0.00000000000E+00 -0.44916809221E+03  0.24251825603E+04  0.23832243864E+04 0.  0.
        1    1    3    3  502    0 -0.56113426975E+03  0.71408403938E+03 -0.10096270133E+04  0.13579890979E+04  0.50400001928E-02 0.  1.
       -1    1    3    3    0  502  0.56113426975E+03 -0.71408403938E+03  0.56045892110E+03  0.10671934624E+04  0.50400001928E-02 0. -1.
</event>
<event>
 5   0  0.1401596E-05  0.2476145E+04  0.7818609E-02  0.8411533E-01
       -1   -1    0    0    0  501  0.00000000000E+00  0.00000000000E+00  0.13115927198E+04  0.13115927198E+04  0.50400001928E-02 0.  1.
        1   -1    0    0  501    0  0.00000000000E+00  0.00000000000E+00 -0.11686737569E+04  0.11686737569E+04  0.50400001928E-02 0. -1.
    10030    2    1    2    0    0  0.00000000000E+00  0.00000000000E+00  0.14291896290E+03  0.24802664767E+04  0.24761453846E+04 0.  0.
        2    1    3    3  502    0  0.34869952405E+03  0.31730371977E+03 -0.10752388044E+04  0.11740577052E+04  0.25500000920E-02 0. -1.
       -2    1    3    3    0  502 -0.34869952405E+03 -0.31730371977E+03  0.12181577673E+04  0.13062087715E+04  0.25500000920E-02 0.  1.
</event>
<event>
 5   0  0.1393026E-05  0.2308707E+04  0.7818609E-02  0.8474496E-01
        1   -1    0    0  501    0  0.00000000000E+00  0.00000000000E+00  0.19874110973E+04  0.19874110973E+04  0.50400001928E-02 0. -1.
       -1   -1    0    0    0  501  0.00000000000E+00  0.00000000000E+00 -0.67048611939E+03  0.67048611941E+03  0.50400001928E-02 0.  1.
    10030    2    1    2    0    0  0.00000000000E+00  0.00000000000E+00  0.13169249779E+04  0.26578972167E+04  0.23087066113E+04 0.  0.
        4    1    3    3  502    0 -0.79088925688E+03 -0.46930622218E+03  0.14616813962E+04  0.17269245102E+04  0.12699999809E+01 0. -1.
       -4    1    3    3    0  502  0.79088925688E+03  0.46930622218E+03 -0.14475641831E+03  0.93097270657E+03  0.12699999809E+01 0.  1.
</event>
<event>
 5   0  0.3310037E-05  0.2234945E+04  0.7818609E-02  0.8504022E-01
        2   -1    0    0  501    0  0.00000000000E+00  0.00000000000E+00  0.17756869356E+04  0.17756869356E+04  0.25500000920E-02 0. -1.
       -2   -1    0    0    0  501  0.00000000000E+00  0.00000000000E+00 -0.70324628048E+03  0.70324628049E+03  0.25500000920E-02 0.  1.
    10030    2    1    2    0    0  0.00000000000E+00  0.00000000000E+00  0.10724406551E+04  0.24789332160E+04  0.22349453978E+04 0.  0.
        2    1    3    3  502    0  0.10398791601E+04 -0.82941753823E+02  0.98060465986E+03  0.14317169766E+04  0.25500000920E-02 0. -1.
       -2    1    3    3    0  502 -0.10398791601E+04  0.82941753823E+02  0.91835995225E+02  0.10472162395E+04  0.25500000920E-02 0.  1.
</event>
<event>
 5   0  0.1401596E-05  0.2401321E+04  0.7818609E-02  0.8439009E-01
       -1   -1    0    0    0  501  0.00000000000E+00  0.00000000000E+00  0.75694367121E+03  0.75694367123E+03  0.50400001928E-02 0. -1.
        1   -1    0    0  501    0  0.00000000000E+00  0.00000000000E+00 -0.19044824504E+04  0.19044824504E+04  0.50400001928E-02 0.  1.
    10030    2    1    2    0    0  0.00000000000E+00  0.00000000000E+00 -0.11475387792E+04  0.26614261217E+04  0.24013212512E+04 0.  0.
        2    1    3    3  502    0 -0.38573482082E+03 -0.11121860105E+04 -0.83566285366E+03  0.14436348149E+04  0.25500000920E-02 0. -1.
       -2    1    3    3    0  502  0.38573482082E+03  0.11121860105E+04 -0.31187592557E+03  0.12177913068E+04  0.25500000920E-02 0.  1.
</event>
<event>
 5   0  0.1434943E-05  0.2397823E+04  0.7818609E-02  0.8440319E-01
        1   -1    0    0  501    0  0.00000000000E+00  0.00000000000E+00  0.23777719763E+04  0.23777719763E+04  0.50400001928E-02 0.  1.
       -1   -1    0    0    0  501  0.00000000000E+00  0.00000000000E+00 -0.60451054608E+03  0.60451054610E+03  0.50400001928E-02 0. -1.
    10030    2    1    2    0    0  0.00000000000E+00  0.00000000000E+00  0.17732614302E+04  0.29822825224E+04  0.23978225421E+04 0.  0.
        5    1    3    3  502    0  0.54635309721E+03 -0.94791735696E+03  0.14963418172E+04  0.18536747143E+04  0.46999998093E+01 0.  1.
       -5    1    3    3    0  502 -0.54635309721E+03  0.94791735696E+03  0.27691961302E+03  0.11286078081E+04  0.46999998093E+01 0. -1.
</event>
<event>
 5   0  0.3215208E-05  0.2389458E+04  0.7818609E-02  0.8443461E-01
       -2   -1    0    0    0  501  0.00000000000E+00  0.00000000000E+00  0.11947479063E+04  0.11947479063E+04  0.25500000920E-02 0.  1.
        2   -1    0    0  501    0  0.00000000000E+00  0.00000000000E+00 -0.11947104044E+04  0.11947104044E+04  0.25500000920E-02 0. -1.
    10030    2    1    2    0    0  0.00000000000E+00  0.00000000000E+00  0.37501879457E-01  0.23894583107E+04  0.23894583104E+04 0.  0.
        1    1    3    3  502    0  0.21012911114E+03 -0.34935702270E+03 -0.11230009203E+04  0.11947115299E+04  0.50400001928E-02 0. -1.
       -1    1    3    3    0  502 -0.21012911114E+03  0.34935702270E+03  0.11230384222E+04  0.11947467808E+04  0.50400001928E-02 0.  1.
</event>
<event>
 5   0  0.3215208E-05  0.2406914E+04  0.7818609E-02  0.8436920E-01
        2   -1    0    0  501    0  0.00000000000E+00  0.00000000000E+00  0.19412117301E+04  0.19412117301E+04  0.25500000920E-02 0.  1.
       -2   -1    0    0    0  501  0.00000000000E+00  0.00000000000E+00 -0.74608482640E+03  0.74608482640E+03  0.25500000920E-02 0. -1.
    10030    2    1    2    0    0  0.00000000000E+00  0.00000000000E+00  0.11951269037E+04  0.26872965565E+04  0.24069138885E+04 0.  0.
        1    1    3    3  502    0  0.19306015451E+03 -0.43468155171E+03 -0.63669566355E+03  0.79473369292E+03  0.50400001928E-02 0. -1.
       -1    1    3    3    0  502 -0.19306015451E+03  0.43468155171E+03  0.18318225672E+04  0.18925628636E+04  0.50400001928E-02 0.  1.
</event>
<event>
 5   0  0.3310037E-05  0.2448521E+04  0.7818609E-02  0.8421558E-01
        2   -1    0    0  501    0  0.00000000000E+00  0.00000000000E+00  0.25467156478E+04  0.25467156478E+04  0.25500000920E-02 0. -1.
       -2   -1    0    0    0  501  0.00000000000E+00  0.00000000000E+00 -0.58852800851E+03  0.58852800851E+03  0.25500000920E-02 0.  1.
    10030    2    1    2    0    0  0.00000000000E+00  0.00000000000E+00  0.19581876393E+04  0.31352436563E+04  0.24485207685E+04 0.  0.
        2    1    3    3  502    0 -0.10042855369E+04 -0.61702537557E+03  0.14028167543E+04  0.18322676114E+04  0.25500000920E-02 0. -1.
       -2    1    3    3    0  502  0.10042855369E+04  0.61702537557E+03  0.55537088495E+03  0.13029760449E+04  0.25500000920E-02 0.  1.
</event>
<event>
 5   0  0.3320780E-05  0.2408017E+04  0.7818609E-02  0.8436508E-01
        2   -1    0    0  501    0  0.00000000000E+00  0.00000000000E+00  0.24328521983E+04  0.24328521983E+04  0.25500000920E-02 0. -1.
       -2   -1    0    0    0  501  0.00000000000E+00  0.00000000000E+00 -0.59585881260E+03  0.59585881260E+03  0.25500000920E-02 0.  1.
    10030    2    1    2    0    0  0.00000000000E+00  0.00000000000E+00  0.18369933857E+04  0.30287110109E+04  0.24080169618E+04 0.  0.
        5    1    3    3  502    0 -0.18644061465E+03 -0.84642473464E+03  0.19696267167E+04  0.21518936840E+04  0.46999998093E+01 0. -1.
       -5    1    3    3    0  502  0.18644061465E+03  0.84642473464E+03 -0.13263333101E+03  0.87681732687E+03  0.46999998093E+01 0.  1.
</event>
<event>
 5   0  0.1393026E-05  0.2392418E+04  0.7818609E-02  0.8442348E-01
       -1   -1    0    0    0  501  0.00000000000E+00  0.00000000000E+00  0.11528071256E+04  0.11528071256E+04  0.50400001928E-02 0. -1.
        1   -1    0    0  501    0  0.00000000000E+00  0.00000000000E+00 -0.12412450364E+04  0.12412450365E+04  0.50400001928E-02 0.  1.
    10030    2    1    2    0    0  0.00000000000E+00  0.00000000000E+00 -0.88437910869E+02  0.23940521620E+04  0.23924181262E+04 0.  0.
        4    1    3    3  502    0 -0.11648351001E+04  0.24828929888E+03 -0.15576761513E+03  0.12011467642E+04  0.12699999809E+01 0. -1.
       -4    1    3    3    0  502  0.11648351001E+04 -0.24828929888E+03  0.67329704262E+02  0.11929053979E+04  0.12699999809E+01 0.  1.
</event>
<event>
 5   0  0.3215208E-05  0.2340891E+04  0.7818609E-02  0.8461971E-01
        2   -1    0    0  501    0  0.00000000000E+00  0.00000000000E+00  0.98290038989E+03  0.98290038989E+03  0.25500000920E-02 0.  1.
       -2   -1    0    0    0  501  0.00000000000E+00  0.00000000000E+00 -0.13937760722E+04  0.13937760723E+04  0.25500000920E-02 0. -1.
    10030    2    1    2    0    0  0.00000000000E+00  0.00000000000E+00 -0.41087568236E+03  0.23766764621E+04  0.23408913216E+04 0.  0.
        1    1    3    3  502    0 -0.88483205188E+03 -0.24830904231E+03  0.53045817005E+03  0.10611178119E+04  0.50400001928E-02 0.  1.
       -1    1    3    3    0  502  0.88483205188E+03  0.24830904231E+03 -0.94133385241E+03  0.13155586502E+04  0.50400001928E-02 0. -1.
</event>
<event>
 5   0  0.1407158E-05  0.2438214E+04  0.7818609E-02  0.8425334E-01
        1   -1    0    0  501    0  0.00000000000E+00  0.00000000000E+00  0.19040893336E+04  0.19040893336E+04  0.50400001928E-02 0. -1.
       -1   -1    0    0    0  501  0.00000000000E+00  0.00000000000E+00 -0.78054179523E+03  0.78054179525E+03  0.50400001928E-02 0.  1.
    10030    2    1    2    0    0  0.00000000000E+00  0.00000000000E+00  0.11235475384E+04  0.26846311289E+04  0.24382135319E+04 0.  0.
        1    1    3    3  502    0 -0.36056994128E+03 -0.10452744696E+04 -0.35475920801E+01  0.11057223815E+04  0.50400001928E-02 0.  1.
       -1    1    3    3    0  502  0.36056994128E+03  0.10452744696E+04  0.11270951304E+04  0.15789087474E+04  0.50400001928E-02 0. -1.
</event>
<event>
 5   0  0.1401596E-05  0.2391439E+04  0.7818609E-02  0.8442716E-01
        1   -1    0    0  501    0  0.00000000000E+00  0.00000000000E+00  0.16132549949E+04  0.16132549950E+04  0.50400001928E-02 0.  1.
       -1   -1    0    0    0  501  0.00000000000E+00  0.00000000000E+00 -0.88624835288E+03  0.88624835290E+03  0.50400001928E-02 0. -1.
    10030    2    1    2    0    0  0.00000000000E+00  0.00000000000E+00  0.72700664206E+03  0.24995033479E+04  0.23914385479E+04 0.  0.
        2    1    3    3  502    0  0.10173100117E+04 -0.60629369155E+03  0.53598433525E+03  0.12999195775E+04  0.25500000920E-02 0.  1.
       -2    1    3    3    0  502 -0.10173100117E+04  0.60629369155E+03  0.19102230681E+03  0.11995837703E+04  0.25500000920E-02 0. -1.
</event>
<event>
 5   0  0.1407158E-05  0.2384755E+04  0.7818609E-02  0.8445233E-01
       -1   -1    0    0    0  501  0.00000000000E+00  0.00000000000E+00  0.14067054442E+04  0.14067054442E+04  0.50400001928E-02 0. -1.
        1   -1    0    0  501    0  0.00000000000E+00  0.00000000000E+00 -0.10107046281E+04  0.10107046281E+04  0.50400001928E-02 0.  1.
    10030    2    1    2    0    0  0.00000000000E+00  0.00000000000E+00  0.39600081607E+03  0.24174100723E+04  0.23847546648E+04 0.  0.
        1    1    3    3  502    0  0.96345917817E+03  0.35345437790E+03 -0.41742096160E+03  0.11078916213E+04  0.50400001928E-02 0.  1.
       -1    1    3    3    0  502 -0.96345917817E+03 -0.35345437790E+03  0.81342177767E+03  0.13095184511E+04  0.50400001928E-02 0. -1.
</event>
<event>
 5   0  0.1434943E-05  0.2426038E+04  0.7818609E-02  0.8429819E-01
       -1   -1    0    0    0  501  0.00000000000E+00  0.00000000000E+00  0.81144211831E+03  0.81144211833E+03  0.50400001928E-02 0. -1.
        1   -1    0    0  501    0  0.00000000000E+00  0.00000000000E+00 -0.18133340627E+04  0.18133340627E+04  0.50400001928E-02 0.  1.
    10030    2    1    2    0    0  0.00000000000E+00  0.00000000000E+00 -0.10018919444E+04  0.26247761810E+04  0.24260384441E+04 0.  0.
        5    1    3    3  502    0  0.10144558226E+03 -0.91035574369E+03 -0.13612956346E+04  0.16407884327E+04  0.46999998093E+01 0.  1.
       -5    1    3    3    0  502 -0.10144558226E+03  0.91035574369E+03  0.35940369022E+03  0.98398774828E+03  0.46999998093E+01 0. -1.
</event>
<event>
 5   0  0.1401596E-05  0.2390481E+04  0.7818609E-02  0.8443076E-01
       -1   -1    0    0    0  501  0.00000000000E+00  0.00000000000E+00  0.10128050615E+04  0.10128050615E+04  0.50400001928E-02 0. -1.
        1   -1    0    0  501    0  0.00000000000E+00  0.00000000000E+00 -0.14105379949E+04  0.14105379949E+04  0.50400001928E-02 0.  1.
    10030    2    1    2    0    0  0.00000000000E+00  0.00000000000E+00 -0.39773293334E+03  0.24233430564E+04  0.23904811404E+04 0.  0.
        2    1    3    3  502    0  0.10501354777E+04  0.50150408438E+03  0.77477973286E+02  0.11663162970E+04  0.25500000920E-02 0. -1.
       -2    1    3    3    0  502 -0.10501354777E+04 -0.50150408438E+03 -0.47521090663E+03  0.12570267595E+04  0.25500000920E-02 0.  1.
</event>
<event>
 5   0  0.3215208E-05  0.2381612E+04  0.7818609E-02  0.8446420E-01
        2   -1    0    0  501    0  0.00000000000E+00  0.00000000000E+00  0.18424891808E+04  0.18424891808E+04  0.25500000920E-02 0. -1.
       -2   -1    0    0    0  501  0.00000000000E+00  0.00000000000E+00 -0.76962135825E+03  0.76962135825E+03  0.25500000920E-02 0.  1.
    10030    2    1    2    0    0  0.00000000000E+00  0.00000000000E+00  0.10728678225E+04  0.26121105390E+04  0.23816120808E+04 0.  0.
        1    1    3    3  502    0 -0.99760721222E+03 -0.45684496636E+02 -0.17496447354E+03  0.10138637927E+04  0.50400001928E-02 0.  1.
       -1    1    3    3    0  502  0.99760721222E+03  0.45684496636E+02  0.12478322961E+04  0.15982467464E+04  0.50400001928E-02 0. -1.
</event>
<event>
 5   0  0.3347728E-05  0.2209723E+04  0.7818609E-02  0.8514392E-01
        2   -1    0    0  501    0  0.00000000000E+00  0.00000000000E+00  0.13633589572E+04  0.13633589572E+04  0.25500000920E-02 0.  1.
       -2   -1    0    0    0  501  0.00000000000E+00  0.00000000000E+00 -0.89537603358E+03  0.89537603358E+03  0.25500000920E-02 0. -1.
    10030    2    1    2    0    0  0.00000000000E+00  0.00000000000E+00  0.46798292365E+03  0.22587349908E+04  0.22097230012E+04 0.  0.
        3    1    3    3  502    0 -0.55395229295E+03 -0.12763443097E+03  0.12024041138E+04  0.13300110353E+04  0.10100000352E+00 0.  1.
       -3    1    3    3    0  502  0.55395229295E+03  0.12763443097E+03 -0.73442119016E+03  0.92872395554E+03  0.10100000352E+00 0. -1.
</event>
<event>
 5   0  0.1407158E-05  0.2427134E+04  0.7818609E-02  0.8429414E-01
       -1   -1    0    0    0  501  0.00000000000E+00  0.00000000000E+00  0.11040990734E+04  0.11040990734E+04  0.50400001928E-02 0.  1.
        1   -1    0    0  501    0  0.00000000000E+00  0.00000000000E+00 -0.13338883937E+04  0.13338883937E+04  0.50400001928E-02 0. -1.
    10030    2    1    2    0    0  0.00000000000E+00  0.00000000000E+00 -0.22978932030E+03  0.24379874670E+04  0.24271340626E+04 0.  0.
        1    1    3    3  502    0 -0.12131445534E+04  0.31573681242E+02 -0.10954782505E+03  0.12184897746E+04  0.50400001928E-02 0.  1.
       -1    1    3    3    0  502  0.12131445534E+04 -0.31573681242E+02 -0.12024149524E+03  0.12194976925E+04  0.50400001928E-02 0. -1.
</event>
<event>
 5   0  0.1401596E-05  0.2365846E+04  0.7818609E-02  0.8452402E-01
       -1   -1    0    0    0  501  0.00000000000E+00  0.00000000000E+00  0.20029732240E+04  0.20029732240E+04  0.50400001928E-02 0.  1.
        1   -1    0    0  501    0  0.00000000000E+00  0.00000000000E+00 -0.69861504315E+03  0.69861504317E+03  0.50400001928E-02 0. -1.
    10030    2    1    2    0    0  0.00000000000E+00  0.00000000000E+00  0.13043581808E+04  0.27015882671E+04  0.23658463393E+04 0.  0.
        2    1    3    3  502    0  0.47658947015E+03  0.82567294180E+03 -0.14751312157E+03  0.96469344920E+03  0.25500000920E-02 0. -1.
       -2    1    3    3    0  502 -0.47658947015E+03 -0.82567294180E+03  0.14518713024E+04  0.17368948179E+04  0.25500000920E-02 0.  1.
</event>
<event>
 5   0  0.1407158E-05  0.2433153E+04  0.7818609E-02  0.8427195E-01
       -1   -1    0    0    0  501  0.00000000000E+00  0.00000000000E+00  0.10251235030E+04  0.10251235030E+04  0.50400001928E-02 0.  1.
        1   -1    0    0  501    0  0.00000000000E+00  0.00000000000E+00 -0.14437856036E+04  0.14437856036E+04  0.50400001928E-02 0. -1.
    10030    2    1    2    0    0  0.00000000000E+00  0.00000000000E+00 -0.41866210055E+03  0.24689091066E+04  0.24331531440E+04 0.  0.
        1    1    3    3  502    0 -0.89518949552E+03 -0.18166171646E+03 -0.10246899420E+04  0.13727179934E+04  0.50400001928E-02 0. -1.
       -1    1    3    3    0  502  0.89518949552E+03  0.18166171646E+03  0.60602784145E+03  0.10961911132E+04  0.50400001928E-02 0.  1.
</event>
<event>
 5   0  0.1401596E-05  0.2440525E+04  0.7818609E-02  0.8424485E-01
       -1   -1    0    0    0  501  0.00000000000E+00  0.00000000000E+00  0.68443029796E+03  0.68443029798E+03  0.50400001928E-02 0. -1.
        1   -1    0    0  501    0  0.00000000000E+00  0.00000000000E+00 -0.21755921112E+04  0.21755921112E+04  0.50400001928E-02 0.  1.
    10030    2    1    2    0    0  0.00000000000E+00  0.00000000000E+00 -0.14911618132E+04  0.28600224092E+04  0.24405254819E+04 0.  0.
        2    1    3    3  502    0 -0.12256653754E+01 -0.94827025505E+03  0.15442841354E+03  0.96076329748E+03  0.25500000920E-02 0. -1.
       -2    1    3    3    0  502  0.12256653754E+01  0.94827025505E+03 -0.16455902268E+04  0.18992591117E+04  0.25500000920E-02 0.  1.
</event>
<event>
 5   0  0.1506985E-05  0.1971021E+04  0.7818609E-02  0.8620291E-01
       -1   -1    0    0    0  501  0.00000000000E+00  0.00000000000E+00  0.13042461872E+04  0.13042461873E+04  0.50400001928E-02 0. -1.
        1   -1    0    0  501    0  0.00000000000E+00  0.00000000000E+00 -0.74466824986E+03  0.74466824988E+03  0.50400001928E-02 0.  1.
    10030    2    1    2    0    0  0.00000000000E+00  0.00000000000E+00  0.55957793738E+03  0.20489144371E+04  0.19710207768E+04 0.  0.
        3    1    3    3  502    0 -0.35883302321E+03 -0.87662778546E+02 -0.66998418660E+03  0.76506517486E+03  0.10100000352E+00 0.  1.
       -3    1    3    3    0  502  0.35883302321E+03  0.87662778546E+02  0.12295621240E+04  0.12838492623E+04  0.10100000352E+00 0. -1.
</event>
<event>
 5   0  0.3215208E-05  0.2451223E+04  0.7818609E-02  0.8420572E-01
        2   -1    0    0  501    0  0.00000000000E+00  0.00000000000E+00  0.14551962775E+04  0.14551962775E+04  0.25500000920E-02 0.  1.
       -2   -1    0    0    0  501  0.00000000000E+00  0.00000000000E+00 -0.10322482370E+04  0.10322482370E+04  0.25500000920E-02 0. -1.
    10030    2    1    2    0    0  0.00000000000E+00  0.00000000000E+00  0.42294804049E+03  0.24874445145E+04  0.24512231983E+04 0.  0.
        1    1    3    3  502    0  0.19246341180E+03 -0.95756338186E+03  0.96278863417E+03  0.13714706520E+04  0.50400001928E-02 0.  1.
       -1    1    3    3    0  502 -0.19246341180E+03  0.95756338186E+03 -0.53984059368E+03  0.11159738625E+04  0.50400001928E-02 0. -1.
</event>
<event>
 5   0  0.1434943E-05  0.2392732E+04  0.7818609E-02  0.8442230E-01
        1   -1    0    0  501    0  0.00000000000E+00  0.00000000000E+00  0.13445103385E+04  0.13445103385E+04  0.50400001928E-02 0.  1.
       -1   -1    0    0    0  501  0.00000000000E+00  0.00000000000E+00 -0.10645450147E+04  0.10645450147E+04  0.50400001928E-02 0. -1.
    10030    2    1    2    0    0  0.00000000000E+00  0.00000000000E+00  0.27996532385E+03  0.24090553532E+04  0.23927321439E+04 0.  0.
        5    1    3    3  502    0 -0.14734548376E+03  0.53574772882E+02  0.13341129133E+04  0.13433020149E+04  0.46999998093E+01 0.  1.
       -5    1    3    3    0  502  0.14734548376E+03 -0.53574772882E+02 -0.10541475894E+04  0.10657533383E+04  0.46999998093E+01 0. -1.
</event>
<event>
 5   0  0.3310037E-05  0.2395554E+04  0.7818609E-02  0.8441170E-01
       -2   -1    0    0    0  501  0.00000000000E+00  0.00000000000E+00  0.12735809534E+04  0.12735809534E+04  0.25500000920E-02 0. -1.
        2   -1    0    0  501    0  0.00000000000E+00  0.00000000000E+00 -0.11264849532E+04  0.11264849532E+04  0.25500000920E-02 0.  1.
    10030    2    1    2    0    0  0.00000000000E+00  0.00000000000E+00  0.14709600014E+03  0.24000659066E+04  0.23955540325E+04 0.  0.
        2    1    3    3  502    0  0.74067610181E+03 -0.19972602894E+03 -0.84806398655E+03  0.11435489057E+04  0.25500000920E-02 0.  1.
       -2    1    3    3    0  502 -0.74067610181E+03  0.19972602894E+03  0.99515998669E+03  0.12565170009E+04  0.25500000920E-02 0. -1.
</event>
<event>
 5   0  0.1401596E-05  0.2408817E+04  0.7818609E-02  0.8436210E-01
       -1   -1    0    0    0  501  0.00000000000E+00  0.00000000000E+00  0.15804202159E+04  0.15804202159E+04  0.50400001928E-02 0. -1.
        1   -1    0    0  501    0  0.00000000000E+00  0.00000000000E+00 -0.91785690487E+03  0.91785690488E+03  0.50400001928E-02 0.  1.
    10030    2    1    2    0    0  0.00000000000E+00  0.00000000000E+00  0.66256331102E+03  0.24982771208E+04  0.24088168114E+04 0.  0.
        2    1    3    3  502    0  0.10068301837E+04 -0.64269645639E+03  0.49139737611E+03  0.12916025453E+04  0.25500000920E-02 0. -1.
       -2    1    3    3    0  502 -0.10068301837E+04  0.64269645639E+03  0.17116593492E+03  0.12066745755E+04  0.25500000920E-02 0.  1.
</event>
<event>
 5   0  0.3347728E-05  0.2398986E+04  0.7818609E-02  0.8439883E-01
        2   -1    0    0  501    0  0.00000000000E+00  0.00000000000E+00  0.90837021441E+03  0.90837021441E+03  0.25500000920E-02 0.  1.
       -2   -1    0    0    0  501  0.00000000000E+00  0.00000000000E+00 -0.15839180247E+04  0.15839180247E+04  0.25500000920E-02 0. -1.
    10030    2    1    2    0    0  0.00000000000E+00  0.00000000000E+00 -0.67554781024E+03  0.24922882391E+04  0.23989864157E+04 0.  0.
        3    1    3    3  502    0  0.17023190956E+03 -0.11466639550E+04 -0.65792605294E+03  0.13329230398E+04  0.10100000352E+00 0.  1.
       -3    1    3    3    0  502 -0.17023190956E+03  0.11466639550E+04 -0.17621757304E+02  0.11593651993E+04  0.10100000352E+00 0. -1.
</event>
<event>
 5   0  0.1407158E-05  0.2351036E+04  0.7818609E-02  0.8458066E-01
        1   -1    0    0  501    0  0.00000000000E+00  0.00000000000E+00  0.91321977607E+03  0.91321977608E+03  0.50400001928E-02 0. -1.
       -1   -1    0    0    0  501  0.00000000000E+00  0.00000000000E+00 -0.15131542801E+04  0.15131542801E+04  0.50400001928E-02 0.  1.
    10030    2    1    2    0    0  0.00000000000E+00  0.00000000000E+00 -0.59993450401E+03  0.24263740562E+04  0.23510358677E+04 0.  0.
        1    1    3    3  502    0 -0.11040870734E+04 -0.26282413783E+03 -0.61597795037E+03  0.12913224339E+04  0.50400001928E-02 0.  1.
       -1    1    3    3    0  502  0.11040870734E+04  0.26282413783E+03  0.16043446362E+02  0.11350516222E+04  0.50400001928E-02 0. -1.
</event>
<event>
 5   0  0.3347728E-05  0.2518341E+04  0.7818609E-02  0.8396481E-01
        2   -1    0    0  501    0  0.00000000000E+00  0.00000000000E+00  0.91540169795E+03  0.91540169796E+03  0.25500000920E-02 0. -1.
       -2   -1    0    0    0  501  0.00000000000E+00  0.00000000000E+00 -0.17320375779E+04  0.17320375779E+04  0.25500000920E-02 0.  1.
    10030    2    1    2    0    0  0.00000000000E+00  0.00000000000E+00 -0.81663587998E+03  0.26474392759E+04  0.25183408346E+04 0.  0.
        3    1    3    3  502    0 -0.55008785531E+03 -0.11217771939E+04 -0.24367047998E+03  0.12729320620E+04  0.10100000352E+00 0.  1.
       -3    1    3    3    0  502  0.55008785531E+03  0.11217771939E+04 -0.57296539999E+03  0.13745072139E+04  0.10100000352E+00 0. -1.
</event>
<event>
 5   0  0.1506985E-05  0.2413116E+04  0.7818609E-02  0.8434609E-01
       -1   -1    0    0    0  501  0.00000000000E+00  0.00000000000E+00  0.12272201838E+04  0.12272201838E+04  0.50400001928E-02 0.  1.
        1   -1    0    0  501    0  0.00000000000E+00  0.00000000000E+00 -0.11862436595E+04  0.11862436595E+04  0.50400001928E-02 0. -1.
    10030    2    1    2    0    0  0.00000000000E+00  0.00000000000E+00  0.40976524278E+02  0.24134638433E+04  0.24131159622E+04 0.  0.
        3    1    3    3  502    0 -0.58415507080E+03 -0.57043946471E+03  0.90895400058E+03  0.12218165636E+04  0.10100000352E+00 0.  1.
       -3    1    3    3    0  502  0.58415507080E+03  0.57043946471E+03 -0.86797747630E+03  0.11916472797E+04  0.10100000352E+00 0. -1.
</event>
<event>
 5   0  0.1434943E-05  0.2403622E+04  0.7818609E-02  0.8438149E-01
       -1   -1    0    0    0  501  0.00000000000E+00  0.00000000000E+00  0.70095216407E+03  0.70095216409E+03  0.50400001928E-02 0. -1.
        1   -1    0    0  501    0  0.00000000000E+00  0.00000000000E+00 -0.20605543786E+04  0.20605543786E+04  0.50400001928E-02 0.  1.
    10030    2    1    2    0    0  0.00000000000E+00  0.00000000000E+00 -0.13596022145E+04  0.27615065427E+04  0.24036223089E+04 0.  0.
        5    1    3    3  502    0 -0.12984215580E+03  0.65693766344E+03 -0.18263382455E+04  0.19452402310E+04  0.46999998093E+01 0.  1.
       -5    1    3    3    0  502  0.12984215580E+03 -0.65693766344E+03  0.46673603099E+03  0.81626631175E+03  0.46999998093E+01 0. -1.
</event>
<event>
 5   0  0.1506985E-05  0.2576386E+04  0.7818609E-02  0.8376267E-01
       -1   -1    0    0    0  501  0.00000000000E+00  0.00000000000E+00  0.10190845430E+04  0.10190845431E+04  0.50400001928E-02 0.  1.
        1   -1    0    0  501    0  0.00000000000E+00  0.00000000000E+00 -0.16283646543E+04  0.16283646543E+04  0.50400001928E-02 0. -1.
    10030    2    1    2    0    0  0.00000000000E+00  0.00000000000E+00 -0.60928011128E+03  0.26474491974E+04  0.25763860345E+04 0.  0.
        3    1    3    3  502    0  0.47106894657E+03  0.92333164516E+03 -0.10905854798E+04  0.15046009365E+04  0.10100000352E+00 0. -1.
       -3    1    3    3    0  502 -0.47106894657E+03 -0.92333164516E+03  0.48130536848E+03  0.11428482608E+04  0.10100000352E+00 0.  1.
</event>
<event>
 5   0  0.3320780E-05  0.2394976E+04  0.7818609E-02  0.8441387E-01
       -2   -1    0    0    0  501  0.00000000000E+00  0.00000000000E+00  0.65188674140E+03  0.65188674141E+03  0.25500000920E-02 0.  1.
        2   -1    0    0  501    0  0.00000000000E+00  0.00000000000E+00 -0.21997338949E+04  0.21997338949E+04  0.25500000920E-02 0. -1.
    10030    2    1    2    0    0  0.00000000000E+00  0.00000000000E+00 -0.15478471535E+04  0.28516206364E+04  0.23949758752E+04 0.  0.
        5    1    3    3  502    0 -0.23143233400E+03 -0.96223848884E+03 -0.15766239372E+04  0.18615125474E+04  0.46999998093E+01 0. -1.
       -5    1    3    3    0  502  0.23143233400E+03  0.96223848884E+03  0.28776783660E+02  0.99010808899E+03  0.46999998093E+01 0.  1.
</event>
<event>
 5   0  0.3215208E-05  0.2397286E+04  0.7818609E-02  0.8440520E-01
       -2   -1    0    0    0  501  0.00000000000E+00  0.00000000000E+00  0.78878501053E+03  0.78878501054E+03  0.25500000920E-02 0. -1.
        2   -1    0    0  501    0  0.00000000000E+00  0.00000000000E+00 -0.18214653965E+04  0.18214653965E+04  0.25500000920E-02 0.  1.
    10030    2    1    2    0    0  0.00000000000E+00  0.00000000000E+00 -0.10326803860E+04  0.26102504070E+04  0.23972856334E+04 0.  0.
        1    1    3    3  502    0 -0.12266205639E+03  0.48226875810E+03  0.67099790572E+03  0.83538453698E+03  0.50400001928E-02 0. -1.
       -1    1    3    3    0  502  0.12266205639E+03 -0.48226875810E+03 -0.17036782917E+04  0.17748658701E+04  0.50400001928E-02 0.  1.
</event>
<event>
 5   0  0.3215208E-05  0.2414786E+04  0.7818609E-02  0.8433989E-01
       -2   -1    0    0    0  501  0.00000000000E+00  0.00000000000E+00  0.11564245015E+04  0.11564245015E+04  0.25500000920E-02 0. -1.
        2   -1    0    0  501    0  0.00000000000E+00  0.00000000000E+00 -0.12606079273E+04  0.12606079273E+04  0.25500000920E-02 0.  1.
    10030    2    1    2    0    0  0.00000000000E+00  0.00000000000E+00 -0.10418342580E+03  0.24170324288E+04  0.24147860311E+04 0.  0.
        1    1    3    3  502    0  0.27757872208E+03  0.16610250977E+03  0.11122435794E+04  0.11583288698E+04  0.50400001928E-02 0. -1.
       -1    1    3    3    0  502 -0.27757872208E+03 -0.16610250977E+03 -0.12164270052E+04  0.12587035591E+04  0.50400001928E-02 0.  1.
</event>
<event>
 5   0  0.1401596E-05  0.2386584E+04  0.7818609E-02  0.8444543E-01
        1   -1    0    0  501    0  0.00000000000E+00  0.00000000000E+00  0.18034541439E+04  0.18034541439E+04  0.50400001928E-02 0.  1.
       -1   -1    0    0    0  501  0.00000000000E+00  0.00000000000E+00 -0.78956597356E+03  0.78956597358E+03  0.50400001928E-02 0. -1.
    10030    2    1    2    0    0  0.00000000000E+00  0.00000000000E+00  0.10138881704E+04  0.25930201175E+04  0.23865841925E+04 0.  0.
        2    1    3    3  502    0 -0.60472457587E+02  0.97352512603E+02  0.17974608089E+04  0.18011107100E+04  0.25500000920E-02 0.  1.
       -2    1    3    3    0  502  0.60472457587E+02 -0.97352512603E+02 -0.78357263858E+03  0.79190940756E+03  0.25500000920E-02 0. -1.
</event>
<event>
 5   0  0.1147362E-05  0.2462526E+04  0.7818609E-02  0.8416459E-01
        4   -1    0    0  501    0  0.00000000000E+00  0.00000000000E+00  0.78975844210E+03  0.78975946323E+03  0.12699999809E+01 0. -1.
       -4   -1    0    0    0  501  0.00000000000E+00  0.00000000000E+00 -0.19195833534E+04  0.19195837735E+04  0.12699999809E+01 0.  1.
    10030    2    1    2    0    0  0.00000000000E+00  0.00000000000E+00 -0.11298249113E+04  0.27093432367E+04  0.24625264352E+04 0.  0.
        4    1    3    3  502    0 -0.48581369669E+03 -0.10853097894E+04 -0.21336349954E+03  0.12080719691E+04  0.12699999809E+01 0. -1.
       -4    1    3    3    0  502  0.48581369669E+03  0.10853097894E+04 -0.91646141173E+03  0.15012712676E+04  0.12699999809E+01 0.  1.
</event>
<event>
 5   0  0.3310037E-05  0.2387387E+04  0.7818609E-02  0.8444241E-01
       -2   -1    0    0    0  501  0.00000000000E+00  0.00000000000E+00  0.13644675560E+04  0.13644675560E+04  0.25500000920E-02 0.  1.
        2   -1    0    0  501    0  0.00000000000E+00  0.00000000000E+00 -0.10442934971E+04  0.10442934971E+04  0.25500000920E-02 0. -1.
    10030    2    1    2    0    0  0.00000000000E+00  0.00000000000E+00  0.32017405881E+03  0.24087610531E+04  0.23873873550E+04 0.  0.
        2    1    3    3  502    0 -0.32637757369E+03 -0.59234355703E+03  0.11525147202E+04  0.13362946495E+04  0.25500000920E-02 0.  1.
       -2    1    3    3    0  502  0.32637757369E+03  0.59234355703E+03 -0.83234066137E+03  0.10724664035E+04  0.25500000920E-02 0. -1.
</event>
<event>
 5   0  0.1434943E-05  0.2401889E+04  0.7818609E-02  0.8438797E-01
        1   -1    0    0  501    0  0.00000000000E+00  0.00000000000E+00  0.24776605851E+04  0.24776605851E+04  0.50400001928E-02 0. -1.
       -1   -1    0    0    0  501  0.00000000000E+00  0.00000000000E+00 -0.58210870037E+03  0.58210870039E+03  0.50400001928E-02 0.  1.
    10030    2    1    2    0    0  0.00000000000E+00  0.00000000000E+00  0.18955518847E+04  0.30597692855E+04  0.24018890759E+04 0.  0.
        5    1    3    3  502    0  0.37925899628E+03 -0.54131266834E+03  0.22251049571E+04  0.23212003255E+04  0.46999998093E+01 0. -1.
       -5    1    3    3    0  502 -0.37925899628E+03  0.54131266834E+03 -0.32955307234E+03  0.73856895998E+03  0.46999998093E+01 0.  1.
</event>
<event>
 5   0  0.1393026E-05  0.2392448E+04  0.7818609E-02  0.8442336E-01
       -1   -1    0    0    0  501  0.00000000000E+00  0.00000000000E+00  0.14517991113E+04  0.14517991113E+04  0.50400001928E-02 0. -1.
        1   -1    0    0  501    0  0.00000000000E+00  0.00000000000E+00 -0.98564060910E+03  0.98564060911E+03  0.50400001928E-02 0.  1.
    10030    2    1    2    0    0  0.00000000000E+00  0.00000000000E+00  0.46615850224E+03  0.24374397205E+04  0.23924482527E+04 0.  0.
        4    1    3    3  502    0  0.10879677205E+04 -0.46917363680E+03  0.65199110910E+02  0.11866129104E+04  0.12699999809E+01 0. -1.
       -4    1    3    3    0  502 -0.10879677205E+04  0.46917363680E+03  0.40095939133E+03  0.12508268100E+04  0.12699999809E+01 0.  1.
</event>
<event>
 5   0  0.1506985E-05  0.2390251E+04  0.7818609E-02  0.8443162E-01
       -1   -1    0    0    0  501  0.00000000000E+00  0.00000000000E+00  0.15469957790E+04  0.15469957790E+04  0.50400001928E-02 0.  1.
        1   -1    0    0  501    0  0.00000000000E+00  0.00000000000E+00 -0.92328945971E+03  0.92328945973E+03  0.50400001928E-02 0. -1.
    10030    2    1    2    0    0  0.00000000000E+00  0.00000000000E+00  0.62370631928E+03  0.24702852387E+04  0.23902509466E+04 0.  0.
        3    1    3    3  502    0 -0.70566840324E+03  0.91940250210E+03  0.61326212066E+03  0.13112434156E+04  0.10100000352E+00 0.  1.
       -3    1    3    3    0  502  0.70566840324E+03 -0.91940250210E+03  0.10444198613E+02  0.11590418231E+04  0.10100000352E+00 0. -1.
</event>
<event>
 5   0  0.1434943E-05  0.2414816E+04  0.7818609E-02  0.8433977E-01
        1   -1    0    0  501    0  0.00000000000E+00  0.00000000000E+00  0.12366510459E+04  0.12366510459E+04  0.50400001928E-02 0.  1.
       -1   -1    0    0    0  501  0.00000000000E+00  0.00000000000E+00 -0.11788566264E+04  0.11788566264E+04  0.50400001928E-02 0. -1.
    10030    2    1    2    0    0  0.00000000000E+00  0.00000000000E+00  0.57794419469E+02  0.24155076723E+04  0.24148161670E+04 0.  0.
        5    1    3    3  502    0 -0.11973664516E+04  0.18369704285E+02  0.18317601751E+03  0.12114451737E+04  0.46999998093E+01 0. -1.
       -5    1    3    3    0  502  0.11973664516E+04 -0.18369704285E+02 -0.12538159804E+03  0.12040624986E+04  0.46999998093E+01 0.  1.
</event>
<event>
 5   0  0.3310037E-05  0.2440801E+04  0.7818609E-02  0.8424384E-01
       -2   -1    0    0    0  501  0.00000000000E+00  0.00000000000E+00  0.11743472101E+04  0.11743472101E+04  0.25500000920E-02 0.  1.
        2   -1    0    0  501    0  0.00000000000E+00  0.00000000000E+00 -0.12682593509E+04  0.12682593509E+04  0.25500000920E-02 0. -1.
    10030    2    1    2    0    0  0.00000000000E+00  0.00000000000E+00 -0.93912140857E+02  0.24426065610E+04  0.24408005494E+04 0.  0.
        2    1    3    3  502    0 -0.53560203805E+03  0.40046215255E+03  0.97465057166E+03  0.11820250486E+04  0.25500000920E-02 0.  1.
       -2    1    3    3    0  502  0.53560203805E+03 -0.40046215255E+03 -0.10685627125E+04  0.12605815124E+04  0.25500000920E-02 0. -1.
</event>
<event>
 5   0  0.3310037E-05  0.2363744E+04  0.7818609E-02  0.8453203E-01
        2   -1    0    0  501    0  0.00000000000E+00  0.00000000000E+00  0.22575117712E+04  0.22575117712E+04  0.25500000920E-02 0.  1.
       -2   -1    0    0    0  501  0.00000000000E+00  0.00000000000E+00 -0.61874387505E+03  0.61874387506E+03  0.25500000920E-02 0. -1.
    10030    2    1    2    0    0  0.00000000000E+00  0.00000000000E+00  0.16387678962E+04  0.28762556463E+04  0.23637441328E+04 0.  0.
        2    1    3    3  502    0  0.71401936553E+03 -0.50472462509E+03 -0.14816239513E+03  0.88686114858E+03  0.25500000920E-02 0. -1.
       -2    1    3    3    0  502 -0.71401936553E+03  0.50472462509E+03  0.17869302913E+04  0.19893944977E+04  0.25500000920E-02 0.  1.
</event>
<event>
 5   0  0.1393026E-05  0.2399409E+04  0.7818609E-02  0.8439725E-01
        1   -1    0    0  501    0  0.00000000000E+00  0.00000000000E+00  0.14316065412E+04  0.14316065412E+04  0.50400001928E-02 0. -1.
       -1   -1    0    0    0  501  0.00000000000E+00  0.00000000000E+00 -0.10053679591E+04  0.10053679592E+04  0.50400001928E-02 0.  1.
    10030    2    1    2    0    0  0.00000000000E+00  0.00000000000E+00  0.42623858203E+03  0.24369745003E+04  0.23994093828E+04 0.  0.
        4    1    3    3  502    0  0.57223139395E+03  0.66620049394E+03 -0.61700031523E+03  0.10732953313E+04  0.12699999809E+01 0.  1.
       -4    1    3    3    0  502 -0.57223139395E+03 -0.66620049394E+03  0.10432388973E+04  0.13636791690E+04  0.12699999809E+01 0. -1.
</event>
<event>
 5   0  0.1407158E-05  0.2450737E+04  0.7818609E-02  0.8420749E-01
        1   -1    0    0  501    0  0.00000000000E+00  0.00000000000E+00  0.11517749555E+04  0.11517749555E+04  0.50400001928E-02 0.  1.
       -1   -1    0    0    0  501  0.00000000000E+00  0.00000000000E+00 -0.13036643467E+04  0.13036643468E+04  0.50400001928E-02 0. -1.
    10030    2    1    2    0    0  0.00000000000E+00  0.00000000000E+00 -0.15188939121E+03  0.24554393023E+04  0.24507369871E+04 0.  0.
        1    1    3    3  502    0 -0.10434265063E+04  0.62244494968E+03  0.83581897611E+02  0.12178516014E+04  0.50400001928E-02 0. -1.
       -1    1    3    3    0  502  0.10434265063E+04 -0.62244494968E+03 -0.23547128882E+03  0.12375877009E+04  0.50400001928E-02 0.  1.
</event>
<event>
 5   0  0.1407158E-05  0.2365908E+04  0.7818609E-02  0.8452378E-01
       -1   -1    0    0    0  501  0.00000000000E+00  0.00000000000E+00  0.81075323170E+03  0.81075323172E+03  0.50400001928E-02 0.  1.
        1   -1    0    0  501    0  0.00000000000E+00  0.00000000000E+00 -0.17260249315E+04  0.17260249315E+04  0.50400001928E-02 0. -1.
    10030    2    1    2    0    0  0.00000000000E+00  0.00000000000E+00 -0.91527169982E+03  0.25367781632E+04  0.23659081058E+04 0.  0.
        1    1    3    3  502    0 -0.76739213735E+03 -0.61079932252E+03  0.25150230311E+03  0.10125314382E+04  0.50400001928E-02 0.  1.
       -1    1    3    3    0  502  0.76739213735E+03  0.61079932252E+03 -0.11667740029E+04  0.15242467250E+04  0.50400001928E-02 0. -1.
</event>
<event>
 5   0  0.1434943E-05  0.2385427E+04  0.7818609E-02  0.8444980E-01
        1   -1    0    0  501    0  0.00000000000E+00  0.00000000000E+00  0.14080008815E+04  0.14080008815E+04  0.50400001928E-02 0. -1.
       -1   -1    0    0    0  501  0.00000000000E+00  0.00000000000E+00 -0.10103443605E+04  0.10103443606E+04  0.50400001928E-02 0.  1.
    10030    2    1    2    0    0  0.00000000000E+00  0.00000000000E+00  0.39765652091E+03  0.24183452420E+04  0.23854272156E+04 0.  0.
        5    1    3    3  502    0  0.96978361211E+03 -0.69224131239E+03  0.25309610695E+03  0.12180960628E+04  0.46999998093E+01 0. -1.
       -5    1    3    3    0  502 -0.96978361211E+03  0.69224131239E+03  0.14456041395E+03  0.12002491792E+04  0.46999998093E+01 0.  1.
</event>
<event>
 5   0  0.3215208E-05  0.2429030E+04  0.7818609E-02  0.8428714E-01
       -2   -1    0    0    0  501  0.00000000000E+00  0.00000000000E+00  0.95291315385E+03  0.95291315385E+03  0.25500000920E-02 0. -1.
        2   -1    0    0  501    0  0.00000000000E+00  0.00000000000E+00 -0.15479341387E+04  0.15479341387E+04  0.25500000920E-02 0.  1.
    10030    2    1    2    0    0  0.00000000000E+00  0.00000000000E+00 -0.59502098487E+03  0.25008472926E+04  0.24290300962E+04 0.  0.
        1    1    3    3  502    0  0.42198243534E+03 -0.91377943475E+03  0.40228011236E+03  0.10839240379E+04  0.50400001928E-02 0. -1.
       -1    1    3    3    0  502 -0.42198243534E+03  0.91377943475E+03 -0.99730109724E+03  0.14169232547E+04  0.50400001928E-02 0.  1.
</event>
<event>
 5   0  0.3347728E-05  0.2401189E+04  0.7818609E-02  0.8439059E-01
       -2   -1    0    0    0  501  0.00000000000E+00  0.00000000000E+00  0.88955588570E+03  0.88955588571E+03  0.25500000920E-02 0.  1.
        2   -1    0    0  501    0  0.00000000000E+00  0.00000000000E+00 -0.16203897980E+04  0.16203897980E+04  0.25500000920E-02 0. -1.
    10030    2    1    2    0    0  0.00000000000E+00  0.00000000000E+00 -0.73083391227E+03  0.25099456837E+04  0.24011891070E+04 0.  0.
        3    1    3    3  502    0 -0.11336719217E+03 -0.45431038426E+03 -0.15210103546E+04  0.15914529696E+04  0.10100000352E+00 0. -1.
       -3    1    3    3    0  502  0.11336719217E+03  0.45431038426E+03  0.79017644235E+03  0.91849271404E+03  0.10100000352E+00 0.  1.
</event>
<event>
 5   0  0.3215208E-05  0.2420999E+04  0.7818609E-02  0.8431684E-01
       -2   -1    0    0    0  501  0.00000000000E+00  0.00000000000E+00  0.10081860861E+04  0.10081860861E+04  0.25500000920E-02 0.  1.
        2   -1    0    0  501    0  0.00000000000E+00  0.00000000000E+00 -0.14534108089E+04  0.14534108090E+04  0.25500000920E-02 0. -1.
    10030    2    1    2    0    0  0.00000000000E+00  0.00000000000E+00 -0.44522472281E+03  0.24615968951E+04  0.24209985998E+04 0.  0.
        1    1    3    3  502    0 -0.65731575065E+03  0.79090028866E+03 -0.87185060363E+03  0.13482250323E+04  0.50400001928E-02 0. -1.
       -1    1    3    3    0  502  0.65731575065E+03 -0.79090028866E+03  0.42662588081E+03  0.11133718628E+04  0.50400001928E-02 0.  1.
</event>
<event>
 5   0  0.3347728E-05  0.2382503E+04  0.7818609E-02  0.8446083E-01
       -2   -1    0    0    0  501  0.00000000000E+00  0.00000000000E+00  0.61897495784E+03  0.61897495785E+03  0.25500000920E-02 0. -1.
        2   -1    0    0  501    0  0.00000000000E+00  0.00000000000E+00 -0.22926292580E+04  0.22926292580E+04  0.25500000920E-02 0.  1.
    10030    2    1    2    0    0  0.00000000000E+00  0.00000000000E+00 -0.16736543001E+04  0.29116042158E+04  0.23825029682E+04 0.  0.
        3    1    3    3  502    0  0.83920541524E+02 -0.86895823770E+03  0.15369620744E+03  0.88642744234E+03  0.10100000352E+00 0. -1.
       -3    1    3    3    0  502 -0.83920541524E+02  0.86895823770E+03 -0.18273505076E+04  0.20251767735E+04  0.10100000352E+00 0.  1.
</event>
<event>
 5   0  0.3320780E-05  0.2411295E+04  0.7818609E-02  0.8435287E-01
        2   -1    0    0  501    0  0.00000000000E+00  0.00000000000E+00  0.83860379863E+03  0.83860379863E+03  0.25500000920E-02 0.  1.
       -2   -1    0    0    0  501  0.00000000000E+00  0.00000000000E+00 -0.17333406212E+04  0.17333406212E+04  0.25500000920E-02 0. -1.
    10030    2    1    2    0    0  0.00000000000E+00  0.00000000000E+00 -0.89473682259E+03  0.25719444198E+04  0.24112951120E+04 0.  0.
        5    1    3    3  502    0  0.47889558598E+03  0.56835525804E+03  0.56519134424E+03  0.93371945852E+03  0.46999998093E+01 0.  1.
       -5    1    3    3    0  502 -0.47889558598E+03 -0.56835525804E+03 -0.14599281668E+04  0.16382249613E+04  0.46999998093E+01 0. -1.
</event>
<event>
 5   0  0.3320780E-05  0.2506978E+04  0.7818609E-02  0.8400504E-01
       -2   -1    0    0    0  501  0.00000000000E+00  0.00000000000E+00  0.79117809049E+03  0.79117809050E+03  0.25500000920E-02 0.  1.
        2   -1    0    0  501    0  0.00000000000E+00  0.00000000000E+00 -0.19859437542E+04  0.19859437542E+04  0.25500000920E-02 0. -1.
    10030    2    1    2    0    0  0.00000000000E+00  0.00000000000E+00 -0.11947656637E+04  0.27771218447E+04  0.25069784102E+04 0.  0.
        5    1    3    3  502    0 -0.11513216625E+04  0.49380195141E+03 -0.54997965565E+03  0.13681672593E+04  0.46999998093E+01 0. -1.
       -5    1    3    3    0  502  0.11513216625E+04 -0.49380195141E+03 -0.64478600809E+03  0.14089545855E+04  0.46999998093E+01 0.  1.
</event>
<event>
 5   0  0.1407158E-05  0.2373850E+04  0.7818609E-02  0.8449359E-01
        1   -1    0    0  501    0  0.00000000000E+00  0.00000000000E+00  0.83490172297E+03  0.83490172299E+03  0.50400001928E-02 0. -1.
       -1   -1    0    0    0  501  0.00000000000E+00  0.00000000000E+00 -0.16873730719E+04  0.16873730719E+04  0.50400001928E-02 0.  1.
    10030    2    1    2    0    0  0.00000000000E+00  0.00000000000E+00 -0.85247134897E+03  0.25222747949E+04  0.23738497721E+04 0.  0.
        1    1    3    3  502    0 -0.75397073731E+03 -0.73500181753E+03 -0.10082929950E+04  0.14578594954E+04  0.50400001928E-02 0.  1.
       -1    1    3    3    0  502  0.75397073731E+03  0.73500181753E+03  0.15582164603E+03  0.10644152995E+04  0.50400001928E-02 0. -1.
</event>
<event>
 5   0  0.3215208E-05  0.2411583E+04  0.7818609E-02  0.8435180E-01
       -2   -1    0    0    0  501  0.00000000000E+00  0.00000000000E+00  0.89115392324E+03  0.89115392324E+03  0.25500000920E-02 0. -1.
        2   -1    0    0  501    0  0.00000000000E+00  0.00000000000E+00 -0.16315172489E+04  0.16315172489E+04  0.25500000920E-02 0.  1.
    10030    2    1    2    0    0  0.00000000000E+00  0.00000000000E+00 -0.74036332570E+03  0.25226711722E+04  0.24115828804E+04 0.  0.
        1    1    3    3  502    0  0.41945442111E+03  0.56528189116E+03  0.65391885795E+03  0.96077859087E+03  0.50400001928E-02 0. -1.
       -1    1    3    3    0  502 -0.41945442111E+03 -0.56528189116E+03 -0.13942821837E+04  0.15618925813E+04  0.50400001928E-02 0.  1.
</event>
<event>
 5   0  0.1506985E-05  0.2382257E+04  0.7818609E-02  0.8446176E-01
       -1   -1    0    0    0  501  0.00000000000E+00  0.00000000000E+00  0.80566025297E+03  0.80566025298E+03  0.50400001928E-02 0.  1.
        1   -1    0    0  501    0  0.00000000000E+00  0.00000000000E+00 -0.17610239234E+04  0.17610239234E+04  0.50400001928E-02 0. -1.
    10030    2    1    2    0    0  0.00000000000E+00  0.00000000000E+00 -0.95536367047E+03  0.25666841764E+04  0.23822568960E+04 0.  0.
        3    1    3    3  502    0  0.55795616231E+03 -0.56513787513E+03  0.47878968777E+03  0.92732705788E+03  0.10100000352E+00 0.  1.
       -3    1    3    3    0  502 -0.55795616231E+03  0.56513787513E+03 -0.14341533582E+04  0.16393571185E+04  0.10100000352E+00 0. -1.
</event>
<event>
 5   0  0.1401596E-05  0.2376471E+04  0.7818609E-02  0.8448366E-01
       -1   -1    0    0    0  501  0.00000000000E+00  0.00000000000E+00  0.16045312451E+04  0.16045312451E+04  0.50400001928E-02 0. -1.
        1   -1    0    0  501    0  0.00000000000E+00  0.00000000000E+00 -0.87994735291E+03  0.87994735292E+03  0.50400001928E-02 0.  1.
    10030    2    1    2    0    0  0.00000000000E+00  0.00000000000E+00  0.72458389219E+03  0.24844785980E+04  0.23764705105E+04 0.  0.
        2    1    3    3  502    0  0.46892612352E+03  0.10794628618E+04  0.53334746629E+03  0.12921266576E+04  0.25500000920E-02 0.  1.
       -2    1    3    3    0  502 -0.46892612352E+03 -0.10794628618E+04  0.19123642590E+03  0.11923519405E+04  0.25500000920E-02 0. -1.
</event>
<event>
 5   0  0.1393026E-05  0.2395385E+04  0.7818609E-02  0.8441233E-01
        1   -1    0    0  501    0  0.00000000000E+00  0.00000000000E+00  0.90957479196E+03  0.90957479197E+03  0.50400001928E-02 0.  1.
       -1   -1    0    0    0  501  0.00000000000E+00  0.00000000000E+00 -0.15770747850E+04  0.15770747850E+04  0.50400001928E-02 0. -1.
    10030    2    1    2    0    0  0.00000000000E+00  0.00000000000E+00 -0.66749999301E+03  0.24866495769E+04  0.23953851210E+04 0.  0.
        4    1    3    3  502    0  0.27393811072E+03  0.17755143370E+03 -0.15299995930E+04  0.15644382275E+04  0.12699999809E+01 0. -1.
       -4    1    3    3    0  502 -0.27393811072E+03 -0.17755143370E+03  0.86249960002E+03  0.92221134944E+03  0.12699999809E+01 0.  1.
</event>
<event>
 5   0  0.3345974E-05  0.2399632E+04  0.7818609E-02  0.8439641E-01
        2   -1    0    0  501    0  0.00000000000E+00  0.00000000000E+00  0.22439687143E+04  0.22439687143E+04  0.25500000920E-02 0.  1.
       -2   -1    0    0    0  501  0.00000000000E+00  0.00000000000E+00 -0.64152350704E+03  0.64152350704E+03  0.25500000920E-02 0. -1.
    10030    2    1    2    0    0  0.00000000000E+00  0.00000000000E+00  0.16024452073E+04  0.28854922214E+04  0.23996322046E+04 0.  0.
        4    1    3    3  502    0  0.16227393173E+03 -0.43294539650E+03  0.21325410154E+04  0.21820878398E+04  0.12699999809E+01 0.  1.
       -4    1    3    3    0  502 -0.16227393173E+03  0.43294539650E+03 -0.53009580815E+03  0.70340438155E+03  0.12699999809E+01 0. -1.
</event>
<event>
 5   0  0.1434943E-05  0.2422782E+04  0.7818609E-02  0.8431023E-01
       -1   -1    0    0    0  501  0.00000000000E+00  0.00000000000E+00  0.11109665198E+04  0.11109665198E+04  0.50400001928E-02 0. -1.
        1   -1    0    0  501    0  0.00000000000E+00  0.00000000000E+00 -0.13208933390E+04  0.13208933390E+04  0.50400001928E-02 0.  1.
    10030    2    1    2    0    0  0.00000000000E+00  0.00000000000E+00 -0.20992681922E+03  0.24318598589E+04  0.24227820999E+04 0.  0.
        5    1    3    3  502    0  0.36766582271E+03  0.44309610335E+03 -0.11747587766E+04  0.13082784822E+04  0.46999998093E+01 0.  1.
       -5    1    3    3    0  502 -0.36766582271E+03 -0.44309610335E+03  0.96483195735E+03  0.11235813766E+04  0.46999998093E+01 0. -1.
</event>
<event>
 5   0  0.1434943E-05  0.2319941E+04  0.7818609E-02  0.8470100E-01
        1   -1    0    0  501    0  0.00000000000E+00  0.00000000000E+00  0.12300607958E+04  0.12300607958E+04  0.50400001928E-02 0. -1.
       -1   -1    0    0    0  501  0.00000000000E+00  0.00000000000E+00 -0.10938738282E+04  0.10938738282E+04  0.50400001928E-02 0.  1.
    10030    2    1    2    0    0  0.00000000000E+00  0.00000000000E+00  0.13618696759E+03  0.23239346240E+04  0.23199407851E+04 0.  0.
        5    1    3    3  502    0 -0.93922998606E+03 -0.67863885078E+03  0.12115225406E+03  0.11650766563E+04  0.46999998093E+01 0. -1.
       -5    1    3    3    0  502  0.93922998606E+03  0.67863885078E+03  0.15034713529E+02  0.11588579676E+04  0.46999998093E+01 0.  1.
</event>
<event>
 5   0  0.1434943E-05  0.2392924E+04  0.7818609E-02  0.8442157E-01
        1   -1    0    0  501    0  0.00000000000E+00  0.00000000000E+00  0.16119889200E+04  0.16119889201E+04  0.50400001928E-02 0.  1.
       -1   -1    0    0    0  501  0.00000000000E+00  0.00000000000E+00 -0.88804698122E+03  0.88804698123E+03  0.50400001928E-02 0. -1.
    10030    2    1    2    0    0  0.00000000000E+00  0.00000000000E+00  0.72394193882E+03  0.25000359013E+04  0.23929244821E+04 0.  0.
        5    1    3    3  502    0  0.25986753248E+03 -0.63310622377E+03 -0.66335776846E+03  0.95311082461E+03  0.46999998093E+01 0. -1.
       -5    1    3    3    0  502 -0.25986753248E+03  0.63310622377E+03  0.13872997073E+04  0.15469250767E+04  0.46999998093E+01 0.  1.
</event>
<event>
 5   0  0.3320780E-05  0.2394863E+04  0.7818609E-02  0.8441429E-01
       -2   -1    0    0    0  501  0.00000000000E+00  0.00000000000E+00  0.33814578456E+04  0.33814578456E+04  0.25500000920E-02 0.  1.
        2   -1    0    0  501    0  0.00000000000E+00  0.00000000000E+00 -0.42403090398E+03  0.42403090399E+03  0.25500000920E-02 0. -1.
    10030    2    1    2    0    0  0.00000000000E+00  0.00000000000E+00  0.29574269416E+04  0.38054887496E+04  0.23948633590E+04 0.  0.
        5    1    3    3  502    0  0.71483825473E+03  0.29266789683E+03  0.24804787619E+02  0.77284254266E+03  0.46999998093E+01 0. -1.
       -5    1    3    3    0  502 -0.71483825473E+03 -0.29266789683E+03  0.29326221540E+04  0.30326462069E+04  0.46999998093E+01 0.  1.
</event>
<event>
 5   0  0.3215208E-05  0.2389876E+04  0.7818609E-02  0.8443304E-01
        2   -1    0    0  501    0  0.00000000000E+00  0.00000000000E+00  0.12103817078E+04  0.12103817078E+04  0.25500000920E-02 0. -1.
       -2   -1    0    0    0  501  0.00000000000E+00  0.00000000000E+00 -0.11796913337E+04  0.11796913337E+04  0.25500000920E-02 0.  1.
    10030    2    1    2    0    0  0.00000000000E+00  0.00000000000E+00  0.30690374062E+02  0.23900730415E+04  0.23898759894E+04 0.  0.
        1    1    3    3  502    0 -0.33537171856E+03  0.70217923481E+03  0.92225342884E+03  0.12066819193E+04  0.50400001928E-02 0. -1.
       -1    1    3    3    0  502  0.33537171856E+03 -0.70217923481E+03 -0.89156305478E+03  0.11833911222E+04  0.50400001928E-02 0.  1.
</event>
<event>
 5   0  0.1401596E-05  0.2417883E+04  0.7818609E-02  0.8432839E-01
        1   -1    0    0  501    0  0.00000000000E+00  0.00000000000E+00  0.17545113444E+04  0.17545113444E+04  0.50400001928E-02 0.  1.
       -1   -1    0    0    0  501  0.00000000000E+00  0.00000000000E+00 -0.83301814807E+03  0.83301814809E+03  0.50400001928E-02 0. -1.
    10030    2    1    2    0    0  0.00000000000E+00  0.00000000000E+00  0.92149319636E+03  0.25875294925E+04  0.24178831989E+04 0.  0.
        2    1    3    3  502    0  0.10523711777E+04 -0.22706861663E+03 -0.12783781926E+03  0.10841530152E+04  0.25500000920E-02 0. -1.
       -2    1    3    3    0  502 -0.10523711777E+04  0.22706861663E+03  0.10493310156E+04  0.15033764773E+04  0.25500000920E-02 0.  1.
</event>
<event>
 5   0  0.3320780E-05  0.2400924E+04  0.7818609E-02  0.8439158E-01
       -2   -1    0    0    0  501  0.00000000000E+00  0.00000000000E+00  0.16724762679E+04  0.16724762679E+04  0.25500000920E-02 0.  1.
        2   -1    0    0  501    0  0.00000000000E+00  0.00000000000E+00 -0.86166209672E+03  0.86166209672E+03  0.25500000920E-02 0. -1.
    10030    2    1    2    0    0  0.00000000000E+00  0.00000000000E+00  0.81081417119E+03  0.25341383646E+04  0.24009243284E+04 0.  0.
        5    1    3    3  502    0 -0.43574627059E+03  0.83682221426E+03 -0.37803055267E+03  0.10164031776E+04  0.46999998093E+01 0. -1.
       -5    1    3    3    0  502  0.43574627059E+03 -0.83682221426E+03  0.11888447239E+04  0.15177351871E+04  0.46999998093E+01 0.  1.
</event>
<event>
 5   0  0.3215208E-05  0.2381770E+04  0.7818609E-02  0.8446360E-01
       -2   -1    0    0    0  501  0.00000000000E+00  0.00000000000E+00  0.70087608323E+03  0.70087608323E+03  0.25500000920E-02 0. -1.
        2   -1    0    0  501    0  0.00000000000E+00  0.00000000000E+00 -0.20234779506E+04  0.20234779506E+04  0.25500000920E-02 0.  1.
    10030    2    1    2    0    0  0.00000000000E+00  0.00000000000E+00 -0.13226018674E+04  0.27243540338E+04  0.23817701825E+04 0.  0.
        1    1    3    3  502    0 -0.70605727037E+03 -0.57588474387E+03  0.21584081202E+03  0.93634788589E+03  0.50400001928E-02 0. -1.
       -1    1    3    3    0  502  0.70605727037E+03  0.57588474387E+03 -0.15384426794E+04  0.17880061479E+04  0.50400001928E-02 0.  1.
</event>
<event>
 5   0  0.3215208E-05  0.2382732E+04  0.7818609E-02  0.8445997E-01
       -2   -1    0    0    0  501  0.00000000000E+00  0.00000000000E+00  0.89637659220E+03  0.89637659220E+03  0.25500000920E-02 0.  1.
        2   -1    0    0  501    0  0.00000000000E+00  0.00000000000E+00 -0.15834344070E+04  0.15834344070E+04  0.25500000920E-02 0. -1.
    10030    2    1    2    0    0  0.00000000000E+00  0.00000000000E+00 -0.68705781477E+03  0.24798109992E+04  0.23827324967E+04 0.  0.
        1    1    3    3  502    0  0.15973120955E+03 -0.18859635648E+03  0.86940319627E+03  0.90384985628E+03  0.50400001928E-02 0.  1.
       -1    1    3    3    0  502 -0.15973120955E+03  0.18859635648E+03 -0.15564610110E+04  0.15759611429E+04  0.50400001928E-02 0. -1.
</event>
<event>
 5   0  0.3347728E-05  0.2393244E+04  0.7818609E-02  0.8442037E-01
       -2   -1    0    0    0  501  0.00000000000E+00  0.00000000000E+00  0.67788866174E+03  0.67788866174E+03  0.25500000920E-02 0. -1.
        2   -1    0    0  501    0  0.00000000000E+00  0.00000000000E+00 -0.21123005462E+04  0.21123005462E+04  0.25500000920E-02 0.  1.
    10030    2    1    2    0    0  0.00000000000E+00  0.00000000000E+00 -0.14344118845E+04  0.27901892080E+04  0.23932443172E+04 0.  0.
        3    1    3    3  502    0  0.23333468214E+01 -0.11486680813E+04 -0.11081792906E+04  0.15960905851E+04  0.10100000352E+00 0.  1.
       -3    1    3    3    0  502 -0.23333468214E+01  0.11486680813E+04 -0.32623259391E+03  0.11940986229E+04  0.10100000352E+00 0. -1.
</event>
<event>
 5   0  0.1393026E-05  0.2435563E+04  0.7818609E-02  0.8426308E-01
        1   -1    0    0  501    0  0.00000000000E+00  0.00000000000E+00  0.16290753133E+04  0.16290753133E+04  0.50400001928E-02 0. -1.
       -1   -1    0    0    0  501  0.00000000000E+00  0.00000000000E+00 -0.91032750896E+03  0.91032750897E+03  0.50400001928E-02 0.  1.
    10030    2    1    2    0    0  0.00000000000E+00  0.00000000000E+00  0.71874780433E+03  0.25394028223E+04  0.24355632383E+04 0.  0.
        4    1    3    3  502    0  0.63218457368E+03  0.61792163900E+03  0.12326425611E+04  0.15168697318E+04  0.12699999809E+01 0. -1.
       -4    1    3    3    0  502 -0.63218457368E+03 -0.61792163900E+03 -0.51389475672E+03  0.10225330904E+04  0.12699999809E+01 0.  1.
</event>
<event>
 5   0  0.1393026E-05  0.2390576E+04  0.7818609E-02  0.8443040E-01
        1   -1    0    0  501    0  0.00000000000E+00  0.00000000000E+00  0.28068322916E+04  0.28068322916E+04  0.50400001928E-02 0.  1.
       -1   -1    0    0    0  501  0.00000000000E+00  0.00000000000E+00 -0.50901285972E+03  0.50901285975E+03  0.50400001928E-02 0. -1.
    10030    2    1    2    0    0  0.00000000000E+00  0.00000000000E+00  0.22978194319E+04  0.33158451513E+04  0.23905762749E+04 0.  0.
        4    1    3    3  502    0 -0.19976300753E+03 -0.31961839453E+03 -0.42442819302E+03  0.56762847112E+03  0.12699999809E+01 0. -1.
       -4    1    3    3    0  502  0.19976300753E+03  0.31961839453E+03  0.27222476249E+04  0.27482166802E+04  0.12699999809E+01 0.  1.
</event>
<event>
 5   0  0.1407158E-05  0.2440789E+04  0.7818609E-02  0.8424389E-01
       -1   -1    0    0    0  501  0.00000000000E+00  0.00000000000E+00  0.75967520926E+03  0.75967520927E+03  0.50400001928E-02 0.  1.
        1   -1    0    0  501    0  0.00000000000E+00  0.00000000000E+00 -0.19605264353E+04  0.19605264353E+04  0.50400001928E-02 0. -1.
    10030    2    1    2    0    0  0.00000000000E+00  0.00000000000E+00 -0.12008512260E+04  0.27202016446E+04  0.24407894870E+04 0.  0.
        1    1    3    3  502    0  0.14202132163E+03 -0.81969848509E+03 -0.15955521280E+04  0.17994060841E+04  0.50400001928E-02 0. -1.
       -1    1    3    3    0  502 -0.14202132163E+03  0.81969848509E+03  0.39470090193E+03  0.92079556051E+03  0.50400001928E-02 0.  1.
</event>
<event>
 5   0  0.3320780E-05  0.2364808E+04  0.7818609E-02  0.8452798E-01
        2   -1    0    0  501    0  0.00000000000E+00  0.00000000000E+00  0.12523424919E+04  0.12523424919E+04  0.25500000920E-02 0.  1.
       -2   -1    0    0    0  501  0.00000000000E+00  0.00000000000E+00 -0.11163715260E+04  0.11163715260E+04  0.25500000920E-02 0. -1.
    10030    2    1    2    0    0  0.00000000000E+00  0.00000000000E+00  0.13597096588E+03  0.23687140180E+04  0.23648082365E+04 0.  0.
        5    1    3    3  502    0  0.26403494447E+03  0.65857041128E+03  0.10153954230E+04  0.12387410518E+04  0.46999998093E+01 0.  1.
       -5    1    3    3    0  502 -0.26403494447E+03 -0.65857041128E+03 -0.87942445708E+03  0.11299729661E+04  0.46999998093E+01 0. -1.
</event>
<event>
 5   0  0.1407158E-05  0.2369893E+04  0.7818609E-02  0.8450862E-01
       -1   -1    0    0    0  501  0.00000000000E+00  0.00000000000E+00  0.74568588075E+03  0.74568588077E+03  0.50400001928E-02 0.  1.
        1   -1    0    0  501    0  0.00000000000E+00  0.00000000000E+00 -0.18829616637E+04  0.18829616638E+04  0.50400001928E-02 0. -1.
    10030    2    1    2    0    0  0.00000000000E+00  0.00000000000E+00 -0.11372757830E+04  0.26286475445E+04  0.23698927627E+04 0.  0.
        1    1    3    3  502    0 -0.10834944751E+04 -0.36787825581E+03 -0.22711859314E+03  0.11665665622E+04  0.50400001928E-02 0.  1.
       -1    1    3    3    0  502  0.10834944751E+04  0.36787825581E+03 -0.91015718986E+03  0.14620809823E+04  0.50400001928E-02 0. -1.
</event>
<event>
 5   0  0.3320780E-05  0.2400582E+04  0.7818609E-02  0.8439286E-01
        2   -1    0    0  501    0  0.00000000000E+00  0.00000000000E+00  0.21549366212E+04  0.21549366212E+04  0.25500000920E-02 0.  1.
       -2   -1    0    0    0  501  0.00000000000E+00  0.00000000000E+00 -0.66855706475E+03  0.66855706475E+03  0.25500000920E-02 0. -1.
    10030    2    1    2    0    0  0.00000000000E+00  0.00000000000E+00  0.14863795565E+04  0.28234936860E+04  0.24005816814E+04 0.  0.
        5    1    3    3  502    0 -0.63307926386E+03 -0.64856625406E+03 -0.18236644441E+03  0.92450373189E+03  0.46999998093E+01 0. -1.
       -5    1    3    3    0  502  0.63307926386E+03  0.64856625406E+03  0.16687460009E+04  0.18989899541E+04  0.46999998093E+01 0.  1.
</event>
<event>
 5   0  0.3215208E-05  0.2412550E+04  0.7818609E-02  0.8434820E-01
        2   -1    0    0  501    0  0.00000000000E+00  0.00000000000E+00  0.15865568453E+04  0.15865568453E+04  0.25500000920E-02 0. -1.
       -2   -1    0    0    0  501  0.00000000000E+00  0.00000000000E+00 -0.91714290212E+03  0.91714290212E+03  0.25500000920E-02 0.  1.
    10030    2    1    2    0    0  0.00000000000E+00  0.00000000000E+00  0.66941394320E+03  0.25036997474E+04  0.24125499783E+04 0.  0.
        1    1    3    3  502    0  0.16448495420E+03  0.49636200006E+03  0.14628231139E+04  0.15534741703E+04  0.50400001928E-02 0. -1.
       -1    1    3    3    0  502 -0.16448495420E+03 -0.49636200006E+03 -0.79340917069E+03  0.95022557713E+03  0.50400001928E-02 0.  1.
</event>
<event>
 5   0  0.3345974E-05  0.2388768E+04  0.7818609E-02  0.8443721E-01
       -2   -1    0    0    0  501  0.00000000000E+00  0.00000000000E+00  0.17986026379E+04  0.17986026379E+04  0.25500000920E-02 0.  1.
        2   -1    0    0  501    0  0.00000000000E+00  0.00000000000E+00 -0.79314512100E+03  0.79314512100E+03  0.25500000920E-02 0. -1.
    10030    2    1    2    0    0  0.00000000000E+00  0.00000000000E+00  0.10054575169E+04  0.25917477589E+04  0.23887678053E+04 0.  0.
        4    1    3    3  502    0 -0.82477098794E+03  0.70931074832E+03 -0.32309504135E+02  0.10883080617E+04  0.12699999809E+01 0. -1.
       -4    1    3    3    0  502  0.82477098794E+03 -0.70931074832E+03  0.10377670210E+04  0.15034396972E+04  0.12699999809E+01 0.  1.
</event>
<event>
 5   0  0.3320780E-05  0.2464981E+04  0.7818609E-02  0.8415569E-01
       -2   -1    0    0    0  501  0.00000000000E+00  0.00000000000E+00  0.60835333114E+03  0.60835333114E+03  0.25500000920E-02 0.  1.
        2   -1    0    0  501    0  0.00000000000E+00  0.00000000000E+00 -0.24969572869E+04  0.24969572869E+04  0.25500000920E-02 0. -1.
    10030    2    1    2    0    0  0.00000000000E+00  0.00000000000E+00 -0.18886039558E+04  0.31053106180E+04  0.24649805542E+04 0.  0.
        5    1    3    3  502    0  0.79550475508E+02 -0.78368419537E+03  0.24983917637E+03  0.82639633365E+03  0.46999998093E+01 0.  1.
       -5    1    3    3    0  502 -0.79550475508E+02  0.78368419537E+03 -0.21384431321E+04  0.22789142844E+04  0.46999998093E+01 0. -1.
</event>
<event>
 5   0  0.1393026E-05  0.2318422E+04  0.7818609E-02  0.8470693E-01
        1   -1    0    0  501    0  0.00000000000E+00  0.00000000000E+00  0.84059220423E+03  0.84059220424E+03  0.50400001928E-02 0. -1.
       -1   -1    0    0    0  501  0.00000000000E+00  0.00000000000E+00 -0.15985997723E+04  0.15985997723E+04  0.50400001928E-02 0.  1.
    10030    2    1    2    0    0  0.00000000000E+00  0.00000000000E+00 -0.75800756806E+03  0.24391919765E+04  0.23184223138E+04 0.  0.
        4    1    3    3  502    0  0.11409385154E+03 -0.26871067098E+03 -0.15592917856E+04  0.15863843535E+04  0.12699999809E+01 0.  1.
       -4    1    3    3    0  502 -0.11409385154E+03  0.26871067098E+03  0.80128421754E+03  0.85280762299E+03  0.12699999809E+01 0. -1.
</event>
<event>
 5   0  0.3215208E-05  0.2392570E+04  0.7818609E-02  0.8442291E-01
       -2   -1    0    0    0  501  0.00000000000E+00  0.00000000000E+00  0.10796831839E+04  0.10796831839E+04  0.25500000920E-02 0. -1.
        2   -1    0    0  501    0  0.00000000000E+00  0.00000000000E+00 -0.13254792767E+04  0.13254792767E+04  0.25500000920E-02 0.  1.
    10030    2    1    2    0    0  0.00000000000E+00  0.00000000000E+00 -0.24579609285E+03  0.24051624606E+04  0.23925699034E+04 0.  0.
        1    1    3    3  502    0  0.41644440591E+03  0.79169895207E+03  0.67556480297E+03  0.11209821484E+04  0.50400001928E-02 0. -1.
       -1    1    3    3    0  502 -0.41644440591E+03 -0.79169895207E+03 -0.92136089583E+03  0.12841803122E+04  0.50400001928E-02 0.  1.
</event>
<event>
 5   0  0.1393026E-05  0.2396880E+04  0.7818609E-02  0.8440673E-01
        1   -1    0    0  501    0  0.00000000000E+00  0.00000000000E+00  0.17340198008E+04  0.17340198008E+04  0.50400001928E-02 0.  1.
       -1   -1    0    0    0  501  0.00000000000E+00  0.00000000000E+00 -0.82828231036E+03  0.82828231037E+03  0.50400001928E-02 0. -1.
    10030    2    1    2    0    0  0.00000000000E+00  0.00000000000E+00  0.90573749048E+03  0.25623021112E+04  0.23968795772E+04 0.  0.
        4    1    3    3  502    0  0.11317149810E+03 -0.11687403582E+04  0.70919746845E+03  0.13717596273E+04  0.12699999809E+01 0. -1.
       -4    1    3    3    0  502 -0.11317149810E+03  0.11687403582E+04  0.19654002203E+03  0.11905424839E+04  0.12699999809E+01 0.  1.
</event>
<event>
 5   0  0.1401596E-05  0.2396902E+04  0.7818609E-02  0.8440664E-01
        1   -1    0    0  501    0  0.00000000000E+00  0.00000000000E+00  0.16311626901E+04  0.16311626901E+04  0.50400001928E-02 0. -1.
       -1   -1    0    0    0  501  0.00000000000E+00  0.00000000000E+00 -0.88052812590E+03  0.88052812592E+03  0.50400001928E-02 0.  1.
    10030    2    1    2    0    0  0.00000000000E+00  0.00000000000E+00  0.75063456421E+03  0.25116908160E+04  0.23969018558E+04 0.  0.
        2    1    3    3  502    0  0.29353074393E+03  0.80832100886E+03 -0.49936787714E+03  0.99444025850E+03  0.25500000920E-02 0.  1.
       -2    1    3    3    0  502 -0.29353074393E+03 -0.80832100886E+03  0.12500024413E+04  0.15172505575E+04  0.25500000920E-02 0. -1.
</event>
<event>
 5   0  0.1401596E-05  0.2397749E+04  0.7818609E-02  0.8440347E-01
       -1   -1    0    0    0  501  0.00000000000E+00  0.00000000000E+00  0.98484041851E+03  0.98484041852E+03  0.50400001928E-02 0. -1.
        1   -1    0    0  501    0  0.00000000000E+00  0.00000000000E+00 -0.14594247292E+04  0.14594247292E+04  0.50400001928E-02 0.  1.
    10030    2    1    2    0    0  0.00000000000E+00  0.00000000000E+00 -0.47458431066E+03  0.24442651477E+04  0.23977493289E+04 0.  0.
        2    1    3    3  502    0  0.11500568264E+04  0.33810153486E+03 -0.21802821557E+03  0.12183922417E+04  0.25500000920E-02 0. -1.
       -2    1    3    3    0  502 -0.11500568264E+04 -0.33810153486E+03 -0.25655609509E+03  0.12258729060E+04  0.25500000920E-02 0.  1.
</event>
<event>
 5   0  0.1407158E-05  0.2400802E+04  0.7818609E-02  0.8439203E-01
       -1   -1    0    0    0  501  0.00000000000E+00  0.00000000000E+00  0.67904011331E+03  0.67904011332E+03  0.50400001928E-02 0.  1.
        1   -1    0    0  501    0  0.00000000000E+00  0.00000000000E+00 -0.21220583712E+04  0.21220583712E+04  0.50400001928E-02 0. -1.
    10030    2    1    2    0    0  0.00000000000E+00  0.00000000000E+00 -0.14430182579E+04  0.28010984845E+04  0.24008021633E+04 0.  0.
        1    1    3    3  502    0  0.27622698529E+03 -0.57300812299E+03  0.46622598025E+03  0.78867377356E+03  0.50400001928E-02 0.  1.
       -1    1    3    3    0  502 -0.27622698529E+03  0.57300812299E+03 -0.19092442381E+04  0.20124247109E+04  0.50400001928E-02 0. -1.
</event>
<event>
 5   0  0.1393026E-05  0.2382559E+04  0.7818609E-02  0.8446062E-01
       -1   -1    0    0    0  501  0.00000000000E+00  0.00000000000E+00  0.10052193799E+04  0.10052193799E+04  0.50400001928E-02 0.  1.
        1   -1    0    0  501    0  0.00000000000E+00  0.00000000000E+00 -0.14117786270E+04  0.14117786270E+04  0.50400001928E-02 0. -1.
    10030    2    1    2    0    0  0.00000000000E+00  0.00000000000E+00 -0.40655924717E+03  0.24169980069E+04  0.23825593264E+04 0.  0.
        4    1    3    3  502    0 -0.94814784300E+03 -0.57200212317E+03 -0.64891836425E+03  0.12834591608E+04  0.12699999809E+01 0. -1.
       -4    1    3    3    0  502  0.94814784300E+03  0.57200212317E+03  0.24235911708E+03  0.11335388461E+04  0.12699999809E+01 0.  1.
</event>
<event>
 5   0  0.3345974E-05  0.2407062E+04  0.7818609E-02  0.8436865E-01
        2   -1    0    0  501    0  0.00000000000E+00  0.00000000000E+00  0.14724518174E+04  0.14724518174E+04  0.25500000920E-02 0. -1.
       -2   -1    0    0    0  501  0.00000000000E+00  0.00000000000E+00 -0.98372413228E+03  0.98372413228E+03  0.25500000920E-02 0.  1.
    10030    2    1    2    0    0  0.00000000000E+00  0.00000000000E+00  0.48872768509E+03  0.24561759496E+04  0.24070615998E+04 0.  0.
        4    1    3    3  502    0  0.33230216026E+03  0.11347516860E+04  0.47344098658E+03  0.12736695393E+04  0.12699999809E+01 0.  1.
       -4    1    3    3    0  502 -0.33230216026E+03 -0.11347516860E+04  0.15286698507E+02  0.11825064104E+04  0.12699999809E+01 0. -1.
</event>
<event>
 5   0  0.3345974E-05  0.2408675E+04  0.7818609E-02  0.8436263E-01
        2   -1    0    0  501    0  0.00000000000E+00  0.00000000000E+00  0.12466626959E+04  0.12466626959E+04  0.25500000920E-02 0. -1.
       -2   -1    0    0    0  501  0.00000000000E+00  0.00000000000E+00 -0.11634494095E+04  0.11634494095E+04  0.25500000920E-02 0.  1.
    10030    2    1    2    0    0  0.00000000000E+00  0.00000000000E+00  0.83213286358E+02  0.24101121054E+04  0.24086751357E+04 0.  0.
        4    1    3    3  502    0  0.33295967418E+03  0.70133842389E+03 -0.87964325107E+03  0.11732483077E+04  0.12699999809E+01 0.  1.
       -4    1    3    3    0  502 -0.33295967418E+03 -0.70133842389E+03  0.96285653743E+03  0.12368637977E+04  0.12699999809E+01 0. -1.
</event>
<event>
 5   0  0.1434943E-05  0.2380665E+04  0.7818609E-02  0.8446778E-01
        1   -1    0    0  501    0  0.00000000000E+00  0.00000000000E+00  0.15215624917E+04  0.15215624917E+04  0.50400001928E-02 0.  1.
       -1   -1    0    0    0  501  0.00000000000E+00  0.00000000000E+00 -0.93120797763E+03  0.93120797764E+03  0.50400001928E-02 0. -1.
    10030    2    1    2    0    0  0.00000000000E+00  0.00000000000E+00  0.59035451408E+03  0.24527704694E+04  0.23806647229E+04 0.  0.
        5    1    3    3  502    0 -0.85333637066E+03 -0.77740008524E+03  0.59437828252E+03  0.12983995867E+04  0.46999998093E+01 0.  1.
       -5    1    3    3    0  502  0.85333637066E+03  0.77740008524E+03 -0.40237684326E+01  0.11543708827E+04  0.46999998093E+01 0. -1.
</event>
<event>
 5   0  0.3310037E-05  0.2303353E+04  0.7818609E-02  0.8476600E-01
       -2   -1    0    0    0  501  0.00000000000E+00  0.00000000000E+00  0.94342608696E+03  0.94342608697E+03  0.25500000920E-02 0.  1.
        2   -1    0    0  501    0  0.00000000000E+00  0.00000000000E+00 -0.14058954902E+04  0.14058954902E+04  0.25500000920E-02 0. -1.
    10030    2    1    2    0    0  0.00000000000E+00  0.00000000000E+00 -0.46246940324E+03  0.23493215772E+04  0.23033527572E+04 0.  0.
        2    1    3    3  502    0 -0.20352699973E+03  0.64084296222E+03  0.72244207866E+03  0.98692730172E+03  0.25500000920E-02 0.  1.
       -2    1    3    3    0  502  0.20352699973E+03 -0.64084296222E+03 -0.11849114819E+04  0.13623942755E+04  0.25500000920E-02 0. -1.
</event>
<event>
 5   0  0.1434943E-05  0.2416785E+04  0.7818609E-02  0.8433246E-01
        1   -1    0    0  501    0  0.00000000000E+00  0.00000000000E+00  0.16047957118E+04  0.16047957118E+04  0.50400001928E-02 0.  1.
       -1   -1    0    0    0  501  0.00000000000E+00  0.00000000000E+00 -0.90990547183E+03  0.90990547184E+03  0.50400001928E-02 0. -1.
    10030    2    1    2    0    0  0.00000000000E+00  0.00000000000E+00  0.69489023999E+03  0.25147011837E+04  0.24167849713E+04 0.  0.
        5    1    3    3  502    0 -0.26704151872E+03 -0.30215950183E+03 -0.83781928070E+03  0.92982513108E+03  0.46999998093E+01 0. -1.
       -5    1    3    3    0  502  0.26704151872E+03  0.30215950183E+03  0.15327095207E+04  0.15848760526E+04  0.46999998093E+01 0.  1.
</event>
<event>
 5   0  0.3215208E-05  0.2307612E+04  0.7818609E-02  0.8474926E-01
       -2   -1    0    0    0  501  0.00000000000E+00  0.00000000000E+00  0.68412478789E+03  0.68412478790E+03  0.25500000920E-02 0.  1.
        2   -1    0    0  501    0  0.00000000000E+00  0.00000000000E+00 -0.19459437534E+04  0.19459437534E+04  0.25500000920E-02 0. -1.
    10030    2    1    2    0    0  0.00000000000E+00  0.00000000000E+00 -0.12618189655E+04  0.26300685413E+04  0.23076120623E+04 0.  0.
        1    1    3    3  502    0 -0.69969981103E+03 -0.50043393134E+03 -0.15072874763E+04  0.17354911355E+04  0.50400001928E-02 0. -1.
       -1    1    3    3    0  502  0.69969981103E+03  0.50043393134E+03  0.24546851076E+03  0.89457740582E+03  0.50400001928E-02 0.  1.
</event>
<event>
 5   0  0.3345974E-05  0.2321309E+04  0.7818609E-02  0.8469566E-01
        2   -1    0    0  501    0  0.00000000000E+00  0.00000000000E+00  0.11247223764E+04  0.11247223764E+04  0.25500000920E-02 0.  1.
       -2   -1    0    0    0  501  0.00000000000E+00  0.00000000000E+00 -0.11977350596E+04  0.11977350596E+04  0.25500000920E-02 0. -1.
    10030    2    1    2    0    0  0.00000000000E+00  0.00000000000E+00 -0.73012683211E+02  0.23224574361E+04  0.23213094775E+04 0.  0.
        4    1    3    3  502    0 -0.10761938978E+04 -0.31489155594E+03  0.26325459632E+03  0.11518049284E+04  0.12699999809E+01 0. -1.
       -4    1    3    3    0  502  0.10761938978E+04  0.31489155594E+03 -0.33626727953E+03  0.11706525077E+04  0.12699999809E+01 0.  1.
</event>
<event>
 5   0  0.1434943E-05  0.2402866E+04  0.7818609E-02  0.8438431E-01
       -1   -1    0    0    0  501  0.00000000000E+00  0.00000000000E+00  0.71279270801E+03  0.71279270802E+03  0.50400001928E-02 0.  1.
        1   -1    0    0  501    0  0.00000000000E+00  0.00000000000E+00 -0.20250509541E+04  0.20250509541E+04  0.50400001928E-02 0. -1.
    10030    2    1    2    0    0  0.00000000000E+00  0.00000000000E+00 -0.13122582461E+04  0.27378436621E+04  0.24028662497E+04 0.  0.
        5    1    3    3  502    0 -0.12097814400E+03  0.11845700266E+04 -0.47390369505E+03  0.12815805326E+04  0.46999998093E+01 0.  1.
       -5    1    3    3    0  502  0.12097814400E+03 -0.11845700266E+04 -0.83835455104E+03  0.14562631296E+04  0.46999998093E+01 0. -1.
</event>
<event>
 5   0  0.3345974E-05  0.2377151E+04  0.7818609E-02  0.8448108E-01
       -2   -1    0    0    0  501  0.00000000000E+00  0.00000000000E+00  0.94533966114E+03  0.94533966114E+03  0.25500000920E-02 0.  1.
        2   -1    0    0  501    0  0.00000000000E+00  0.00000000000E+00 -0.14943960844E+04  0.14943960844E+04  0.25500000920E-02 0. -1.
    10030    2    1    2    0    0  0.00000000000E+00  0.00000000000E+00 -0.54905642324E+03  0.24397357455E+04  0.23771511420E+04 0.  0.
        4    1    3    3  502    0  0.74968593957E+03  0.86150023401E+03 -0.61259156009E+03  0.12959481832E+04  0.12699999809E+01 0.  1.
       -4    1    3    3    0  502 -0.74968593957E+03 -0.86150023401E+03  0.63535136851E+02  0.11437875623E+04  0.12699999809E+01 0. -1.
</event>
<event>
 5   0  0.3320780E-05  0.2366251E+04  0.7818609E-02  0.8452248E-01
       -2   -1    0    0    0  501  0.00000000000E+00  0.00000000000E+00  0.10317250710E+04  0.10317250710E+04  0.25500000920E-02 0. -1.
        2   -1    0    0  501    0  0.00000000000E+00  0.00000000000E+00 -0.13567432997E+04  0.13567432997E+04  0.25500000920E-02 0.  1.
    10030    2    1    2    0    0  0.00000000000E+00  0.00000000000E+00 -0.32501822865E+03  0.23884683707E+04  0.23662511086E+04 0.  0.
        5    1    3    3  502    0 -0.13653975267E+03 -0.38840410622E+03 -0.12820956555E+04  0.13465853904E+04  0.46999998093E+01 0.  1.
       -5    1    3    3    0  502  0.13653975267E+03  0.38840410622E+03  0.95707742681E+03  0.10418829803E+04  0.46999998093E+01 0. -1.
</event>
<event>
 5   0  0.3215208E-05  0.2438672E+04  0.7818609E-02  0.8425165E-01
        2   -1    0    0  501    0  0.00000000000E+00  0.00000000000E+00  0.16648661667E+04  0.16648661667E+04  0.25500000920E-02 0. -1.
       -2   -1    0    0    0  501  0.00000000000E+00  0.00000000000E+00 -0.89303319598E+03  0.89303319598E+03  0.25500000920E-02 0.  1.
    10030    2    1    2    0    0  0.00000000000E+00  0.00000000000E+00  0.77183297074E+03  0.25578993627E+04  0.24386723878E+04 0.  0.
        1    1    3    3  502    0 -0.85944778199E+03  0.18596844647E+03  0.12719312946E+04  0.15463000910E+04  0.50400001928E-02 0. -1.
       -1    1    3    3    0  502  0.85944778199E+03 -0.18596844647E+03 -0.50009832387E+03  0.10115992718E+04  0.50400001928E-02 0.  1.
</event>
<event>
 5   0  0.1393026E-05  0.2390224E+04  0.7818609E-02  0.8443173E-01
        1   -1    0    0  501    0  0.00000000000E+00  0.00000000000E+00  0.97407685522E+03  0.97407685524E+03  0.50400001928E-02 0.  1.
       -1   -1    0    0    0  501  0.00000000000E+00  0.00000000000E+00 -0.14663041193E+04  0.14663041194E+04  0.50400001928E-02 0. -1.
    10030    2    1    2    0    0  0.00000000000E+00  0.00000000000E+00 -0.49222726412E+03  0.24403809746E+04  0.23902241781E+04 0.  0.
        4    1    3    3  502    0 -0.51689537212E+03  0.40158651254E+02 -0.13455091204E+04  0.14419396482E+04  0.12699999809E+01 0. -1.
       -4    1    3    3    0  502  0.51689537212E+03 -0.40158651254E+02  0.85328185632E+03  0.99844132638E+03  0.12699999809E+01 0.  1.
</event>
<event>
 5   0  0.3215208E-05  0.2413657E+04  0.7818609E-02  0.8434408E-01
        2   -1    0    0  501    0  0.00000000000E+00  0.00000000000E+00  0.11267424241E+04  0.11267424241E+04  0.25500000920E-02 0. -1.
       -2   -1    0    0    0  501  0.00000000000E+00  0.00000000000E+00 -0.12926073365E+04  0.12926073365E+04  0.25500000920E-02 0.  1.
    10030    2    1    2    0    0  0.00000000000E+00  0.00000000000E+00 -0.16586491242E+03  0.24193497607E+04  0.24136574105E+04 0.  0.
        1    1    3    3  502    0 -0.12078801858E+03  0.10512841478E+04 -0.66451407945E+03  0.12495467445E+04  0.50400001928E-02 0. -1.
       -1    1    3    3    0  502  0.12078801858E+03 -0.10512841478E+04  0.49864916703E+03  0.11698030162E+04  0.50400001928E-02 0.  1.
</event>
<event>
 5   0  0.1401596E-05  0.2392149E+04  0.7818609E-02  0.8442449E-01
       -1   -1    0    0    0  501  0.00000000000E+00  0.00000000000E+00  0.16539480076E+04  0.16539480076E+04  0.50400001928E-02 0.  1.
        1   -1    0    0  501    0  0.00000000000E+00  0.00000000000E+00 -0.86495747938E+03  0.86495747939E+03  0.50400001928E-02 0. -1.
    10030    2    1    2    0    0  0.00000000000E+00  0.00000000000E+00  0.78899052821E+03  0.25189054870E+04  0.23921494098E+04 0.  0.
        2    1    3    3  502    0  0.83483835829E+03  0.21760600384E+03 -0.47782614987E+03  0.98621766710E+03  0.25500000920E-02 0. -1.
       -2    1    3    3    0  502 -0.83483835829E+03 -0.21760600384E+03  0.12668166781E+04  0.15326878199E+04  0.25500000920E-02 0.  1.
</event>
<event>
 5   0  0.3347728E-05  0.2409433E+04  0.7818609E-02  0.8435980E-01
       -2   -1    0    0    0  501  0.00000000000E+00  0.00000000000E+00  0.11427627104E+04  0.11427627104E+04  0.25500000920E-02 0. -1.
        2   -1    0    0  501    0  0.00000000000E+00  0.00000000000E+00 -0.12700292929E+04  0.12700292929E+04  0.25500000920E-02 0.  1.
    10030    2    1    2    0    0  0.00000000000E+00  0.00000000000E+00 -0.12726658250E+03  0.24127920032E+04  0.24094332254E+04 0.  0.
        3    1    3    3  502    0  0.83071070104E+02 -0.78054800554E+03  0.85152585137E+03  0.11581244654E+04  0.10100000352E+00 0. -1.
       -3    1    3    3    0  502 -0.83071070104E+02  0.78054800554E+03 -0.97879243387E+03  0.12546675378E+04  0.10100000352E+00 0.  1.
</event>
<event>
 5   0  0.1393026E-05  0.2393381E+04  0.7818609E-02  0.8441986E-01
        1   -1    0    0  501    0  0.00000000000E+00  0.00000000000E+00  0.10968361154E+04  0.10968361154E+04  0.50400001928E-02 0.  1.
       -1   -1    0    0    0  501  0.00000000000E+00  0.00000000000E+00 -0.13056360072E+04  0.13056360072E+04  0.50400001928E-02 0. -1.
    10030    2    1    2    0    0  0.00000000000E+00  0.00000000000E+00 -0.20879989184E+03  0.24024721226E+04  0.23933814792E+04 0.  0.
        4    1    3    3  502    0 -0.88133279931E+03 -0.79138400286E+03 -0.27543187969E+03  0.12161005207E+04  0.12699999809E+01 0. -1.
       -4    1    3    3    0  502  0.88133279931E+03  0.79138400286E+03  0.66631987859E+02  0.11863716019E+04  0.12699999809E+01 0.  1.
</event>
<event>
 5   0  0.1393026E-05  0.2391893E+04  0.7818609E-02  0.8442545E-01
       -1   -1    0    0    0  501  0.00000000000E+00  0.00000000000E+00  0.72678967625E+03  0.72678967627E+03  0.50400001928E-02 0. -1.
        1   -1    0    0  501    0  0.00000000000E+00  0.00000000000E+00 -0.19679535988E+04  0.19679535988E+04  0.50400001928E-02 0.  1.
    10030    2    1    2    0    0  0.00000000000E+00  0.00000000000E+00 -0.12411639226E+04  0.26947432751E+04  0.23918932744E+04 0.  0.
        4    1    3    3  502    0 -0.17864105848E+03 -0.10465922833E+03  0.70644474409E+03  0.73616028907E+03  0.12699999809E+01 0. -1.
       -4    1    3    3    0  502  0.17864105848E+03  0.10465922833E+03 -0.19476086667E+04  0.19585829860E+04  0.12699999809E+01 0.  1.
</event>
<event>
 5   0  0.3215208E-05  0.2353447E+04  0.7818609E-02  0.8457141E-01
        2   -1    0    0  501    0  0.00000000000E+00  0.00000000000E+00  0.10874888153E+04  0.10874888153E+04  0.25500000920E-02 0.  1.
       -2   -1    0    0    0  501  0.00000000000E+00  0.00000000000E+00 -0.12732800535E+04  0.12732800535E+04  0.25500000920E-02 0. -1.
    10030    2    1    2    0    0  0.00000000000E+00  0.00000000000E+00 -0.18579123818E+03  0.23607688688E+04  0.23534466783E+04 0.  0.
        1    1    3    3  502    0 -0.11454426880E+04 -0.86691031808E+01 -0.36311024503E+03  0.12016501799E+04  0.50400001928E-02 0. -1.
       -1    1    3    3    0  502  0.11454426880E+04  0.86691031808E+01  0.17731900685E+03  0.11591186889E+04  0.50400001928E-02 0.  1.
</event>
<event>
 5   0  0.3345974E-05  0.2412627E+04  0.7818609E-02  0.8434791E-01
       -2   -1    0    0    0  501  0.00000000000E+00  0.00000000000E+00  0.10549035823E+04  0.10549035823E+04  0.25500000920E-02 0.  1.
        2   -1    0    0  501    0  0.00000000000E+00  0.00000000000E+00 -0.13794553951E+04  0.13794553951E+04  0.25500000920E-02 0. -1.
    10030    2    1    2    0    0  0.00000000000E+00  0.00000000000E+00 -0.32455181278E+03  0.24343589774E+04  0.24126271472E+04 0.  0.
        4    1    3    3  502    0 -0.39294565480E+03  0.96957338802E+03  0.44372698375E+03  0.11363864182E+04  0.12699999809E+01 0.  1.
       -4    1    3    3    0  502  0.39294565480E+03 -0.96957338802E+03 -0.76827879654E+03  0.12979725592E+04  0.12699999809E+01 0. -1.
</event>
<event>
 5   0  0.1434943E-05  0.2408706E+04  0.7818609E-02  0.8436251E-01
       -1   -1    0    0    0  501  0.00000000000E+00  0.00000000000E+00  0.15672066280E+04  0.15672066280E+04  0.50400001928E-02 0. -1.
        1   -1    0    0  501    0  0.00000000000E+00  0.00000000000E+00 -0.92551048300E+03  0.92551048302E+03  0.50400001928E-02 0.  1.
    10030    2    1    2    0    0  0.00000000000E+00  0.00000000000E+00  0.64169614500E+03  0.24927171110E+04  0.24087060122E+04 0.  0.
        5    1    3    3  502    0 -0.11535685064E+04  0.33455752211E+02 -0.35553620180E+02  0.11546106427E+04  0.46999998093E+01 0.  1.
       -5    1    3    3    0  502  0.11535685064E+04 -0.33455752211E+02  0.67724976518E+03  0.13381064684E+04  0.46999998093E+01 0. -1.
</event>
<event>
 5   0  0.3215208E-05  0.2523896E+04  0.7818609E-02  0.8394521E-01
        2   -1    0    0  501    0  0.00000000000E+00  0.00000000000E+00  0.18679810510E+04  0.18679810510E+04  0.25500000920E-02 0. -1.
       -2   -1    0    0    0  501  0.00000000000E+00  0.00000000000E+00 -0.85253183863E+03  0.85253183864E+03  0.25500000920E-02 0.  1.
    10030    2    1    2    0    0  0.00000000000E+00  0.00000000000E+00  0.10154492124E+04  0.27205128897E+04  0.25238964479E+04 0.  0.
        1    1    3    3  502    0  0.60341258284E+03  0.11219109188E+03  0.16962647352E+04  0.18038868141E+04  0.50400001928E-02 0. -1.
       -1    1    3    3    0  502 -0.60341258284E+03 -0.11219109188E+03 -0.68081552282E+03  0.91662607554E+03  0.50400001928E-02 0.  1.
</event>
<event>
 5   0  0.3347728E-05  0.2363241E+04  0.7818609E-02  0.8453395E-01
        2   -1    0    0  501    0  0.00000000000E+00  0.00000000000E+00  0.14134380985E+04  0.14134380985E+04  0.25500000920E-02 0. -1.
       -2   -1    0    0    0  501  0.00000000000E+00  0.00000000000E+00 -0.98782322896E+03  0.98782322896E+03  0.25500000920E-02 0.  1.
    10030    2    1    2    0    0  0.00000000000E+00  0.00000000000E+00  0.42561486959E+03  0.24012613275E+04  0.23632409834E+04 0.  0.
        3    1    3    3  502    0 -0.10949720914E+04 -0.44389938409E+03  0.19785911660E+03  0.11979811285E+04  0.10100000352E+00 0.  1.
       -3    1    3    3    0  502  0.10949720914E+04  0.44389938409E+03  0.22775575299E+03  0.12032801990E+04  0.10100000352E+00 0. -1.
</event>
<event>
 5   0  0.1407158E-05  0.2377281E+04  0.7818609E-02  0.8448058E-01
       -1   -1    0    0    0  501  0.00000000000E+00  0.00000000000E+00  0.78219909851E+03  0.78219909852E+03  0.50400001928E-02 0.  1.
        1   -1    0    0  501    0  0.00000000000E+00  0.00000000000E+00 -0.18062745326E+04  0.18062745326E+04  0.50400001928E-02 0. -1.
    10030    2    1    2    0    0  0.00000000000E+00  0.00000000000E+00 -0.10240754341E+04  0.25884736311E+04  0.23772810613E+04 0.  0.
        1    1    3    3  502    0  0.35945370883E+03 -0.17743349271E+03 -0.17304549234E+04  0.17762780905E+04  0.50400001928E-02 0. -1.
       -1    1    3    3    0  502 -0.35945370883E+03  0.17743349271E+03  0.70637948932E+03  0.81219554054E+03  0.50400001928E-02 0.  1.
</event>
<event>
 5   0  0.1393026E-05  0.2343668E+04  0.7818609E-02  0.8460900E-01
       -1   -1    0    0    0  501  0.00000000000E+00  0.00000000000E+00  0.89356440654E+03  0.89356440656E+03  0.50400001928E-02 0.  1.
        1   -1    0    0  501    0  0.00000000000E+00  0.00000000000E+00 -0.15367603399E+04  0.15367603399E+04  0.50400001928E-02 0. -1.
    10030    2    1    2    0    0  0.00000000000E+00  0.00000000000E+00 -0.64319593338E+03  0.24303247465E+04  0.23436675030E+04 0.  0.
        4    1    3    3  502    0 -0.57000190197E+02 -0.11688227281E+04 -0.38549731649E+03  0.12320736120E+04  0.12699999809E+01 0.  1.
       -4    1    3    3    0  502  0.57000190197E+02  0.11688227281E+04 -0.25769861688E+03  0.11982511345E+04  0.12699999809E+01 0. -1.
</event>
<event>
 5   0  0.1506985E-05  0.2422076E+04  0.7818609E-02  0.8431285E-01
       -1   -1    0    0    0  501  0.00000000000E+00  0.00000000000E+00  0.14002692904E+04  0.14002692904E+04  0.50400001928E-02 0. -1.
        1   -1    0    0  501    0  0.00000000000E+00  0.00000000000E+00 -0.10473793150E+04  0.10473793150E+04  0.50400001928E-02 0.  1.
    10030    2    1    2    0    0  0.00000000000E+00  0.00000000000E+00  0.35288997541E+03  0.24476486053E+04  0.24220760435E+04 0.  0.
        3    1    3    3  502    0 -0.55344861437E+03  0.12300812415E+03 -0.90498285956E+03  0.10679093378E+04  0.10100000352E+00 0.  1.
       -3    1    3    3    0  502  0.55344861437E+03 -0.12300812415E+03  0.12578728350E+04  0.13797392676E+04  0.10100000352E+00 0. -1.
</event>
<event>
 5   0  0.1434943E-05  0.2383139E+04  0.7818609E-02  0.8445843E-01
        1   -1    0    0  501    0  0.00000000000E+00  0.00000000000E+00  0.13718511137E+04  0.13718511137E+04  0.50400001928E-02 0. -1.
       -1   -1    0    0    0  501  0.00000000000E+00  0.00000000000E+00 -0.10349798024E+04  0.10349798024E+04  0.50400001928E-02 0.  1.
    10030    2    1    2    0    0  0.00000000000E+00  0.00000000000E+00  0.33687131129E+03  0.24068309160E+04  0.23831392695E+04 0.  0.
        5    1    3    3  502    0 -0.21824540706E+03 -0.10496390888E+04  0.69364675353E+03  0.12769264596E+04  0.46999998093E+01 0. -1.
       -5    1    3    3    0  502  0.21824540706E+03  0.10496390888E+04 -0.35677544224E+03  0.11299044564E+04  0.46999998093E+01 0.  1.
</event>
<event>
 5   0  0.1506985E-05  0.2393677E+04  0.7818609E-02  0.8441875E-01
       -1   -1    0    0    0  501  0.00000000000E+00  0.00000000000E+00  0.97608102028E+03  0.97608102030E+03  0.50400001928E-02 0.  1.
        1   -1    0    0  501    0  0.00000000000E+00  0.00000000000E+00 -0.14675238956E+04  0.14675238956E+04  0.50400001928E-02 0. -1.
    10030    2    1    2    0    0  0.00000000000E+00  0.00000000000E+00 -0.49144287535E+03  0.24436049159E+04  0.23936768549E+04 0.  0.
        3    1    3    3  502    0 -0.28855654102E+02  0.10955122705E+04  0.24539781285E+03  0.11230315580E+04  0.10100000352E+00 0.  1.
       -3    1    3    3    0  502  0.28855654102E+02 -0.10955122705E+04 -0.73684068819E+03  0.13205733579E+04  0.10100000352E+00 0. -1.
</event>
<event>
 5   0  0.3345974E-05  0.2391101E+04  0.7818609E-02  0.8442843E-01
       -2   -1    0    0    0  501  0.00000000000E+00  0.00000000000E+00  0.95520270512E+03  0.95520270512E+03  0.25500000920E-02 0.  1.
        2   -1    0    0  501    0  0.00000000000E+00  0.00000000000E+00 -0.14963744557E+04  0.14963744557E+04  0.25500000920E-02 0. -1.
    10030    2    1    2    0    0  0.00000000000E+00  0.00000000000E+00 -0.54117175063E+03  0.24515771609E+04  0.23911009414E+04 0.  0.
        4    1    3    3  502    0 -0.59911672828E+02  0.10158586405E+03 -0.14903950288E+04  0.14950545312E+04  0.12699999809E+01 0. -1.
       -4    1    3    3    0  502  0.59911672828E+02 -0.10158586405E+03  0.94922327821E+03  0.95652262969E+03  0.12699999809E+01 0.  1.
</event>
<event>
 5   0  0.3215208E-05  0.1940897E+04  0.7818609E-02  0.8634763E-01
        2   -1    0    0  501    0  0.00000000000E+00  0.00000000000E+00  0.83875259006E+03  0.83875259006E+03  0.25500000920E-02 0.  1.
       -2   -1    0    0    0  501  0.00000000000E+00  0.00000000000E+00 -0.11228228754E+04  0.11228228754E+04  0.25500000920E-02 0. -1.
    10030    2    1    2    0    0  0.00000000000E+00  0.00000000000E+00 -0.28407028535E+03  0.19615754655E+04  0.19408973130E+04 0.  0.
        1    1    3    3  502    0 -0.12021704403E+03  0.74743543314E+03  0.47160635856E+03  0.89192175770E+03  0.50400001928E-02 0.  1.
       -1    1    3    3    0  502  0.12021704403E+03 -0.74743543314E+03 -0.75567664391E+03  0.10696537078E+04  0.50400001928E-02 0. -1.
</event>
<event>
 5   0  0.1401596E-05  0.2257994E+04  0.7818609E-02  0.8494670E-01
        1   -1    0    0  501    0  0.00000000000E+00  0.00000000000E+00  0.51961468334E+03  0.51961468336E+03  0.50400001928E-02 0. -1.
       -1   -1    0    0    0  501  0.00000000000E+00  0.00000000000E+00 -0.24530370636E+04  0.24530370636E+04  0.50400001928E-02 0.  1.
    10030    2    1    2    0    0  0.00000000000E+00  0.00000000000E+00 -0.19334223803E+04  0.29726517470E+04  0.22579938681E+04 0.  0.
        2    1    3    3  502    0  0.21041513377E+03  0.25053162689E+02  0.49320018587E+03  0.53679475857E+03  0.25500000920E-02 0. -1.
       -2    1    3    3    0  502 -0.21041513377E+03 -0.25053162689E+02 -0.24266225662E+04  0.24358569884E+04  0.25500000920E-02 0.  1.
</event>
<event>
 5   0  0.3320780E-05  0.2395723E+04  0.7818609E-02  0.8441107E-01
       -2   -1    0    0    0  501  0.00000000000E+00  0.00000000000E+00  0.54098015644E+03  0.54098015644E+03  0.25500000920E-02 0. -1.
        2   -1    0    0  501    0  0.00000000000E+00  0.00000000000E+00 -0.26523554441E+04  0.26523554441E+04  0.25500000920E-02 0.  1.
    10030    2    1    2    0    0  0.00000000000E+00  0.00000000000E+00 -0.21113752877E+04  0.31933356005E+04  0.23957225742E+04 0.  0.
        5    1    3    3  502    0 -0.85774182119E+03 -0.74502206055E+03 -0.15616239275E+04  0.19311836483E+04  0.46999998093E+01 0.  1.
       -5    1    3    3    0  502  0.85774182119E+03  0.74502206055E+03 -0.54975136013E+03  0.12621519522E+04  0.46999998093E+01 0. -1.
</event>
<event>
 5   0  0.1401596E-05  0.2382205E+04  0.7818609E-02  0.8446196E-01
        1   -1    0    0  501    0  0.00000000000E+00  0.00000000000E+00  0.83559569234E+03  0.83559569236E+03  0.50400001928E-02 0. -1.
       -1   -1    0    0    0  501  0.00000000000E+00  0.00000000000E+00 -0.16978612074E+04  0.16978612074E+04  0.50400001928E-02 0.  1.
    10030    2    1    2    0    0  0.00000000000E+00  0.00000000000E+00 -0.86226551507E+03  0.25334568998E+04  0.23822052902E+04 0.  0.
        2    1    3    3  502    0  0.76656903368E+03  0.63309629780E+03  0.26647804744E+03  0.10292956599E+04  0.25500000920E-02 0. -1.
       -2    1    3    3    0  502 -0.76656903368E+03 -0.63309629780E+03 -0.11287435625E+04  0.15041612399E+04  0.25500000920E-02 0.  1.
</event>
<event>
 5   0  0.3310037E-05  0.2436412E+04  0.7818609E-02  0.8425996E-01
       -2   -1    0    0    0  501  0.00000000000E+00  0.00000000000E+00  0.97533180258E+03  0.97533180258E+03  0.25500000920E-02 0. -1.
        2   -1    0    0  501    0  0.00000000000E+00  0.00000000000E+00 -0.15215603183E+04  0.15215603183E+04  0.25500000920E-02 0.  1.
    10030    2    1    2    0    0  0.00000000000E+00  0.00000000000E+00 -0.54622851574E+03  0.24968921209E+04  0.24364122541E+04 0.  0.
        2    1    3    3  502    0 -0.73074088564E+03 -0.34910399270E+03  0.65951457327E+03  0.10444210415E+04  0.25500000920E-02 0. -1.
       -2    1    3    3    0  502  0.73074088564E+03  0.34910399270E+03 -0.12057430890E+04  0.14524710794E+04  0.25500000920E-02 0.  1.
</event>
<event>
 5   0  0.3347728E-05  0.2391742E+04  0.7818609E-02  0.8442602E-01
        2   -1    0    0  501    0  0.00000000000E+00  0.00000000000E+00  0.16323386539E+04  0.16323386539E+04  0.25500000920E-02 0. -1.
       -2   -1    0    0    0  501  0.00000000000E+00  0.00000000000E+00 -0.87610945875E+03  0.87610945875E+03  0.25500000920E-02 0.  1.
    10030    2    1    2    0    0  0.00000000000E+00  0.00000000000E+00  0.75622919518E+03  0.25084481127E+04  0.23917419046E+04 0.  0.
        3    1    3    3  502    0 -0.22347556976E+03  0.68672503781E+02  0.16081375799E+04  0.16250426853E+04  0.10100000352E+00 0. -1.
       -3    1    3    3    0  502  0.22347556976E+03 -0.68672503781E+02 -0.85190838468E+03  0.88340542739E+03  0.10100000352E+00 0.  1.
</event>
<event>
 5   0  0.3215208E-05  0.2406136E+04  0.7818609E-02  0.8437210E-01
       -2   -1    0    0    0  501  0.00000000000E+00  0.00000000000E+00  0.81570198817E+03  0.81570198817E+03  0.25500000920E-02 0. -1.
        2   -1    0    0  501    0  0.00000000000E+00  0.00000000000E+00 -0.17743885019E+04  0.17743885019E+04  0.25500000920E-02 0.  1.
    10030    2    1    2    0    0  0.00000000000E+00  0.00000000000E+00 -0.95868651371E+03  0.25900904901E+04  0.24061356809E+04 0.  0.
        1    1    3    3  502    0 -0.14166146484E+03 -0.44350277683E+03 -0.16734824800E+04  0.17370395202E+04  0.50400001928E-02 0.  1.
       -1    1    3    3    0  502  0.14166146484E+03  0.44350277683E+03  0.71479596633E+03  0.85305096986E+03  0.50400001928E-02 0. -1.
</event>
<event>
 5   0  0.3345974E-05  0.2439149E+04  0.7818609E-02  0.8424990E-01
        2   -1    0    0  501    0  0.00000000000E+00  0.00000000000E+00  0.17322932073E+04  0.17322932073E+04  0.25500000920E-02 0.  1.
       -2   -1    0    0    0  501  0.00000000000E+00  0.00000000000E+00 -0.85860890728E+03  0.85860890728E+03  0.25500000920E-02 0. -1.
    10030    2    1    2    0    0  0.00000000000E+00  0.00000000000E+00  0.87368430000E+03  0.25909021146E+04  0.24391493417E+04 0.  0.
        4    1    3    3  502    0  0.26070510340E+03 -0.11793701714E+04  0.61610060668E+03  0.13558992303E+04  0.12699999809E+01 0.  1.
       -4    1    3    3    0  502 -0.26070510340E+03  0.11793701714E+04  0.25758369332E+03  0.12350028843E+04  0.12699999809E+01 0. -1.
</event>
<event>
 5   0  0.1434943E-05  0.2396476E+04  0.7818609E-02  0.8440824E-01
       -1   -1    0    0    0  501  0.00000000000E+00  0.00000000000E+00  0.17603027608E+04  0.17603027608E+04  0.50400001928E-02 0. -1.
        1   -1    0    0  501    0  0.00000000000E+00  0.00000000000E+00 -0.81564080742E+03  0.81564080744E+03  0.50400001928E-02 0.  1.
    10030    2    1    2    0    0  0.00000000000E+00  0.00000000000E+00  0.94466195336E+03  0.25759435682E+04  0.23964763843E+04 0.  0.
        5    1    3    3  502    0 -0.43312309849E+03  0.50206131276E+03  0.15451162594E+04  0.16813885706E+04  0.46999998093E+01 0. -1.
       -5    1    3    3    0  502  0.43312309849E+03 -0.50206131276E+03 -0.60045430603E+03  0.89455499766E+03  0.46999998093E+01 0.  1.
</event>
<event>
 5   0  0.1393026E-05  0.2621015E+04  0.7818609E-02  0.8361098E-01
       -1   -1    0    0    0  501  0.00000000000E+00  0.00000000000E+00  0.14843785423E+04  0.14843785423E+04  0.50400001928E-02 0.  1.
        1   -1    0    0  501    0  0.00000000000E+00  0.00000000000E+00 -0.11570029182E+04  0.11570029182E+04  0.50400001928E-02 0. -1.
    10030    2    1    2    0    0  0.00000000000E+00  0.00000000000E+00  0.32737562409E+03  0.26413814606E+04  0.26210153035E+04 0.  0.
        4    1    3    3  502    0  0.35777598314E+03  0.12264760950E+04  0.45781422292E+03  0.13571450701E+04  0.12699999809E+01 0. -1.
       -4    1    3    3    0  502 -0.35777598314E+03 -0.12264760950E+04 -0.13043859883E+03  0.12842363905E+04  0.12699999809E+01 0.  1.
</event>
<event>
 5   0  0.1434943E-05  0.2035737E+04  0.7818609E-02  0.8590092E-01
       -1   -1    0    0    0  501  0.00000000000E+00  0.00000000000E+00  0.16049320025E+04  0.16049320025E+04  0.50400001928E-02 0.  1.
        1   -1    0    0  501    0  0.00000000000E+00  0.00000000000E+00 -0.64554520864E+03  0.64554520866E+03  0.50400001928E-02 0. -1.
    10030    2    1    2    0    0  0.00000000000E+00  0.00000000000E+00  0.95938679384E+03  0.22504772111E+04  0.20357368832E+04 0.  0.
        5    1    3    3  502    0 -0.74037637674E+03 -0.13028977345E+03 -0.27891561474E+03  0.80184076627E+03  0.46999998093E+01 0. -1.
       -5    1    3    3    0  502  0.74037637674E+03  0.13028977345E+03  0.12383024086E+04  0.14486364449E+04  0.46999998093E+01 0.  1.
</event>
<event>
 5   0  0.3347728E-05  0.2444243E+04  0.7818609E-02  0.8423123E-01
       -2   -1    0    0    0  501  0.00000000000E+00  0.00000000000E+00  0.14911368278E+04  0.14911368278E+04  0.25500000920E-02 0. -1.
        2   -1    0    0  501    0  0.00000000000E+00  0.00000000000E+00 -0.10016387951E+04  0.10016387951E+04  0.25500000920E-02 0.  1.
    10030    2    1    2    0    0  0.00000000000E+00  0.00000000000E+00  0.48949803272E+03  0.24927756229E+04  0.24442426193E+04 0.  0.
        3    1    3    3  502    0  0.29467837527E+03 -0.88964091765E+03 -0.55522660110E+03  0.10892992683E+04  0.10100000352E+00 0.  1.
       -3    1    3    3    0  502 -0.29467837527E+03  0.88964091765E+03  0.10447246338E+04  0.14034763546E+04  0.10100000352E+00 0. -1.
</event>
<event>
 5   0  0.3310037E-05  0.2377742E+04  0.7818609E-02  0.8447884E-01
        2   -1    0    0  501    0  0.00000000000E+00  0.00000000000E+00  0.12707962535E+04  0.12707962535E+04  0.25500000920E-02 0. -1.
       -2   -1    0    0    0  501  0.00000000000E+00  0.00000000000E+00 -0.11122274321E+04  0.11122274321E+04  0.25500000920E-02 0.  1.
    10030    2    1    2    0    0  0.00000000000E+00  0.00000000000E+00  0.15856882131E+03  0.23830236856E+04  0.23777421675E+04 0.  0.
        2    1    3    3  502    0 -0.10325917445E+04 -0.61604062922E+02  0.66656696792E+03  0.12305902219E+04  0.25500000920E-02 0. -1.
       -2    1    3    3    0  502  0.10325917445E+04  0.61604062922E+02 -0.50799814660E+03  0.11524334637E+04  0.25500000920E-02 0.  1.
</event>
<event>
 5   0  0.3320780E-05  0.2405976E+04  0.7818609E-02  0.8437270E-01
       -2   -1    0    0    0  501  0.00000000000E+00  0.00000000000E+00  0.10076171301E+04  0.10076171301E+04  0.25500000920E-02 0. -1.
        2   -1    0    0  501    0  0.00000000000E+00  0.00000000000E+00 -0.14362397338E+04  0.14362397338E+04  0.25500000920E-02 0.  1.
    10030    2    1    2    0    0  0.00000000000E+00  0.00000000000E+00 -0.42862260370E+03  0.24438568639E+04  0.24059756929E+04 0.  0.
        5    1    3    3  502    0  0.10067398639E+04  0.61371326268E+03 -0.45679263989E+03  0.12644566929E+04  0.46999998093E+01 0. -1.
       -5    1    3    3    0  502 -0.10067398639E+04 -0.61371326268E+03  0.28170036188E+02  0.11794001710E+04  0.46999998093E+01 0.  1.
</event>
<event>
 5   0  0.1393026E-05  0.2124076E+04  0.7818609E-02  0.8550711E-01
        1   -1    0    0  501    0  0.00000000000E+00  0.00000000000E+00  0.16498361437E+04  0.16498361437E+04  0.50400001928E-02 0. -1.
       -1   -1    0    0    0  501  0.00000000000E+00  0.00000000000E+00 -0.68365846370E+03  0.68365846371E+03  0.50400001928E-02 0.  1.
    10030    2    1    2    0    0  0.00000000000E+00  0.00000000000E+00  0.96617767996E+03  0.23334946074E+04  0.21240757457E+04 0.  0.
        4    1    3    3  502    0 -0.98165541094E+03  0.34357239123E+03  0.24686965227E+03  0.10689413323E+04  0.12699999809E+01 0.  1.
       -4    1    3    3    0  502  0.98165541094E+03 -0.34357239123E+03  0.71930802770E+03  0.12645532751E+04  0.12699999809E+01 0. -1.
</event>
<event>
 5   0  0.1407158E-05  0.2079461E+04  0.7818609E-02  0.8570345E-01
        1   -1    0    0  501    0  0.00000000000E+00  0.00000000000E+00  0.88603284911E+03  0.88603284912E+03  0.50400001928E-02 0.  1.
       -1   -1    0    0    0  501  0.00000000000E+00  0.00000000000E+00 -0.12200896045E+04  0.12200896045E+04  0.50400001928E-02 0. -1.
    10030    2    1    2    0    0  0.00000000000E+00  0.00000000000E+00 -0.33405675543E+03  0.21061224537E+04  0.20794609576E+04 0.  0.
        1    1    3    3  502    0 -0.53525421363E+03  0.22476332461E+03 -0.10406558331E+04  0.11916292159E+04  0.50400001928E-02 0. -1.
       -1    1    3    3    0  502  0.53525421363E+03 -0.22476332461E+03  0.70659907766E+03  0.91449323774E+03  0.50400001928E-02 0.  1.
</event>
<event>
 5   0  0.3310037E-05  0.2443772E+04  0.7818609E-02  0.8423296E-01
        2   -1    0    0  501    0  0.00000000000E+00  0.00000000000E+00  0.18842160301E+04  0.18842160301E+04  0.25500000920E-02 0.  1.
       -2   -1    0    0    0  501  0.00000000000E+00  0.00000000000E+00 -0.79237460204E+03  0.79237460204E+03  0.25500000920E-02 0. -1.
    10030    2    1    2    0    0  0.00000000000E+00  0.00000000000E+00  0.10918414280E+04  0.26765906321E+04  0.24437716153E+04 0.  0.
        2    1    3    3  502    0 -0.44113238803E+03  0.72315782336E+03 -0.41857035663E+03  0.94485774840E+03  0.25500000920E-02 0. -1.
       -2    1    3    3    0  502  0.44113238803E+03 -0.72315782336E+03  0.15104117847E+04  0.17317328837E+04  0.25500000920E-02 0.  1.
</event>
<event>
 5   0  0.1147362E-05  0.2415292E+04  0.7818609E-02  0.8433801E-01
        3   -1    0    0  501    0  0.00000000000E+00  0.00000000000E+00  0.15740188466E+04  0.15740188498E+04  0.10100000352E+00 0. -1.
       -3   -1    0    0    0  501  0.00000000000E+00  0.00000000000E+00 -0.92655085878E+03  0.92655086429E+03  0.10100000352E+00 0.  1.
    10030    2    1    2    0    0  0.00000000000E+00  0.00000000000E+00  0.64746798782E+03  0.25005697141E+04  0.24152917215E+04 0.  0.
        5    1    3    3  502    0  0.44313386312E+03  0.43753947073E+03  0.13949536587E+04  0.15276538250E+04  0.46999998093E+01 0. -1.
       -5    1    3    3    0  502 -0.44313386312E+03 -0.43753947073E+03 -0.74748567091E+03  0.97291588912E+03  0.46999998093E+01 0.  1.
</event>
<event>
 5   0  0.1393026E-05  0.2375919E+04  0.7818609E-02  0.8448574E-01
        1   -1    0    0  501    0  0.00000000000E+00  0.00000000000E+00  0.18358119609E+04  0.18358119610E+04  0.50400001928E-02 0.  1.
       -1   -1    0    0    0  501  0.00000000000E+00  0.00000000000E+00 -0.76873228005E+03  0.76873228007E+03  0.50400001928E-02 0. -1.
    10030    2    1    2    0    0  0.00000000000E+00  0.00000000000E+00  0.10670796809E+04  0.26045442410E+04  0.23759191186E+04 0.  0.
        4    1    3    3  502    0  0.60559169547E+03  0.89975262773E+03  0.21808852665E+01  0.10845747839E+04  0.12699999809E+01 0. -1.
       -4    1    3    3    0  502 -0.60559169547E+03 -0.89975262773E+03  0.10648987956E+04  0.15199694571E+04  0.12699999809E+01 0.  1.
</event>
<event>
 5   0  0.3345974E-05  0.2394657E+04  0.7818609E-02  0.8441506E-01
       -2   -1    0    0    0  501  0.00000000000E+00  0.00000000000E+00  0.11290182223E+04  0.11290182223E+04  0.25500000920E-02 0. -1.
        2   -1    0    0  501    0  0.00000000000E+00  0.00000000000E+00 -0.12697721611E+04  0.12697721611E+04  0.25500000920E-02 0.  1.
    10030    2    1    2    0    0  0.00000000000E+00  0.00000000000E+00 -0.14075393887E+03  0.23987903834E+04  0.23946573100E+04 0.  0.
        4    1    3    3  502    0 -0.59642508454E+03 -0.23090985815E+03 -0.10843255711E+04  0.12588907026E+04  0.12699999809E+01 0.  1.
       -4    1    3    3    0  502  0.59642508454E+03  0.23090985815E+03  0.94357163228E+03  0.11398996808E+04  0.12699999809E+01 0. -1.
</event>
<event>
 5   0  0.1434943E-05  0.2459184E+04  0.7818609E-02  0.8417672E-01
        1   -1    0    0  501    0  0.00000000000E+00  0.00000000000E+00  0.18628097003E+04  0.18628097003E+04  0.50400001928E-02 0.  1.
       -1   -1    0    0    0  501  0.00000000000E+00  0.00000000000E+00 -0.81162150580E+03  0.81162150582E+03  0.50400001928E-02 0. -1.
    10030    2    1    2    0    0  0.00000000000E+00  0.00000000000E+00  0.10511881945E+04  0.26744312062E+04  0.24591839411E+04 0.  0.
        5    1    3    3  502    0 -0.92886243441E+03  0.28552439230E+03 -0.29371563579E+03  0.10151849907E+04  0.46999998093E+01 0. -1.
       -5    1    3    3    0  502  0.92886243441E+03 -0.28552439230E+03  0.13449038303E+04  0.16592462154E+04  0.46999998093E+01 0.  1.
</event>
<event>
 5   0  0.3347728E-05  0.2300213E+04  0.7818609E-02  0.8477837E-01
       -2   -1    0    0    0  501  0.00000000000E+00  0.00000000000E+00  0.96984284973E+03  0.96984284974E+03  0.25500000920E-02 0.  1.
        2   -1    0    0  501    0  0.00000000000E+00  0.00000000000E+00 -0.13638760056E+04  0.13638760056E+04  0.25500000920E-02 0. -1.
    10030    2    1    2    0    0  0.00000000000E+00  0.00000000000E+00 -0.39403315590E+03  0.23337188554E+04  0.23002133744E+04 0.  0.
        3    1    3    3  502    0 -0.95696324810E+03 -0.14572582062E+03  0.43310233987E+03  0.10604679722E+04  0.10100000352E+00 0.  1.
       -3    1    3    3    0  502  0.95696324810E+03  0.14572582062E+03 -0.82713549577E+03  0.12732508832E+04  0.10100000352E+00 0. -1.
</event>
<event>
 5   0  0.3215208E-05  0.2439500E+04  0.7818609E-02  0.8424862E-01
       -2   -1    0    0    0  501  0.00000000000E+00  0.00000000000E+00  0.79844120385E+03  0.79844120386E+03  0.25500000920E-02 0. -1.
        2   -1    0    0  501    0  0.00000000000E+00  0.00000000000E+00 -0.18633677256E+04  0.18633677256E+04  0.25500000920E-02 0.  1.
    10030    2    1    2    0    0  0.00000000000E+00  0.00000000000E+00 -0.10649265217E+04  0.26618089294E+04  0.24394995963E+04 0.  0.
        1    1    3    3  502    0  0.30903624515E+03 -0.11280108139E+04 -0.15467760862E+03  0.11797613995E+04  0.50400001928E-02 0. -1.
       -1    1    3    3    0  502 -0.30903624515E+03  0.11280108139E+04 -0.91024891311E+03  0.14820475299E+04  0.50400001928E-02 0.  1.
</event>
<event>
 5   0  0.1506985E-05  0.2407079E+04  0.7818609E-02  0.8436858E-01
        1   -1    0    0  501    0  0.00000000000E+00  0.00000000000E+00  0.17042235390E+04  0.17042235390E+04  0.50400001928E-02 0. -1.
       -1   -1    0    0    0  501  0.00000000000E+00  0.00000000000E+00 -0.84995157658E+03  0.84995157659E+03  0.50400001928E-02 0.  1.
    10030    2    1    2    0    0  0.00000000000E+00  0.00000000000E+00  0.85427196239E+03  0.25541751156E+04  0.24070791294E+04 0.  0.
        3    1    3    3  502    0  0.21440459459E+03 -0.72770413572E+03 -0.56429766084E+03  0.94549167080E+03  0.10100000352E+00 0.  1.
       -3    1    3    3    0  502 -0.21440459459E+03  0.72770413572E+03  0.14185696232E+04  0.16086834448E+04  0.10100000352E+00 0. -1.
</event>
<event>
 5   0  0.1393026E-05  0.2396218E+04  0.7818609E-02  0.8440921E-01
        1   -1    0    0  501    0  0.00000000000E+00  0.00000000000E+00  0.12222221910E+04  0.12222221910E+04  0.50400001928E-02 0. -1.
       -1   -1    0    0    0  501  0.00000000000E+00  0.00000000000E+00 -0.11744715061E+04  0.11744715061E+04  0.50400001928E-02 0.  1.
    10030    2    1    2    0    0  0.00000000000E+00  0.00000000000E+00  0.47750684919E+02  0.23966936971E+04  0.23962179679E+04 0.  0.
        4    1    3    3  502    0  0.22384086275E+03  0.40275828639E+03 -0.10823028862E+04  0.11763078337E+04  0.12699999809E+01 0.  1.
       -4    1    3    3    0  502 -0.22384086275E+03 -0.40275828639E+03  0.11300535711E+04  0.12203858634E+04  0.12699999809E+01 0. -1.
</event>
<event>
 5   0  0.1393026E-05  0.2286692E+04  0.7818609E-02  0.8483187E-01
        1   -1    0    0  501    0  0.00000000000E+00  0.00000000000E+00  0.13128531273E+04  0.13128531273E+04  0.50400001928E-02 0.  1.
       -1   -1    0    0    0  501  0.00000000000E+00  0.00000000000E+00 -0.99572474648E+03  0.99572474649E+03  0.50400001928E-02 0. -1.
    10030    2    1    2    0    0  0.00000000000E+00  0.00000000000E+00  0.31712838079E+03  0.23085778738E+04  0.22866922376E+04 0.  0.
        4    1    3    3  502    0 -0.10388315173E+04 -0.42198407147E+03 -0.67176525910E+02  0.11232790287E+04  0.12699999809E+01 0. -1.
       -4    1    3    3    0  502  0.10388315173E+04  0.42198407147E+03  0.38430490669E+03  0.11852988450E+04  0.12699999809E+01 0.  1.
</event>
<event>
 5   0  0.1393026E-05  0.2372555E+04  0.7818609E-02  0.8449850E-01
        1   -1    0    0  501    0  0.00000000000E+00  0.00000000000E+00  0.18555938875E+04  0.18555938875E+04  0.50400001928E-02 0.  1.
       -1   -1    0    0    0  501  0.00000000000E+00  0.00000000000E+00 -0.75838509337E+03  0.75838509338E+03  0.50400001928E-02 0. -1.
    10030    2    1    2    0    0  0.00000000000E+00  0.00000000000E+00  0.10972087942E+04  0.26139789809E+04  0.23725553681E+04 0.  0.
        4    1    3    3  502    0 -0.86223831154E+03  0.52828322440E+03 -0.13476468875E+03  0.10201476390E+04  0.12699999809E+01 0.  1.
       -4    1    3    3    0  502  0.86223831154E+03 -0.52828322440E+03  0.12319734829E+04  0.15938313420E+04  0.12699999809E+01 0. -1.
</event>
<event>
 5   0  0.1407158E-05  0.2402143E+04  0.7818609E-02  0.8438702E-01
        1   -1    0    0  501    0  0.00000000000E+00  0.00000000000E+00  0.14270852480E+04  0.14270852480E+04  0.50400001928E-02 0. -1.
       -1   -1    0    0    0  501  0.00000000000E+00  0.00000000000E+00 -0.10108526555E+04  0.10108526555E+04  0.50400001928E-02 0.  1.
    10030    2    1    2    0    0  0.00000000000E+00  0.00000000000E+00  0.41623259246E+03  0.24379379035E+04  0.24021431369E+04 0.  0.
        1    1    3    3  502    0  0.76570301380E+03  0.80018283292E+02 -0.72750418701E+03  0.10592291410E+04  0.50400001928E-02 0. -1.
       -1    1    3    3    0  502 -0.76570301380E+03 -0.80018283292E+02  0.11437367795E+04  0.13787087625E+04  0.50400001928E-02 0.  1.
</event>
<event>
 5   0  0.3320780E-05  0.2388575E+04  0.7818609E-02  0.8443793E-01
       -2   -1    0    0    0  501  0.00000000000E+00  0.00000000000E+00  0.12212453274E+04  0.12212453274E+04  0.25500000920E-02 0. -1.
        2   -1    0    0  501    0  0.00000000000E+00  0.00000000000E+00 -0.11679245684E+04  0.11679245684E+04  0.25500000920E-02 0.  1.
    10030    2    1    2    0    0  0.00000000000E+00  0.00000000000E+00  0.53320759031E+02  0.23891698959E+04  0.23885748236E+04 0.  0.
        5    1    3    3  502    0  0.63213042879E+03 -0.82375881072E+03 -0.56351447506E+03  0.11814136070E+04  0.46999998093E+01 0.  1.
       -5    1    3    3    0  502 -0.63213042879E+03  0.82375881072E+03  0.61683523409E+03  0.12077562888E+04  0.46999998093E+01 0. -1.
</event>
<event>
 5   0  0.3310037E-05  0.2390256E+04  0.7818609E-02  0.8443161E-01
       -2   -1    0    0    0  501  0.00000000000E+00  0.00000000000E+00  0.59232594999E+03  0.59232595000E+03  0.25500000920E-02 0. -1.
        2   -1    0    0  501    0  0.00000000000E+00  0.00000000000E+00 -0.24113937820E+04  0.24113937820E+04  0.25500000920E-02 0.  1.
    10030    2    1    2    0    0  0.00000000000E+00  0.00000000000E+00 -0.18190678320E+04  0.30037197320E+04  0.23902561476E+04 0.  0.
        2    1    3    3  502    0  0.33798920994E+03 -0.96710367167E+03 -0.13610081500E+03  0.10334648759E+04  0.25500000920E-02 0. -1.
       -2    1    3    3    0  502 -0.33798920994E+03  0.96710367167E+03 -0.16829670170E+04  0.19702548561E+04  0.25500000920E-02 0.  1.
</event>
<event>
 5   0  0.1401596E-05  0.2424403E+04  0.7818609E-02  0.8430423E-01
       -1   -1    0    0    0  501  0.00000000000E+00  0.00000000000E+00  0.71894379809E+03  0.71894379811E+03  0.50400001928E-02 0. -1.
        1   -1    0    0  501    0  0.00000000000E+00  0.00000000000E+00 -0.20438771031E+04  0.20438771031E+04  0.50400001928E-02 0.  1.
    10030    2    1    2    0    0  0.00000000000E+00  0.00000000000E+00 -0.13249333050E+04  0.27628209012E+04  0.24244032399E+04 0.  0.
        2    1    3    3  502    0 -0.67072638956E+03 -0.97258303121E+03 -0.35321780861E+03  0.12331076444E+04  0.25500000920E-02 0. -1.
       -2    1    3    3    0  502  0.67072638956E+03  0.97258303121E+03 -0.97171549638E+03  0.15297132568E+04  0.25500000920E-02 0.  1.
</event>
<event>
 5   0  0.1407158E-05  0.2391675E+04  0.7818609E-02  0.8442627E-01
       -1   -1    0    0    0  501  0.00000000000E+00  0.00000000000E+00  0.16731057706E+04  0.16731057706E+04  0.50400001928E-02 0.  1.
        1   -1    0    0  501    0  0.00000000000E+00  0.00000000000E+00 -0.85471445545E+03  0.85471445546E+03  0.50400001928E-02 0. -1.
    10030    2    1    2    0    0  0.00000000000E+00  0.00000000000E+00  0.81839131513E+03  0.25278202260E+04  0.23916753021E+04 0.  0.
        1    1    3    3  502    0  0.62758195268E+02 -0.18583770001E+03  0.16559873828E+04  0.16675636281E+04  0.50400001928E-02 0.  1.
       -1    1    3    3    0  502 -0.62758195268E+02  0.18583770001E+03 -0.83759606763E+03  0.86025659797E+03  0.50400001928E-02 0. -1.
</event>
<event>
 5   0  0.1506985E-05  0.2441821E+04  0.7818609E-02  0.8424010E-01
       -1   -1    0    0    0  501  0.00000000000E+00  0.00000000000E+00  0.13348506153E+04  0.13348506154E+04  0.50400001928E-02 0.  1.
        1   -1    0    0  501    0  0.00000000000E+00  0.00000000000E+00 -0.11166961816E+04  0.11166961816E+04  0.50400001928E-02 0. -1.
    10030    2    1    2    0    0  0.00000000000E+00  0.00000000000E+00  0.21815443373E+03  0.24515467970E+04  0.24418211115E+04 0.  0.
        3    1    3    3  502    0  0.68127366361E+03  0.40421686688E+03 -0.82365348349E+03  0.11427730095E+04  0.10100000352E+00 0. -1.
       -3    1    3    3    0  502 -0.68127366361E+03 -0.40421686688E+03  0.10418079172E+04  0.13087737875E+04  0.10100000352E+00 0.  1.
</event>
<event>
 5   0  0.1407158E-05  0.2416718E+04  0.7818609E-02  0.8433271E-01
        1   -1    0    0  501    0  0.00000000000E+00  0.00000000000E+00  0.14417342163E+04  0.14417342164E+04  0.50400001928E-02 0.  1.
       -1   -1    0    0    0  501  0.00000000000E+00  0.00000000000E+00 -0.10127601611E+04  0.10127601611E+04  0.50400001928E-02 0. -1.
    10030    2    1    2    0    0  0.00000000000E+00  0.00000000000E+00  0.42897405528E+03  0.24544943774E+04  0.24167175898E+04 0.  0.
        1    1    3    3  502    0 -0.61058027336E+03 -0.61943914050E+03 -0.63744425426E+03  0.10783544391E+04  0.50400001928E-02 0. -1.
       -1    1    3    3    0  502  0.61058027336E+03  0.61943914050E+03  0.10664183095E+04  0.13761399384E+04  0.50400001928E-02 0.  1.
</event>
<event>
 5   0  0.1393026E-05  0.2405733E+04  0.7818609E-02  0.8437360E-01
       -1   -1    0    0    0  501  0.00000000000E+00  0.00000000000E+00  0.10850062968E+04  0.10850062968E+04  0.50400001928E-02 0. -1.
        1   -1    0    0  501    0  0.00000000000E+00  0.00000000000E+00 -0.13335296541E+04  0.13335296541E+04  0.50400001928E-02 0.  1.
    10030    2    1    2    0    0  0.00000000000E+00  0.00000000000E+00 -0.24852335732E+03  0.24185359510E+04  0.24057332119E+04 0.  0.
        4    1    3    3  502    0 -0.68025789582E+03 -0.85034075179E+03  0.38939405403E+03  0.11564858586E+04  0.12699999809E+01 0.  1.
       -4    1    3    3    0  502  0.68025789582E+03  0.85034075179E+03 -0.63791741134E+03  0.12620500923E+04  0.12699999809E+01 0. -1.
</event>
<event>
 5   0  0.1393026E-05  0.2389846E+04  0.7818609E-02  0.8443315E-01
       -1   -1    0    0    0  501  0.00000000000E+00  0.00000000000E+00  0.10592407693E+04  0.10592407693E+04  0.50400001928E-02 0.  1.
        1   -1    0    0  501    0  0.00000000000E+00  0.00000000000E+00 -0.13479856241E+04  0.13479856241E+04  0.50400001928E-02 0. -1.
    10030    2    1    2    0    0  0.00000000000E+00  0.00000000000E+00 -0.28874485478E+03  0.24072263935E+04  0.23898462959E+04 0.  0.
        4    1    3    3  502    0  0.28751810605E+03 -0.34215294995E+03  0.97188564521E+03  0.10697189457E+04  0.12699999809E+01 0.  1.
       -4    1    3    3    0  502 -0.28751810605E+03  0.34215294995E+03 -0.12606305000E+04  0.13375074478E+04  0.12699999809E+01 0. -1.
</event>
<event>
 5   0  0.1506985E-05  0.2366615E+04  0.7818609E-02  0.8452109E-01
       -1   -1    0    0    0  501  0.00000000000E+00  0.00000000000E+00  0.94856844293E+03  0.94856844295E+03  0.50400001928E-02 0.  1.
        1   -1    0    0  501    0  0.00000000000E+00  0.00000000000E+00 -0.14761366903E+04  0.14761366903E+04  0.50400001928E-02 0. -1.
    10030    2    1    2    0    0  0.00000000000E+00  0.00000000000E+00 -0.52756824736E+03  0.24247051333E+04  0.23666150358E+04 0.  0.
        3    1    3    3  502    0 -0.18763402506E+03 -0.49854924276E+03  0.81877758727E+03  0.97680838574E+03  0.10100000352E+00 0.  1.
       -3    1    3    3    0  502  0.18763402506E+03  0.49854924276E+03 -0.13463458346E+04  0.14478967475E+04  0.10100000352E+00 0. -1.
</event>
<event>
 5   0  0.3310037E-05  0.2407524E+04  0.7818609E-02  0.8436692E-01
        2   -1    0    0  501    0  0.00000000000E+00  0.00000000000E+00  0.14102146565E+04  0.14102146565E+04  0.25500000920E-02 0.  1.
       -2   -1    0    0    0  501  0.00000000000E+00  0.00000000000E+00 -0.10275340269E+04  0.10275340270E+04  0.25500000920E-02 0. -1.
    10030    2    1    2    0    0  0.00000000000E+00  0.00000000000E+00  0.38268062952E+03  0.24377486834E+04  0.24075244919E+04 0.  0.
        2    1    3    3  502    0  0.58291542737E+03 -0.65547830591E+03 -0.64338835443E+03  0.10878376623E+04  0.25500000920E-02 0. -1.
       -2    1    3    3    0  502 -0.58291542737E+03  0.65547830591E+03  0.10260689840E+04  0.13499110211E+04  0.25500000920E-02 0.  1.
</event>
<event>
 5   0  0.1434943E-05  0.2345469E+04  0.7818609E-02  0.8460206E-01
        1   -1    0    0  501    0  0.00000000000E+00  0.00000000000E+00  0.12699206822E+04  0.12699206822E+04  0.50400001928E-02 0. -1.
       -1   -1    0    0    0  501  0.00000000000E+00  0.00000000000E+00 -0.10829857460E+04  0.10829857460E+04  0.50400001928E-02 0.  1.
    10030    2    1    2    0    0  0.00000000000E+00  0.00000000000E+00  0.18693493619E+03  0.23529064282E+04  0.23454688208E+04 0.  0.
        5    1    3    3  502    0 -0.51336398885E+03  0.96845545541E+03  0.51172526383E+03  0.12096831774E+04  0.46999998093E+01 0. -1.
       -5    1    3    3    0  502  0.51336398885E+03 -0.96845545541E+03 -0.32479032764E+03  0.11432232508E+04  0.46999998093E+01 0.  1.
</event>
<event>
 5   0  0.3215208E-05  0.2371947E+04  0.7818609E-02  0.8450081E-01
        2   -1    0    0  501    0  0.00000000000E+00  0.00000000000E+00  0.17064157479E+04  0.17064157479E+04  0.25500000920E-02 0.  1.
       -2   -1    0    0    0  501  0.00000000000E+00  0.00000000000E+00 -0.82426200429E+03  0.82426200430E+03  0.25500000920E-02 0. -1.
    10030    2    1    2    0    0  0.00000000000E+00  0.00000000000E+00  0.88215374359E+03  0.25306777522E+04  0.23719474400E+04 0.  0.
        1    1    3    3  502    0 -0.10236351287E+04 -0.59563472477E+03  0.37424252089E+03  0.12420414915E+04  0.50400001928E-02 0.  1.
       -1    1    3    3    0  502  0.10236351287E+04  0.59563472477E+03  0.50791122270E+03  0.12886362607E+04  0.50400001928E-02 0. -1.
</event>
<event>
 5   0  0.1506985E-05  0.2403296E+04  0.7818609E-02  0.8438270E-01
        1   -1    0    0  501    0  0.00000000000E+00  0.00000000000E+00  0.73554414894E+03  0.73554414896E+03  0.50400001928E-02 0. -1.
       -1   -1    0    0    0  501  0.00000000000E+00  0.00000000000E+00 -0.19631160294E+04  0.19631160294E+04  0.50400001928E-02 0.  1.
    10030    2    1    2    0    0  0.00000000000E+00  0.00000000000E+00 -0.12275718805E+04  0.26986601784E+04  0.24032964937E+04 0.  0.
        3    1    3    3  502    0 -0.96420506270E+03 -0.52332004854E+03 -0.63217908930E+02  0.10988866140E+04  0.10100000352E+00 0. -1.
       -3    1    3    3    0  502  0.96420506270E+03  0.52332004854E+03 -0.11643539715E+04  0.15997735644E+04  0.10100000352E+00 0.  1.
</event>
<event>
 5   0  0.3215208E-05  0.2398236E+04  0.7818609E-02  0.8440164E-01
        2   -1    0    0  501    0  0.00000000000E+00  0.00000000000E+00  0.17071078857E+04  0.17071078857E+04  0.25500000920E-02 0. -1.
       -2   -1    0    0    0  501  0.00000000000E+00  0.00000000000E+00 -0.84229254293E+03  0.84229254293E+03  0.25500000920E-02 0.  1.
    10030    2    1    2    0    0  0.00000000000E+00  0.00000000000E+00  0.86481534275E+03  0.25494004286E+04  0.23982362203E+04 0.  0.
        1    1    3    3  502    0 -0.42786635642E+03 -0.16138848366E+03  0.16107761329E+04  0.16744299365E+04  0.50400001928E-02 0. -1.
       -1    1    3    3    0  502  0.42786635642E+03  0.16138848366E+03 -0.74596079019E+03  0.87497049216E+03  0.50400001928E-02 0.  1.
</event>
<event>
 5   0  0.1407158E-05  0.2418675E+04  0.7818609E-02  0.8432545E-01
        1   -1    0    0  501    0  0.00000000000E+00  0.00000000000E+00  0.14397840311E+04  0.14397840311E+04  0.50400001928E-02 0.  1.
       -1   -1    0    0    0  501  0.00000000000E+00  0.00000000000E+00 -0.10157756672E+04  0.10157756673E+04  0.50400001928E-02 0. -1.
    10030    2    1    2    0    0  0.00000000000E+00  0.00000000000E+00  0.42400836386E+03  0.24555596984E+04  0.24186753275E+04 0.  0.
        1    1    3    3  502    0 -0.13547246222E+03 -0.11373264576E+04 -0.18202959806E+03  0.11597409339E+04  0.50400001928E-02 0. -1.
       -1    1    3    3    0  502  0.13547246222E+03  0.11373264576E+04  0.60603796192E+03  0.12958187645E+04  0.50400001928E-02 0.  1.
</event>
<event>
 5   0  0.3320780E-05  0.2421485E+04  0.7818609E-02  0.8431503E-01
       -2   -1    0    0    0  501  0.00000000000E+00  0.00000000000E+00  0.99030740352E+03  0.99030740352E+03  0.25500000920E-02 0. -1.
        2   -1    0    0  501    0  0.00000000000E+00  0.00000000000E+00 -0.14802447965E+04  0.14802447965E+04  0.25500000920E-02 0.  1.
    10030    2    1    2    0    0  0.00000000000E+00  0.00000000000E+00 -0.48993739302E+03  0.24705522001E+04  0.24214849833E+04 0.  0.
        5    1    3    3  502    0  0.11732155678E+03  0.43283630388E+03 -0.13923742477E+04  0.14628191102E+04  0.46999998093E+01 0.  1.
       -5    1    3    3    0  502 -0.11732155678E+03 -0.43283630388E+03  0.90243685468E+03  0.10077330898E+04  0.46999998093E+01 0. -1.
</event>
<event>
 5   0  0.1401596E-05  0.2402065E+04  0.7818609E-02  0.8438731E-01
        1   -1    0    0  501    0  0.00000000000E+00  0.00000000000E+00  0.86232277138E+03  0.86232277139E+03  0.50400001928E-02 0.  1.
       -1   -1    0    0    0  501  0.00000000000E+00  0.00000000000E+00 -0.16727836164E+04  0.16727836164E+04  0.50400001928E-02 0. -1.
    10030    2    1    2    0    0  0.00000000000E+00  0.00000000000E+00 -0.81046084506E+03  0.25351063878E+04  0.24020652814E+04 0.  0.
        2    1    3    3  502    0 -0.26396949377E+03  0.42410087033E+03  0.74748024693E+03  0.89903735262E+03  0.25500000920E-02 0.  1.
       -2    1    3    3    0  502  0.26396949377E+03 -0.42410087033E+03 -0.15579410920E+04  0.16360690352E+04  0.25500000920E-02 0. -1.
</event>
<event>
 5   0  0.3347728E-05  0.2410039E+04  0.7818609E-02  0.8435755E-01
       -2   -1    0    0    0  501  0.00000000000E+00  0.00000000000E+00  0.10441743362E+04  0.10441743362E+04  0.25500000920E-02 0. -1.
        2   -1    0    0  501    0  0.00000000000E+00  0.00000000000E+00 -0.13906413368E+04  0.13906413368E+04  0.25500000920E-02 0.  1.
    10030    2    1    2    0    0  0.00000000000E+00  0.00000000000E+00 -0.34646700059E+03  0.24348156729E+04  0.24100389994E+04 0.  0.
        3    1    3    3  502    0  0.18013758365E+03 -0.13383577094E+03  0.10228766323E+04  0.10472049358E+04  0.10100000352E+00 0. -1.
       -3    1    3    3    0  502 -0.18013758365E+03  0.13383577094E+03 -0.13693436329E+04  0.13876107371E+04  0.10100000352E+00 0.  1.
</event>
<event>
 5   0  0.3310037E-05  0.2411754E+04  0.7818609E-02  0.8435116E-01
        2   -1    0    0  501    0  0.00000000000E+00  0.00000000000E+00  0.24559785933E+04  0.24559785933E+04  0.25500000920E-02 0. -1.
       -2   -1    0    0    0  501  0.00000000000E+00  0.00000000000E+00 -0.59208141574E+03  0.59208141575E+03  0.25500000920E-02 0.  1.
    10030    2    1    2    0    0  0.00000000000E+00  0.00000000000E+00  0.18638971776E+04  0.30480600091E+04  0.24117539531E+04 0.  0.
        2    1    3    3  502    0 -0.23842028528E+03 -0.68322572217E+03  0.21510733642E+04  0.22695281973E+04  0.25500000920E-02 0. -1.
       -2    1    3    3    0  502  0.23842028528E+03  0.68322572217E+03 -0.28717618663E+03  0.77853181183E+03  0.25500000920E-02 0.  1.
</event>
<event>
 5   0  0.1401596E-05  0.2282147E+04  0.7818609E-02  0.8484994E-01
       -1   -1    0    0    0  501  0.00000000000E+00  0.00000000000E+00  0.10576912602E+04  0.10576912602E+04  0.50400001928E-02 0. -1.
        1   -1    0    0  501    0  0.00000000000E+00  0.00000000000E+00 -0.12310293464E+04  0.12310293464E+04  0.50400001928E-02 0.  1.
    10030    2    1    2    0    0  0.00000000000E+00  0.00000000000E+00 -0.17333808621E+03  0.22887206066E+04  0.22821472176E+04 0.  0.
        2    1    3    3  502    0  0.82904067255E+03  0.45586029236E+03 -0.72641862613E+03  0.11928122498E+04  0.25500000920E-02 0.  1.
       -2    1    3    3    0  502 -0.82904067255E+03 -0.45586029236E+03  0.55308053991E+03  0.10959083568E+04  0.25500000920E-02 0. -1.
</event>
<event>
 5   0  0.3320780E-05  0.2400174E+04  0.7818609E-02  0.8439439E-01
        2   -1    0    0  501    0  0.00000000000E+00  0.00000000000E+00  0.10535598013E+04  0.10535598013E+04  0.25500000920E-02 0. -1.
       -2   -1    0    0    0  501  0.00000000000E+00  0.00000000000E+00 -0.13669924103E+04  0.13669924103E+04  0.25500000920E-02 0.  1.
    10030    2    1    2    0    0  0.00000000000E+00  0.00000000000E+00 -0.31343260897E+03  0.24205522116E+04  0.24001735372E+04 0.  0.
        5    1    3    3  502    0  0.21371328010E+02 -0.53088021095E+03 -0.12419081437E+04  0.13507954913E+04  0.46999998093E+01 0.  1.
       -5    1    3    3    0  502 -0.21371328010E+02  0.53088021095E+03  0.92847553468E+03  0.10697567203E+04  0.46999998093E+01 0. -1.
</event>
<event>
 5   0  0.3320780E-05  0.2384877E+04  0.7818609E-02  0.8445187E-01
       -2   -1    0    0    0  501  0.00000000000E+00  0.00000000000E+00  0.67297863876E+03  0.67297863876E+03  0.25500000920E-02 0. -1.
        2   -1    0    0  501    0  0.00000000000E+00  0.00000000000E+00 -0.21128603124E+04  0.21128603124E+04  0.25500000920E-02 0.  1.
    10030    2    1    2    0    0  0.00000000000E+00  0.00000000000E+00 -0.14398816737E+04  0.27858389512E+04  0.23848772354E+04 0.  0.
        5    1    3    3  502    0 -0.70080305473E+02 -0.71604962876E+03 -0.18307363175E+04  0.19670424180E+04  0.46999998093E+01 0.  1.
       -5    1    3    3    0  502  0.70080305473E+02  0.71604962876E+03  0.39085464387E+03  0.81879653314E+03  0.46999998093E+01 0. -1.
</event>
<event>
 5   0  0.3347728E-05  0.2357295E+04  0.7818609E-02  0.8455667E-01
       -2   -1    0    0    0  501  0.00000000000E+00  0.00000000000E+00  0.15604296457E+04  0.15604296457E+04  0.25500000920E-02 0.  1.
        2   -1    0    0  501    0  0.00000000000E+00  0.00000000000E+00 -0.89027384880E+03  0.89027384880E+03  0.25500000920E-02 0. -1.
    10030    2    1    2    0    0  0.00000000000E+00  0.00000000000E+00  0.67015579694E+03  0.24507034945E+04  0.23572948110E+04 0.  0.
        3    1    3    3  502    0  0.16269625656E+03  0.15938413416E+03 -0.86717875711E+03  0.89658930459E+03  0.10100000352E+00 0. -1.
       -3    1    3    3    0  502 -0.16269625656E+03 -0.15938413416E+03  0.15373345540E+04  0.15541141899E+04  0.10100000352E+00 0.  1.
</event>
<event>
 5   0  0.3215208E-05  0.2385813E+04  0.7818609E-02  0.8444834E-01
       -2   -1    0    0    0  501  0.00000000000E+00  0.00000000000E+00  0.13865475462E+04  0.13865475462E+04  0.25500000920E-02 0. -1.
        2   -1    0    0  501    0  0.00000000000E+00  0.00000000000E+00 -0.10263091134E+04  0.10263091134E+04  0.25500000920E-02 0.  1.
    10030    2    1    2    0    0  0.00000000000E+00  0.00000000000E+00  0.36023843283E+03  0.24128566597E+04  0.23858133899E+04 0.  0.
        1    1    3    3  502    0 -0.21653191941E+03 -0.97202681301E+03  0.84430088867E+03  0.13055903599E+04  0.50400001928E-02 0. -1.
       -1    1    3    3    0  502  0.21653191941E+03  0.97202681301E+03 -0.48406245585E+03  0.11072662997E+04  0.50400001928E-02 0.  1.
</event>
<event>
 5   0  0.1434943E-05  0.2382057E+04  0.7818609E-02  0.8446252E-01
        1   -1    0    0  501    0  0.00000000000E+00  0.00000000000E+00  0.23104332216E+04  0.23104332216E+04  0.50400001928E-02 0. -1.
       -1   -1    0    0    0  501  0.00000000000E+00  0.00000000000E+00 -0.61397508418E+03  0.61397508420E+03  0.50400001928E-02 0.  1.
    10030    2    1    2    0    0  0.00000000000E+00  0.00000000000E+00  0.16964581375E+04  0.29244083058E+04  0.23820566171E+04 0.  0.
        5    1    3    3  502    0  0.28701151577E+03  0.43268500525E+03  0.21641613743E+04  0.22255804789E+04  0.46999998093E+01 0. -1.
       -5    1    3    3    0  502 -0.28701151577E+03 -0.43268500525E+03 -0.46770323686E+03  0.69882782695E+03  0.46999998093E+01 0.  1.
</event>
<event>
 5   0  0.1407158E-05  0.2368959E+04  0.7818609E-02  0.8451217E-01
        1   -1    0    0  501    0  0.00000000000E+00  0.00000000000E+00  0.87178052221E+03  0.87178052222E+03  0.50400001928E-02 0.  1.
       -1   -1    0    0    0  501  0.00000000000E+00  0.00000000000E+00 -0.16093407697E+04  0.16093407697E+04  0.50400001928E-02 0. -1.
    10030    2    1    2    0    0  0.00000000000E+00  0.00000000000E+00 -0.73756024750E+03  0.24811212919E+04  0.23689592117E+04 0.  0.
        1    1    3    3  502    0  0.24355066701E+03  0.11278923928E+04 -0.64890129777E+03  0.13238319649E+04  0.50400001928E-02 0. -1.
       -1    1    3    3    0  502 -0.24355066701E+03 -0.11278923928E+04 -0.88658949731E+02  0.11572893270E+04  0.50400001928E-02 0.  1.
</event>
<event>
 5   0  0.3310037E-05  0.2300834E+04  0.7818609E-02  0.8477593E-01
        2   -1    0    0  501    0  0.00000000000E+00  0.00000000000E+00  0.15217408487E+04  0.15217408487E+04  0.25500000920E-02 0.  1.
       -2   -1    0    0    0  501  0.00000000000E+00  0.00000000000E+00 -0.86970047123E+03  0.86970047124E+03  0.25500000920E-02 0. -1.
    10030    2    1    2    0    0  0.00000000000E+00  0.00000000000E+00  0.65204037746E+03  0.23914413199E+04  0.23008335300E+04 0.  0.
        2    1    3    3  502    0 -0.11047787717E+04 -0.18276268566E+03  0.60007072781E+03  0.12704421325E+04  0.25500000920E-02 0.  1.
       -2    1    3    3    0  502  0.11047787717E+04  0.18276268566E+03  0.51969649644E+02  0.11209991874E+04  0.25500000920E-02 0. -1.
</event>
<event>
 5   0  0.1401596E-05  0.2327880E+04  0.7818609E-02  0.8467009E-01
        1   -1    0    0  501    0  0.00000000000E+00  0.00000000000E+00  0.19126325171E+04  0.19126325171E+04  0.50400001928E-02 0. -1.
       -1   -1    0    0    0  501  0.00000000000E+00  0.00000000000E+00 -0.70832038216E+03  0.70832038218E+03  0.50400001928E-02 0.  1.
    10030    2    1    2    0    0  0.00000000000E+00  0.00000000000E+00  0.12043121349E+04  0.26209528993E+04  0.23278802336E+04 0.  0.
        2    1    3    3  502    0  0.97318674677E+01 -0.80364396309E+03 -0.34575159578E+03  0.87491856458E+03  0.25500000920E-02 0.  1.
       -2    1    3    3    0  502 -0.97318674677E+01  0.80364396309E+03  0.15500637307E+04  0.17460343347E+04  0.25500000920E-02 0. -1.
</event>
<event>
 5   0  0.3215208E-05  0.2434371E+04  0.7818609E-02  0.8426747E-01
        2   -1    0    0  501    0  0.00000000000E+00  0.00000000000E+00  0.14156801820E+04  0.14156801820E+04  0.25500000920E-02 0. -1.
       -2   -1    0    0    0  501  0.00000000000E+00  0.00000000000E+00 -0.10465218734E+04  0.10465218734E+04  0.25500000920E-02 0.  1.
    10030    2    1    2    0    0  0.00000000000E+00  0.00000000000E+00  0.36915830858E+03  0.24622020554E+04  0.24343707821E+04 0.  0.
        1    1    3    3  502    0 -0.16782924120E+03 -0.20908319538E+03  0.13854431336E+04  0.14111467370E+04  0.50400001928E-02 0. -1.
       -1    1    3    3    0  502  0.16782924120E+03  0.20908319538E+03 -0.10162848250E+04  0.10510553184E+04  0.50400001928E-02 0.  1.
</event>
<event>
 5   0  0.3320780E-05  0.2404362E+04  0.7818609E-02  0.8437872E-01
        2   -1    0    0  501    0  0.00000000000E+00  0.00000000000E+00  0.93509780087E+03  0.93509780088E+03  0.25500000920E-02 0. -1.
       -2   -1    0    0    0  501  0.00000000000E+00  0.00000000000E+00 -0.15455492839E+04  0.15455492839E+04  0.25500000920E-02 0.  1.
    10030    2    1    2    0    0  0.00000000000E+00  0.00000000000E+00 -0.61045148303E+03  0.24806470848E+04  0.24043624823E+04 0.  0.
        5    1    3    3  502    0  0.25382044442E+03 -0.10429782316E+04 -0.86368420035E+03  0.13777521176E+04  0.46999998093E+01 0.  1.
       -5    1    3    3    0  502 -0.25382044442E+03  0.10429782316E+04  0.25323271732E+03  0.11028949672E+04  0.46999998093E+01 0. -1.
</event>
<event>
 5   0  0.1506985E-05  0.2419096E+04  0.7818609E-02  0.8432389E-01
       -1   -1    0    0    0  501  0.00000000000E+00  0.00000000000E+00  0.11087304436E+04  0.11087304436E+04  0.50400001928E-02 0. -1.
        1   -1    0    0  501    0  0.00000000000E+00  0.00000000000E+00 -0.13195332406E+04  0.13195332406E+04  0.50400001928E-02 0.  1.
    10030    2    1    2    0    0  0.00000000000E+00  0.00000000000E+00 -0.21080279696E+03  0.24282636842E+04  0.24190962570E+04 0.  0.
        3    1    3    3  502    0  0.51387445037E+03 -0.81334973610E+02 -0.12014754579E+04  0.13092843904E+04  0.10100000352E+00 0.  1.
       -3    1    3    3    0  502 -0.51387445037E+03  0.81334973610E+02  0.99067266095E+03  0.11189792938E+04  0.10100000352E+00 0. -1.
</event>
<event>
 5   0  0.1434943E-05  0.2395416E+04  0.7818609E-02  0.8441222E-01
        1   -1    0    0  501    0  0.00000000000E+00  0.00000000000E+00  0.22471677489E+04  0.22471677489E+04  0.50400001928E-02 0. -1.
       -1   -1    0    0    0  501  0.00000000000E+00  0.00000000000E+00 -0.63836108464E+03  0.63836108466E+03  0.50400001928E-02 0.  1.
    10030    2    1    2    0    0  0.00000000000E+00  0.00000000000E+00  0.16088066643E+04  0.28855288336E+04  0.23954159903E+04 0.  0.
        5    1    3    3  502    0  0.88124497898E+03 -0.55790065201E+03  0.95182277174E+02  0.10473431178E+04  0.46999998093E+01 0.  1.
       -5    1    3    3    0  502 -0.88124497898E+03  0.55790065201E+03  0.15136243871E+04  0.18381857158E+04  0.46999998093E+01 0. -1.
</event>
<event>
 5   0  0.3215208E-05  0.2353905E+04  0.7818609E-02  0.8456965E-01
        2   -1    0    0  501    0  0.00000000000E+00  0.00000000000E+00  0.20032073550E+04  0.20032073550E+04  0.25500000920E-02 0.  1.
       -2   -1    0    0    0  501  0.00000000000E+00  0.00000000000E+00 -0.69149952172E+03  0.69149952173E+03  0.25500000920E-02 0. -1.
    10030    2    1    2    0    0  0.00000000000E+00  0.00000000000E+00  0.13117078332E+04  0.26947068767E+04  0.23539047796E+04 0.  0.
        1    1    3    3  502    0  0.47344234834E+03  0.55516783803E+03 -0.40135541783E+03  0.83273354504E+03  0.50400001928E-02 0. -1.
       -1    1    3    3    0  502 -0.47344234834E+03 -0.55516783803E+03  0.17130632511E+04  0.18619733317E+04  0.50400001928E-02 0.  1.
</event>
<event>
 5   0  0.3345974E-05  0.2388707E+04  0.7818609E-02  0.8443744E-01
        2   -1    0    0  501    0  0.00000000000E+00  0.00000000000E+00  0.15251996594E+04  0.15251996594E+04  0.25500000920E-02 0. -1.
       -2   -1    0    0    0  501  0.00000000000E+00  0.00000000000E+00 -0.93527429770E+03  0.93527429770E+03  0.25500000920E-02 0.  1.
    10030    2    1    2    0    0  0.00000000000E+00  0.00000000000E+00  0.58992536171E+03  0.24604739571E+04  0.23887067968E+04 0.  0.
        4    1    3    3  502    0  0.74196043324E+03  0.32706197928E+03 -0.60831257842E+03  0.10136669220E+04  0.12699999809E+01 0.  1.
       -4    1    3    3    0  502 -0.74196043324E+03 -0.32706197928E+03  0.11982379401E+04  0.14468070351E+04  0.12699999809E+01 0. -1.
</event>
<event>
 5   0  0.1147362E-05  0.2399395E+04  0.7818609E-02  0.8439730E-01
       -4   -1    0    0    0  501  0.00000000000E+00  0.00000000000E+00  0.13475825854E+04  0.13475831838E+04  0.12699999809E+01 0.  1.
        4   -1    0    0  501    0  0.00000000000E+00  0.00000000000E+00 -0.10680402565E+04  0.10680410115E+04  0.12699999809E+01 0. -1.
    10030    2    1    2    0    0  0.00000000000E+00  0.00000000000E+00  0.27954232888E+03  0.24156241953E+04  0.23993949945E+04 0.  0.
        5    1    3    3  502    0  0.77920688750E+03 -0.88044675017E+03  0.37992632751E+03  0.12356034792E+04  0.46999998093E+01 0.  1.
       -5    1    3    3    0  502 -0.77920688750E+03  0.88044675017E+03 -0.10038399863E+03  0.11800207162E+04  0.46999998093E+01 0. -1.
</event>
<event>
 5   0  0.1393026E-05  0.2406076E+04  0.7818609E-02  0.8437232E-01
        1   -1    0    0  501    0  0.00000000000E+00  0.00000000000E+00  0.15497990916E+04  0.15497990916E+04  0.50400001928E-02 0.  1.
       -1   -1    0    0    0  501  0.00000000000E+00  0.00000000000E+00 -0.93386341473E+03  0.93386341475E+03  0.50400001928E-02 0. -1.
    10030    2    1    2    0    0  0.00000000000E+00  0.00000000000E+00  0.61593567683E+03  0.24836625063E+04  0.24060762015E+04 0.  0.
        4    1    3    3  502    0 -0.88597921922E+03 -0.53053524380E+03  0.94501687330E+03  0.13998161756E+04  0.12699999809E+01 0.  1.
       -4    1    3    3    0  502  0.88597921922E+03  0.53053524380E+03 -0.32908119646E+03  0.10838463307E+04  0.12699999809E+01 0. -1.
</event>
<event>
 5   0  0.3347728E-05  0.2402762E+04  0.7818609E-02  0.8438470E-01
       -2   -1    0    0    0  501  0.00000000000E+00  0.00000000000E+00  0.75675600073E+03  0.75675600074E+03  0.25500000920E-02 0. -1.
        2   -1    0    0  501    0  0.00000000000E+00  0.00000000000E+00 -0.19072409170E+04  0.19072409170E+04  0.25500000920E-02 0.  1.
    10030    2    1    2    0    0  0.00000000000E+00  0.00000000000E+00 -0.11504849163E+04  0.26639969178E+04  0.24027617517E+04 0.  0.
        3    1    3    3  502    0  0.75144623892E+03  0.37257873544E+02  0.46320919137E+03  0.88352836078E+03  0.10100000352E+00 0. -1.
       -3    1    3    3    0  502 -0.75144623892E+03 -0.37257873544E+02 -0.16136941077E+04  0.17804685570E+04  0.10100000352E+00 0.  1.
</event>
<event>
 5   0  0.1407158E-05  0.2382338E+04  0.7818609E-02  0.8446146E-01
        1   -1    0    0  501    0  0.00000000000E+00  0.00000000000E+00  0.28455382855E+04  0.28455382855E+04  0.50400001928E-02 0. -1.
       -1   -1    0    0    0  501  0.00000000000E+00  0.00000000000E+00 -0.49863439427E+03  0.49863439430E+03  0.50400001928E-02 0.  1.
    10030    2    1    2    0    0  0.00000000000E+00  0.00000000000E+00  0.23469038912E+04  0.33441726798E+04  0.23823377254E+04 0.  0.
        1    1    3    3  502    0 -0.58647170656E+03 -0.55197113604E+03  0.24054346772E+04  0.25366783761E+04  0.50400001928E-02 0. -1.
       -1    1    3    3    0  502  0.58647170656E+03  0.55197113604E+03 -0.58530785926E+02  0.80749430372E+03  0.50400001928E-02 0.  1.
</event>
<event>
 5   0  0.3347728E-05  0.2380983E+04  0.7818609E-02  0.8446658E-01
       -2   -1    0    0    0  501  0.00000000000E+00  0.00000000000E+00  0.71236732864E+03  0.71236732864E+03  0.25500000920E-02 0.  1.
        2   -1    0    0  501    0  0.00000000000E+00  0.00000000000E+00 -0.19895211735E+04  0.19895211735E+04  0.25500000920E-02 0. -1.
    10030    2    1    2    0    0  0.00000000000E+00  0.00000000000E+00 -0.12771538449E+04  0.27018885022E+04  0.23809828926E+04 0.  0.
        3    1    3    3  502    0  0.85103474282E+03 -0.72262737054E+02 -0.15796826008E+04  0.17957948564E+04  0.10100000352E+00 0. -1.
       -3    1    3    3    0  502 -0.85103474282E+03  0.72262737054E+02  0.30252875590E+03  0.90609364582E+03  0.10100000352E+00 0.  1.
</event>
<event>
 5   0  0.1401596E-05  0.2393222E+04  0.7818609E-02  0.8442046E-01
       -1   -1    0    0    0  501  0.00000000000E+00  0.00000000000E+00  0.81483879305E+03  0.81483879306E+03  0.50400001928E-02 0.  1.
        1   -1    0    0  501    0  0.00000000000E+00  0.00000000000E+00 -0.17572528322E+04  0.17572528322E+04  0.50400001928E-02 0. -1.
    10030    2    1    2    0    0  0.00000000000E+00  0.00000000000E+00 -0.94241403916E+03  0.25720916253E+04  0.23932219094E+04 0.  0.
        2    1    3    3  502    0  0.99075194772E+03  0.16767871624E+03 -0.11695170540E+04  0.15419065190E+04  0.25500000920E-02 0.  1.
       -2    1    3    3    0  502 -0.99075194772E+03 -0.16767871624E+03  0.22710301483E+03  0.10301851063E+04  0.25500000920E-02 0. -1.
</event>
<event>
 5   0  0.3215208E-05  0.2393431E+04  0.7818609E-02  0.8441967E-01
       -2   -1    0    0    0  501  0.00000000000E+00  0.00000000000E+00  0.10618728348E+04  0.10618728349E+04  0.25500000920E-02 0. -1.
        2   -1    0    0  501    0  0.00000000000E+00  0.00000000000E+00 -0.13486814488E+04  0.13486814488E+04  0.25500000920E-02 0.  1.
    10030    2    1    2    0    0  0.00000000000E+00  0.00000000000E+00 -0.28680861399E+03  0.24105542837E+04  0.23934311717E+04 0.  0.
        1    1    3    3  502    0 -0.10778317028E+04 -0.44918535749E+02  0.37836509022E+03  0.11431968317E+04  0.50400001928E-02 0. -1.
       -1    1    3    3    0  502  0.10778317028E+04  0.44918535749E+02 -0.66517370421E+03  0.12673574520E+04  0.50400001928E-02 0.  1.
</event>
<event>
 5   0  0.3310037E-05  0.2365030E+04  0.7818609E-02  0.8452713E-01
       -2   -1    0    0    0  501  0.00000000000E+00  0.00000000000E+00  0.73351069614E+03  0.73351069615E+03  0.25500000920E-02 0.  1.
        2   -1    0    0  501    0  0.00000000000E+00  0.00000000000E+00 -0.19063685071E+04  0.19063685071E+04  0.25500000920E-02 0. -1.
    10030    2    1    2    0    0  0.00000000000E+00  0.00000000000E+00 -0.11728578110E+04  0.26398792033E+04  0.23650299709E+04 0.  0.
        2    1    3    3  502    0 -0.15273290892E+03 -0.13988524843E+03 -0.18859657312E+04  0.18973038669E+04  0.25500000920E-02 0. -1.
       -2    1    3    3    0  502  0.15273290892E+03  0.13988524843E+03  0.71310792024E+03  0.74257533632E+03  0.25500000920E-02 0.  1.
</event>
<event>
 5   0  0.1147362E-05  0.2411139E+04  0.7818609E-02  0.8435345E-01
       -3   -1    0    0    0  501  0.00000000000E+00  0.00000000000E+00  0.13946773499E+04  0.13946773536E+04  0.10100000352E+00 0. -1.
        3   -1    0    0  501    0  0.00000000000E+00  0.00000000000E+00 -0.10421028337E+04  0.10421028385E+04  0.10100000352E+00 0.  1.
    10030    2    1    2    0    0  0.00000000000E+00  0.00000000000E+00  0.35257451629E+03  0.24367801922E+04  0.24111385102E+04 0.  0.
        1    1    3    3  502    0  0.85043532487E+03 -0.63373449051E+03 -0.40299032805E+03  0.11345751852E+04  0.50400001928E-02 0.  1.
       -1    1    3    3    0  502 -0.85043532487E+03  0.63373449051E+03  0.75556484434E+03  0.13022050070E+04  0.50400001928E-02 0. -1.
</event>
<event>
 5   0  0.1393026E-05  0.2208177E+04  0.7818609E-02  0.8515033E-01
       -1   -1    0    0    0  501  0.00000000000E+00  0.00000000000E+00  0.96708503459E+03  0.96708503460E+03  0.50400001928E-02 0.  1.
        1   -1    0    0  501    0  0.00000000000E+00  0.00000000000E+00 -0.12605001845E+04  0.12605001845E+04  0.50400001928E-02 0. -1.
    10030    2    1    2    0    0  0.00000000000E+00  0.00000000000E+00 -0.29341514987E+03  0.22275852191E+04  0.22081765007E+04 0.  0.
        4    1    3    3  502    0 -0.10238017922E+04  0.40813635292E+03 -0.80835403184E+02  0.11051159973E+04  0.12699999809E+01 0. -1.
       -4    1    3    3    0  502  0.10238017922E+04 -0.40813635292E+03 -0.21257974669E+03  0.11224692218E+04  0.12699999809E+01 0.  1.
</event>
<event>
 5   0  0.3345974E-05  0.2299029E+04  0.7818609E-02  0.8478304E-01
       -2   -1    0    0    0  501  0.00000000000E+00  0.00000000000E+00  0.83018804107E+03  0.83018804108E+03  0.25500000920E-02 0.  1.
        2   -1    0    0  501    0  0.00000000000E+00  0.00000000000E+00 -0.15916674039E+04  0.15916674039E+04  0.25500000920E-02 0. -1.
    10030    2    1    2    0    0  0.00000000000E+00  0.00000000000E+00 -0.76147936284E+03  0.24218554450E+04  0.22990287028E+04 0.  0.
        4    1    3    3  502    0  0.21509060498E+03 -0.52948377258E+03 -0.14314040026E+04  0.15412774135E+04  0.12699999809E+01 0. -1.
       -4    1    3    3    0  502 -0.21509060498E+03  0.52948377258E+03  0.66992463974E+03  0.88057803153E+03  0.12699999809E+01 0.  1.
</event>
<event>
 5   0  0.3320780E-05  0.2024838E+04  0.7818609E-02  0.8595095E-01
       -2   -1    0    0    0  501  0.00000000000E+00  0.00000000000E+00  0.11472331559E+04  0.11472331559E+04  0.25500000920E-02 0.  1.
        2   -1    0    0  501    0  0.00000000000E+00  0.00000000000E+00 -0.89344755513E+03  0.89344755514E+03  0.25500000920E-02 0. -1.
    10030    2    1    2    0    0  0.00000000000E+00  0.00000000000E+00  0.25378560074E+03  0.20406807110E+04  0.20248384215E+04 0.  0.
        5    1    3    3  502    0 -0.16962089161E+03 -0.90672219162E+03  0.54735496906E+03  0.10726303799E+04  0.46999998093E+01 0.  1.
       -5    1    3    3    0  502  0.16962089161E+03  0.90672219162E+03 -0.29356936832E+03  0.96805033116E+03  0.46999998093E+01 0. -1.
</event>
<event>
 5   0  0.1407158E-05  0.2400859E+04  0.7818609E-02  0.8439182E-01
       -1   -1    0    0    0  501  0.00000000000E+00  0.00000000000E+00  0.16983504252E+04  0.16983504252E+04  0.50400001928E-02 0. -1.
        1   -1    0    0  501    0  0.00000000000E+00  0.00000000000E+00 -0.84848863424E+03  0.84848863425E+03  0.50400001928E-02 0.  1.
    10030    2    1    2    0    0  0.00000000000E+00  0.00000000000E+00  0.84986179092E+03  0.25468390594E+04  0.24008590402E+04 0.  0.
        1    1    3    3  502    0 -0.26129265166E+02 -0.44082459729E+02  0.16971896151E+04  0.16979630712E+04  0.50400001928E-02 0. -1.
       -1    1    3    3    0  502  0.26129265166E+02  0.44082459729E+02 -0.84732782413E+03  0.84887598819E+03  0.50400001928E-02 0.  1.
</event>
<event>
 5   0  0.3345974E-05  0.2398035E+04  0.7818609E-02  0.8440240E-01
        2   -1    0    0  501    0  0.00000000000E+00  0.00000000000E+00  0.10969306580E+04  0.10969306580E+04  0.25500000920E-02 0.  1.
       -2   -1    0    0    0  501  0.00000000000E+00  0.00000000000E+00 -0.13106049265E+04  0.13106049265E+04  0.25500000920E-02 0. -1.
    10030    2    1    2    0    0  0.00000000000E+00  0.00000000000E+00 -0.21367426849E+03  0.24075355845E+04  0.23980347990E+04 0.  0.
        4    1    3    3  502    0 -0.10632102619E+04  0.83013764130E+02 -0.65703552309E+03  0.12525991528E+04  0.12699999809E+01 0. -1.
       -4    1    3    3    0  502  0.10632102619E+04 -0.83013764130E+02  0.44336125460E+03  0.11549364316E+04  0.12699999809E+01 0.  1.
</event>
<event>
 5   0  0.1506985E-05  0.2370222E+04  0.7818609E-02  0.8450737E-01
        1   -1    0    0  501    0  0.00000000000E+00  0.00000000000E+00  0.12413164667E+04  0.12413164667E+04  0.50400001928E-02 0. -1.
       -1   -1    0    0    0  501  0.00000000000E+00  0.00000000000E+00 -0.11314500184E+04  0.11314500184E+04  0.50400001928E-02 0.  1.
    10030    2    1    2    0    0  0.00000000000E+00  0.00000000000E+00  0.10986644830E+03  0.23727664851E+04  0.23702215416E+04 0.  0.
        3    1    3    3  502    0  0.68655233515E+03 -0.75678543554E+03  0.65591874306E+03  0.12142107363E+04  0.10100000352E+00 0. -1.
       -3    1    3    3    0  502 -0.68655233515E+03  0.75678543554E+03 -0.54605229476E+03  0.11585557488E+04  0.10100000352E+00 0.  1.
</event>
<event>
 5   0  0.1401596E-05  0.2400236E+04  0.7818609E-02  0.8439415E-01
       -1   -1    0    0    0  501  0.00000000000E+00  0.00000000000E+00  0.22520754991E+04  0.22520754991E+04  0.50400001928E-02 0.  1.
        1   -1    0    0  501    0  0.00000000000E+00  0.00000000000E+00 -0.63953597793E+03  0.63953597795E+03  0.50400001928E-02 0. -1.
    10030    2    1    2    0    0  0.00000000000E+00  0.00000000000E+00  0.16125395211E+04  0.28916114770E+04  0.24002360773E+04 0.  0.
        2    1    3    3  502    0 -0.77415544588E+03  0.72761883851E+03  0.14786905476E+04  0.18207887203E+04  0.25500000920E-02 0.  1.
       -2    1    3    3    0  502  0.77415544588E+03 -0.72761883851E+03  0.13384897356E+03  0.10708227567E+04  0.25500000920E-02 0. -1.
</event>
<event>
 5   0  0.1401596E-05  0.2400241E+04  0.7818609E-02  0.8439413E-01
        1   -1    0    0  501    0  0.00000000000E+00  0.00000000000E+00  0.76878251065E+03  0.76878251066E+03  0.50400001928E-02 0. -1.
       -1   -1    0    0    0  501  0.00000000000E+00  0.00000000000E+00 -0.18734679509E+04  0.18734679509E+04  0.50400001928E-02 0.  1.
    10030    2    1    2    0    0  0.00000000000E+00  0.00000000000E+00 -0.11046854403E+04  0.26422504616E+04  0.24002411503E+04 0.  0.
        2    1    3    3  502    0 -0.88141178161E+03 -0.21870222842E+03 -0.14160339992E+04  0.16822216502E+04  0.25500000920E-02 0.  1.
       -2    1    3    3    0  502  0.88141178161E+03  0.21870222842E+03  0.31134855897E+03  0.96002881136E+03  0.25500000920E-02 0. -1.
</event>
<event>
 5   0  0.1407158E-05  0.2326966E+04  0.7818609E-02  0.8467364E-01
       -1   -1    0    0    0  501  0.00000000000E+00  0.00000000000E+00  0.14390938086E+04  0.14390938086E+04  0.50400001928E-02 0. -1.
        1   -1    0    0  501    0  0.00000000000E+00  0.00000000000E+00 -0.94065667276E+03  0.94065667277E+03  0.50400001928E-02 0.  1.
    10030    2    1    2    0    0  0.00000000000E+00  0.00000000000E+00  0.49843713581E+03  0.23797504813E+04  0.23269664319E+04 0.  0.
        1    1    3    3  502    0  0.64160241632E+03  0.10731454101E+03  0.12357362859E+04  0.13965007124E+04  0.50400001928E-02 0. -1.
       -1    1    3    3    0  502 -0.64160241632E+03 -0.10731454101E+03 -0.73729915012E+03  0.98324976895E+03  0.50400001928E-02 0.  1.
</event>
<event>
 5   0  0.1434943E-05  0.2296604E+04  0.7818609E-02  0.8479261E-01
        1   -1    0    0  501    0  0.00000000000E+00  0.00000000000E+00  0.15519087887E+04  0.15519087887E+04  0.50400001928E-02 0.  1.
       -1   -1    0    0    0  501  0.00000000000E+00  0.00000000000E+00 -0.84966148503E+03  0.84966148504E+03  0.50400001928E-02 0. -1.
    10030    2    1    2    0    0  0.00000000000E+00  0.00000000000E+00  0.70224730363E+03  0.24015702737E+04  0.22966036890E+04 0.  0.
        5    1    3    3  502    0 -0.10767005491E+04  0.39909308547E+03  0.35526346800E+03  0.12019956676E+04  0.46999998093E+01 0.  1.
       -5    1    3    3    0  502  0.10767005491E+04 -0.39909308547E+03  0.34698383564E+03  0.11995746061E+04  0.46999998093E+01 0. -1.
</event>
<event>
 5   0  0.1401596E-05  0.2354855E+04  0.7818609E-02  0.8456601E-01
       -1   -1    0    0    0  501  0.00000000000E+00  0.00000000000E+00  0.64907268419E+03  0.64907268421E+03  0.50400001928E-02 0.  1.
        1   -1    0    0  501    0  0.00000000000E+00  0.00000000000E+00 -0.21358704019E+04  0.21358704019E+04  0.50400001928E-02 0. -1.
    10030    2    1    2    0    0  0.00000000000E+00  0.00000000000E+00 -0.14867977177E+04  0.27849430861E+04  0.23548546748E+04 0.  0.
        2    1    3    3  502    0 -0.87847765282E+03  0.64200026267E+03 -0.12755178466E+04  0.16765539362E+04  0.25500000920E-02 0. -1.
       -2    1    3    3    0  502  0.87847765282E+03 -0.64200026267E+03 -0.21127987106E+03  0.11083891499E+04  0.25500000920E-02 0.  1.
</event>
<event>
 5   0  0.3345974E-05  0.2391711E+04  0.7818609E-02  0.8442613E-01
       -2   -1    0    0    0  501  0.00000000000E+00  0.00000000000E+00  0.15131747463E+04  0.15131747463E+04  0.25500000920E-02 0.  1.
        2   -1    0    0  501    0  0.00000000000E+00  0.00000000000E+00 -0.94507963545E+03  0.94507963545E+03  0.25500000920E-02 0. -1.
    10030    2    1    2    0    0  0.00000000000E+00  0.00000000000E+00  0.56809511083E+03  0.24582543817E+04  0.23917112180E+04 0.  0.
        4    1    3    3  502    0  0.60132018193E+03  0.68882131188E+03 -0.50811502716E+03  0.10460608274E+04  0.12699999809E+01 0. -1.
       -4    1    3    3    0  502 -0.60132018193E+03 -0.68882131188E+03  0.10762101380E+04  0.14121935543E+04  0.12699999809E+01 0.  1.
</event>
<event>
 5   0  0.3345974E-05  0.2396499E+04  0.7818609E-02  0.8440815E-01
        2   -1    0    0  501    0  0.00000000000E+00  0.00000000000E+00  0.10614280386E+04  0.10614280386E+04  0.25500000920E-02 0. -1.
       -2   -1    0    0    0  501  0.00000000000E+00  0.00000000000E+00 -0.13527080457E+04  0.13527080457E+04  0.25500000920E-02 0.  1.
    10030    2    1    2    0    0  0.00000000000E+00  0.00000000000E+00 -0.29128000707E+03  0.24141360843E+04  0.23964993200E+04 0.  0.
        4    1    3    3  502    0 -0.31977872720E+03  0.10434914932E+04 -0.64391920618E+03  0.12671884184E+04  0.12699999809E+01 0.  1.
       -4    1    3    3    0  502  0.31977872720E+03 -0.10434914932E+04  0.35263919911E+03  0.11469476659E+04  0.12699999809E+01 0. -1.
</event>
<event>
 5   0  0.3215208E-05  0.2419786E+04  0.7818609E-02  0.8432133E-01
       -2   -1    0    0    0  501  0.00000000000E+00  0.00000000000E+00  0.88084247862E+03  0.88084247863E+03  0.25500000920E-02 0. -1.
        2   -1    0    0  501    0  0.00000000000E+00  0.00000000000E+00 -0.16618643197E+04  0.16618643197E+04  0.25500000920E-02 0.  1.
    10030    2    1    2    0    0  0.00000000000E+00  0.00000000000E+00 -0.78102184106E+03  0.25427067983E+04  0.24197856818E+04 0.  0.
        1    1    3    3  502    0 -0.64806464827E+03 -0.23672135021E+01  0.68307761833E+03  0.94158824585E+03  0.50400001928E-02 0. -1.
       -1    1    3    3    0  502  0.64806464827E+03  0.23672135021E+01 -0.14640994594E+04  0.16011185525E+04  0.50400001928E-02 0.  1.
</event>
<event>
 5   0  0.1393026E-05  0.2424907E+04  0.7818609E-02  0.8430237E-01
       -1   -1    0    0    0  501  0.00000000000E+00  0.00000000000E+00  0.20503164307E+04  0.20503164307E+04  0.50400001928E-02 0. -1.
        1   -1    0    0  501    0  0.00000000000E+00  0.00000000000E+00 -0.71698342011E+03  0.71698342013E+03  0.50400001928E-02 0.  1.
    10030    2    1    2    0    0  0.00000000000E+00  0.00000000000E+00  0.13333330106E+04  0.27672998508E+04  0.24249065028E+04 0.  0.
        4    1    3    3  502    0  0.73081936339E+03 -0.10490981984E+03  0.17641995227E+04  0.19124603475E+04  0.12699999809E+01 0. -1.
       -4    1    3    3    0  502 -0.73081936339E+03  0.10490981984E+03 -0.43086651210E+03  0.85483950327E+03  0.12699999809E+01 0.  1.
</event>
<event>
 5   0  0.1393026E-05  0.2401577E+04  0.7818609E-02  0.8438914E-01
        1   -1    0    0  501    0  0.00000000000E+00  0.00000000000E+00  0.97056880403E+03  0.97056880404E+03  0.50400001928E-02 0. -1.
       -1   -1    0    0    0  501  0.00000000000E+00  0.00000000000E+00 -0.14856160355E+04  0.14856160355E+04  0.50400001928E-02 0.  1.
    10030    2    1    2    0    0  0.00000000000E+00  0.00000000000E+00 -0.51504723150E+03  0.24561848396E+04  0.24015766312E+04 0.  0.
        4    1    3    3  502    0 -0.11880387384E+04 -0.17134714209E+03 -0.22367917756E+03  0.12209954441E+04  0.12699999809E+01 0.  1.
       -4    1    3    3    0  502  0.11880387384E+04  0.17134714209E+03 -0.29136805395E+03  0.12351893955E+04  0.12699999809E+01 0. -1.
</event>
<event>
 5   0  0.3320780E-05  0.2407898E+04  0.7818609E-02  0.8436553E-01
        2   -1    0    0  501    0  0.00000000000E+00  0.00000000000E+00  0.21168908731E+04  0.21168908731E+04  0.25500000920E-02 0. -1.
       -2   -1    0    0    0  501  0.00000000000E+00  0.00000000000E+00 -0.68472721102E+03  0.68472721103E+03  0.25500000920E-02 0.  1.
    10030    2    1    2    0    0  0.00000000000E+00  0.00000000000E+00  0.14321636621E+04  0.28016180842E+04  0.24078976586E+04 0.  0.
        5    1    3    3  502    0  0.87295549787E+03  0.82434913219E+03  0.61287692568E+03  0.13480515602E+04  0.46999998093E+01 0. -1.
       -5    1    3    3    0  502 -0.87295549787E+03 -0.82434913219E+03  0.81928673642E+03  0.14535665239E+04  0.46999998093E+01 0.  1.
</event>
<event>
 5   0  0.1434943E-05  0.2192510E+04  0.7818609E-02  0.8521552E-01
       -1   -1    0    0    0  501  0.00000000000E+00  0.00000000000E+00  0.47920047144E+03  0.47920047146E+03  0.50400001928E-02 0. -1.
        1   -1    0    0  501    0  0.00000000000E+00  0.00000000000E+00 -0.25078756383E+04  0.25078756383E+04  0.50400001928E-02 0.  1.
    10030    2    1    2    0    0  0.00000000000E+00  0.00000000000E+00 -0.20286751669E+04  0.29870761098E+04  0.21925101489E+04 0.  0.
        5    1    3    3  502    0  0.10947855491E+03 -0.23578784187E+03  0.43658442188E+03  0.50814319614E+03  0.46999998093E+01 0. -1.
       -5    1    3    3    0  502 -0.10947855491E+03  0.23578784187E+03 -0.24652595887E+04  0.24789329136E+04  0.46999998093E+01 0.  1.
</event>
<event>
 5   0  0.1434943E-05  0.2452864E+04  0.7818609E-02  0.8419973E-01
        1   -1    0    0  501    0  0.00000000000E+00  0.00000000000E+00  0.68719841117E+03  0.68719841119E+03  0.50400001928E-02 0.  1.
       -1   -1    0    0    0  501  0.00000000000E+00  0.00000000000E+00 -0.21887944242E+04  0.21887944242E+04  0.50400001928E-02 0. -1.
    10030    2    1    2    0    0  0.00000000000E+00  0.00000000000E+00 -0.15015960130E+04  0.28759928354E+04  0.24528644893E+04 0.  0.
        5    1    3    3  502    0  0.86960045142E+03 -0.32180589794E+03  0.19038733253E+03  0.94659041166E+03  0.46999998093E+01 0.  1.
       -5    1    3    3    0  502 -0.86960045142E+03  0.32180589794E+03 -0.16919833455E+04  0.19294024237E+04  0.46999998093E+01 0. -1.
</event>
<event>
 5   0  0.3310037E-05  0.2213107E+04  0.7818609E-02  0.8512992E-01
        2   -1    0    0  501    0  0.00000000000E+00  0.00000000000E+00  0.20538196440E+04  0.20538196440E+04  0.25500000920E-02 0.  1.
       -2   -1    0    0    0  501  0.00000000000E+00  0.00000000000E+00 -0.59618705127E+03  0.59618705127E+03  0.25500000920E-02 0. -1.
    10030    2    1    2    0    0  0.00000000000E+00  0.00000000000E+00  0.14576325928E+04  0.26500066953E+04  0.22131070263E+04 0.  0.
        2    1    3    3  502    0 -0.91561998477E+03  0.96103766620E+02  0.14639009132E+04  0.17293356453E+04  0.25500000920E-02 0.  1.
       -2    1    3    3    0  502  0.91561998477E+03 -0.96103766620E+02 -0.62683204284E+01  0.92067105000E+03  0.25500000920E-02 0. -1.
</event>
<event>
 5   0  0.1506985E-05  0.2406187E+04  0.7818609E-02  0.8437191E-01
        1   -1    0    0  501    0  0.00000000000E+00  0.00000000000E+00  0.13277021335E+04  0.13277021335E+04  0.50400001928E-02 0. -1.
       -1   -1    0    0    0  501  0.00000000000E+00  0.00000000000E+00 -0.10901799172E+04  0.10901799172E+04  0.50400001928E-02 0.  1.
    10030    2    1    2    0    0  0.00000000000E+00  0.00000000000E+00  0.23752221628E+03  0.24178820507E+04  0.24061871930E+04 0.  0.
        3    1    3    3  502    0 -0.11447294895E+04  0.32175980047E+03  0.30267860076E+03  0.12270082799E+04  0.10100000352E+00 0. -1.
       -3    1    3    3    0  502  0.11447294895E+04 -0.32175980047E+03 -0.65156384483E+02  0.11908737708E+04  0.10100000352E+00 0.  1.
</event>
<event>
 5   0  0.3347728E-05  0.2424410E+04  0.7818609E-02  0.8430421E-01
       -2   -1    0    0    0  501  0.00000000000E+00  0.00000000000E+00  0.90489512001E+03  0.90489512001E+03  0.25500000920E-02 0.  1.
        2   -1    0    0  501    0  0.00000000000E+00  0.00000000000E+00 -0.16238801918E+04  0.16238801918E+04  0.25500000920E-02 0. -1.
    10030    2    1    2    0    0  0.00000000000E+00  0.00000000000E+00 -0.71898507178E+03  0.25287753118E+04  0.24244102467E+04 0.  0.
        3    1    3    3  502    0  0.97006568536E+03  0.40386579906E+03 -0.98991644173E+03  0.14436306970E+04  0.10100000352E+00 0. -1.
       -3    1    3    3    0  502 -0.97006568536E+03 -0.40386579906E+03  0.27093136995E+03  0.10851446148E+04  0.10100000352E+00 0.  1.
</event>
<event>
 5   0  0.3345974E-05  0.2322237E+04  0.7818609E-02  0.8469205E-01
        2   -1    0    0  501    0  0.00000000000E+00  0.00000000000E+00  0.15939877726E+04  0.15939877726E+04  0.25500000920E-02 0.  1.
       -2   -1    0    0    0  501  0.00000000000E+00  0.00000000000E+00 -0.84580048354E+03  0.84580048354E+03  0.25500000920E-02 0. -1.
    10030    2    1    2    0    0  0.00000000000E+00  0.00000000000E+00  0.74818728909E+03  0.24397882562E+04  0.23222365330E+04 0.  0.
        4    1    3    3  502    0  0.13449434067E+03 -0.10672571537E+04  0.83333294236E+03  0.13607247942E+04  0.12699999809E+01 0.  1.
       -4    1    3    3    0  502 -0.13449434067E+03  0.10672571537E+04 -0.85145653278E+02  0.10790634620E+04  0.12699999809E+01 0. -1.
</event>
<event>
 5   0  0.3345974E-05  0.2404760E+04  0.7818609E-02  0.8437724E-01
       -2   -1    0    0    0  501  0.00000000000E+00  0.00000000000E+00  0.19391851486E+04  0.19391851486E+04  0.25500000920E-02 0.  1.
        2   -1    0    0  501    0  0.00000000000E+00  0.00000000000E+00 -0.74552815533E+03  0.74552815533E+03  0.25500000920E-02 0. -1.
    10030    2    1    2    0    0  0.00000000000E+00  0.00000000000E+00  0.11936569933E+04  0.26847133040E+04  0.24047595528E+04 0.  0.
        4    1    3    3  502    0 -0.71867727930E+02  0.55357299147E+03  0.17857505011E+04  0.18709661921E+04  0.12699999809E+01 0.  1.
       -4    1    3    3    0  502  0.71867727930E+02 -0.55357299147E+03 -0.59209350774E+03  0.81374711183E+03  0.12699999809E+01 0. -1.
</event>
<event>
 5   0  0.1401596E-05  0.2327417E+04  0.7818609E-02  0.8467189E-01
       -1   -1    0    0    0  501  0.00000000000E+00  0.00000000000E+00  0.14606273793E+04  0.14606273793E+04  0.50400001928E-02 0. -1.
        1   -1    0    0  501    0  0.00000000000E+00  0.00000000000E+00 -0.92714811716E+03  0.92714811717E+03  0.50400001928E-02 0.  1.
    10030    2    1    2    0    0  0.00000000000E+00  0.00000000000E+00  0.53347926214E+03  0.23877754965E+04  0.23274173881E+04 0.  0.
        2    1    3    3  502    0 -0.97789936668E+03 -0.44749657499E+03 -0.18940011019E+03  0.10919765372E+04  0.25500000920E-02 0. -1.
       -2    1    3    3    0  502  0.97789936668E+03  0.44749657499E+03  0.72287937233E+03  0.12957989593E+04  0.25500000920E-02 0.  1.
</event>
<event>
 5   0  0.3215208E-05  0.2353904E+04  0.7818609E-02  0.8456966E-01
        2   -1    0    0  501    0  0.00000000000E+00  0.00000000000E+00  0.72391810714E+03  0.72391810715E+03  0.25500000920E-02 0.  1.
       -2   -1    0    0    0  501  0.00000000000E+00  0.00000000000E+00 -0.19134975292E+04  0.19134975292E+04  0.25500000920E-02 0. -1.
    10030    2    1    2    0    0  0.00000000000E+00  0.00000000000E+00 -0.11895794220E+04  0.26374156363E+04  0.23539035744E+04 0.  0.
        1    1    3    3  502    0  0.90345418605E+03 -0.59385640522E+03 -0.73668367658E+02  0.10836613515E+04  0.50400001928E-02 0.  1.
       -1    1    3    3    0  502 -0.90345418605E+03  0.59385640522E+03 -0.11159110544E+04  0.15537542848E+04  0.50400001928E-02 0. -1.
</event>
<event>
 5   0  0.1407158E-05  0.2392496E+04  0.7818609E-02  0.8442318E-01
        1   -1    0    0  501    0  0.00000000000E+00  0.00000000000E+00  0.79893996849E+03  0.79893996851E+03  0.50400001928E-02 0.  1.
       -1   -1    0    0    0  501  0.00000000000E+00  0.00000000000E+00 -0.17911341959E+04  0.17911341959E+04  0.50400001928E-02 0. -1.
    10030    2    1    2    0    0  0.00000000000E+00  0.00000000000E+00 -0.99219422737E+03  0.25900741644E+04  0.23924955156E+04 0.  0.
        1    1    3    3  502    0 -0.49640004880E+03  0.44186962242E+03  0.58070369215E+03  0.88254096209E+03  0.50400001928E-02 0.  1.
       -1    1    3    3    0  502  0.49640004880E+03 -0.44186962242E+03 -0.15728979195E+04  0.17075332023E+04  0.50400001928E-02 0. -1.
</event>
<event>
 5   0  0.1434943E-05  0.2397627E+04  0.7818609E-02  0.8440392E-01
       -1   -1    0    0    0  501  0.00000000000E+00  0.00000000000E+00  0.13106293260E+04  0.13106293260E+04  0.50400001928E-02 0.  1.
        1   -1    0    0  501    0  0.00000000000E+00  0.00000000000E+00 -0.10965376391E+04  0.10965376391E+04  0.50400001928E-02 0. -1.
    10030    2    1    2    0    0  0.00000000000E+00  0.00000000000E+00  0.21409168697E+03  0.24071669651E+04  0.23976274831E+04 0.  0.
        5    1    3    3  502    0  0.10584171638E+02  0.44405174146E+03  0.12249563419E+04  0.13030096329E+04  0.46999998093E+01 0.  1.
       -5    1    3    3    0  502 -0.10584171638E+02 -0.44405174146E+03 -0.10108646549E+04  0.11041573323E+04  0.46999998093E+01 0. -1.
</event>
<event>
 5   0  0.3215208E-05  0.2398484E+04  0.7818609E-02  0.8440071E-01
        2   -1    0    0  501    0  0.00000000000E+00  0.00000000000E+00  0.10288243465E+04  0.10288243465E+04  0.25500000920E-02 0. -1.
       -2   -1    0    0    0  501  0.00000000000E+00  0.00000000000E+00 -0.13978877087E+04  0.13978877087E+04  0.25500000920E-02 0.  1.
    10030    2    1    2    0    0  0.00000000000E+00  0.00000000000E+00 -0.36906336220E+03  0.24267120552E+04  0.23984836113E+04 0.  0.
        1    1    3    3  502    0 -0.39890311949E+03 -0.12000493765E+03 -0.13223363222E+04  0.13863975739E+04  0.50400001928E-02 0.  1.
       -1    1    3    3    0  502  0.39890311949E+03  0.12000493765E+03  0.95327295999E+03  0.10403144813E+04  0.50400001928E-02 0. -1.
</event>
<event>
 5   0  0.1434943E-05  0.2240631E+04  0.7818609E-02  0.8501705E-01
        1   -1    0    0  501    0  0.00000000000E+00  0.00000000000E+00  0.83862052531E+03  0.83862052533E+03  0.50400001928E-02 0.  1.
       -1   -1    0    0    0  501  0.00000000000E+00  0.00000000000E+00 -0.14966319862E+04  0.14966319862E+04  0.50400001928E-02 0. -1.
    10030    2    1    2    0    0  0.00000000000E+00  0.00000000000E+00 -0.65801146091E+03  0.23352525116E+04  0.22406305385E+04 0.  0.
        5    1    3    3  502    0  0.11076337497E+03 -0.11132673259E+04 -0.39023662172E+03  0.11848794770E+04  0.46999998093E+01 0.  1.
       -5    1    3    3    0  502 -0.11076337497E+03  0.11132673259E+04 -0.26777483919E+03  0.11503730346E+04  0.46999998093E+01 0. -1.
</event>
<event>
 5   0  0.1506985E-05  0.2395777E+04  0.7818609E-02  0.8441086E-01
        1   -1    0    0  501    0  0.00000000000E+00  0.00000000000E+00  0.17410119022E+04  0.17410119022E+04  0.50400001928E-02 0. -1.
       -1   -1    0    0    0  501  0.00000000000E+00  0.00000000000E+00 -0.82419738134E+03  0.82419738136E+03  0.50400001928E-02 0.  1.
    10030    2    1    2    0    0  0.00000000000E+00  0.00000000000E+00  0.91681452086E+03  0.25652092836E+04  0.23957774944E+04 0.  0.
        3    1    3    3  502    0 -0.66842442236E+03  0.51902566078E+03 -0.44934606334E+03  0.95817051708E+03  0.10100000352E+00 0.  1.
       -3    1    3    3    0  502  0.66842442236E+03 -0.51902566078E+03  0.13661605842E+04  0.16070387665E+04  0.10100000352E+00 0. -1.
</event>
<event>
 5   0  0.1393026E-05  0.2393336E+04  0.7818609E-02  0.8442003E-01
        1   -1    0    0  501    0  0.00000000000E+00  0.00000000000E+00  0.19346736601E+04  0.19346736601E+04  0.50400001928E-02 0. -1.
       -1   -1    0    0    0  501  0.00000000000E+00  0.00000000000E+00 -0.74018362540E+03  0.74018362542E+03  0.50400001928E-02 0.  1.
    10030    2    1    2    0    0  0.00000000000E+00  0.00000000000E+00  0.11944900347E+04  0.26748572855E+04  0.23933355500E+04 0.  0.
        4    1    3    3  502    0  0.83951705801E+03 -0.24589919095E+03  0.15098456516E+04  0.17449615490E+04  0.12699999809E+01 0. -1.
       -4    1    3    3    0  502 -0.83951705801E+03  0.24589919095E+03 -0.31535561693E+03  0.92989573654E+03  0.12699999809E+01 0.  1.
</event>
<event>
 5   0  0.3320780E-05  0.2398747E+04  0.7818609E-02  0.8439973E-01
       -2   -1    0    0    0  501  0.00000000000E+00  0.00000000000E+00  0.12261969111E+04  0.12261969111E+04  0.25500000920E-02 0.  1.
        2   -1    0    0  501    0  0.00000000000E+00  0.00000000000E+00 -0.11731365546E+04  0.11731365546E+04  0.25500000920E-02 0. -1.
    10030    2    1    2    0    0  0.00000000000E+00  0.00000000000E+00  0.53060356530E+02  0.23993334656E+04  0.23987466890E+04 0.  0.
        5    1    3    3  502    0 -0.13394025390E+03 -0.11768680165E+04 -0.16197283892E+03  0.11954980595E+04  0.46999998093E+01 0.  1.
       -5    1    3    3    0  502  0.13394025390E+03  0.11768680165E+04  0.21503319545E+03  0.12038354061E+04  0.46999998093E+01 0. -1.
</event>
<event>
 5   0  0.3215208E-05  0.2385705E+04  0.7818609E-02  0.8444875E-01
       -2   -1    0    0    0  501  0.00000000000E+00  0.00000000000E+00  0.78160951634E+03  0.78160951634E+03  0.25500000920E-02 0.  1.
        2   -1    0    0  501    0  0.00000000000E+00  0.00000000000E+00 -0.18204706762E+04  0.18204706762E+04  0.25500000920E-02 0. -1.
    10030    2    1    2    0    0  0.00000000000E+00  0.00000000000E+00 -0.10388611599E+04  0.26020801926E+04  0.23857050989E+04 0.  0.
        1    1    3    3  502    0  0.10087499155E+03  0.12237067282E+03  0.77006001991E+03  0.78622056688E+03  0.50400001928E-02 0.  1.
       -1    1    3    3    0  502 -0.10087499155E+03 -0.12237067282E+03 -0.18089211798E+04  0.18158596257E+04  0.50400001928E-02 0. -1.
</event>
<event>
 5   0  0.1401596E-05  0.2405909E+04  0.7818609E-02  0.8437295E-01
        1   -1    0    0  501    0  0.00000000000E+00  0.00000000000E+00  0.10805604526E+04  0.10805604526E+04  0.50400001928E-02 0.  1.
       -1   -1    0    0    0  501  0.00000000000E+00  0.00000000000E+00 -0.13392123013E+04  0.13392123013E+04  0.50400001928E-02 0. -1.
    10030    2    1    2    0    0  0.00000000000E+00  0.00000000000E+00 -0.25865184868E+03  0.24197727540E+04  0.24059092672E+04 0.  0.
        2    1    3    3  502    0  0.66012402189E+03 -0.33918387903E+03  0.82285552288E+03  0.11081067817E+04  0.25500000920E-02 0.  1.
       -2    1    3    3    0  502 -0.66012402189E+03  0.33918387903E+03 -0.10815073716E+04  0.13116659723E+04  0.25500000920E-02 0. -1.
</event>
<event>
 5   0  0.1434943E-05  0.2393759E+04  0.7818609E-02  0.8441844E-01
       -1   -1    0    0    0  501  0.00000000000E+00  0.00000000000E+00  0.99647256886E+03  0.99647256887E+03  0.50400001928E-02 0.  1.
        1   -1    0    0  501    0  0.00000000000E+00  0.00000000000E+00 -0.14375913551E+04  0.14375913551E+04  0.50400001928E-02 0. -1.
    10030    2    1    2    0    0  0.00000000000E+00  0.00000000000E+00 -0.44111878619E+03  0.24340639239E+04  0.23937588438E+04 0.  0.
        5    1    3    3  502    0  0.39638271354E+03 -0.70658425370E+03 -0.11163683016E+04  0.13793769746E+04  0.46999998093E+01 0. -1.
       -5    1    3    3    0  502 -0.39638271354E+03  0.70658425370E+03  0.67524951538E+03  0.10546869494E+04  0.46999998093E+01 0.  1.
</event>
<event>
 5   0  0.3347728E-05  0.2013034E+04  0.7818609E-02  0.8600551E-01
        2   -1    0    0  501    0  0.00000000000E+00  0.00000000000E+00  0.75093447567E+03  0.75093447568E+03  0.25500000920E-02 0. -1.
       -2   -1    0    0    0  501  0.00000000000E+00  0.00000000000E+00 -0.13490875751E+04  0.13490875751E+04  0.25500000920E-02 0.  1.
    10030    2    1    2    0    0  0.00000000000E+00  0.00000000000E+00 -0.59815309943E+03  0.21000220508E+04  0.20130339002E+04 0.  0.
        3    1    3    3  502    0 -0.93143947586E+03  0.30742075899E+03 -0.63510627947E+02  0.98291435554E+03  0.10100000352E+00 0. -1.
       -3    1    3    3    0  502  0.93143947586E+03 -0.30742075899E+03 -0.53464247148E+03  0.11171076952E+04  0.10100000352E+00 0.  1.
</event>
<event>
 5   0  0.3215208E-05  0.2427335E+04  0.7818609E-02  0.8429340E-01
        2   -1    0    0  501    0  0.00000000000E+00  0.00000000000E+00  0.19626178217E+04  0.19626178217E+04  0.25500000920E-02 0.  1.
       -2   -1    0    0    0  501  0.00000000000E+00  0.00000000000E+00 -0.75052240202E+03  0.75052240203E+03  0.25500000920E-02 0. -1.
    10030    2    1    2    0    0  0.00000000000E+00  0.00000000000E+00  0.12120954197E+04  0.27131402238E+04  0.24273348692E+04 0.  0.
        1    1    3    3  502    0  0.17116505808E+02 -0.96188748053E+03 -0.22098363786E+03  0.98709384975E+03  0.50400001928E-02 0. -1.
       -1    1    3    3    0  502 -0.17116505808E+02  0.96188748053E+03  0.14330790576E+04  0.17260463740E+04  0.50400001928E-02 0.  1.
</event>
<event>
 5   0  0.1147362E-05  0.2386050E+04  0.7818609E-02  0.8444745E-01
        3   -1    0    0  501    0  0.00000000000E+00  0.00000000000E+00  0.16439769668E+04  0.16439769699E+04  0.10100000352E+00 0. -1.
       -3   -1    0    0    0  501  0.00000000000E+00  0.00000000000E+00 -0.86577160336E+03  0.86577160926E+03  0.10100000352E+00 0.  1.
    10030    2    1    2    0    0  0.00000000000E+00  0.00000000000E+00  0.77820536339E+03  0.25097485791E+04  0.23860499456E+04 0.  0.
        2    1    3    3  502    0 -0.11101491694E+04 -0.34717594794E+03  0.11012387033E+03  0.11683704823E+04  0.25500000920E-02 0.  1.
       -2    1    3    3    0  502  0.11101491694E+04  0.34717594794E+03  0.66808149307E+03  0.13413780968E+04  0.25500000920E-02 0. -1.
</event>
<event>
 5   0  0.1401596E-05  0.2403145E+04  0.7818609E-02  0.8438327E-01
        1   -1    0    0  501    0  0.00000000000E+00  0.00000000000E+00  0.20730038975E+04  0.20730038975E+04  0.50400001928E-02 0.  1.
       -1   -1    0    0    0  501  0.00000000000E+00  0.00000000000E+00 -0.69646585008E+03  0.69646585010E+03  0.50400001928E-02 0. -1.
    10030    2    1    2    0    0  0.00000000000E+00  0.00000000000E+00  0.13765380474E+04  0.27694697476E+04  0.24031449575E+04 0.  0.
        2    1    3    3  502    0 -0.45414582229E+03 -0.29063434978E+03 -0.54922339832E+03  0.76965128107E+03  0.25500000920E-02 0. -1.
       -2    1    3    3    0  502  0.45414582229E+03  0.29063434978E+03  0.19257614457E+04  0.19998184665E+04  0.25500000920E-02 0.  1.
</event>
<event>
 5   0  0.1434943E-05  0.2397316E+04  0.7818609E-02  0.8440509E-01
       -1   -1    0    0    0  501  0.00000000000E+00  0.00000000000E+00  0.10364818102E+04  0.10364818102E+04  0.50400001928E-02 0. -1.
        1   -1    0    0  501    0  0.00000000000E+00  0.00000000000E+00 -0.13862098975E+04  0.13862098975E+04  0.50400001928E-02 0.  1.
    10030    2    1    2    0    0  0.00000000000E+00  0.00000000000E+00 -0.34972808730E+03  0.24226917077E+04  0.23973162861E+04 0.  0.
        5    1    3    3  502    0  0.10569360537E+04  0.21990475618E+03 -0.70122973369E+03  0.12873294656E+04  0.46999998093E+01 0.  1.
       -5    1    3    3    0  502 -0.10569360537E+04 -0.21990475618E+03  0.35150164639E+03  0.11353622422E+04  0.46999998093E+01 0. -1.
</event>
<event>
 5   0  0.1401596E-05  0.2401089E+04  0.7818609E-02  0.8439096E-01
       -1   -1    0    0    0  501  0.00000000000E+00  0.00000000000E+00  0.18394469923E+04  0.18394469923E+04  0.50400001928E-02 0. -1.
        1   -1    0    0  501    0  0.00000000000E+00  0.00000000000E+00 -0.78355451804E+03  0.78355451806E+03  0.50400001928E-02 0.  1.
    10030    2    1    2    0    0  0.00000000000E+00  0.00000000000E+00  0.10558924742E+04  0.26230015103E+04  0.24010889209E+04 0.  0.
        2    1    3    3  502    0 -0.39585706863E+03 -0.11299218583E+04  0.43096788223E+03  0.12724619995E+04  0.25500000920E-02 0.  1.
       -2    1    3    3    0  502  0.39585706863E+03  0.11299218583E+04  0.62492459199E+03  0.13505395108E+04  0.25500000920E-02 0. -1.
</event>
<event>
 5   0  0.1434943E-05  0.2406238E+04  0.7818609E-02  0.8437172E-01
        1   -1    0    0  501    0  0.00000000000E+00  0.00000000000E+00  0.10168789140E+04  0.10168789140E+04  0.50400001928E-02 0. -1.
       -1   -1    0    0    0  501  0.00000000000E+00  0.00000000000E+00 -0.14234687924E+04  0.14234687924E+04  0.50400001928E-02 0.  1.
    10030    2    1    2    0    0  0.00000000000E+00  0.00000000000E+00 -0.40658987840E+03  0.24403477064E+04  0.24062380595E+04 0.  0.
        5    1    3    3  502    0 -0.34810858167E+03 -0.41377115098E+03 -0.12932798764E+04  0.14017778279E+04  0.46999998093E+01 0.  1.
       -5    1    3    3    0  502  0.34810858167E+03  0.41377115098E+03  0.88668999803E+03  0.10385698785E+04  0.46999998093E+01 0. -1.
</event>
<event>
 5   0  0.1401596E-05  0.2396319E+04  0.7818609E-02  0.8440883E-01
       -1   -1    0    0    0  501  0.00000000000E+00  0.00000000000E+00  0.69661899105E+03  0.69661899106E+03  0.50400001928E-02 0. -1.
        1   -1    0    0  501    0  0.00000000000E+00  0.00000000000E+00 -0.20607908043E+04  0.20607908043E+04  0.50400001928E-02 0.  1.
    10030    2    1    2    0    0  0.00000000000E+00  0.00000000000E+00 -0.13641718133E+04  0.27574097954E+04  0.23963188527E+04 0.  0.
        2    1    3    3  502    0 -0.49192035331E+03 -0.22899553467E+03 -0.19113076968E+04  0.19868371097E+04  0.25500000920E-02 0.  1.
       -2    1    3    3    0  502  0.49192035331E+03  0.22899553467E+03  0.54713588348E+03  0.77057268567E+03  0.25500000920E-02 0. -1.
</event>
<event>
 5   0  0.3347728E-05  0.2434288E+04  0.7818609E-02  0.8426777E-01
       -2   -1    0    0    0  501  0.00000000000E+00  0.00000000000E+00  0.16137838766E+04  0.16137838766E+04  0.25500000920E-02 0. -1.
        2   -1    0    0  501    0  0.00000000000E+00  0.00000000000E+00 -0.91799116357E+03  0.91799116357E+03  0.25500000920E-02 0.  1.
    10030    2    1    2    0    0  0.00000000000E+00  0.00000000000E+00  0.69579271306E+03  0.25317750402E+04  0.24342878537E+04 0.  0.
        3    1    3    3  502    0  0.77491849662E+03 -0.75290657061E+03 -0.23496871737E+03  0.11057021700E+04  0.10100000352E+00 0.  1.
       -3    1    3    3    0  502 -0.77491849662E+03  0.75290657061E+03  0.93076143043E+03  0.14260728702E+04  0.10100000352E+00 0. -1.
</event>
<event>
 5   0  0.3310037E-05  0.2414539E+04  0.7818609E-02  0.8434080E-01
       -2   -1    0    0    0  501  0.00000000000E+00  0.00000000000E+00  0.11995124191E+04  0.11995124191E+04  0.25500000920E-02 0. -1.
        2   -1    0    0  501    0  0.00000000000E+00  0.00000000000E+00 -0.12150767751E+04  0.12150767751E+04  0.25500000920E-02 0.  1.
    10030    2    1    2    0    0  0.00000000000E+00  0.00000000000E+00 -0.15564356070E+02  0.24145891942E+04  0.24145390300E+04 0.  0.
        2    1    3    3  502    0  0.40936656710E+03  0.26026535149E+03 -0.11133279377E+04  0.12144209057E+04  0.25500000920E-02 0.  1.
       -2    1    3    3    0  502 -0.40936656710E+03 -0.26026535149E+03  0.10977635816E+04  0.12001682885E+04  0.25500000920E-02 0. -1.
</event>
<event>
 5   0  0.3215208E-05  0.2347542E+04  0.7818609E-02  0.8459408E-01
        2   -1    0    0  501    0  0.00000000000E+00  0.00000000000E+00  0.16362319240E+04  0.16362319240E+04  0.25500000920E-02 0.  1.
       -2   -1    0    0    0  501  0.00000000000E+00  0.00000000000E+00 -0.84201925557E+03  0.84201925557E+03  0.25500000920E-02 0. -1.
    10030    2    1    2    0    0  0.00000000000E+00  0.00000000000E+00  0.79421266842E+03  0.24782511796E+04  0.23475423631E+04 0.  0.
        1    1    3    3  502    0  0.69652685580E+03 -0.50648393586E+03 -0.44483532847E+03  0.96930599277E+03  0.50400001928E-02 0. -1.
       -1    1    3    3    0  502 -0.69652685580E+03  0.50648393586E+03  0.12390479969E+04  0.15089451868E+04  0.50400001928E-02 0.  1.
</event>
<event>
 5   0  0.1401596E-05  0.2398719E+04  0.7818609E-02  0.8439983E-01
        1   -1    0    0  501    0  0.00000000000E+00  0.00000000000E+00  0.20190025908E+04  0.20190025908E+04  0.50400001928E-02 0. -1.
       -1   -1    0    0    0  501  0.00000000000E+00  0.00000000000E+00 -0.71246213497E+03  0.71246213499E+03  0.50400001928E-02 0.  1.
    10030    2    1    2    0    0  0.00000000000E+00  0.00000000000E+00  0.13065404558E+04  0.27314647257E+04  0.23987187383E+04 0.  0.
        2    1    3    3  502    0  0.51811669048E+03  0.10090198711E+04  0.20946673983E+03  0.11534480137E+04  0.25500000920E-02 0.  1.
       -2    1    3    3    0  502 -0.51811669048E+03 -0.10090198711E+04  0.10970737159E+04  0.15780167120E+04  0.25500000920E-02 0. -1.
</event>
<event>
 5   0  0.3345974E-05  0.2385899E+04  0.7818609E-02  0.8444802E-01
        2   -1    0    0  501    0  0.00000000000E+00  0.00000000000E+00  0.76807454397E+03  0.76807454397E+03  0.25500000920E-02 0. -1.
       -2   -1    0    0    0  501  0.00000000000E+00  0.00000000000E+00 -0.18528522572E+04  0.18528522572E+04  0.25500000920E-02 0.  1.
    10030    2    1    2    0    0  0.00000000000E+00  0.00000000000E+00 -0.10847777132E+04  0.26209268012E+04  0.23858991198E+04 0.  0.
        4    1    3    3  502    0  0.10650208626E+04  0.92835775052E+02  0.39134544334E+02  0.10697761655E+04  0.12699999809E+01 0. -1.
       -4    1    3    3    0  502 -0.10650208626E+04 -0.92835775052E+02 -0.11239122576E+04  0.15511506356E+04  0.12699999809E+01 0.  1.
</event>
<event>
 5   0  0.1407158E-05  0.2384778E+04  0.7818609E-02  0.8445225E-01
       -1   -1    0    0    0  501  0.00000000000E+00  0.00000000000E+00  0.11912089186E+04  0.11912089186E+04  0.50400001928E-02 0.  1.
        1   -1    0    0  501    0  0.00000000000E+00  0.00000000000E+00 -0.11935700155E+04  0.11935700155E+04  0.50400001928E-02 0. -1.
    10030    2    1    2    0    0  0.00000000000E+00  0.00000000000E+00 -0.23610969191E+01  0.23847789341E+04  0.23847777652E+04 0.  0.
        1    1    3    3  502    0  0.86593857456E+03  0.38112611320E+03 -0.72691123857E+03  0.11931079909E+04  0.50400001928E-02 0. -1.
       -1    1    3    3    0  502 -0.86593857456E+03 -0.38112611320E+03  0.72455014165E+03  0.11916709432E+04  0.50400001928E-02 0.  1.
</event>
<event>
 5   0  0.1393026E-05  0.2375903E+04  0.7818609E-02  0.8448580E-01
        1   -1    0    0  501    0  0.00000000000E+00  0.00000000000E+00  0.15283020580E+04  0.15283020580E+04  0.50400001928E-02 0.  1.
       -1   -1    0    0    0  501  0.00000000000E+00  0.00000000000E+00 -0.92339682595E+03  0.92339682596E+03  0.50400001928E-02 0. -1.
    10030    2    1    2    0    0  0.00000000000E+00  0.00000000000E+00  0.60490523208E+03  0.24516988840E+04  0.23759034235E+04 0.  0.
        4    1    3    3  502    0  0.11245145645E+04  0.11353953825E+03  0.67991350625E+03  0.13189799928E+04  0.12699999809E+01 0.  1.
       -4    1    3    3    0  502 -0.11245145645E+04 -0.11353953825E+03 -0.75008274171E+02  0.11327188912E+04  0.12699999809E+01 0. -1.
</event>
<event>
 5   0  0.3347728E-05  0.2335389E+04  0.7818609E-02  0.8464097E-01
        2   -1    0    0  501    0  0.00000000000E+00  0.00000000000E+00  0.16397905684E+04  0.16397905684E+04  0.25500000920E-02 0. -1.
       -2   -1    0    0    0  501  0.00000000000E+00  0.00000000000E+00 -0.83151491639E+03  0.83151491639E+03  0.25500000920E-02 0.  1.
    10030    2    1    2    0    0  0.00000000000E+00  0.00000000000E+00  0.80827565197E+03  0.24713054847E+04  0.23353888904E+04 0.  0.
        3    1    3    3  502    0  0.18253878909E+03  0.11508576981E+04  0.48414531956E+03  0.12618203325E+04  0.10100000352E+00 0.  1.
       -3    1    3    3    0  502 -0.18253878909E+03 -0.11508576981E+04  0.32413033241E+03  0.12094851522E+04  0.10100000352E+00 0. -1.
</event>
<event>
 5   0  0.1434943E-05  0.2373503E+04  0.7818609E-02  0.8449491E-01
       -1   -1    0    0    0  501  0.00000000000E+00  0.00000000000E+00  0.53638060241E+03  0.53638060244E+03  0.50400001928E-02 0. -1.
        1   -1    0    0  501    0  0.00000000000E+00  0.00000000000E+00 -0.26257083062E+04  0.26257083062E+04  0.50400001928E-02 0.  1.
    10030    2    1    2    0    0  0.00000000000E+00  0.00000000000E+00 -0.20893277038E+04  0.31620889087E+04  0.23735028992E+04 0.  0.
        5    1    3    3  502    0 -0.23439714496E+03  0.70235866010E+03 -0.22802146426E+04  0.23974258310E+04  0.46999998093E+01 0.  1.
       -5    1    3    3    0  502  0.23439714496E+03 -0.70235866010E+03  0.19088693875E+03  0.76466307768E+03  0.46999998093E+01 0. -1.
</event>
<event>
 5   0  0.3347728E-05  0.2379958E+04  0.7818609E-02  0.8447045E-01
       -2   -1    0    0    0  501  0.00000000000E+00  0.00000000000E+00  0.75389925032E+03  0.75389925033E+03  0.25500000920E-02 0. -1.
        2   -1    0    0  501    0  0.00000000000E+00  0.00000000000E+00 -0.18783011131E+04  0.18783011131E+04  0.25500000920E-02 0.  1.
    10030    2    1    2    0    0  0.00000000000E+00  0.00000000000E+00 -0.11244018627E+04  0.26322003634E+04  0.23799578156E+04 0.  0.
        3    1    3    3  502    0 -0.20543841398E+03  0.11716664328E+04 -0.52648906507E+03  0.13008450782E+04  0.10100000352E+00 0. -1.
       -3    1    3    3    0  502  0.20543841398E+03 -0.11716664328E+04 -0.59791279767E+03  0.13313552852E+04  0.10100000352E+00 0.  1.
</event>
<event>
 5   0  0.1393026E-05  0.2431408E+04  0.7818609E-02  0.8427838E-01
        1   -1    0    0  501    0  0.00000000000E+00  0.00000000000E+00  0.20465092911E+04  0.20465092911E+04  0.50400001928E-02 0.  1.
       -1   -1    0    0    0  501  0.00000000000E+00  0.00000000000E+00 -0.72217429064E+03  0.72217429066E+03  0.50400001928E-02 0. -1.
    10030    2    1    2    0    0  0.00000000000E+00  0.00000000000E+00  0.13243350005E+04  0.27686835818E+04  0.24314081481E+04 0.  0.
        4    1    3    3  502    0 -0.46704868246E+03  0.64242054375E+03  0.17102170436E+04  0.18856517642E+04  0.12699999809E+01 0.  1.
       -4    1    3    3    0  502  0.46704868246E+03 -0.64242054375E+03 -0.38588204308E+03  0.88303181760E+03  0.12699999809E+01 0. -1.
</event>
<event>
 5   0  0.1434943E-05  0.2402831E+04  0.7818609E-02  0.8438445E-01
        1   -1    0    0  501    0  0.00000000000E+00  0.00000000000E+00  0.24801320402E+04  0.24801320402E+04  0.50400001928E-02 0. -1.
       -1   -1    0    0    0  501  0.00000000000E+00  0.00000000000E+00 -0.58198463131E+03  0.58198463133E+03  0.50400001928E-02 0.  1.
    10030    2    1    2    0    0  0.00000000000E+00  0.00000000000E+00  0.18981474089E+04  0.30621166715E+04  0.24028306066E+04 0.  0.
        5    1    3    3  502    0  0.52730947091E+03  0.72299545122E+03  0.19706447643E+04  0.21643106473E+04  0.46999998093E+01 0. -1.
       -5    1    3    3    0  502 -0.52730947091E+03 -0.72299545122E+03 -0.72497355493E+02  0.89780602423E+03  0.46999998093E+01 0.  1.
</event>
<event>
 5   0  0.3320780E-05  0.2406403E+04  0.7818609E-02  0.8437110E-01
        2   -1    0    0  501    0  0.00000000000E+00  0.00000000000E+00  0.17517386685E+04  0.17517386685E+04  0.25500000920E-02 0.  1.
       -2   -1    0    0    0  501  0.00000000000E+00  0.00000000000E+00 -0.82643234756E+03  0.82643234757E+03  0.25500000920E-02 0. -1.
    10030    2    1    2    0    0  0.00000000000E+00  0.00000000000E+00  0.92530632094E+03  0.25781710161E+04  0.24064027096E+04 0.  0.
        5    1    3    3  502    0  0.98797471030E+03 -0.17229442865E+03  0.11748523731E+04  0.15446940108E+04  0.46999998093E+01 0.  1.
       -5    1    3    3    0  502 -0.98797471030E+03  0.17229442865E+03 -0.24954605216E+03  0.10334770053E+04  0.46999998093E+01 0. -1.
</event>
<event>
 5   0  0.1407158E-05  0.2415365E+04  0.7818609E-02  0.8433774E-01
       -1   -1    0    0    0  501  0.00000000000E+00  0.00000000000E+00  0.99889557527E+03  0.99889557528E+03  0.50400001928E-02 0. -1.
        1   -1    0    0  501    0  0.00000000000E+00  0.00000000000E+00 -0.14601092309E+04  0.14601092309E+04  0.50400001928E-02 0.  1.
    10030    2    1    2    0    0  0.00000000000E+00  0.00000000000E+00 -0.46121365563E+03  0.24590048062E+04  0.24153646931E+04 0.  0.
        1    1    3    3  502    0 -0.71486167445E+03  0.40555871916E+03  0.67024881826E+03  0.10605369238E+04  0.50400001928E-02 0. -1.
       -1    1    3    3    0  502  0.71486167445E+03 -0.40555871916E+03 -0.11314624739E+04  0.13984678824E+04  0.50400001928E-02 0.  1.
</event>
<event>
 5   0  0.3320780E-05  0.2409573E+04  0.7818609E-02  0.8435928E-01
       -2   -1    0    0    0  501  0.00000000000E+00  0.00000000000E+00  0.86230804393E+03  0.86230804393E+03  0.25500000920E-02 0. -1.
        2   -1    0    0  501    0  0.00000000000E+00  0.00000000000E+00 -0.16832853443E+04  0.16832853443E+04  0.25500000920E-02 0.  1.
    10030    2    1    2    0    0  0.00000000000E+00  0.00000000000E+00 -0.82097730042E+03  0.25455933883E+04  0.24095729851E+04 0.  0.
        5    1    3    3  502    0  0.13550017957E+03  0.10961895482E+04  0.97812669194E+02  0.11088648396E+04  0.46999998093E+01 0. -1.
       -5    1    3    3    0  502 -0.13550017957E+03 -0.10961895482E+04 -0.91878996961E+03  0.14367285487E+04  0.46999998093E+01 0.  1.
</event>
<event>
 5   0  0.1401596E-05  0.2374670E+04  0.7818609E-02  0.8449048E-01
        1   -1    0    0  501    0  0.00000000000E+00  0.00000000000E+00  0.19070630167E+04  0.19070630167E+04  0.50400001928E-02 0. -1.
       -1   -1    0    0    0  501  0.00000000000E+00  0.00000000000E+00 -0.73923338033E+03  0.73923338035E+03  0.50400001928E-02 0.  1.
    10030    2    1    2    0    0  0.00000000000E+00  0.00000000000E+00  0.11678296363E+04  0.26462963970E+04  0.23746702005E+04 0.  0.
        2    1    3    3  502    0  0.18731748356E+02  0.10575437030E+04 -0.17249131122E+02  0.10578502232E+04  0.25500000920E-02 0.  1.
       -2    1    3    3    0  502 -0.18731748356E+02 -0.10575437030E+04  0.11850787675E+04  0.15884461738E+04  0.25500000920E-02 0. -1.
</event>
<event>
 5   0  0.1506985E-05  0.2348706E+04  0.7818609E-02  0.8458961E-01
       -1   -1    0    0    0  501  0.00000000000E+00  0.00000000000E+00  0.10722391848E+04  0.10722391848E+04  0.50400001928E-02 0.  1.
        1   -1    0    0  501    0  0.00000000000E+00  0.00000000000E+00 -0.12861919697E+04  0.12861919698E+04  0.50400001928E-02 0. -1.
    10030    2    1    2    0    0  0.00000000000E+00  0.00000000000E+00 -0.21395278499E+03  0.23584311545E+04  0.23487063921E+04 0.  0.
        3    1    3    3  502    0  0.42874045538E+03  0.10179214096E+04 -0.50753033746E+03  0.12155531366E+04  0.10100000352E+00 0. -1.
       -3    1    3    3    0  502 -0.42874045538E+03 -0.10179214096E+04  0.29357755247E+03  0.11428780179E+04  0.10100000352E+00 0.  1.
</event>
<event>
 5   0  0.1434943E-05  0.2378923E+04  0.7818609E-02  0.8447437E-01
       -1   -1    0    0    0  501  0.00000000000E+00  0.00000000000E+00  0.14455157005E+04  0.14455157005E+04  0.50400001928E-02 0. -1.
        1   -1    0    0  501    0  0.00000000000E+00  0.00000000000E+00 -0.97876374682E+03  0.97876374683E+03  0.50400001928E-02 0.  1.
    10030    2    1    2    0    0  0.00000000000E+00  0.00000000000E+00  0.46675195371E+03  0.24242794474E+04  0.23789227505E+04 0.  0.
        5    1    3    3  502    0 -0.29565254718E+03  0.75090567147E+03  0.11238359498E+04  0.13835819774E+04  0.46999998093E+01 0. -1.
       -5    1    3    3    0  502  0.29565254718E+03 -0.75090567147E+03 -0.65708399609E+03  0.10406974700E+04  0.46999998093E+01 0.  1.
</event>
<event>
 5   0  0.3310037E-05  0.2403162E+04  0.7818609E-02  0.8438321E-01
        2   -1    0    0  501    0  0.00000000000E+00  0.00000000000E+00  0.16103933770E+04  0.16103933770E+04  0.25500000920E-02 0.  1.
       -2   -1    0    0    0  501  0.00000000000E+00  0.00000000000E+00 -0.89654911006E+03  0.89654911007E+03  0.25500000920E-02 0. -1.
    10030    2    1    2    0    0  0.00000000000E+00  0.00000000000E+00  0.71384426695E+03  0.25069424871E+04  0.24031618747E+04 0.  0.
        2    1    3    3  502    0  0.99992837048E+03  0.42288026945E+03  0.89404824837E+03  0.14064162751E+04  0.25500000920E-02 0.  1.
       -2    1    3    3    0  502 -0.99992837048E+03 -0.42288026945E+03 -0.18020398142E+03  0.11005262120E+04  0.25500000920E-02 0. -1.
</event>
<event>
 5   0  0.3215208E-05  0.2341922E+04  0.7818609E-02  0.8461573E-01
        2   -1    0    0  501    0  0.00000000000E+00  0.00000000000E+00  0.13849748355E+04  0.13849748355E+04  0.25500000920E-02 0.  1.
       -2   -1    0    0    0  501  0.00000000000E+00  0.00000000000E+00 -0.99001767351E+03  0.99001767351E+03  0.25500000920E-02 0. -1.
    10030    2    1    2    0    0  0.00000000000E+00  0.00000000000E+00  0.39495716199E+03  0.23749925090E+04  0.23419219154E+04 0.  0.
        1    1    3    3  502    0  0.58052375032E+03 -0.40314244305E+03 -0.74930977104E+03  0.10300469829E+04  0.50400001928E-02 0. -1.
       -1    1    3    3    0  502 -0.58052375032E+03  0.40314244305E+03  0.11442669330E+04  0.13449455261E+04  0.50400001928E-02 0.  1.
</event>
<event>
 5   0  0.1407158E-05  0.2407676E+04  0.7818609E-02  0.8436635E-01
       -1   -1    0    0    0  501  0.00000000000E+00  0.00000000000E+00  0.11901466405E+04  0.11901466405E+04  0.50400001928E-02 0.  1.
        1   -1    0    0  501    0  0.00000000000E+00  0.00000000000E+00 -0.12176872819E+04  0.12176872819E+04  0.50400001928E-02 0. -1.
    10030    2    1    2    0    0  0.00000000000E+00  0.00000000000E+00 -0.27540641406E+02  0.24078339224E+04  0.24076764132E+04 0.  0.
        1    1    3    3  502    0  0.70692649178E+03 -0.38552929345E+03  0.88118962954E+03  0.11936804699E+04  0.50400001928E-02 0.  1.
       -1    1    3    3    0  502 -0.70692649178E+03  0.38552929345E+03 -0.90873027095E+03  0.12141534525E+04  0.50400001928E-02 0. -1.
</event>
<event>
 5   0  0.1506985E-05  0.2347053E+04  0.7818609E-02  0.8459596E-01
       -1   -1    0    0    0  501  0.00000000000E+00  0.00000000000E+00  0.12269832133E+04  0.12269832133E+04  0.50400001928E-02 0.  1.
        1   -1    0    0  501    0  0.00000000000E+00  0.00000000000E+00 -0.11223989450E+04  0.11223989450E+04  0.50400001928E-02 0. -1.
    10030    2    1    2    0    0  0.00000000000E+00  0.00000000000E+00  0.10458426833E+03  0.23493821583E+04  0.23470531857E+04 0.  0.
        3    1    3    3  502    0  0.82643187929E+03 -0.62396062066E+03  0.60497056361E+03  0.11992939174E+04  0.10100000352E+00 0.  1.
       -3    1    3    3    0  502 -0.82643187929E+03  0.62396062066E+03 -0.50038629528E+03  0.11500882409E+04  0.10100000352E+00 0. -1.
</event>
<event>
 5   0  0.1506985E-05  0.2433129E+04  0.7818609E-02  0.8427204E-01
        1   -1    0    0  501    0  0.00000000000E+00  0.00000000000E+00  0.14057637365E+04  0.14057637365E+04  0.50400001928E-02 0.  1.
       -1   -1    0    0    0  501  0.00000000000E+00  0.00000000000E+00 -0.10528288283E+04  0.10528288283E+04  0.50400001928E-02 0. -1.
    10030    2    1    2    0    0  0.00000000000E+00  0.00000000000E+00  0.35293490826E+03  0.24585925648E+04  0.24331285109E+04 0.  0.
        3    1    3    3  502    0 -0.10600405584E+04 -0.25794611803E+03  0.72043813963E+03  0.13073841473E+04  0.10100000352E+00 0.  1.
       -3    1    3    3    0  502  0.10600405584E+04  0.25794611803E+03 -0.36750323137E+03  0.11512084175E+04  0.10100000352E+00 0. -1.
</event>
<event>
 5   0  0.1401596E-05  0.2411341E+04  0.7818609E-02  0.8435270E-01
       -1   -1    0    0    0  501  0.00000000000E+00  0.00000000000E+00  0.63805006201E+03  0.63805006203E+03  0.50400001928E-02 0. -1.
        1   -1    0    0  501    0  0.00000000000E+00  0.00000000000E+00 -0.22782560386E+04  0.22782560386E+04  0.50400001928E-02 0.  1.
    10030    2    1    2    0    0  0.00000000000E+00  0.00000000000E+00 -0.16402059766E+04  0.29163061006E+04  0.24113410433E+04 0.  0.
        2    1    3    3  502    0 -0.37793499308E+03 -0.29818076916E+03 -0.21569797437E+04  0.22100471137E+04  0.25500000920E-02 0.  1.
       -2    1    3    3    0  502  0.37793499308E+03  0.29818076916E+03  0.51677376717E+03  0.70625898687E+03  0.25500000920E-02 0. -1.
</event>
<event>
 5   0  0.3215208E-05  0.2430863E+04  0.7818609E-02  0.8428038E-01
       -2   -1    0    0    0  501  0.00000000000E+00  0.00000000000E+00  0.12184121178E+04  0.12184121178E+04  0.25500000920E-02 0.  1.
        2   -1    0    0  501    0  0.00000000000E+00  0.00000000000E+00 -0.12124582950E+04  0.12124582950E+04  0.25500000920E-02 0. -1.
    10030    2    1    2    0    0  0.00000000000E+00  0.00000000000E+00  0.59538228063E+01  0.24308704128E+04  0.24308631216E+04 0.  0.
        1    1    3    3  502    0  0.23665667184E+03  0.95862933498E+03 -0.70575456803E+03  0.12136993419E+04  0.50400001928E-02 0. -1.
       -1    1    3    3    0  502 -0.23665667184E+03 -0.95862933498E+03  0.71170839084E+03  0.12171710709E+04  0.50400001928E-02 0.  1.
</event>
<event>
 5   0  0.3347728E-05  0.2418794E+04  0.7818609E-02  0.8432501E-01
       -2   -1    0    0    0  501  0.00000000000E+00  0.00000000000E+00  0.75898472765E+03  0.75898472765E+03  0.25500000920E-02 0.  1.
        2   -1    0    0  501    0  0.00000000000E+00  0.00000000000E+00 -0.19271025481E+04  0.19271025481E+04  0.25500000920E-02 0. -1.
    10030    2    1    2    0    0  0.00000000000E+00  0.00000000000E+00 -0.11681178205E+04  0.26860872758E+04  0.24187942473E+04 0.  0.
        3    1    3    3  502    0  0.42688344179E+02  0.11022608100E+04 -0.33444406740E+02  0.11035940044E+04  0.10100000352E+00 0.  1.
       -3    1    3    3    0  502 -0.42688344179E+02 -0.11022608100E+04 -0.11346734137E+04  0.15824932714E+04  0.10100000352E+00 0. -1.
</event>
<event>
 5   0  0.1506985E-05  0.2432600E+04  0.7818609E-02  0.8427398E-01
        1   -1    0    0  501    0  0.00000000000E+00  0.00000000000E+00  0.95329510944E+03  0.95329510945E+03  0.50400001928E-02 0. -1.
       -1   -1    0    0    0  501  0.00000000000E+00  0.00000000000E+00 -0.15518656345E+04  0.15518656345E+04  0.50400001928E-02 0.  1.
    10030    2    1    2    0    0  0.00000000000E+00  0.00000000000E+00 -0.59857052501E+03  0.25051607439E+04  0.24326001890E+04 0.  0.
        3    1    3    3  502    0  0.18529484792E+03 -0.76956060883E+03  0.65174784807E+03  0.10253452974E+04  0.10100000352E+00 0. -1.
       -3    1    3    3    0  502 -0.18529484792E+03  0.76956060883E+03 -0.12503183731E+04  0.14798154465E+04  0.10100000352E+00 0.  1.
</event>
<event>
 5   0  0.3345974E-05  0.2253518E+04  0.7818609E-02  0.8496477E-01
        2   -1    0    0  501    0  0.00000000000E+00  0.00000000000E+00  0.14129746991E+04  0.14129746992E+04  0.25500000920E-02 0. -1.
       -2   -1    0    0    0  501  0.00000000000E+00  0.00000000000E+00 -0.89851995681E+03  0.89851995681E+03  0.25500000920E-02 0.  1.
    10030    2    1    2    0    0  0.00000000000E+00  0.00000000000E+00  0.51445474234E+03  0.23114946560E+04  0.22535181079E+04 0.  0.
        4    1    3    3  502    0 -0.76179155595E+03  0.80048701740E+03  0.48307029448E+03  0.12060117587E+04  0.12699999809E+01 0. -1.
       -4    1    3    3    0  502  0.76179155595E+03 -0.80048701740E+03  0.31384447853E+02  0.11054828973E+04  0.12699999809E+01 0.  1.
</event>
<event>
 5   0  0.1506985E-05  0.2381055E+04  0.7818609E-02  0.8446631E-01
       -1   -1    0    0    0  501  0.00000000000E+00  0.00000000000E+00  0.96705880452E+03  0.96705880453E+03  0.50400001928E-02 0. -1.
        1   -1    0    0  501    0  0.00000000000E+00  0.00000000000E+00 -0.14656351306E+04  0.14656351306E+04  0.50400001928E-02 0.  1.
    10030    2    1    2    0    0  0.00000000000E+00  0.00000000000E+00 -0.49857632605E+03  0.24326939351E+04  0.23810546884E+04 0.  0.
        3    1    3    3  502    0  0.67225705772E+03  0.60559720447E+03 -0.10398114845E+04  0.13783633263E+04  0.10100000352E+00 0.  1.
       -3    1    3    3    0  502 -0.67225705772E+03 -0.60559720447E+03  0.54123515847E+03  0.10543306088E+04  0.10100000352E+00 0. -1.
</event>
<event>
 5   0  0.1506985E-05  0.2398462E+04  0.7818609E-02  0.8440079E-01
        1   -1    0    0  501    0  0.00000000000E+00  0.00000000000E+00  0.13599214320E+04  0.13599214320E+04  0.50400001928E-02 0.  1.
       -1   -1    0    0    0  501  0.00000000000E+00  0.00000000000E+00 -0.10575283697E+04  0.10575283698E+04  0.50400001928E-02 0. -1.
    10030    2    1    2    0    0  0.00000000000E+00  0.00000000000E+00  0.30239306225E+03  0.24174498018E+04  0.23984624200E+04 0.  0.
        3    1    3    3  502    0 -0.15285115774E+03 -0.18425516274E+03  0.13355914825E+04  0.13568780563E+04  0.10100000352E+00 0.  1.
       -3    1    3    3    0  502  0.15285115774E+03  0.18425516274E+03 -0.10331984202E+04  0.10605717454E+04  0.10100000352E+00 0. -1.
</event>
<event>
 5   0  0.3347728E-05  0.2386749E+04  0.7818609E-02  0.8444481E-01
        2   -1    0    0  501    0  0.00000000000E+00  0.00000000000E+00  0.14595300606E+04  0.14595300606E+04  0.25500000920E-02 0. -1.
       -2   -1    0    0    0  501  0.00000000000E+00  0.00000000000E+00 -0.97575436248E+03  0.97575436248E+03  0.25500000920E-02 0.  1.
    10030    2    1    2    0    0  0.00000000000E+00  0.00000000000E+00  0.48377569814E+03  0.24352844231E+04  0.23867491061E+04 0.  0.
        3    1    3    3  502    0  0.43807627849E+02  0.91381441314E+03 -0.53996264288E+03  0.10623255414E+04  0.10100000352E+00 0.  1.
       -3    1    3    3    0  502 -0.43807627849E+02 -0.91381441314E+03  0.10237383410E+04  0.13729588818E+04  0.10100000352E+00 0. -1.
</event>
<event>
 5   0  0.1393026E-05  0.2388783E+04  0.7818609E-02  0.8443715E-01
        1   -1    0    0  501    0  0.00000000000E+00  0.00000000000E+00  0.17624230170E+04  0.17624230171E+04  0.50400001928E-02 0. -1.
       -1   -1    0    0    0  501  0.00000000000E+00  0.00000000000E+00 -0.80943739339E+03  0.80943739340E+03  0.50400001928E-02 0.  1.
    10030    2    1    2    0    0  0.00000000000E+00  0.00000000000E+00  0.95298562366E+03  0.25718604105E+04  0.23887830316E+04 0.  0.
        4    1    3    3  502    0 -0.50699432150E+03 -0.27542486591E+03  0.16024278067E+04  0.17031378651E+04  0.12699999809E+01 0. -1.
       -4    1    3    3    0  502  0.50699432150E+03  0.27542486591E+03 -0.64944218307E+03  0.86872254538E+03  0.12699999809E+01 0.  1.
</event>
<event>
 5   0  0.1506985E-05  0.2383746E+04  0.7818609E-02  0.8445614E-01
       -1   -1    0    0    0  501  0.00000000000E+00  0.00000000000E+00  0.97244183430E+03  0.97244183432E+03  0.50400001928E-02 0.  1.
        1   -1    0    0  501    0  0.00000000000E+00  0.00000000000E+00 -0.14608187864E+04  0.14608187864E+04  0.50400001928E-02 0. -1.
    10030    2    1    2    0    0  0.00000000000E+00  0.00000000000E+00 -0.48837695213E+03  0.24332606208E+04  0.23837460438E+04 0.  0.
        3    1    3    3  502    0 -0.59833843527E+02  0.87887566746E+03  0.57533217306E+03  0.10521452596E+04  0.10100000352E+00 0.  1.
       -3    1    3    3    0  502  0.59833843527E+02 -0.87887566746E+03 -0.10637091252E+04  0.13811153612E+04  0.10100000352E+00 0. -1.
</event>
<event>
 5   0  0.3310037E-05  0.2394846E+04  0.7818609E-02  0.8441436E-01
        2   -1    0    0  501    0  0.00000000000E+00  0.00000000000E+00  0.20086757160E+04  0.20086757160E+04  0.25500000920E-02 0. -1.
       -2   -1    0    0    0  501  0.00000000000E+00  0.00000000000E+00 -0.71381473161E+03  0.71381473162E+03  0.25500000920E-02 0.  1.
    10030    2    1    2    0    0  0.00000000000E+00  0.00000000000E+00  0.12948609844E+04  0.27224904476E+04  0.23948463977E+04 0.  0.
        2    1    3    3  502    0 -0.77749063466E+02 -0.11367442127E+04  0.10660336727E+04  0.15603397429E+04  0.25500000920E-02 0. -1.
       -2    1    3    3    0  502  0.77749063466E+02  0.11367442127E+04  0.22882731165E+03  0.11621507047E+04  0.25500000920E-02 0.  1.
</event>
<event>
 5   0  0.1393026E-05  0.2407056E+04  0.7818609E-02  0.8436867E-01
        1   -1    0    0  501    0  0.00000000000E+00  0.00000000000E+00  0.11638204204E+04  0.11638204204E+04  0.50400001928E-02 0.  1.
       -1   -1    0    0    0  501  0.00000000000E+00  0.00000000000E+00 -0.12445899023E+04  0.12445899023E+04  0.50400001928E-02 0. -1.
    10030    2    1    2    0    0  0.00000000000E+00  0.00000000000E+00 -0.80769481838E+02  0.24084103227E+04  0.24070555817E+04 0.  0.
        4    1    3    3  502    0 -0.11276965575E+04  0.38801939279E+03  0.12162907607E+03  0.11987717965E+04  0.12699999809E+01 0.  1.
       -4    1    3    3    0  502  0.11276965575E+04 -0.38801939279E+03 -0.20239855791E+03  0.12096385262E+04  0.12699999809E+01 0. -1.
</event>
<event>
 5   0  0.3215208E-05  0.2382472E+04  0.7818609E-02  0.8446095E-01
       -2   -1    0    0    0  501  0.00000000000E+00  0.00000000000E+00  0.16110582866E+04  0.16110582866E+04  0.25500000920E-02 0. -1.
        2   -1    0    0  501    0  0.00000000000E+00  0.00000000000E+00 -0.88081400657E+03  0.88081400657E+03  0.25500000920E-02 0.  1.
    10030    2    1    2    0    0  0.00000000000E+00  0.00000000000E+00  0.73024428007E+03  0.24918722932E+04  0.23824715774E+04 0.  0.
        1    1    3    3  502    0 -0.31548884188E+01 -0.11786628188E+04  0.18460879022E+03  0.11930366294E+04  0.50400001928E-02 0.  1.
       -1    1    3    3    0  502  0.31548884188E+01  0.11786628188E+04  0.54563548985E+03  0.12988356638E+04  0.50400001928E-02 0. -1.
</event>
<event>
 5   0  0.1401596E-05  0.2366102E+04  0.7818609E-02  0.8452305E-01
       -1   -1    0    0    0  501  0.00000000000E+00  0.00000000000E+00  0.84635957792E+03  0.84635957793E+03  0.50400001928E-02 0.  1.
        1   -1    0    0  501    0  0.00000000000E+00  0.00000000000E+00 -0.16536822332E+04  0.16536822332E+04  0.50400001928E-02 0. -1.
    10030    2    1    2    0    0  0.00000000000E+00  0.00000000000E+00 -0.80732265530E+03  0.25000418112E+04  0.23661021085E+04 0.  0.
        2    1    3    3  502    0 -0.90764806798E+03 -0.73996578113E+03 -0.58120735083E+03  0.13073547174E+04  0.25500000920E-02 0.  1.
       -2    1    3    3    0  502  0.90764806798E+03  0.73996578113E+03 -0.22611530446E+03  0.11926870937E+04  0.25500000920E-02 0. -1.
</event>
<event>
 5   0  0.1393026E-05  0.2389739E+04  0.7818609E-02  0.8443355E-01
        1   -1    0    0  501    0  0.00000000000E+00  0.00000000000E+00  0.10534180091E+04  0.10534180091E+04  0.50400001928E-02 0. -1.
       -1   -1    0    0    0  501  0.00000000000E+00  0.00000000000E+00 -0.13553150171E+04  0.13553150171E+04  0.50400001928E-02 0.  1.
    10030    2    1    2    0    0  0.00000000000E+00  0.00000000000E+00 -0.30189700807E+03  0.24087330262E+04  0.23897391046E+04 0.  0.
        4    1    3    3  502    0  0.81153028023E+03  0.65099225995E+03  0.44137803187E+03  0.11301276468E+04  0.12699999809E+01 0.  1.
       -4    1    3    3    0  502 -0.81153028023E+03 -0.65099225995E+03 -0.74327503994E+03  0.12786053794E+04  0.12699999809E+01 0. -1.
</event>
<event>
 5   0  0.3347728E-05  0.2410853E+04  0.7818609E-02  0.8435452E-01
        2   -1    0    0  501    0  0.00000000000E+00  0.00000000000E+00  0.17604762378E+04  0.17604762378E+04  0.25500000920E-02 0.  1.
       -2   -1    0    0    0  501  0.00000000000E+00  0.00000000000E+00 -0.82537479656E+03  0.82537479656E+03  0.25500000920E-02 0. -1.
    10030    2    1    2    0    0  0.00000000000E+00  0.00000000000E+00  0.93510144125E+03  0.25858510344E+04  0.24108527260E+04 0.  0.
        3    1    3    3  502    0 -0.87631346887E+03  0.50264952643E+03  0.11729114040E+04  0.15479996815E+04  0.10100000352E+00 0.  1.
       -3    1    3    3    0  502  0.87631346887E+03 -0.50264952643E+03 -0.23780996270E+03  0.10378513529E+04  0.10100000352E+00 0. -1.
</event>
<event>
 5   0  0.1506985E-05  0.2358261E+04  0.7818609E-02  0.8455297E-01
       -1   -1    0    0    0  501  0.00000000000E+00  0.00000000000E+00  0.68906447790E+03  0.68906447792E+03  0.50400001928E-02 0.  1.
        1   -1    0    0  501    0  0.00000000000E+00  0.00000000000E+00 -0.20177334417E+04  0.20177334417E+04  0.50400001928E-02 0. -1.
    10030    2    1    2    0    0  0.00000000000E+00  0.00000000000E+00 -0.13286689638E+04  0.27067979196E+04  0.23582607494E+04 0.  0.
        3    1    3    3  502    0  0.46721110520E+03 -0.30116582611E+03  0.52923975085E+03  0.76751664198E+03  0.10100000352E+00 0.  1.
       -3    1    3    3    0  502 -0.46721110520E+03  0.30116582611E+03 -0.18579087146E+04  0.19392812776E+04  0.10100000352E+00 0. -1.
</event>
<event>
 5   0  0.3310037E-05  0.2410716E+04  0.7818609E-02  0.8435502E-01
        2   -1    0    0  501    0  0.00000000000E+00  0.00000000000E+00  0.22014545522E+04  0.22014545522E+04  0.25500000920E-02 0.  1.
       -2   -1    0    0    0  501  0.00000000000E+00  0.00000000000E+00 -0.65996742968E+03  0.65996742969E+03  0.25500000920E-02 0. -1.
    10030    2    1    2    0    0  0.00000000000E+00  0.00000000000E+00  0.15414871225E+04  0.28614219818E+04  0.24107163270E+04 0.  0.
        2    1    3    3  502    0 -0.99299986703E+03 -0.52547905178E+03  0.25239243046E+03  0.11514681536E+04  0.25500000920E-02 0. -1.
       -2    1    3    3    0  502  0.99299986703E+03  0.52547905178E+03  0.12890946920E+04  0.17099538283E+04  0.25500000920E-02 0.  1.
</event>
<event>
 5   0  0.3347728E-05  0.2399288E+04  0.7818609E-02  0.8439770E-01
        2   -1    0    0  501    0  0.00000000000E+00  0.00000000000E+00  0.22374102761E+04  0.22374102761E+04  0.25500000920E-02 0.  1.
       -2   -1    0    0    0  501  0.00000000000E+00  0.00000000000E+00 -0.64321942562E+03  0.64321942562E+03  0.25500000920E-02 0. -1.
    10030    2    1    2    0    0  0.00000000000E+00  0.00000000000E+00  0.15941908505E+04  0.28806297018E+04  0.23992880216E+04 0.  0.
        3    1    3    3  502    0 -0.33236040750E+03  0.10466001281E+04  0.13770208729E+04  0.17612557348E+04  0.10100000352E+00 0. -1.
       -3    1    3    3    0  502  0.33236040750E+03 -0.10466001281E+04  0.21716997759E+03  0.11193739670E+04  0.10100000352E+00 0.  1.
</event>
<event>
 5   0  0.3310037E-05  0.2396048E+04  0.7818609E-02  0.8440985E-01
        2   -1    0    0  501    0  0.00000000000E+00  0.00000000000E+00  0.20529859843E+04  0.20529859843E+04  0.25500000920E-02 0.  1.
       -2   -1    0    0    0  501  0.00000000000E+00  0.00000000000E+00 -0.69910922648E+03  0.69910922648E+03  0.25500000920E-02 0. -1.
    10030    2    1    2    0    0  0.00000000000E+00  0.00000000000E+00  0.13538767578E+04  0.27520952108E+04  0.23960479490E+04 0.  0.
        2    1    3    3  502    0  0.10205249570E+04  0.18721397038E+03 -0.11014304280E+02  0.10376134028E+04  0.25500000920E-02 0. -1.
       -2    1    3    3    0  502 -0.10205249570E+04 -0.18721397038E+03  0.13648910621E+04  0.17144818080E+04  0.25500000920E-02 0.  1.
</event>
<event>
 5   0  0.3310037E-05  0.2397918E+04  0.7818609E-02  0.8440284E-01
       -2   -1    0    0    0  501  0.00000000000E+00  0.00000000000E+00  0.18063934238E+04  0.18063934238E+04  0.25500000920E-02 0. -1.
        2   -1    0    0  501    0  0.00000000000E+00  0.00000000000E+00 -0.79578593407E+03  0.79578593407E+03  0.25500000920E-02 0.  1.
    10030    2    1    2    0    0  0.00000000000E+00  0.00000000000E+00  0.10106074897E+04  0.26021793579E+04  0.23979178285E+04 0.  0.
        2    1    3    3  502    0 -0.72148550427E+03 -0.33226221417E+02  0.15438283825E+04  0.17044211303E+04  0.25500000920E-02 0. -1.
       -2    1    3    3    0  502  0.72148550427E+03  0.33226221417E+02 -0.53322089280E+03  0.89775822758E+03  0.25500000920E-02 0.  1.
</event>
<event>
 5   0  0.1434943E-05  0.2379092E+04  0.7818609E-02  0.8447373E-01
       -1   -1    0    0    0  501  0.00000000000E+00  0.00000000000E+00  0.95326632335E+03  0.95326632336E+03  0.50400001928E-02 0.  1.
        1   -1    0    0  501    0  0.00000000000E+00  0.00000000000E+00 -0.14843911298E+04  0.14843911299E+04  0.50400001928E-02 0. -1.
    10030    2    1    2    0    0  0.00000000000E+00  0.00000000000E+00 -0.53112480650E+03  0.24376574532E+04  0.23790923267E+04 0.  0.
        5    1    3    3  502    0 -0.54214704558E+03  0.10518924467E+04 -0.14177088270E+03  0.11918566238E+04  0.46999998093E+01 0.  1.
       -5    1    3    3    0  502  0.54214704558E+03 -0.10518924467E+04 -0.38935392381E+03  0.12458008294E+04  0.46999998093E+01 0. -1.
</event>
<event>
 5   0  0.1393026E-05  0.2331625E+04  0.7818609E-02  0.8465555E-01
       -1   -1    0    0    0  501  0.00000000000E+00  0.00000000000E+00  0.13347830753E+04  0.13347830753E+04  0.50400001928E-02 0. -1.
        1   -1    0    0  501    0  0.00000000000E+00  0.00000000000E+00 -0.10182323652E+04  0.10182323652E+04  0.50400001928E-02 0.  1.
    10030    2    1    2    0    0  0.00000000000E+00  0.00000000000E+00  0.31655071004E+03  0.23530154405E+04  0.23316254655E+04 0.  0.
        4    1    3    3  502    0 -0.83345755003E+03 -0.31433327338E+03 -0.60072859602E+03  0.10743990662E+04  0.12699999809E+01 0.  1.
       -4    1    3    3    0  502  0.83345755003E+03  0.31433327338E+03  0.91727930606E+03  0.12786163743E+04  0.12699999809E+01 0. -1.
</event>
<event>
 5   0  0.3310037E-05  0.2402675E+04  0.7818609E-02  0.8438503E-01
       -2   -1    0    0    0  501  0.00000000000E+00  0.00000000000E+00  0.77363575144E+03  0.77363575145E+03  0.25500000920E-02 0.  1.
        2   -1    0    0  501    0  0.00000000000E+00  0.00000000000E+00 -0.18654930114E+04  0.18654930114E+04  0.25500000920E-02 0. -1.
    10030    2    1    2    0    0  0.00000000000E+00  0.00000000000E+00 -0.10918572599E+04  0.26391287628E+04  0.24026752487E+04 0.  0.
        2    1    3    3  502    0  0.59174873518E+03 -0.94432968885E+03 -0.10387316115E+04  0.15234462536E+04  0.25500000920E-02 0. -1.
       -2    1    3    3    0  502 -0.59174873518E+03  0.94432968885E+03 -0.53125648388E+02  0.11156825092E+04  0.25500000920E-02 0.  1.
</event>
<event>
 5   0  0.3310037E-05  0.2268643E+04  0.7818609E-02  0.8490388E-01
       -2   -1    0    0    0  501  0.00000000000E+00  0.00000000000E+00  0.13679094667E+04  0.13679094667E+04  0.25500000920E-02 0.  1.
        2   -1    0    0  501    0  0.00000000000E+00  0.00000000000E+00 -0.94062189490E+03  0.94062189490E+03  0.25500000920E-02 0. -1.
    10030    2    1    2    0    0  0.00000000000E+00  0.00000000000E+00  0.42728757176E+03  0.23085313616E+04  0.22686432902E+04 0.  0.
        2    1    3    3  502    0 -0.93370478292E+03 -0.11583559933E+03  0.85839530432E+03  0.12736031588E+04  0.25500000920E-02 0.  1.
       -2    1    3    3    0  502  0.93370478292E+03  0.11583559933E+03 -0.43110773256E+03  0.10349282027E+04  0.25500000920E-02 0. -1.
</event>
<event>
 5   0  0.1147362E-05  0.2373499E+04  0.7818609E-02  0.8449492E-01
        3   -1    0    0  501    0  0.00000000000E+00  0.00000000000E+00  0.20937712975E+04  0.20937712999E+04  0.10100000352E+00 0. -1.
       -3   -1    0    0    0  501  0.00000000000E+00  0.00000000000E+00 -0.67264957581E+03  0.67264958339E+03  0.10100000352E+00 0.  1.
    10030    2    1    2    0    0  0.00000000000E+00  0.00000000000E+00  0.14211217217E+04  0.27664208833E+04  0.23734990111E+04 0.  0.
        5    1    3    3  502    0 -0.30967972073E+03  0.69706337599E+03 -0.34909455637E+03  0.83886112013E+03  0.46999998093E+01 0.  1.
       -5    1    3    3    0  502  0.30967972073E+03 -0.69706337599E+03  0.17702162781E+04  0.19275597632E+04  0.46999998093E+01 0. -1.
</event>
<event>
 5   0  0.3347728E-05  0.2401859E+04  0.7818609E-02  0.8438808E-01
        2   -1    0    0  501    0  0.00000000000E+00  0.00000000000E+00  0.14970651899E+04  0.14970651899E+04  0.25500000920E-02 0.  1.
       -2   -1    0    0    0  501  0.00000000000E+00  0.00000000000E+00 -0.96337236018E+03  0.96337236018E+03  0.25500000920E-02 0. -1.
    10030    2    1    2    0    0  0.00000000000E+00  0.00000000000E+00  0.53369282972E+03  0.24604375501E+04  0.24018586348E+04 0.  0.
        3    1    3    3  502    0  0.58259305968E+03 -0.14020538091E+03  0.13329784878E+04  0.14614731886E+04  0.10100000352E+00 0.  1.
       -3    1    3    3    0  502 -0.58259305968E+03  0.14020538091E+03 -0.79928565807E+03  0.99896436143E+03  0.10100000352E+00 0. -1.
</event>
<event>
 5   0  0.1401596E-05  0.2387415E+04  0.7818609E-02  0.8444230E-01
        1   -1    0    0  501    0  0.00000000000E+00  0.00000000000E+00  0.12552613257E+04  0.12552613257E+04  0.50400001928E-02 0. -1.
       -1   -1    0    0    0  501  0.00000000000E+00  0.00000000000E+00 -0.11351721616E+04  0.11351721616E+04  0.50400001928E-02 0.  1.
    10030    2    1    2    0    0  0.00000000000E+00  0.00000000000E+00  0.12008916413E+03  0.23904334873E+04  0.23874150979E+04 0.  0.
        2    1    3    3  502    0  0.45176649343E+03  0.42384080395E+03  0.10817285624E+04  0.12465434908E+04  0.25500000920E-02 0. -1.
       -2    1    3    3    0  502 -0.45176649343E+03 -0.42384080395E+03 -0.96163939830E+03  0.11438899965E+04  0.25500000920E-02 0.  1.
</event>
<event>
 5   0  0.1407158E-05  0.2444151E+04  0.7818609E-02  0.8423156E-01
        1   -1    0    0  501    0  0.00000000000E+00  0.00000000000E+00  0.17960484958E+04  0.17960484958E+04  0.50400001928E-02 0.  1.
       -1   -1    0    0    0  501  0.00000000000E+00  0.00000000000E+00 -0.83153051253E+03  0.83153051255E+03  0.50400001928E-02 0. -1.
    10030    2    1    2    0    0  0.00000000000E+00  0.00000000000E+00  0.96451798326E+03  0.26275790083E+04  0.24441514898E+04 0.  0.
        1    1    3    3  502    0 -0.78229996083E+03  0.14443248001E+03  0.14795735495E+04  0.16798785249E+04  0.50400001928E-02 0.  1.
       -1    1    3    3    0  502  0.78229996083E+03 -0.14443248001E+03 -0.51505556624E+03  0.94770048345E+03  0.50400001928E-02 0. -1.
</event>
<event>
 5   0  0.3310037E-05  0.2399544E+04  0.7818609E-02  0.8439674E-01
       -2   -1    0    0    0  501  0.00000000000E+00  0.00000000000E+00  0.82072957711E+03  0.82072957711E+03  0.25500000920E-02 0.  1.
        2   -1    0    0  501    0  0.00000000000E+00  0.00000000000E+00 -0.17538694087E+04  0.17538694087E+04  0.25500000920E-02 0. -1.
    10030    2    1    2    0    0  0.00000000000E+00  0.00000000000E+00 -0.93313983164E+03  0.25745989859E+04  0.23995437051E+04 0.  0.
        2    1    3    3  502    0  0.17858719940E+03 -0.76138420165E+03  0.50967232986E+03  0.93346942861E+03  0.25500000920E-02 0.  1.
       -2    1    3    3    0  502 -0.17858719940E+03  0.76138420165E+03 -0.14428121615E+04  0.16411295573E+04  0.25500000920E-02 0. -1.
</event>
<event>
 5   0  0.3320780E-05  0.2382250E+04  0.7818609E-02  0.8446179E-01
        2   -1    0    0  501    0  0.00000000000E+00  0.00000000000E+00  0.11994361988E+04  0.11994361988E+04  0.25500000920E-02 0. -1.
       -2   -1    0    0    0  501  0.00000000000E+00  0.00000000000E+00 -0.11828710034E+04  0.11828710034E+04  0.25500000920E-02 0.  1.
    10030    2    1    2    0    0  0.00000000000E+00  0.00000000000E+00  0.16565195367E+02  0.23823072022E+04  0.23822496091E+04 0.  0.
        5    1    3    3  502    0  0.78252940486E+03  0.29203162223E+03  0.85749184169E+03  0.11970585142E+04  0.46999998093E+01 0. -1.
       -5    1    3    3    0  502 -0.78252940486E+03 -0.29203162223E+03 -0.84092664632E+03  0.11852486880E+04  0.46999998093E+01 0.  1.
</event>
<event>
 5   0  0.1147362E-05  0.2401591E+04  0.7818609E-02  0.8438908E-01
        4   -1    0    0  501    0  0.00000000000E+00  0.00000000000E+00  0.10182048898E+04  0.10182056818E+04  0.12699999809E+01 0.  1.
       -4   -1    0    0    0  501  0.00000000000E+00  0.00000000000E+00 -0.14161277129E+04  0.14161282824E+04  0.12699999809E+01 0. -1.
    10030    2    1    2    0    0  0.00000000000E+00  0.00000000000E+00 -0.39792282318E+03  0.24343339642E+04  0.24015909885E+04 0.  0.
        5    1    3    3  502    0  0.53091230434E+03 -0.60934155492E+03 -0.10991702857E+04  0.13643175629E+04  0.46999998093E+01 0. -1.
       -5    1    3    3    0  502 -0.53091230434E+03  0.60934155492E+03  0.70124746251E+03  0.10700164013E+04  0.46999998093E+01 0.  1.
</event>
<event>
 5   0  0.1434943E-05  0.2402940E+04  0.7818609E-02  0.8438404E-01
        1   -1    0    0  501    0  0.00000000000E+00  0.00000000000E+00  0.11603792412E+04  0.11603792412E+04  0.50400001928E-02 0. -1.
       -1   -1    0    0    0  501  0.00000000000E+00  0.00000000000E+00 -0.12440155115E+04  0.12440155115E+04  0.50400001928E-02 0.  1.
    10030    2    1    2    0    0  0.00000000000E+00  0.00000000000E+00 -0.83636270267E+02  0.24043947527E+04  0.24029396790E+04 0.  0.
        5    1    3    3  502    0  0.90218682956E+03 -0.14568876551E+03 -0.82225286360E+03  0.12293446032E+04  0.46999998093E+01 0.  1.
       -5    1    3    3    0  502 -0.90218682956E+03  0.14568876551E+03  0.73861659333E+03  0.11750501495E+04  0.46999998093E+01 0. -1.
</event>
<event>
 5   0  0.3345974E-05  0.2400499E+04  0.7818609E-02  0.8439317E-01
       -2   -1    0    0    0  501  0.00000000000E+00  0.00000000000E+00  0.14419643679E+04  0.14419643679E+04  0.25500000920E-02 0.  1.
        2   -1    0    0  501    0  0.00000000000E+00  0.00000000000E+00 -0.99905335851E+03  0.99905335851E+03  0.25500000920E-02 0. -1.
    10030    2    1    2    0    0  0.00000000000E+00  0.00000000000E+00  0.44291100941E+03  0.24410177264E+04  0.24004994019E+04 0.  0.
        4    1    3    3  502    0  0.10593827071E+04 -0.73280647699E+02  0.79030459218E+03  0.13237238136E+04  0.12699999809E+01 0.  1.
       -4    1    3    3    0  502 -0.10593827071E+04  0.73280647699E+02 -0.34739358277E+03  0.11172939128E+04  0.12699999809E+01 0. -1.
</event>
<event>
 5   0  0.1506985E-05  0.2428664E+04  0.7818609E-02  0.8428849E-01
        1   -1    0    0  501    0  0.00000000000E+00  0.00000000000E+00  0.10761219561E+04  0.10761219561E+04  0.50400001928E-02 0. -1.
       -1   -1    0    0    0  501  0.00000000000E+00  0.00000000000E+00 -0.13702930517E+04  0.13702930517E+04  0.50400001928E-02 0.  1.
    10030    2    1    2    0    0  0.00000000000E+00  0.00000000000E+00 -0.29417109559E+03  0.24464150079E+04  0.24286641919E+04 0.  0.
        3    1    3    3  502    0  0.16784359233E+03  0.21892050392E+03  0.10441417548E+04  0.10799674406E+04  0.10100000352E+00 0. -1.
       -3    1    3    3    0  502 -0.16784359233E+03 -0.21892050392E+03 -0.13383128503E+04  0.13664475673E+04  0.10100000352E+00 0.  1.
</event>
<event>
 5   0  0.1401596E-05  0.2373000E+04  0.7818609E-02  0.8449682E-01
       -1   -1    0    0    0  501  0.00000000000E+00  0.00000000000E+00  0.59634557762E+03  0.59634557764E+03  0.50400001928E-02 0. -1.
        1   -1    0    0  501    0  0.00000000000E+00  0.00000000000E+00 -0.23606811653E+04  0.23606811653E+04  0.50400001928E-02 0.  1.
    10030    2    1    2    0    0  0.00000000000E+00  0.00000000000E+00 -0.17643355876E+04  0.29570267429E+04  0.23729995981E+04 0.  0.
        2    1    3    3  502    0  0.13679299765E+03  0.64171279061E+02 -0.23486434886E+04  0.23534987814E+04  0.25500000920E-02 0.  1.
       -2    1    3    3    0  502 -0.13679299765E+03 -0.64171279061E+02  0.58430790095E+03  0.60352796156E+03  0.25500000920E-02 0. -1.
</event>
<event>
 5   0  0.3310037E-05  0.2450261E+04  0.7818609E-02  0.8420923E-01
        2   -1    0    0  501    0  0.00000000000E+00  0.00000000000E+00  0.72992922164E+03  0.72992922164E+03  0.25500000920E-02 0. -1.
       -2   -1    0    0    0  501  0.00000000000E+00  0.00000000000E+00 -0.20562875173E+04  0.20562875173E+04  0.25500000920E-02 0.  1.
    10030    2    1    2    0    0  0.00000000000E+00  0.00000000000E+00 -0.13263582957E+04  0.27862167390E+04  0.24502606776E+04 0.  0.
        2    1    3    3  502    0 -0.39444458085E+03 -0.27090136894E+03  0.61927275586E+03  0.78260643060E+03  0.25500000920E-02 0. -1.
       -2    1    3    3    0  502  0.39444458085E+03  0.27090136894E+03 -0.19456310515E+04  0.20036103084E+04  0.25500000920E-02 0.  1.
</event>
<event>
 5   0  0.3347728E-05  0.2404386E+04  0.7818609E-02  0.8437863E-01
        2   -1    0    0  501    0  0.00000000000E+00  0.00000000000E+00  0.16456214618E+04  0.16456214618E+04  0.25500000920E-02 0.  1.
       -2   -1    0    0    0  501  0.00000000000E+00  0.00000000000E+00 -0.87825057252E+03  0.87825057252E+03  0.25500000920E-02 0. -1.
    10030    2    1    2    0    0  0.00000000000E+00  0.00000000000E+00  0.76737088929E+03  0.25238720343E+04  0.24043859848E+04 0.  0.
        3    1    3    3  502    0  0.78236459897E+03  0.23078986846E+03 -0.54332641684E+03  0.98008261618E+03  0.10100000352E+00 0. -1.
       -3    1    3    3    0  502 -0.78236459897E+03 -0.23078986846E+03  0.13106973061E+04  0.15437894181E+04  0.10100000352E+00 0.  1.
</event>
<event>
 5   0  0.1393026E-05  0.2388203E+04  0.7818609E-02  0.8443934E-01
       -1   -1    0    0    0  501  0.00000000000E+00  0.00000000000E+00  0.14835650261E+04  0.14835650261E+04  0.50400001928E-02 0.  1.
        1   -1    0    0  501    0  0.00000000000E+00  0.00000000000E+00 -0.96111595901E+03  0.96111595903E+03  0.50400001928E-02 0. -1.
    10030    2    1    2    0    0  0.00000000000E+00  0.00000000000E+00  0.52244906711E+03  0.24446809852E+04  0.23882026906E+04 0.  0.
        4    1    3    3  502    0 -0.81154451377E+03 -0.86545915696E+02  0.11534927650E+04  0.14130257836E+04  0.12699999809E+01 0.  1.
       -4    1    3    3    0  502  0.81154451377E+03  0.86545915696E+02 -0.63104369788E+03  0.10316552015E+04  0.12699999809E+01 0. -1.
</event>
<event>
 5   0  0.3347728E-05  0.2395936E+04  0.7818609E-02  0.8441027E-01
       -2   -1    0    0    0  501  0.00000000000E+00  0.00000000000E+00  0.90527306720E+03  0.90527306720E+03  0.25500000920E-02 0. -1.
        2   -1    0    0  501    0  0.00000000000E+00  0.00000000000E+00 -0.15852978564E+04  0.15852978564E+04  0.25500000920E-02 0.  1.
    10030    2    1    2    0    0  0.00000000000E+00  0.00000000000E+00 -0.68002478918E+03  0.24905709236E+04  0.23959361034E+04 0.  0.
        3    1    3    3  502    0  0.68142184429E+03  0.96829850050E+03 -0.52938864788E+03  0.12969927011E+04  0.10100000352E+00 0.  1.
       -3    1    3    3    0  502 -0.68142184429E+03 -0.96829850050E+03 -0.15063614130E+03  0.11935782225E+04  0.10100000352E+00 0. -1.
</event>
<event>
 5   0  0.1506985E-05  0.2437789E+04  0.7818609E-02  0.8425490E-01
        1   -1    0    0  501    0  0.00000000000E+00  0.00000000000E+00  0.14108432211E+04  0.14108432211E+04  0.50400001928E-02 0. -1.
       -1   -1    0    0    0  501  0.00000000000E+00  0.00000000000E+00 -0.10530605748E+04  0.10530605748E+04  0.50400001928E-02 0.  1.
    10030    2    1    2    0    0  0.00000000000E+00  0.00000000000E+00  0.35778264634E+03  0.24639037959E+04  0.24377886483E+04 0.  0.
        3    1    3    3  502    0  0.11982839816E+04 -0.12373875048E+02  0.40413686039E+03  0.12646597271E+04  0.10100000352E+00 0. -1.
       -3    1    3    3    0  502 -0.11982839816E+04  0.12373875048E+02 -0.46354214047E+02  0.11992440688E+04  0.10100000352E+00 0.  1.
</event>
<event>
 5   0  0.3310037E-05  0.2381788E+04  0.7818609E-02  0.8446353E-01
        2   -1    0    0  501    0  0.00000000000E+00  0.00000000000E+00  0.17086684109E+04  0.17086684110E+04  0.25500000920E-02 0. -1.
       -2   -1    0    0    0  501  0.00000000000E+00  0.00000000000E+00 -0.83001992691E+03  0.83001992692E+03  0.25500000920E-02 0.  1.
    10030    2    1    2    0    0  0.00000000000E+00  0.00000000000E+00  0.87864848404E+03  0.25386883379E+04  0.23817882606E+04 0.  0.
        2    1    3    3  502    0 -0.92598251100E+03  0.39237356043E+03  0.11191721515E+04  0.15046417934E+04  0.25500000920E-02 0. -1.
       -2    1    3    3    0  502  0.92598251100E+03 -0.39237356043E+03 -0.24052366746E+03  0.10340465445E+04  0.25500000920E-02 0.  1.
</event>
<event>
 5   0  0.3347728E-05  0.2415848E+04  0.7818609E-02  0.8433594E-01
        2   -1    0    0  501    0  0.00000000000E+00  0.00000000000E+00  0.17665172160E+04  0.17665172160E+04  0.25500000920E-02 0.  1.
       -2   -1    0    0    0  501  0.00000000000E+00  0.00000000000E+00 -0.82596437852E+03  0.82596437852E+03  0.25500000920E-02 0. -1.
    10030    2    1    2    0    0  0.00000000000E+00  0.00000000000E+00  0.94055283744E+03  0.25924815945E+04  0.24158479211E+04 0.  0.
        3    1    3    3  502    0 -0.31080542134E+03  0.76819393652E+03  0.14133715724E+04  0.16383959063E+04  0.10100000352E+00 0.  1.
       -3    1    3    3    0  502  0.31080542134E+03 -0.76819393652E+03 -0.47281873493E+03  0.95408568816E+03  0.10100000352E+00 0. -1.
</event>
<event>
 5   0  0.3215208E-05  0.2367367E+04  0.7818609E-02  0.8451823E-01
       -2   -1    0    0    0  501  0.00000000000E+00  0.00000000000E+00  0.10603150137E+04  0.10603150137E+04  0.25500000920E-02 0. -1.
        2   -1    0    0  501    0  0.00000000000E+00  0.00000000000E+00 -0.13214058877E+04  0.13214058877E+04  0.25500000920E-02 0.  1.
    10030    2    1    2    0    0  0.00000000000E+00  0.00000000000E+00 -0.26109087394E+03  0.23817209014E+04  0.23673668933E+04 0.  0.
        1    1    3    3  502    0  0.57173307411E+03  0.72506093456E+01  0.91216294164E+03  0.10765558562E+04  0.50400001928E-02 0. -1.
       -1    1    3    3    0  502 -0.57173307411E+03 -0.72506093456E+01 -0.11732538156E+04  0.13051650452E+04  0.50400001928E-02 0.  1.
</event>
<event>
 5   0  0.1407158E-05  0.2414714E+04  0.7818609E-02  0.8434015E-01
        1   -1    0    0  501    0  0.00000000000E+00  0.00000000000E+00  0.99701468742E+03  0.99701468743E+03  0.50400001928E-02 0. -1.
       -1   -1    0    0    0  501  0.00000000000E+00  0.00000000000E+00 -0.14620756149E+04  0.14620756149E+04  0.50400001928E-02 0.  1.
    10030    2    1    2    0    0  0.00000000000E+00  0.00000000000E+00 -0.46506092749E+03  0.24590903023E+04  0.24147139476E+04 0.  0.
        1    1    3    3  502    0  0.37255411277E+03  0.40049482306E+03  0.86359487017E+03  0.10222469223E+04  0.50400001928E-02 0. -1.
       -1    1    3    3    0  502 -0.37255411277E+03 -0.40049482306E+03 -0.13286557977E+04  0.14368433801E+04  0.50400001928E-02 0.  1.
</event>
<event>
 5   0  0.3347728E-05  0.2344101E+04  0.7818609E-02  0.8460733E-01
       -2   -1    0    0    0  501  0.00000000000E+00  0.00000000000E+00  0.11264214591E+04  0.11264214591E+04  0.25500000920E-02 0.  1.
        2   -1    0    0  501    0  0.00000000000E+00  0.00000000000E+00 -0.12195279939E+04  0.12195279939E+04  0.25500000920E-02 0. -1.
    10030    2    1    2    0    0  0.00000000000E+00  0.00000000000E+00 -0.93106534855E+02  0.23459494530E+04  0.23441011090E+04 0.  0.
        3    1    3    3  502    0 -0.98515370450E+03  0.32038736045E+03  0.50208206901E+03  0.11512003720E+04  0.10100000352E+00 0.  1.
       -3    1    3    3    0  502  0.98515370450E+03 -0.32038736045E+03 -0.59518860386E+03  0.11947490810E+04  0.10100000352E+00 0. -1.
</event>
<event>
 5   0  0.1393026E-05  0.2324481E+04  0.7818609E-02  0.8468331E-01
        1   -1    0    0  501    0  0.00000000000E+00  0.00000000000E+00  0.13276578516E+04  0.13276578516E+04  0.50400001928E-02 0. -1.
       -1   -1    0    0    0  501  0.00000000000E+00  0.00000000000E+00 -0.10174326928E+04  0.10174326928E+04  0.50400001928E-02 0.  1.
    10030    2    1    2    0    0  0.00000000000E+00  0.00000000000E+00  0.31022515884E+03  0.23450905444E+04  0.23244805898E+04 0.  0.
        4    1    3    3  502    0  0.54628277059E+03  0.19919857261E+03 -0.86013795986E+03  0.10382407523E+04  0.12699999809E+01 0.  1.
       -4    1    3    3    0  502 -0.54628277059E+03 -0.19919857261E+03  0.11703631187E+04  0.13068497922E+04  0.12699999809E+01 0. -1.
</event>
<event>
 5   0  0.3320780E-05  0.2391712E+04  0.7818609E-02  0.8442613E-01
        2   -1    0    0  501    0  0.00000000000E+00  0.00000000000E+00  0.10329903701E+04  0.10329903701E+04  0.25500000920E-02 0.  1.
       -2   -1    0    0    0  501  0.00000000000E+00  0.00000000000E+00 -0.13843992437E+04  0.13843992437E+04  0.25500000920E-02 0. -1.
    10030    2    1    2    0    0  0.00000000000E+00  0.00000000000E+00 -0.35140887361E+03  0.24173896137E+04  0.23917115938E+04 0.  0.
        5    1    3    3  502    0  0.51770824282E+03 -0.77354607579E+03 -0.93453357928E+03  0.13190035849E+04  0.46999998093E+01 0. -1.
       -5    1    3    3    0  502 -0.51770824282E+03  0.77354607579E+03  0.58312470567E+03  0.10983860289E+04  0.46999998093E+01 0.  1.
</event>
<event>
 5   0  0.1393026E-05  0.2483569E+04  0.7818609E-02  0.8408863E-01
       -1   -1    0    0    0  501  0.00000000000E+00  0.00000000000E+00  0.62992404289E+03  0.62992404291E+03  0.50400001928E-02 0. -1.
        1   -1    0    0  501    0  0.00000000000E+00  0.00000000000E+00 -0.24479591253E+04  0.24479591253E+04  0.50400001928E-02 0.  1.
    10030    2    1    2    0    0  0.00000000000E+00  0.00000000000E+00 -0.18180350824E+04  0.30778831682E+04  0.24835686494E+04 0.  0.
        4    1    3    3  502    0 -0.11936694169E+04  0.28419460629E+03 -0.11455043090E+04  0.16786289006E+04  0.12699999809E+01 0.  1.
       -4    1    3    3    0  502  0.11936694169E+04 -0.28419460629E+03 -0.67253077334E+03  0.13992542675E+04  0.12699999809E+01 0. -1.
</event>
<event>
 5   0  0.1506985E-05  0.2376314E+04  0.7818609E-02  0.8448425E-01
       -1   -1    0    0    0  501  0.00000000000E+00  0.00000000000E+00  0.11028484828E+04  0.11028484828E+04  0.50400001928E-02 0. -1.
        1   -1    0    0  501    0  0.00000000000E+00  0.00000000000E+00 -0.12800638454E+04  0.12800638454E+04  0.50400001928E-02 0.  1.
    10030    2    1    2    0    0  0.00000000000E+00  0.00000000000E+00 -0.17721536255E+03  0.23829123282E+04  0.23763135061E+04 0.  0.
        3    1    3    3  502    0  0.31485196123E+03 -0.14248206009E+02 -0.12373811826E+04  0.12768895685E+04  0.10100000352E+00 0.  1.
       -3    1    3    3    0  502 -0.31485196123E+03  0.14248206009E+02  0.10601658200E+04  0.11060227597E+04  0.10100000352E+00 0. -1.
</event>
<event>
 5   0  0.3215208E-05  0.2394492E+04  0.7818609E-02  0.8441569E-01
       -2   -1    0    0    0  501  0.00000000000E+00  0.00000000000E+00  0.13800590458E+04  0.13800590458E+04  0.25500000920E-02 0.  1.
        2   -1    0    0  501    0  0.00000000000E+00  0.00000000000E+00 -0.10386495241E+04  0.10386495241E+04  0.25500000920E-02 0. -1.
    10030    2    1    2    0    0  0.00000000000E+00  0.00000000000E+00  0.34140952173E+03  0.24187085699E+04  0.23944917382E+04 0.  0.
        1    1    3    3  502    0 -0.10937627439E+03 -0.16723453924E+03 -0.10216858889E+04  0.10410440029E+04  0.50400001928E-02 0. -1.
       -1    1    3    3    0  502  0.10937627439E+03  0.16723453924E+03  0.13630954106E+04  0.13776645669E+04  0.50400001928E-02 0.  1.
</event>
<event>
 5   0  0.3345974E-05  0.2412394E+04  0.7818609E-02  0.8434878E-01
       -2   -1    0    0    0  501  0.00000000000E+00  0.00000000000E+00  0.10302168432E+04  0.10302168432E+04  0.25500000920E-02 0.  1.
        2   -1    0    0  501    0  0.00000000000E+00  0.00000000000E+00 -0.14122376496E+04  0.14122376496E+04  0.25500000920E-02 0. -1.
    10030    2    1    2    0    0  0.00000000000E+00  0.00000000000E+00 -0.38202080640E+03  0.24424544928E+04  0.24123938428E+04 0.  0.
        4    1    3    3  502    0 -0.11497304681E+04 -0.94860147490E+02 -0.54757896392E+03  0.12769976239E+04  0.12699999809E+01 0. -1.
       -4    1    3    3    0  502  0.11497304681E+04  0.94860147490E+02  0.16555815751E+03  0.11654568689E+04  0.12699999809E+01 0.  1.
</event>
<event>
 5   0  0.3347728E-05  0.2402878E+04  0.7818609E-02  0.8438427E-01
        2   -1    0    0  501    0  0.00000000000E+00  0.00000000000E+00  0.24832260101E+04  0.24832260101E+04  0.25500000920E-02 0. -1.
       -2   -1    0    0    0  501  0.00000000000E+00  0.00000000000E+00 -0.58128258862E+03  0.58128258863E+03  0.25500000920E-02 0.  1.
    10030    2    1    2    0    0  0.00000000000E+00  0.00000000000E+00  0.19019434215E+04  0.30645085987E+04  0.24028783101E+04 0.  0.
        3    1    3    3  502    0  0.56718022990E+03  0.99107225810E+03  0.47456712286E+03  0.12365806073E+04  0.10100000352E+00 0. -1.
       -3    1    3    3    0  502 -0.56718022990E+03 -0.99107225810E+03  0.14273762986E+04  0.18279279915E+04  0.10100000352E+00 0.  1.
</event>
<event>
 5   0  0.1401596E-05  0.2431581E+04  0.7818609E-02  0.8427774E-01
        1   -1    0    0  501    0  0.00000000000E+00  0.00000000000E+00  0.17656975324E+04  0.17656975324E+04  0.50400001928E-02 0. -1.
       -1   -1    0    0    0  501  0.00000000000E+00  0.00000000000E+00 -0.83714582486E+03  0.83714582488E+03  0.50400001928E-02 0.  1.
    10030    2    1    2    0    0  0.00000000000E+00  0.00000000000E+00  0.92855170753E+03  0.26028433573E+04  0.24315808169E+04 0.  0.
        2    1    3    3  502    0 -0.55257295838E+03 -0.80065663685E+03 -0.31630249429E+03  0.10229541497E+04  0.25500000920E-02 0.  1.
       -2    1    3    3    0  502  0.55257295838E+03  0.80065663685E+03  0.12448542018E+04  0.15798892076E+04  0.25500000920E-02 0. -1.
</event>
<event>
 5   0  0.1401596E-05  0.2394379E+04  0.7818609E-02  0.8441611E-01
        1   -1    0    0  501    0  0.00000000000E+00  0.00000000000E+00  0.12545861169E+04  0.12545861169E+04  0.50400001928E-02 0.  1.
       -1   -1    0    0    0  501  0.00000000000E+00  0.00000000000E+00 -0.11424186260E+04  0.11424186260E+04  0.50400001928E-02 0. -1.
    10030    2    1    2    0    0  0.00000000000E+00  0.00000000000E+00  0.11216749088E+03  0.23970047429E+04  0.23943788738E+04 0.  0.
        2    1    3    3  502    0 -0.86455636212E+03  0.79479333128E+03  0.28895098111E+03  0.12093993601E+04  0.25500000920E-02 0.  1.
       -2    1    3    3    0  502  0.86455636212E+03 -0.79479333128E+03 -0.17678349023E+03  0.11876053828E+04  0.25500000920E-02 0. -1.
</event>
<event>
 5   0  0.3320780E-05  0.2325844E+04  0.7818609E-02  0.8467800E-01
       -2   -1    0    0    0  501  0.00000000000E+00  0.00000000000E+00  0.11132795380E+04  0.11132795380E+04  0.25500000920E-02 0.  1.
        2   -1    0    0  501    0  0.00000000000E+00  0.00000000000E+00 -0.12147785200E+04  0.12147785200E+04  0.25500000920E-02 0. -1.
    10030    2    1    2    0    0  0.00000000000E+00  0.00000000000E+00 -0.10149898203E+03  0.23280580580E+04  0.23258444226E+04 0.  0.
        5    1    3    3  502    0  0.48783218930E+03 -0.46627253160E+03  0.89723989530E+03  0.11226984628E+04  0.46999998093E+01 0.  1.
       -5    1    3    3    0  502 -0.48783218930E+03  0.46627253160E+03 -0.99873887733E+03  0.12053595952E+04  0.46999998093E+01 0. -1.
</event>
<event>
 5   0  0.1407158E-05  0.2352555E+04  0.7818609E-02  0.8457483E-01
        1   -1    0    0  501    0  0.00000000000E+00  0.00000000000E+00  0.12282986205E+04  0.12282986205E+04  0.50400001928E-02 0. -1.
       -1   -1    0    0    0  501  0.00000000000E+00  0.00000000000E+00 -0.11264596168E+04  0.11264596168E+04  0.50400001928E-02 0.  1.
    10030    2    1    2    0    0  0.00000000000E+00  0.00000000000E+00  0.10183900374E+03  0.23547582374E+04  0.23525550310E+04 0.  0.
        1    1    3    3  502    0  0.68238328764E+01 -0.98402434219E+03  0.69594393307E+03  0.12052752502E+04  0.50400001928E-02 0. -1.
       -1    1    3    3    0  502 -0.68238328764E+01  0.98402434219E+03 -0.59410492933E+03  0.11494829872E+04  0.50400001928E-02 0.  1.
</event>
<event>
 5   0  0.3347728E-05  0.2344433E+04  0.7818609E-02  0.8460605E-01
        2   -1    0    0  501    0  0.00000000000E+00  0.00000000000E+00  0.24344241772E+04  0.24344241773E+04  0.25500000920E-02 0.  1.
       -2   -1    0    0    0  501  0.00000000000E+00  0.00000000000E+00 -0.56444198973E+03  0.56444198974E+03  0.25500000920E-02 0. -1.
    10030    2    1    2    0    0  0.00000000000E+00  0.00000000000E+00  0.18699821875E+04  0.29988661670E+04  0.23444327471E+04 0.  0.
        3    1    3    3  502    0 -0.61850850097E+03  0.85028906538E+03  0.27211947875E+03  0.10860908256E+04  0.10100000352E+00 0. -1.
       -3    1    3    3    0  502  0.61850850097E+03 -0.85028906538E+03  0.15978627088E+04  0.19127753414E+04  0.10100000352E+00 0.  1.
</event>
<event>
 5   0  0.1401596E-05  0.2032728E+04  0.7818609E-02  0.8591471E-01
       -1   -1    0    0    0  501  0.00000000000E+00  0.00000000000E+00  0.72002251874E+03  0.72002251875E+03  0.50400001928E-02 0.  1.
        1   -1    0    0  501    0  0.00000000000E+00  0.00000000000E+00 -0.14346708298E+04  0.14346708298E+04  0.50400001928E-02 0. -1.
    10030    2    1    2    0    0  0.00000000000E+00  0.00000000000E+00 -0.71464831101E+03  0.21546933485E+04  0.20327275316E+04 0.  0.
        2    1    3    3  502    0  0.40209397930E+02  0.42581863474E+03  0.61998130520E+03  0.75320324228E+03  0.25500000920E-02 0.  1.
       -2    1    3    3    0  502 -0.40209397930E+02 -0.42581863474E+03 -0.13346296162E+04  0.14014901062E+04  0.25500000920E-02 0. -1.
</event>
<event>
 5   0  0.1393026E-05  0.2404101E+04  0.7818609E-02  0.8437970E-01
       -1   -1    0    0    0  501  0.00000000000E+00  0.00000000000E+00  0.95588846138E+03  0.95588846140E+03  0.50400001928E-02 0.  1.
        1   -1    0    0  501    0  0.00000000000E+00  0.00000000000E+00 -0.15116044605E+04  0.15116044605E+04  0.50400001928E-02 0. -1.
    10030    2    1    2    0    0  0.00000000000E+00  0.00000000000E+00 -0.55571599910E+03  0.24674929219E+04  0.24041008814E+04 0.  0.
        4    1    3    3  502    0  0.39656367969E+02 -0.19238585882E+03 -0.14950194591E+04  0.15078692722E+04  0.12699999809E+01 0. -1.
       -4    1    3    3    0  502 -0.39656367969E+02  0.19238585882E+03  0.93930345997E+03  0.95962364967E+03  0.12699999809E+01 0.  1.
</event>
<event>
 5   0  0.1147362E-05  0.2335594E+04  0.7818609E-02  0.8464018E-01
       -3   -1    0    0    0  501  0.00000000000E+00  0.00000000000E+00  0.13868469062E+04  0.13868469099E+04  0.10100000352E+00 0.  1.
        3   -1    0    0  501    0  0.00000000000E+00  0.00000000000E+00 -0.98334594785E+03  0.98334595303E+03  0.10100000352E+00 0. -1.
    10030    2    1    2    0    0  0.00000000000E+00  0.00000000000E+00  0.40350095834E+03  0.23701928629E+04  0.23355943963E+04 0.  0.
        4    1    3    3  502    0 -0.27410335208E+03 -0.65539536527E+03  0.11423424861E+04  0.13452225470E+04  0.12699999809E+01 0.  1.
       -4    1    3    3    0  502  0.27410335208E+03  0.65539536527E+03 -0.73884152778E+03  0.10249703159E+04  0.12699999809E+01 0. -1.
</event>
<event>
 5   0  0.3345974E-05  0.2403945E+04  0.7818609E-02  0.8438028E-01
       -2   -1    0    0    0  501  0.00000000000E+00  0.00000000000E+00  0.10346042993E+04  0.10346042993E+04  0.25500000920E-02 0. -1.
        2   -1    0    0  501    0  0.00000000000E+00  0.00000000000E+00 -0.13964157300E+04  0.13964157300E+04  0.25500000920E-02 0.  1.
    10030    2    1    2    0    0  0.00000000000E+00  0.00000000000E+00 -0.36181143070E+03  0.24310200292E+04  0.24039448561E+04 0.  0.
        4    1    3    3  502    0 -0.10649003577E+04  0.50299011963E+03 -0.42387046569E+03  0.12516707302E+04  0.12699999809E+01 0. -1.
       -4    1    3    3    0  502  0.10649003577E+04 -0.50299011963E+03  0.62059034983E+02  0.11793492990E+04  0.12699999809E+01 0.  1.
</event>
<event>
 5   0  0.1434943E-05  0.2418594E+04  0.7818609E-02  0.8432575E-01
        1   -1    0    0  501    0  0.00000000000E+00  0.00000000000E+00  0.27242538634E+04  0.27242538634E+04  0.50400001928E-02 0. -1.
       -1   -1    0    0    0  501  0.00000000000E+00  0.00000000000E+00 -0.53680734942E+03  0.53680734945E+03  0.50400001928E-02 0.  1.
    10030    2    1    2    0    0  0.00000000000E+00  0.00000000000E+00  0.21874465139E+04  0.32610612128E+04  0.24185942161E+04 0.  0.
        5    1    3    3  502    0 -0.82620883744E+03  0.87239524053E+03  0.90942629972E+03  0.15069083527E+04  0.46999998093E+01 0. -1.
       -5    1    3    3    0  502  0.82620883744E+03 -0.87239524053E+03  0.12780202142E+04  0.17541528601E+04  0.46999998093E+01 0.  1.
</event>
<event>
 5   0  0.3310037E-05  0.2404070E+04  0.7818609E-02  0.8437981E-01
       -2   -1    0    0    0  501  0.00000000000E+00  0.00000000000E+00  0.78947799948E+03  0.78947799948E+03  0.25500000920E-02 0. -1.
        2   -1    0    0  501    0  0.00000000000E+00  0.00000000000E+00 -0.18301812257E+04  0.18301812257E+04  0.25500000920E-02 0.  1.
    10030    2    1    2    0    0  0.00000000000E+00  0.00000000000E+00 -0.10407032262E+04  0.26196592252E+04  0.24040697267E+04 0.  0.
        2    1    3    3  502    0  0.38949508067E+03  0.80263586883E+03  0.35746889021E+03  0.96110080807E+03  0.25500000920E-02 0. -1.
       -2    1    3    3    0  502 -0.38949508067E+03 -0.80263586883E+03 -0.13981721164E+04  0.16585584171E+04  0.25500000920E-02 0.  1.
</event>
<event>
 5   0  0.1401596E-05  0.2405285E+04  0.7818609E-02  0.8437528E-01
       -1   -1    0    0    0  501  0.00000000000E+00  0.00000000000E+00  0.14253123974E+04  0.14253123974E+04  0.50400001928E-02 0.  1.
        1   -1    0    0  501    0  0.00000000000E+00  0.00000000000E+00 -0.10147592657E+04  0.10147592657E+04  0.50400001928E-02 0. -1.
    10030    2    1    2    0    0  0.00000000000E+00  0.00000000000E+00  0.41055313170E+03  0.24400716631E+04  0.24052849825E+04 0.  0.
        2    1    3    3  502    0  0.86053585248E+03  0.76250106875E+03  0.56310893118E+03  0.12802427511E+04  0.25500000920E-02 0.  1.
       -2    1    3    3    0  502 -0.86053585248E+03 -0.76250106875E+03 -0.15255579948E+03  0.11598289120E+04  0.25500000920E-02 0. -1.
</event>
<event>
 5   0  0.1407158E-05  0.2434258E+04  0.7818609E-02  0.8426788E-01
       -1   -1    0    0    0  501  0.00000000000E+00  0.00000000000E+00  0.25542429019E+04  0.25542429019E+04  0.50400001928E-02 0.  1.
        1   -1    0    0  501    0  0.00000000000E+00  0.00000000000E+00 -0.57997744096E+03  0.57997744099E+03  0.50400001928E-02 0. -1.
    10030    2    1    2    0    0  0.00000000000E+00  0.00000000000E+00  0.19742654609E+04  0.31342203429E+04  0.24342582130E+04 0.  0.
        1    1    3    3  502    0 -0.29065913237E+03 -0.76621869734E+03 -0.17153699917E+03  0.83725669033E+03  0.50400001928E-02 0. -1.
       -1    1    3    3    0  502  0.29065913237E+03  0.76621869734E+03  0.21458024601E+04  0.22969636526E+04  0.50400001928E-02 0.  1.
</event>
<event>
 5   0  0.3310037E-05  0.2354870E+04  0.7818609E-02  0.8456596E-01
        2   -1    0    0  501    0  0.00000000000E+00  0.00000000000E+00  0.15782083859E+04  0.15782083859E+04  0.25500000920E-02 0.  1.
       -2   -1    0    0    0  501  0.00000000000E+00  0.00000000000E+00 -0.87843445418E+03  0.87843445418E+03  0.25500000920E-02 0. -1.
    10030    2    1    2    0    0  0.00000000000E+00  0.00000000000E+00  0.69977393176E+03  0.24566428401E+04  0.23548695268E+04 0.  0.
        2    1    3    3  502    0 -0.11024251447E+04 -0.38763709845E+02 -0.79621068712E+02  0.11059761930E+04  0.25500000920E-02 0. -1.
       -2    1    3    3    0  502  0.11024251447E+04  0.38763709845E+02  0.77939500047E+03  0.13506666471E+04  0.25500000920E-02 0.  1.
</event>
<event>
 5   0  0.3215208E-05  0.2370328E+04  0.7818609E-02  0.8450696E-01
        2   -1    0    0  501    0  0.00000000000E+00  0.00000000000E+00  0.14570313315E+04  0.14570313315E+04  0.25500000920E-02 0. -1.
       -2   -1    0    0    0  501  0.00000000000E+00  0.00000000000E+00 -0.96402468316E+03  0.96402468316E+03  0.25500000920E-02 0.  1.
    10030    2    1    2    0    0  0.00000000000E+00  0.00000000000E+00  0.49300664833E+03  0.24210560147E+04  0.23703283888E+04 0.  0.
        1    1    3    3  502    0  0.24671616855E+03  0.56208920798E+03 -0.78899843786E+03  0.99966578442E+03  0.50400001928E-02 0.  1.
       -1    1    3    3    0  502 -0.24671616855E+03 -0.56208920798E+03  0.12820050862E+04  0.14213902302E+04  0.50400001928E-02 0. -1.
</event>
<event>
 5   0  0.1401596E-05  0.2291487E+04  0.7818609E-02  0.8481285E-01
        1   -1    0    0  501    0  0.00000000000E+00  0.00000000000E+00  0.65776543163E+03  0.65776543165E+03  0.50400001928E-02 0.  1.
       -1   -1    0    0    0  501  0.00000000000E+00  0.00000000000E+00 -0.19957397126E+04  0.19957397126E+04  0.50400001928E-02 0. -1.
    10030    2    1    2    0    0  0.00000000000E+00  0.00000000000E+00 -0.13379742810E+04  0.26535051443E+04  0.22914873716E+04 0.  0.
        2    1    3    3  502    0 -0.42680992033E+03  0.31887056056E+03  0.50560085158E+03  0.73449122773E+03  0.25500000920E-02 0.  1.
       -2    1    3    3    0  502  0.42680992033E+03 -0.31887056056E+03 -0.18435751326E+04  0.19190139165E+04  0.25500000920E-02 0. -1.
</event>
<event>
 5   0  0.1407158E-05  0.2401650E+04  0.7818609E-02  0.8438886E-01
        1   -1    0    0  501    0  0.00000000000E+00  0.00000000000E+00  0.77127436804E+03  0.77127436806E+03  0.50400001928E-02 0.  1.
       -1   -1    0    0    0  501  0.00000000000E+00  0.00000000000E+00 -0.18696076446E+04  0.18696076446E+04  0.50400001928E-02 0. -1.
    10030    2    1    2    0    0  0.00000000000E+00  0.00000000000E+00 -0.10983332766E+04  0.26408820127E+04  0.24016498118E+04 0.  0.
        1    1    3    3  502    0 -0.89088946976E+03  0.65462568050E+03 -0.10646507044E+04  0.15348289649E+04  0.50400001928E-02 0.  1.
       -1    1    3    3    0  502  0.89088946976E+03 -0.65462568050E+03 -0.33682572146E+02  0.11060530478E+04  0.50400001928E-02 0. -1.
</event>
<event>
 5   0  0.1393026E-05  0.2398602E+04  0.7818609E-02  0.8440027E-01
       -1   -1    0    0    0  501  0.00000000000E+00  0.00000000000E+00  0.56976689198E+03  0.56976689201E+03  0.50400001928E-02 0.  1.
        1   -1    0    0  501    0  0.00000000000E+00  0.00000000000E+00 -0.25244066446E+04  0.25244066446E+04  0.50400001928E-02 0. -1.
    10030    2    1    2    0    0  0.00000000000E+00  0.00000000000E+00 -0.19546397526E+04  0.30941735366E+04  0.23986023664E+04 0.  0.
        4    1    3    3  502    0 -0.29570802246E+02  0.38115637256E+02  0.56851390945E+03  0.57055842145E+03  0.12699999809E+01 0.  1.
       -4    1    3    3    0  502  0.29570802246E+02 -0.38115637256E+02 -0.25231536621E+04  0.25236151152E+04  0.12699999809E+01 0. -1.
</event>
<event>
 5   0  0.3345974E-05  0.2436346E+04  0.7818609E-02  0.8426020E-01
        2   -1    0    0  501    0  0.00000000000E+00  0.00000000000E+00  0.17888105827E+04  0.17888105827E+04  0.25500000920E-02 0. -1.
       -2   -1    0    0    0  501  0.00000000000E+00  0.00000000000E+00 -0.82957110830E+03  0.82957110830E+03  0.25500000920E-02 0.  1.
    10030    2    1    2    0    0  0.00000000000E+00  0.00000000000E+00  0.95923947436E+03  0.26183816910E+04  0.24363460982E+04 0.  0.
        4    1    3    3  502    0 -0.99657558349E+03  0.68563892054E+03  0.63417109625E+03  0.13658104609E+04  0.12699999809E+01 0.  1.
       -4    1    3    3    0  502  0.99657558349E+03 -0.68563892054E+03  0.32506837811E+03  0.12525712300E+04  0.12699999809E+01 0. -1.
</event>
<event>
 5   0  0.1506985E-05  0.2110241E+04  0.7818609E-02  0.8556745E-01
       -1   -1    0    0    0  501  0.00000000000E+00  0.00000000000E+00  0.40592407336E+03  0.40592407339E+03  0.50400001928E-02 0.  1.
        1   -1    0    0  501    0  0.00000000000E+00  0.00000000000E+00 -0.27425807634E+04  0.27425807634E+04  0.50400001928E-02 0. -1.
    10030    2    1    2    0    0  0.00000000000E+00  0.00000000000E+00 -0.23366566901E+04  0.31485048368E+04  0.21102412706E+04 0.  0.
        3    1    3    3  502    0 -0.30453962371E+03  0.96024193921E+03 -0.70013471379E+03  0.12267834332E+04  0.10100000352E+00 0.  1.
       -3    1    3    3    0  502  0.30453962371E+03 -0.96024193921E+03 -0.16365219763E+04  0.19217214037E+04  0.10100000352E+00 0. -1.
</event>
<event>
 5   0  0.1407158E-05  0.2425611E+04  0.7818609E-02  0.8429977E-01
       -1   -1    0    0    0  501  0.00000000000E+00  0.00000000000E+00  0.15216606894E+04  0.15216606894E+04  0.50400001928E-02 0.  1.
        1   -1    0    0  501    0  0.00000000000E+00  0.00000000000E+00 -0.96663966049E+03  0.96663966051E+03  0.50400001928E-02 0. -1.
    10030    2    1    2    0    0  0.00000000000E+00  0.00000000000E+00  0.55502102893E+03  0.24883003499E+04  0.24256113227E+04 0.  0.
        1    1    3    3  502    0 -0.40873543098E+03  0.74987708682E+03 -0.60585863047E+03  0.10471126864E+04  0.50400001928E-02 0. -1.
       -1    1    3    3    0  502  0.40873543098E+03 -0.74987708682E+03  0.11608796594E+04  0.14411876635E+04  0.50400001928E-02 0.  1.
</event>
<event>
 5   0  0.1407158E-05  0.2405610E+04  0.7818609E-02  0.8437406E-01
       -1   -1    0    0    0  501  0.00000000000E+00  0.00000000000E+00  0.12870203787E+04  0.12870203787E+04  0.50400001928E-02 0.  1.
        1   -1    0    0  501    0  0.00000000000E+00  0.00000000000E+00 -0.11241001195E+04  0.11241001195E+04  0.50400001928E-02 0. -1.
    10030    2    1    2    0    0  0.00000000000E+00  0.00000000000E+00  0.16292025918E+03  0.24111204982E+04  0.24056099115E+04 0.  0.
        1    1    3    3  502    0 -0.56955710784E+03  0.96140712472E+03 -0.36457703877E+03  0.11754213609E+04  0.50400001928E-02 0. -1.
       -1    1    3    3    0  502  0.56955710784E+03 -0.96140712472E+03  0.52749729795E+03  0.12356991373E+04  0.50400001928E-02 0.  1.
</event>
<event>
 5   0  0.3345974E-05  0.2410160E+04  0.7818609E-02  0.8435710E-01
        2   -1    0    0  501    0  0.00000000000E+00  0.00000000000E+00  0.15332101521E+04  0.15332101521E+04  0.25500000920E-02 0.  1.
       -2   -1    0    0    0  501  0.00000000000E+00  0.00000000000E+00 -0.94717469240E+03  0.94717469241E+03  0.25500000920E-02 0. -1.
    10030    2    1    2    0    0  0.00000000000E+00  0.00000000000E+00  0.58603545972E+03  0.24803848445E+04  0.24101600397E+04 0.  0.
        4    1    3    3  502    0  0.10186079203E+04 -0.61117997698E+03  0.50168951495E+03  0.12894948786E+04  0.12699999809E+01 0.  1.
       -4    1    3    3    0  502 -0.10186079203E+04  0.61117997698E+03  0.84345944772E+02  0.11908899659E+04  0.12699999809E+01 0. -1.
</event>
<event>
 5   0  0.3347728E-05  0.2361064E+04  0.7818609E-02  0.8454226E-01
       -2   -1    0    0    0  501  0.00000000000E+00  0.00000000000E+00  0.10806581464E+04  0.10806581464E+04  0.25500000920E-02 0.  1.
        2   -1    0    0  501    0  0.00000000000E+00  0.00000000000E+00 -0.12896365343E+04  0.12896365343E+04  0.25500000920E-02 0. -1.
    10030    2    1    2    0    0  0.00000000000E+00  0.00000000000E+00 -0.20897838794E+03  0.23702946807E+04  0.23610643588E+04 0.  0.
        3    1    3    3  502    0  0.35595234763E+03  0.98724127092E+02 -0.12301253406E+04  0.12843896958E+04  0.10100000352E+00 0. -1.
       -3    1    3    3    0  502 -0.35595234763E+03 -0.98724127092E+02  0.10211469526E+04  0.10859049848E+04  0.10100000352E+00 0.  1.
</event>
<event>
 5   0  0.3320780E-05  0.2403488E+04  0.7818609E-02  0.8438199E-01
        2   -1    0    0  501    0  0.00000000000E+00  0.00000000000E+00  0.20578372878E+04  0.20578372878E+04  0.25500000920E-02 0.  1.
       -2   -1    0    0    0  501  0.00000000000E+00  0.00000000000E+00 -0.70179904638E+03  0.70179904638E+03  0.25500000920E-02 0. -1.
    10030    2    1    2    0    0  0.00000000000E+00  0.00000000000E+00  0.13560382415E+04  0.27596363342E+04  0.24034876710E+04 0.  0.
        5    1    3    3  502    0 -0.58083589006E+03 -0.35402768627E+03 -0.45946752596E+03  0.82087662364E+03  0.46999998093E+01 0. -1.
       -5    1    3    3    0  502  0.58083589006E+03  0.35402768627E+03  0.18155057674E+04  0.19387597106E+04  0.46999998093E+01 0.  1.
</event>
<event>
 5   0  0.3347728E-05  0.2411783E+04  0.7818609E-02  0.8435105E-01
       -2   -1    0    0    0  501  0.00000000000E+00  0.00000000000E+00  0.10785876948E+04  0.10785876948E+04  0.25500000920E-02 0. -1.
        2   -1    0    0  501    0  0.00000000000E+00  0.00000000000E+00 -0.13482204942E+04  0.13482204942E+04  0.25500000920E-02 0.  1.
    10030    2    1    2    0    0  0.00000000000E+00  0.00000000000E+00 -0.26963279947E+03  0.24268081890E+04  0.24117827721E+04 0.  0.
        3    1    3    3  502    0 -0.77553983412E+03 -0.14378900366E+03  0.78302682824E+03  0.11114262620E+04  0.10100000352E+00 0. -1.
       -3    1    3    3    0  502  0.77553983412E+03  0.14378900366E+03 -0.10526596277E+04  0.13153819270E+04  0.10100000352E+00 0.  1.
</event>
<event>
 5   0  0.1434943E-05  0.2338551E+04  0.7818609E-02  0.8462874E-01
        1   -1    0    0  501    0  0.00000000000E+00  0.00000000000E+00  0.12620554661E+04  0.12620554662E+04  0.50400001928E-02 0. -1.
       -1   -1    0    0    0  501  0.00000000000E+00  0.00000000000E+00 -0.10833166868E+04  0.10833166868E+04  0.50400001928E-02 0.  1.
    10030    2    1    2    0    0  0.00000000000E+00  0.00000000000E+00  0.17873877934E+03  0.23453721530E+04  0.23385514715E+04 0.  0.
        5    1    3    3  502    0  0.39444624859E+03 -0.13891519788E+03  0.11844782892E+04  0.12561433767E+04  0.46999998093E+01 0. -1.
       -5    1    3    3    0  502 -0.39444624859E+03  0.13891519788E+03 -0.10057395099E+04  0.10892287763E+04  0.46999998093E+01 0.  1.
</event>
<event>
 5   0  0.3320780E-05  0.2416773E+04  0.7818609E-02  0.8433251E-01
       -2   -1    0    0    0  501  0.00000000000E+00  0.00000000000E+00  0.14266577610E+04  0.14266577610E+04  0.25500000920E-02 0.  1.
        2   -1    0    0  501    0  0.00000000000E+00  0.00000000000E+00 -0.10235095392E+04  0.10235095392E+04  0.25500000920E-02 0. -1.
    10030    2    1    2    0    0  0.00000000000E+00  0.00000000000E+00  0.40314822178E+03  0.24501673002E+04  0.24167729125E+04 0.  0.
        5    1    3    3  502    0  0.70178891325E+03  0.74606422266E+03  0.85156985732E+03  0.13320333385E+04  0.46999998093E+01 0.  1.
       -5    1    3    3    0  502 -0.70178891325E+03 -0.74606422266E+03 -0.44842163554E+03  0.11181339617E+04  0.46999998093E+01 0. -1.
</event>
<event>
 5   0  0.3310037E-05  0.2432919E+04  0.7818609E-02  0.8427281E-01
        2   -1    0    0  501    0  0.00000000000E+00  0.00000000000E+00  0.18793550181E+04  0.18793550181E+04  0.25500000920E-02 0. -1.
       -2   -1    0    0    0  501  0.00000000000E+00  0.00000000000E+00 -0.78738387344E+03  0.78738387344E+03  0.25500000920E-02 0.  1.
    10030    2    1    2    0    0  0.00000000000E+00  0.00000000000E+00  0.10919711447E+04  0.26667388915E+04  0.24329190975E+04 0.  0.
        2    1    3    3  502    0  0.54666254402E+03 -0.76913537202E+03 -0.29549652082E+03  0.98880096650E+03  0.25500000920E-02 0.  1.
       -2    1    3    3    0  502 -0.54666254402E+03  0.76913537202E+03  0.13874676655E+04  0.16779379250E+04  0.25500000920E-02 0. -1.
</event>
<event>
 5   0  0.3320780E-05  0.2086753E+04  0.7818609E-02  0.8567101E-01
        2   -1    0    0  501    0  0.00000000000E+00  0.00000000000E+00  0.14125275043E+04  0.14125275043E+04  0.25500000920E-02 0.  1.
       -2   -1    0    0    0  501  0.00000000000E+00  0.00000000000E+00 -0.77069960932E+03  0.77069960933E+03  0.25500000920E-02 0. -1.
    10030    2    1    2    0    0  0.00000000000E+00  0.00000000000E+00  0.64182789499E+03  0.21832271136E+04  0.20867528802E+04 0.  0.
        5    1    3    3  502    0 -0.56092110882E+03 -0.28938504341E+03 -0.54830009361E+03  0.83608090298E+03  0.46999998093E+01 0. -1.
       -5    1    3    3    0  502  0.56092110882E+03  0.28938504341E+03  0.11901279886E+04  0.13471462107E+04  0.46999998093E+01 0.  1.
</event>
<event>
 5   0  0.1407158E-05  0.2418895E+04  0.7818609E-02  0.8432463E-01
       -1   -1    0    0    0  501  0.00000000000E+00  0.00000000000E+00  0.88816890960E+03  0.88816890962E+03  0.50400001928E-02 0. -1.
        1   -1    0    0  501    0  0.00000000000E+00  0.00000000000E+00 -0.16469431287E+04  0.16469431287E+04  0.50400001928E-02 0.  1.
    10030    2    1    2    0    0  0.00000000000E+00  0.00000000000E+00 -0.75877421906E+03  0.25351120383E+04  0.24188953535E+04 0.  0.
        1    1    3    3  502    0  0.12226537665E+02  0.40252487068E+03 -0.15746128450E+04  0.16252942415E+04  0.50400001928E-02 0.  1.
       -1    1    3    3    0  502 -0.12226537665E+02 -0.40252487068E+03  0.81583862595E+03  0.90981779679E+03  0.50400001928E-02 0. -1.
</event>
<event>
 5   0  0.3310037E-05  0.2386354E+04  0.7818609E-02  0.8444630E-01
        2   -1    0    0  501    0  0.00000000000E+00  0.00000000000E+00  0.31394956911E+04  0.31394956911E+04  0.25500000920E-02 0.  1.
       -2   -1    0    0    0  501  0.00000000000E+00  0.00000000000E+00 -0.45347135284E+03  0.45347135285E+03  0.25500000920E-02 0. -1.
    10030    2    1    2    0    0  0.00000000000E+00  0.00000000000E+00  0.26860243382E+04  0.35929670439E+04  0.23863540042E+04 0.  0.
        2    1    3    3  502    0  0.77379350286E+03 -0.87720972594E+03  0.16974532582E+04  0.20614560029E+04  0.25500000920E-02 0.  1.
       -2    1    3    3    0  502 -0.77379350286E+03  0.87720972594E+03  0.98857108005E+03  0.15315110410E+04  0.25500000920E-02 0. -1.
</event>
<event>
 5   0  0.1434943E-05  0.2414422E+04  0.7818609E-02  0.8434124E-01
        1   -1    0    0  501    0  0.00000000000E+00  0.00000000000E+00  0.14730997046E+04  0.14730997046E+04  0.50400001928E-02 0.  1.
       -1   -1    0    0    0  501  0.00000000000E+00  0.00000000000E+00 -0.98931422213E+03  0.98931422214E+03  0.50400001928E-02 0. -1.
    10030    2    1    2    0    0  0.00000000000E+00  0.00000000000E+00  0.48378548251E+03  0.24624139268E+04  0.24144220745E+04 0.  0.
        5    1    3    3  502    0 -0.45871951579E+02  0.12032358712E+04  0.15383061029E+03  0.12139055747E+04  0.46999998093E+01 0. -1.
       -5    1    3    3    0  502  0.45871951579E+02 -0.12032358712E+04  0.32995487222E+03  0.12485083521E+04  0.46999998093E+01 0.  1.
</event>
<event>
 5   0  0.1506985E-05  0.2414279E+04  0.7818609E-02  0.8434177E-01
        1   -1    0    0  501    0  0.00000000000E+00  0.00000000000E+00  0.87860784607E+03  0.87860784608E+03  0.50400001928E-02 0. -1.
       -1   -1    0    0    0  501  0.00000000000E+00  0.00000000000E+00 -0.16585166583E+04  0.16585166583E+04  0.50400001928E-02 0.  1.
    10030    2    1    2    0    0  0.00000000000E+00  0.00000000000E+00 -0.77990881220E+03  0.25371245044E+04  0.24142789804E+04 0.  0.
        3    1    3    3  502    0 -0.11753863267E+04 -0.90748722733E+02 -0.66281467161E+03  0.13524391471E+04  0.10100000352E+00 0.  1.
       -3    1    3    3    0  502  0.11753863267E+04  0.90748722733E+02 -0.11709414059E+03  0.11846853572E+04  0.10100000352E+00 0. -1.
</event>
<event>
 5   0  0.3345974E-05  0.2397658E+04  0.7818609E-02  0.8440381E-01
        2   -1    0    0  501    0  0.00000000000E+00  0.00000000000E+00  0.19386479513E+04  0.19386479513E+04  0.25500000920E-02 0.  1.
       -2   -1    0    0    0  501  0.00000000000E+00  0.00000000000E+00 -0.74133688613E+03  0.74133688613E+03  0.25500000920E-02 0. -1.
    10030    2    1    2    0    0  0.00000000000E+00  0.00000000000E+00  0.11973110651E+04  0.26799848374E+04  0.23976582204E+04 0.  0.
        4    1    3    3  502    0  0.11638195803E+04  0.22527681528E+03  0.79849229018E+03  0.14292715660E+04  0.12699999809E+01 0.  1.
       -4    1    3    3    0  502 -0.11638195803E+04 -0.22527681528E+03  0.39881877497E+03  0.12507132714E+04  0.12699999809E+01 0. -1.
</event>
<event>
 5   0  0.1434943E-05  0.2400464E+04  0.7818609E-02  0.8439330E-01
        1   -1    0    0  501    0  0.00000000000E+00  0.00000000000E+00  0.14507265346E+04  0.14507265346E+04  0.50400001928E-02 0. -1.
       -1   -1    0    0    0  501  0.00000000000E+00  0.00000000000E+00 -0.99299020691E+03  0.99299020692E+03  0.50400001928E-02 0.  1.
    10030    2    1    2    0    0  0.00000000000E+00  0.00000000000E+00  0.45773632770E+03  0.24437167415E+04  0.24004643232E+04 0.  0.
        5    1    3    3  502    0  0.22395686844E+03 -0.23813458674E+03 -0.94678674958E+03  0.10016446473E+04  0.46999998093E+01 0.  1.
       -5    1    3    3    0  502 -0.22395686844E+03  0.23813458674E+03  0.14045230773E+04  0.14420720942E+04  0.46999998093E+01 0. -1.
</event>
<event>
 5   0  0.1393026E-05  0.2399354E+04  0.7818609E-02  0.8439746E-01
        1   -1    0    0  501    0  0.00000000000E+00  0.00000000000E+00  0.99411092485E+03  0.99411092487E+03  0.50400001928E-02 0. -1.
       -1   -1    0    0    0  501  0.00000000000E+00  0.00000000000E+00 -0.14477504580E+04  0.14477504580E+04  0.50400001928E-02 0.  1.
    10030    2    1    2    0    0  0.00000000000E+00  0.00000000000E+00 -0.45363953315E+03  0.24418613829E+04  0.23993537020E+04 0.  0.
        4    1    3    3  502    0  0.12308139277E+03  0.11582090642E+04 -0.51935907106E+03  0.12752775084E+04  0.12699999809E+01 0.  1.
       -4    1    3    3    0  502 -0.12308139277E+03 -0.11582090642E+04  0.65719537915E+02  0.11665838745E+04  0.12699999809E+01 0. -1.
</event>
<event>
 5   0  0.1506985E-05  0.2410786E+04  0.7818609E-02  0.8435476E-01
       -1   -1    0    0    0  501  0.00000000000E+00  0.00000000000E+00  0.15826155277E+04  0.15826155277E+04  0.50400001928E-02 0.  1.
        1   -1    0    0  501    0  0.00000000000E+00  0.00000000000E+00 -0.91808321086E+03  0.91808321088E+03  0.50400001928E-02 0. -1.
    10030    2    1    2    0    0  0.00000000000E+00  0.00000000000E+00  0.66453231681E+03  0.25006987386E+04  0.24107863823E+04 0.  0.
        3    1    3    3  502    0  0.88153083078E+03 -0.64552600127E+03  0.86034278585E+03  0.13906797415E+04  0.10100000352E+00 0.  1.
       -3    1    3    3    0  502 -0.88153083078E+03  0.64552600127E+03 -0.19581046904E+03  0.11100189971E+04  0.10100000352E+00 0. -1.
</event>
<event>
 5   0  0.3320780E-05  0.2355424E+04  0.7818609E-02  0.8456383E-01
        2   -1    0    0  501    0  0.00000000000E+00  0.00000000000E+00  0.10756738215E+04  0.10756738215E+04  0.25500000920E-02 0.  1.
       -2   -1    0    0    0  501  0.00000000000E+00  0.00000000000E+00 -0.12894297226E+04  0.12894297226E+04  0.25500000920E-02 0. -1.
    10030    2    1    2    0    0  0.00000000000E+00  0.00000000000E+00 -0.21375590115E+03  0.23651035441E+04  0.23554242058E+04 0.  0.
        5    1    3    3  502    0 -0.59558894657E+03  0.28497708118E+03  0.87234524008E+03  0.10940504732E+04  0.46999998093E+01 0.  1.
       -5    1    3    3    0  502  0.59558894657E+03 -0.28497708118E+03 -0.10861011412E+04  0.12710530709E+04  0.46999998093E+01 0. -1.
</event>
<event>
 5   0  0.1393026E-05  0.2402817E+04  0.7818609E-02  0.8438450E-01
       -1   -1    0    0    0  501  0.00000000000E+00  0.00000000000E+00  0.31773380965E+04  0.31773380965E+04  0.50400001928E-02 0.  1.
        1   -1    0    0  501    0  0.00000000000E+00  0.00000000000E+00 -0.45427391823E+03  0.45427391826E+03  0.50400001928E-02 0. -1.
    10030    2    1    2    0    0  0.00000000000E+00  0.00000000000E+00  0.27230641783E+04  0.36316120148E+04  0.24028165362E+04 0.  0.
        4    1    3    3  502    0  0.76341326888E+03  0.91840291544E+03  0.11637959475E+04  0.16675390114E+04  0.12699999809E+01 0. -1.
       -4    1    3    3    0  502 -0.76341326888E+03 -0.91840291544E+03  0.15592682308E+04  0.19640730034E+04  0.12699999809E+01 0.  1.
</event>
<event>
 5   0  0.1434943E-05  0.2411855E+04  0.7818609E-02  0.8435079E-01
        1   -1    0    0  501    0  0.00000000000E+00  0.00000000000E+00  0.24933753568E+04  0.24933753568E+04  0.50400001928E-02 0. -1.
       -1   -1    0    0    0  501  0.00000000000E+00  0.00000000000E+00 -0.58324995456E+03  0.58324995458E+03  0.50400001928E-02 0.  1.
    10030    2    1    2    0    0  0.00000000000E+00  0.00000000000E+00  0.19101254023E+04  0.30766253114E+04  0.24118549406E+04 0.  0.
        5    1    3    3  502    0 -0.10487953276E+04  0.19465077438E+03  0.16725708614E+04  0.19837781981E+04  0.46999998093E+01 0. -1.
       -5    1    3    3    0  502  0.10487953276E+04 -0.19465077438E+03  0.23755454091E+03  0.10928471133E+04  0.46999998093E+01 0.  1.
</event>
<event>
 5   0  0.3320780E-05  0.2395771E+04  0.7818609E-02  0.8441088E-01
       -2   -1    0    0    0  501  0.00000000000E+00  0.00000000000E+00  0.94294426727E+03  0.94294426727E+03  0.25500000920E-02 0.  1.
        2   -1    0    0  501    0  0.00000000000E+00  0.00000000000E+00 -0.15217550270E+04  0.15217550270E+04  0.25500000920E-02 0. -1.
    10030    2    1    2    0    0  0.00000000000E+00  0.00000000000E+00 -0.57881075974E+03  0.24646992943E+04  0.23957714239E+04 0.  0.
        5    1    3    3  502    0 -0.82632237888E+03 -0.22553961832E+03 -0.11508933263E+04  0.14346617482E+04  0.46999998093E+01 0. -1.
       -5    1    3    3    0  502  0.82632237888E+03  0.22553961832E+03  0.57208256659E+03  0.10300375460E+04  0.46999998093E+01 0.  1.
</event>
<event>
 5   0  0.1434943E-05  0.2303240E+04  0.7818609E-02  0.8476645E-01
        1   -1    0    0  501    0  0.00000000000E+00  0.00000000000E+00  0.14002254013E+04  0.14002254013E+04  0.50400001928E-02 0.  1.
       -1   -1    0    0    0  501  0.00000000000E+00  0.00000000000E+00 -0.94715336165E+03  0.94715336167E+03  0.50400001928E-02 0. -1.
    10030    2    1    2    0    0  0.00000000000E+00  0.00000000000E+00  0.45307203961E+03  0.23473787629E+04  0.23032396279E+04 0.  0.
        5    1    3    3  502    0 -0.31029694133E+03  0.27003430241E+03 -0.86971841351E+03  0.96209922829E+03  0.46999998093E+01 0. -1.
       -5    1    3    3    0  502  0.31029694133E+03 -0.27003430241E+03  0.13227904531E+04  0.13852795347E+04  0.46999998093E+01 0.  1.
</event>
<event>
 5   0  0.3345974E-05  0.2420740E+04  0.7818609E-02  0.8431779E-01
        2   -1    0    0  501    0  0.00000000000E+00  0.00000000000E+00  0.22559968550E+04  0.22559968550E+04  0.25500000920E-02 0.  1.
       -2   -1    0    0    0  501  0.00000000000E+00  0.00000000000E+00 -0.64937849501E+03  0.64937849502E+03  0.25500000920E-02 0. -1.
    10030    2    1    2    0    0  0.00000000000E+00  0.00000000000E+00  0.16066183599E+04  0.29053753500E+04  0.24207402524E+04 0.  0.
        4    1    3    3  502    0  0.20336782245E+02 -0.42357147113E+03 -0.55730183559E+03  0.70029516971E+03  0.12699999809E+01 0. -1.
       -4    1    3    3    0  502 -0.20336782245E+02  0.42357147113E+03  0.21639201955E+04  0.22050801803E+04  0.12699999809E+01 0.  1.
</event>
<event>
 5   0  0.1393026E-05  0.2409431E+04  0.7818609E-02  0.8435981E-01
       -1   -1    0    0    0  501  0.00000000000E+00  0.00000000000E+00  0.70252914684E+03  0.70252914685E+03  0.50400001928E-02 0. -1.
        1   -1    0    0  501    0  0.00000000000E+00  0.00000000000E+00 -0.20658776921E+04  0.20658776921E+04  0.50400001928E-02 0.  1.
    10030    2    1    2    0    0  0.00000000000E+00  0.00000000000E+00 -0.13633485453E+04  0.27684068390E+04  0.24094308810E+04 0.  0.
        4    1    3    3  502    0 -0.93140910287E+03 -0.70143462908E+03 -0.33354000595E+03  0.12127588401E+04  0.12699999809E+01 0. -1.
       -4    1    3    3    0  502  0.93140910287E+03  0.70143462908E+03 -0.10298085393E+04  0.15556479989E+04  0.12699999809E+01 0.  1.
</event>
<event>
 5   0  0.1401596E-05  0.2385328E+04  0.7818609E-02  0.8445017E-01
        1   -1    0    0  501    0  0.00000000000E+00  0.00000000000E+00  0.11783929571E+04  0.11783929571E+04  0.50400001928E-02 0. -1.
       -1   -1    0    0    0  501  0.00000000000E+00  0.00000000000E+00 -0.12071075407E+04  0.12071075407E+04  0.50400001928E-02 0.  1.
    10030    2    1    2    0    0  0.00000000000E+00  0.00000000000E+00 -0.28714583579E+02  0.23855004978E+04  0.23853276709E+04 0.  0.
        2    1    3    3  502    0  0.71095678877E+03 -0.91321943859E+03 -0.30250613579E+03  0.11962187345E+04  0.25500000920E-02 0. -1.
       -2    1    3    3    0  502 -0.71095678877E+03  0.91321943859E+03  0.27379155222E+03  0.11892817633E+04  0.25500000920E-02 0.  1.
</event>
<event>
 5   0  0.1506985E-05  0.2136381E+04  0.7818609E-02  0.8545384E-01
       -1   -1    0    0    0  501  0.00000000000E+00  0.00000000000E+00  0.11688677430E+04  0.11688677430E+04  0.50400001928E-02 0.  1.
        1   -1    0    0  501    0  0.00000000000E+00  0.00000000000E+00 -0.97618485545E+03  0.97618485546E+03  0.50400001928E-02 0. -1.
    10030    2    1    2    0    0  0.00000000000E+00  0.00000000000E+00  0.19268288756E+03  0.21450525985E+04  0.21363810416E+04 0.  0.
        3    1    3    3  502    0  0.58738100224E+03 -0.74031895561E+03 -0.40361781330E+03  0.10276166344E+04  0.10100000352E+00 0. -1.
       -3    1    3    3    0  502 -0.58738100224E+03  0.74031895561E+03  0.59630070086E+03  0.11174359641E+04  0.10100000352E+00 0.  1.
</event>
<event>
 5   0  0.3347728E-05  0.2407700E+04  0.7818609E-02  0.8436627E-01
        2   -1    0    0  501    0  0.00000000000E+00  0.00000000000E+00  0.11489067223E+04  0.11489067223E+04  0.25500000920E-02 0. -1.
       -2   -1    0    0    0  501  0.00000000000E+00  0.00000000000E+00 -0.12614204484E+04  0.12614204484E+04  0.25500000920E-02 0.  1.
    10030    2    1    2    0    0  0.00000000000E+00  0.00000000000E+00 -0.11251372611E+03  0.24103271708E+04  0.24076996764E+04 0.  0.
        3    1    3    3  502    0  0.86075999825E+03  0.62861996242E+03  0.50398193522E+03  0.11790117188E+04  0.10100000352E+00 0. -1.
       -3    1    3    3    0  502 -0.86075999825E+03 -0.62861996242E+03 -0.61649566133E+03  0.12313154520E+04  0.10100000352E+00 0.  1.
</event>
<event>
 5   0  0.1401596E-05  0.2277671E+04  0.7818609E-02  0.8486778E-01
        1   -1    0    0  501    0  0.00000000000E+00  0.00000000000E+00  0.17917646730E+04  0.17917646730E+04  0.50400001928E-02 0. -1.
       -1   -1    0    0    0  501  0.00000000000E+00  0.00000000000E+00 -0.72383736718E+03  0.72383736720E+03  0.50400001928E-02 0.  1.
    10030    2    1    2    0    0  0.00000000000E+00  0.00000000000E+00  0.10679273058E+04  0.25156020402E+04  0.22776709363E+04 0.  0.
        2    1    3    3  502    0  0.76534898857E+02  0.86078650085E+03  0.13531556257E+04  0.16055656754E+04  0.25500000920E-02 0. -1.
       -2    1    3    3    0  502 -0.76534898857E+02 -0.86078650085E+03 -0.28522831985E+03  0.91003636479E+03  0.25500000920E-02 0.  1.
</event>
<event>
 5   0  0.1401596E-05  0.2424523E+04  0.7818609E-02  0.8430379E-01
       -1   -1    0    0    0  501  0.00000000000E+00  0.00000000000E+00  0.79291212830E+03  0.79291212832E+03  0.50400001928E-02 0.  1.
        1   -1    0    0  501    0  0.00000000000E+00  0.00000000000E+00 -0.18533927555E+04  0.18533927555E+04  0.50400001928E-02 0. -1.
    10030    2    1    2    0    0  0.00000000000E+00  0.00000000000E+00 -0.10604806272E+04  0.26463048838E+04  0.24245227113E+04 0.  0.
        2    1    3    3  502    0 -0.76645160241E+03  0.64287282837E+03  0.21711621324E+03  0.10236566721E+04  0.25500000920E-02 0.  1.
       -2    1    3    3    0  502  0.76645160241E+03 -0.64287282837E+03 -0.12775968404E+04  0.16226482117E+04  0.25500000920E-02 0. -1.
</event>
<event>
 5   0  0.3320780E-05  0.2402320E+04  0.7818609E-02  0.8438636E-01
       -2   -1    0    0    0  501  0.00000000000E+00  0.00000000000E+00  0.73968590993E+03  0.73968590993E+03  0.25500000920E-02 0. -1.
        2   -1    0    0  501    0  0.00000000000E+00  0.00000000000E+00 -0.19505375869E+04  0.19505375869E+04  0.25500000920E-02 0.  1.
    10030    2    1    2    0    0  0.00000000000E+00  0.00000000000E+00 -0.12108516769E+04  0.26902234968E+04  0.24023198536E+04 0.  0.
        5    1    3    3  502    0  0.38583943618E+03  0.60136135805E+03 -0.16866730846E+04  0.18317739319E+04  0.46999998093E+01 0.  1.
       -5    1    3    3    0  502 -0.38583943618E+03 -0.60136135805E+03  0.47582140764E+03  0.85844956487E+03  0.46999998093E+01 0. -1.
</event>
<event>
 5   0  0.3345974E-05  0.2406105E+04  0.7818609E-02  0.8437221E-01
        2   -1    0    0  501    0  0.00000000000E+00  0.00000000000E+00  0.15034776087E+04  0.15034776088E+04  0.25500000920E-02 0.  1.
       -2   -1    0    0    0  501  0.00000000000E+00  0.00000000000E+00 -0.96265838742E+03  0.96265838742E+03  0.25500000920E-02 0. -1.
    10030    2    1    2    0    0  0.00000000000E+00  0.00000000000E+00  0.54081922133E+03  0.24661359962E+04  0.24061050105E+04 0.  0.
        4    1    3    3  502    0  0.64007189859E+03  0.61439092672E+03  0.11031868513E+04  0.14156945602E+04  0.12699999809E+01 0.  1.
       -4    1    3    3    0  502 -0.64007189859E+03 -0.61439092672E+03 -0.56236762994E+03  0.10504414359E+04  0.12699999809E+01 0. -1.
</event>
<event>
 5   0  0.1401596E-05  0.2412815E+04  0.7818609E-02  0.8434721E-01
       -1   -1    0    0    0  501  0.00000000000E+00  0.00000000000E+00  0.10865999004E+04  0.10865999004E+04  0.50400001928E-02 0. -1.
        1   -1    0    0  501    0  0.00000000000E+00  0.00000000000E+00 -0.13394253122E+04  0.13394253123E+04  0.50400001928E-02 0.  1.
    10030    2    1    2    0    0  0.00000000000E+00  0.00000000000E+00 -0.25282541182E+03  0.24260252127E+04  0.24128152942E+04 0.  0.
        2    1    3    3  502    0  0.86877890507E+03  0.83500629782E+03 -0.67722699026E+02  0.12068962952E+04  0.25500000920E-02 0. -1.
       -2    1    3    3    0  502 -0.86877890507E+03 -0.83500629782E+03 -0.18510271279E+03  0.12191289175E+04  0.25500000920E-02 0.  1.
</event>
<event>
 5   0  0.1407158E-05  0.2396634E+04  0.7818609E-02  0.8440765E-01
        1   -1    0    0  501    0  0.00000000000E+00  0.00000000000E+00  0.76564535323E+03  0.76564535325E+03  0.50400001928E-02 0. -1.
       -1   -1    0    0    0  501  0.00000000000E+00  0.00000000000E+00 -0.18754943776E+04  0.18754943776E+04  0.50400001928E-02 0.  1.
    10030    2    1    2    0    0  0.00000000000E+00  0.00000000000E+00 -0.11098490244E+04  0.26411397308E+04  0.23966339355E+04 0.  0.
        1    1    3    3  502    0  0.93570371742E+03 -0.50416193267E+03 -0.11647739891E+04  0.15768383389E+04  0.50400001928E-02 0. -1.
       -1    1    3    3    0  502 -0.93570371742E+03  0.50416193267E+03  0.54924964775E+02  0.10643013920E+04  0.50400001928E-02 0.  1.
</event>
<event>
 5   0  0.1506985E-05  0.2400763E+04  0.7818609E-02  0.8439218E-01
        1   -1    0    0  501    0  0.00000000000E+00  0.00000000000E+00  0.71495005673E+03  0.71495005675E+03  0.50400001928E-02 0. -1.
       -1   -1    0    0    0  501  0.00000000000E+00  0.00000000000E+00 -0.20154067353E+04  0.20154067353E+04  0.50400001928E-02 0.  1.
    10030    2    1    2    0    0  0.00000000000E+00  0.00000000000E+00 -0.13004566786E+04  0.27303567920E+04  0.24007625120E+04 0.  0.
        3    1    3    3  502    0  0.51003204883E+03  0.26417898057E+03  0.54851347023E+03  0.79422305547E+03  0.10100000352E+00 0. -1.
       -3    1    3    3    0  502 -0.51003204883E+03 -0.26417898057E+03 -0.18489701488E+04  0.19361337366E+04  0.10100000352E+00 0.  1.
</event>
<event>
 5   0  0.3310037E-05  0.2463346E+04  0.7818609E-02  0.8416161E-01
       -2   -1    0    0    0  501  0.00000000000E+00  0.00000000000E+00  0.92522836825E+03  0.92522836826E+03  0.25500000920E-02 0. -1.
        2   -1    0    0  501    0  0.00000000000E+00  0.00000000000E+00 -0.16396154102E+04  0.16396154102E+04  0.25500000920E-02 0.  1.
    10030    2    1    2    0    0  0.00000000000E+00  0.00000000000E+00 -0.71438704190E+03  0.25648437784E+04  0.24633462530E+04 0.  0.
        2    1    3    3  502    0 -0.18326749527E+03 -0.28744261551E+03 -0.15895173154E+04  0.16256615663E+04  0.25500000920E-02 0.  1.
       -2    1    3    3    0  502  0.18326749527E+03  0.28744261551E+03  0.87513027350E+03  0.93918221216E+03  0.25500000920E-02 0. -1.
</event>
<event>
 5   0  0.1407158E-05  0.2387750E+04  0.7818609E-02  0.8444104E-01
        1   -1    0    0  501    0  0.00000000000E+00  0.00000000000E+00  0.11614939738E+04  0.11614939738E+04  0.50400001928E-02 0. -1.
       -1   -1    0    0    0  501  0.00000000000E+00  0.00000000000E+00 -0.12271592453E+04  0.12271592453E+04  0.50400001928E-02 0.  1.
    10030    2    1    2    0    0  0.00000000000E+00  0.00000000000E+00 -0.65665271422E+02  0.23886532191E+04  0.23877504629E+04 0.  0.
        1    1    3    3  502    0 -0.70668564036E+03 -0.55302093934E+03 -0.82059547866E+03  0.12159826040E+04  0.50400001928E-02 0.  1.
       -1    1    3    3    0  502  0.70668564036E+03  0.55302093934E+03  0.75493020724E+03  0.11726706151E+04  0.50400001928E-02 0. -1.
</event>
<event>
 5   0  0.3320780E-05  0.2400509E+04  0.7818609E-02  0.8439313E-01
       -2   -1    0    0    0  501  0.00000000000E+00  0.00000000000E+00  0.14834627918E+04  0.14834627918E+04  0.25500000920E-02 0. -1.
        2   -1    0    0  501    0  0.00000000000E+00  0.00000000000E+00 -0.97111381325E+03  0.97111381326E+03  0.25500000920E-02 0.  1.
    10030    2    1    2    0    0  0.00000000000E+00  0.00000000000E+00  0.51234897858E+03  0.24545766051E+04  0.24005092865E+04 0.  0.
        5    1    3    3  502    0  0.56423900218E+02  0.81754333265E+03  0.11528687261E+04  0.14144571916E+04  0.46999998093E+01 0. -1.
       -5    1    3    3    0  502 -0.56423900218E+02 -0.81754333265E+03 -0.64051974754E+03  0.10401194135E+04  0.46999998093E+01 0.  1.
</event>
<event>
 5   0  0.1506985E-05  0.2295019E+04  0.7818609E-02  0.8479888E-01
        1   -1    0    0  501    0  0.00000000000E+00  0.00000000000E+00  0.13918141655E+04  0.13918141655E+04  0.50400001928E-02 0. -1.
       -1   -1    0    0    0  501  0.00000000000E+00  0.00000000000E+00 -0.94608726547E+03  0.94608726549E+03  0.50400001928E-02 0.  1.
    10030    2    1    2    0    0  0.00000000000E+00  0.00000000000E+00  0.44572690004E+03  0.23379014310E+04  0.22950186561E+04 0.  0.
        3    1    3    3  502    0 -0.32866006447E+03 -0.23431465959E+03 -0.87138500695E+03  0.96032944254E+03  0.10100000352E+00 0.  1.
       -3    1    3    3    0  502  0.32866006447E+03  0.23431465959E+03  0.13171119070E+04  0.13775719885E+04  0.10100000352E+00 0. -1.
</event>
<event>
 5   0  0.3310037E-05  0.2406219E+04  0.7818609E-02  0.8437179E-01
       -2   -1    0    0    0  501  0.00000000000E+00  0.00000000000E+00  0.88372605998E+03  0.88372605999E+03  0.25500000920E-02 0.  1.
        2   -1    0    0  501    0  0.00000000000E+00  0.00000000000E+00 -0.16379197709E+04  0.16379197709E+04  0.25500000920E-02 0. -1.
    10030    2    1    2    0    0  0.00000000000E+00  0.00000000000E+00 -0.75419371090E+03  0.25216458309E+04  0.24062189308E+04 0.  0.
        2    1    3    3  502    0 -0.85851859016E+03 -0.55531136323E+03 -0.10415856108E+04  0.14595634499E+04  0.25500000920E-02 0. -1.
       -2    1    3    3    0  502  0.85851859016E+03  0.55531136323E+03  0.28739189987E+03  0.10620823809E+04  0.25500000920E-02 0.  1.
</event>
<event>
 5   0  0.1147362E-05  0.2426961E+04  0.7818609E-02  0.8429478E-01
       -3   -1    0    0    0  501  0.00000000000E+00  0.00000000000E+00  0.18343496899E+04  0.18343496927E+04  0.10100000352E+00 0.  1.
        3   -1    0    0  501    0  0.00000000000E+00  0.00000000000E+00 -0.80275572124E+03  0.80275572759E+03  0.10100000352E+00 0. -1.
    10030    2    1    2    0    0  0.00000000000E+00  0.00000000000E+00  0.10315939686E+04  0.26371054202E+04  0.24269608323E+04 0.  0.
        5    1    3    3  502    0  0.88176172458E+03 -0.42991299229E+03 -0.26032148396E+03  0.10149474296E+04  0.46999998093E+01 0. -1.
       -5    1    3    3    0  502 -0.88176172458E+03  0.42991299229E+03  0.12919154526E+04  0.16221579906E+04  0.46999998093E+01 0.  1.
</event>
<event>
 5   0  0.3320780E-05  0.2426742E+04  0.7818609E-02  0.8429559E-01
        2   -1    0    0  501    0  0.00000000000E+00  0.00000000000E+00  0.21304621343E+04  0.21304621343E+04  0.25500000920E-02 0. -1.
       -2   -1    0    0    0  501  0.00000000000E+00  0.00000000000E+00 -0.69105618590E+03  0.69105618591E+03  0.25500000920E-02 0.  1.
    10030    2    1    2    0    0  0.00000000000E+00  0.00000000000E+00  0.14394059484E+04  0.28215183202E+04  0.24267418790E+04 0.  0.
        5    1    3    3  502    0  0.10016978371E+04  0.55570411501E+03  0.11848340550E+04  0.16480471620E+04  0.46999998093E+01 0. -1.
       -5    1    3    3    0  502 -0.10016978371E+04 -0.55570411501E+03  0.25457189342E+03  0.11734711582E+04  0.46999998093E+01 0.  1.
</event>
<event>
 5   0  0.1407158E-05  0.2408231E+04  0.7818609E-02  0.8436428E-01
        1   -1    0    0  501    0  0.00000000000E+00  0.00000000000E+00  0.81865471505E+03  0.81865471506E+03  0.50400001928E-02 0.  1.
       -1   -1    0    0    0  501  0.00000000000E+00  0.00000000000E+00 -0.17710698573E+04  0.17710698574E+04  0.50400001928E-02 0. -1.
    10030    2    1    2    0    0  0.00000000000E+00  0.00000000000E+00 -0.95241514230E+03  0.25897245724E+04  0.24082314585E+04 0.  0.
        1    1    3    3  502    0 -0.22706858069E+03  0.31576726260E+03  0.74924732065E+03  0.84418046175E+03  0.50400001928E-02 0.  1.
       -1    1    3    3    0  502  0.22706858069E+03 -0.31576726260E+03 -0.17016624630E+04  0.17455441107E+04  0.50400001928E-02 0. -1.
</event>
<event>
 5   0  0.1393026E-05  0.2393967E+04  0.7818609E-02  0.8441766E-01
       -1   -1    0    0    0  501  0.00000000000E+00  0.00000000000E+00  0.71514283661E+03  0.71514283663E+03  0.50400001928E-02 0. -1.
        1   -1    0    0  501    0  0.00000000000E+00  0.00000000000E+00 -0.20034731582E+04  0.20034731582E+04  0.50400001928E-02 0.  1.
    10030    2    1    2    0    0  0.00000000000E+00  0.00000000000E+00 -0.12883303216E+04  0.27186159948E+04  0.23939669818E+04 0.  0.
        4    1    3    3  502    0 -0.58690239599E+03 -0.53829613750E+02  0.53895208261E+03  0.79863822222E+03  0.12699999809E+01 0. -1.
       -4    1    3    3    0  502  0.58690239599E+03  0.53829613750E+02 -0.18272824042E+04  0.19199777726E+04  0.12699999809E+01 0.  1.
</event>
<event>
 5   0  0.3347728E-05  0.2337333E+04  0.7818609E-02  0.8463345E-01
        2   -1    0    0  501    0  0.00000000000E+00  0.00000000000E+00  0.16926265411E+04  0.16926265411E+04  0.25500000920E-02 0. -1.
       -2   -1    0    0    0  501  0.00000000000E+00  0.00000000000E+00 -0.80690085784E+03  0.80690085784E+03  0.25500000920E-02 0.  1.
    10030    2    1    2    0    0  0.00000000000E+00  0.00000000000E+00  0.88572568326E+03  0.24995273989E+04  0.23373333592E+04 0.  0.
        3    1    3    3  502    0 -0.37732607771E+03 -0.37084213785E+03 -0.67150545681E+03  0.85487920132E+03  0.10100000352E+00 0.  1.
       -3    1    3    3    0  502  0.37732607771E+03  0.37084213785E+03  0.15572311401E+04  0.16446481976E+04  0.10100000352E+00 0. -1.
</event>
<event>
 5   0  0.1434943E-05  0.2415021E+04  0.7818609E-02  0.8433901E-01
        1   -1    0    0  501    0  0.00000000000E+00  0.00000000000E+00  0.90460619278E+03  0.90460619280E+03  0.50400001928E-02 0.  1.
       -1   -1    0    0    0  501  0.00000000000E+00  0.00000000000E+00 -0.16118407832E+04  0.16118407832E+04  0.50400001928E-02 0. -1.
    10030    2    1    2    0    0  0.00000000000E+00  0.00000000000E+00 -0.70723459038E+03  0.25164469760E+04  0.24150206246E+04 0.  0.
        5    1    3    3  502    0 -0.11514679780E+04  0.32917361800E+03 -0.19278027079E+03  0.12130210624E+04  0.46999998093E+01 0.  1.
       -5    1    3    3    0  502  0.11514679780E+04 -0.32917361800E+03 -0.51445431959E+03  0.13034259135E+04  0.46999998093E+01 0. -1.
</event>
<event>
 5   0  0.3215208E-05  0.2399130E+04  0.7818609E-02  0.8439829E-01
        2   -1    0    0  501    0  0.00000000000E+00  0.00000000000E+00  0.29481535986E+04  0.29481535986E+04  0.25500000920E-02 0. -1.
       -2   -1    0    0    0  501  0.00000000000E+00  0.00000000000E+00 -0.48808745112E+03  0.48808745113E+03  0.25500000920E-02 0.  1.
    10030    2    1    2    0    0  0.00000000000E+00  0.00000000000E+00  0.24600661474E+04  0.34362410497E+04  0.23991304887E+04 0.  0.
        1    1    3    3  502    0 -0.76008257232E+03  0.50238891510E+03  0.11244916296E+03  0.91802230530E+03  0.50400001928E-02 0.  1.
       -1    1    3    3    0  502  0.76008257232E+03 -0.50238891510E+03  0.23476169845E+04  0.25182187444E+04  0.50400001928E-02 0. -1.
</event>
<event>
 5   0  0.1407158E-05  0.2407028E+04  0.7818609E-02  0.8436877E-01
        1   -1    0    0  501    0  0.00000000000E+00  0.00000000000E+00  0.18637447365E+04  0.18637447365E+04  0.50400001928E-02 0. -1.
       -1   -1    0    0    0  501  0.00000000000E+00  0.00000000000E+00 -0.77716964651E+03  0.77716964652E+03  0.50400001928E-02 0.  1.
    10030    2    1    2    0    0  0.00000000000E+00  0.00000000000E+00  0.10865750900E+04  0.26409143830E+04  0.24070279085E+04 0.  0.
        1    1    3    3  502    0  0.73076926269E+02  0.26453900576E+03  0.18289536316E+04  0.18494303202E+04  0.50400001928E-02 0. -1.
       -1    1    3    3    0  502 -0.73076926269E+02 -0.26453900576E+03 -0.74237854158E+03  0.79148406285E+03  0.50400001928E-02 0.  1.
</event>
<event>
 5   0  0.3310037E-05  0.2427834E+04  0.7818609E-02  0.8429156E-01
        2   -1    0    0  501    0  0.00000000000E+00  0.00000000000E+00  0.15952798097E+04  0.15952798097E+04  0.25500000920E-02 0.  1.
       -2   -1    0    0    0  501  0.00000000000E+00  0.00000000000E+00 -0.92372126817E+03  0.92372126818E+03  0.25500000920E-02 0. -1.
    10030    2    1    2    0    0  0.00000000000E+00  0.00000000000E+00  0.67155854152E+03  0.25190010779E+04  0.24278335107E+04 0.  0.
        2    1    3    3  502    0  0.10983754657E+04  0.50513660664E+03  0.22211067484E+03  0.12291968137E+04  0.25500000920E-02 0. -1.
       -2    1    3    3    0  502 -0.10983754657E+04 -0.50513660664E+03  0.44944786669E+03  0.12898042642E+04  0.25500000920E-02 0.  1.
</event>
<event>
 5   0  0.1506985E-05  0.2397113E+04  0.7818609E-02  0.8440585E-01
       -1   -1    0    0    0  501  0.00000000000E+00  0.00000000000E+00  0.71124761294E+03  0.71124761296E+03  0.50400001928E-02 0.  1.
        1   -1    0    0  501    0  0.00000000000E+00  0.00000000000E+00 -0.20197427271E+04  0.20197427271E+04  0.50400001928E-02 0. -1.
    10030    2    1    2    0    0  0.00000000000E+00  0.00000000000E+00 -0.13084951141E+04  0.27309903400E+04  0.23971125909E+04 0.  0.
        3    1    3    3  502    0 -0.12199301826E+03  0.84950515070E+03 -0.16074375507E+04  0.18221955952E+04  0.10100000352E+00 0. -1.
       -3    1    3    3    0  502  0.12199301826E+03 -0.84950515070E+03  0.29894243661E+03  0.90879474480E+03  0.10100000352E+00 0.  1.
</event>
<event>
 5   0  0.3345974E-05  0.2461183E+04  0.7818609E-02  0.8416946E-01
       -2   -1    0    0    0  501  0.00000000000E+00  0.00000000000E+00  0.11754209269E+04  0.11754209269E+04  0.25500000920E-02 0.  1.
        2   -1    0    0  501    0  0.00000000000E+00  0.00000000000E+00 -0.12883515023E+04  0.12883515023E+04  0.25500000920E-02 0. -1.
    10030    2    1    2    0    0  0.00000000000E+00  0.00000000000E+00 -0.11293057535E+03  0.24637724292E+04  0.24611829001E+04 0.  0.
        4    1    3    3  502    0  0.14317429332E+03 -0.74628326357E+03 -0.10254279818E+04  0.12763000221E+04  0.12699999809E+01 0. -1.
       -4    1    3    3    0  502 -0.14317429332E+03  0.74628326357E+03  0.91249740646E+03  0.11874724070E+04  0.12699999809E+01 0.  1.
</event>
<event>
 5   0  0.3215208E-05  0.2311379E+04  0.7818609E-02  0.8473448E-01
       -2   -1    0    0    0  501  0.00000000000E+00  0.00000000000E+00  0.47491480748E+03  0.47491480749E+03  0.25500000920E-02 0.  1.
        2   -1    0    0  501    0  0.00000000000E+00  0.00000000000E+00 -0.28123314804E+04  0.28123314804E+04  0.25500000920E-02 0. -1.
    10030    2    1    2    0    0  0.00000000000E+00  0.00000000000E+00 -0.23374166729E+04  0.32872462879E+04  0.23113786913E+04 0.  0.
        1    1    3    3  502    0 -0.56098633458E+03  0.99571750298E+03 -0.92460763080E+03  0.14700538372E+04  0.50400001928E-02 0. -1.
       -1    1    3    3    0  502  0.56098633458E+03 -0.99571750298E+03 -0.14128090421E+04  0.18171924507E+04  0.50400001928E-02 0.  1.
</event>
<event>
 5   0  0.1506985E-05  0.2403468E+04  0.7818609E-02  0.8438206E-01
       -1   -1    0    0    0  501  0.00000000000E+00  0.00000000000E+00  0.14536230631E+04  0.14536230631E+04  0.50400001928E-02 0.  1.
        1   -1    0    0  501    0  0.00000000000E+00  0.00000000000E+00 -0.99349352548E+03  0.99349352549E+03  0.50400001928E-02 0. -1.
    10030    2    1    2    0    0  0.00000000000E+00  0.00000000000E+00  0.46012953758E+03  0.24471165886E+04  0.24034684118E+04 0.  0.
        3    1    3    3  502    0  0.47656857615E+03 -0.54626900797E+03 -0.74579713444E+03  0.10400676963E+04  0.10100000352E+00 0. -1.
       -3    1    3    3    0  502 -0.47656857615E+03  0.54626900797E+03  0.12059266720E+04  0.14070488923E+04  0.10100000352E+00 0.  1.
</event>
<event>
 5   0  0.1434943E-05  0.2412224E+04  0.7818609E-02  0.8434941E-01
        1   -1    0    0  501    0  0.00000000000E+00  0.00000000000E+00  0.14604988324E+04  0.14604988324E+04  0.50400001928E-02 0.  1.
       -1   -1    0    0    0  501  0.00000000000E+00  0.00000000000E+00 -0.99603342507E+03  0.99603342508E+03  0.50400001928E-02 0. -1.
    10030    2    1    2    0    0  0.00000000000E+00  0.00000000000E+00  0.46446540735E+03  0.24565322575E+04  0.24122235837E+04 0.  0.
        5    1    3    3  502    0 -0.16102601085E+03  0.80168345869E+03  0.11351171229E+04  0.13989777399E+04  0.46999998093E+01 0.  1.
       -5    1    3    3    0  502  0.16102601085E+03 -0.80168345869E+03 -0.67065171554E+03  0.10575545176E+04  0.46999998093E+01 0. -1.
</event>
<event>
 5   0  0.1506985E-05  0.2423655E+04  0.7818609E-02  0.8430700E-01
       -1   -1    0    0    0  501  0.00000000000E+00  0.00000000000E+00  0.64888392142E+03  0.64888392144E+03  0.50400001928E-02 0. -1.
        1   -1    0    0  501    0  0.00000000000E+00  0.00000000000E+00 -0.22631562570E+04  0.22631562571E+04  0.50400001928E-02 0.  1.
    10030    2    1    2    0    0  0.00000000000E+00  0.00000000000E+00 -0.16142723356E+04  0.29120401785E+04  0.24236548491E+04 0.  0.
        3    1    3    3  502    0 -0.64664896545E+03  0.10247125075E+04 -0.82913029421E+03  0.14682124038E+04  0.10100000352E+00 0.  1.
       -3    1    3    3    0  502  0.64664896545E+03 -0.10247125075E+04 -0.78514204141E+03  0.14438277747E+04  0.10100000352E+00 0. -1.
</event>
<event>
 5   0  0.1434943E-05  0.2350115E+04  0.7818609E-02  0.8458419E-01
        1   -1    0    0  501    0  0.00000000000E+00  0.00000000000E+00  0.69655181444E+03  0.69655181445E+03  0.50400001928E-02 0. -1.
       -1   -1    0    0    0  501  0.00000000000E+00  0.00000000000E+00 -0.19822795095E+04  0.19822795095E+04  0.50400001928E-02 0.  1.
    10030    2    1    2    0    0  0.00000000000E+00  0.00000000000E+00 -0.12857276951E+04  0.26788313240E+04  0.23501152220E+04 0.  0.
        5    1    3    3  502    0  0.62072257298E+03  0.97461814574E+03 -0.39955715256E+03  0.12226385610E+04  0.46999998093E+01 0.  1.
       -5    1    3    3    0  502 -0.62072257298E+03 -0.97461814574E+03 -0.88617054254E+03  0.14561927630E+04  0.46999998093E+01 0. -1.
</event>
<event>
 5   0  0.3310037E-05  0.2432229E+04  0.7818609E-02  0.8427535E-01
       -2   -1    0    0    0  501  0.00000000000E+00  0.00000000000E+00  0.13780509528E+04  0.13780509528E+04  0.25500000920E-02 0. -1.
        2   -1    0    0  501    0  0.00000000000E+00  0.00000000000E+00 -0.10732076042E+04  0.10732076042E+04  0.25500000920E-02 0.  1.
    10030    2    1    2    0    0  0.00000000000E+00  0.00000000000E+00  0.30484334858E+03  0.24512585570E+04  0.24322292338E+04 0.  0.
        2    1    3    3  502    0  0.47981131393E+03  0.10847718731E+04 -0.11797925543E+03  0.11920016856E+04  0.25500000920E-02 0.  1.
       -2    1    3    3    0  502 -0.47981131393E+03 -0.10847718731E+04  0.42282260401E+03  0.12592568714E+04  0.25500000920E-02 0. -1.
</event>
<event>
 5   0  0.1506985E-05  0.2545005E+04  0.7818609E-02  0.8387125E-01
       -1   -1    0    0    0  501  0.00000000000E+00  0.00000000000E+00  0.12187608166E+04  0.12187608166E+04  0.50400001928E-02 0.  1.
        1   -1    0    0  501    0  0.00000000000E+00  0.00000000000E+00 -0.13286142456E+04  0.13286142456E+04  0.50400001928E-02 0. -1.
    10030    2    1    2    0    0  0.00000000000E+00  0.00000000000E+00 -0.10985342903E+03  0.25473750622E+04  0.25450052911E+04 0.  0.
        3    1    3    3  502    0 -0.70462559786E+03  0.10401725362E+04  0.14726839914E+03  0.12649680351E+04  0.10100000352E+00 0.  1.
       -3    1    3    3    0  502  0.70462559786E+03 -0.10401725362E+04 -0.25712182817E+03  0.12824070270E+04  0.10100000352E+00 0. -1.
</event>
<event>
 5   0  0.3215208E-05  0.2432223E+04  0.7818609E-02  0.8427537E-01
       -2   -1    0    0    0  501  0.00000000000E+00  0.00000000000E+00  0.97418557560E+03  0.97418557560E+03  0.25500000920E-02 0. -1.
        2   -1    0    0  501    0  0.00000000000E+00  0.00000000000E+00 -0.15181168716E+04  0.15181168716E+04  0.25500000920E-02 0.  1.
    10030    2    1    2    0    0  0.00000000000E+00  0.00000000000E+00 -0.54393129597E+03  0.24923024472E+04  0.24322233108E+04 0.  0.
        1    1    3    3  502    0 -0.36800192677E+02 -0.45995522980E+03  0.88100071100E+03  0.99452265958E+03  0.50400001928E-02 0. -1.
       -1    1    3    3    0  502  0.36800192677E+02  0.45995522980E+03 -0.14249320070E+04  0.14977797876E+04  0.50400001928E-02 0.  1.
</event>
<event>
 5   0  0.3345974E-05  0.2412732E+04  0.7818609E-02  0.8434752E-01
       -2   -1    0    0    0  501  0.00000000000E+00  0.00000000000E+00  0.52893162742E+03  0.52893162742E+03  0.25500000920E-02 0. -1.
        2   -1    0    0  501    0  0.00000000000E+00  0.00000000000E+00 -0.27514321914E+04  0.27514321914E+04  0.25500000920E-02 0.  1.
    10030    2    1    2    0    0  0.00000000000E+00  0.00000000000E+00 -0.22225005640E+04  0.32803638189E+04  0.24127324814E+04 0.  0.
        4    1    3    3  502    0  0.19539487519E+03  0.54749870618E+03 -0.25484398216E+04  0.26139015146E+04  0.12699999809E+01 0.  1.
       -4    1    3    3    0  502 -0.19539487519E+03 -0.54749870618E+03  0.32593925759E+03  0.66646230430E+03  0.12699999809E+01 0. -1.
</event>
<event>
 5   0  0.1506985E-05  0.2406818E+04  0.7818609E-02  0.8436955E-01
       -1   -1    0    0    0  501  0.00000000000E+00  0.00000000000E+00  0.10780850891E+04  0.10780850891E+04  0.50400001928E-02 0. -1.
        1   -1    0    0  501    0  0.00000000000E+00  0.00000000000E+00 -0.13433019043E+04  0.13433019043E+04  0.50400001928E-02 0.  1.
    10030    2    1    2    0    0  0.00000000000E+00  0.00000000000E+00 -0.26521681522E+03  0.24213869934E+04  0.24068184420E+04 0.  0.
        3    1    3    3  502    0  0.87785656224E+03  0.76254941539E+03  0.17923555853E+03  0.11765369312E+04  0.10100000352E+00 0.  1.
       -3    1    3    3    0  502 -0.87785656224E+03 -0.76254941539E+03 -0.44445237375E+03  0.12448500623E+04  0.10100000352E+00 0. -1.
</event>
<event>
 5   0  0.3347728E-05  0.2259963E+04  0.7818609E-02  0.8493876E-01
       -2   -1    0    0    0  501  0.00000000000E+00  0.00000000000E+00  0.47651062062E+03  0.47651062063E+03  0.25500000920E-02 0. -1.
        2   -1    0    0  501    0  0.00000000000E+00  0.00000000000E+00 -0.26796015103E+04  0.26796015103E+04  0.25500000920E-02 0.  1.
    10030    2    1    2    0    0  0.00000000000E+00  0.00000000000E+00 -0.22030908897E+04  0.31561121309E+04  0.22599633437E+04 0.  0.
        3    1    3    3  502    0 -0.45408206397E+03  0.96769268383E+03 -0.58987509663E+03  0.12208899586E+04  0.10100000352E+00 0. -1.
       -3    1    3    3    0  502  0.45408206397E+03 -0.96769268383E+03 -0.16132157930E+04  0.19352221723E+04  0.10100000352E+00 0.  1.
</event>
<event>
 5   0  0.3215208E-05  0.2330350E+04  0.7818609E-02  0.8466050E-01
        2   -1    0    0  501    0  0.00000000000E+00  0.00000000000E+00  0.15082275023E+04  0.15082275023E+04  0.25500000920E-02 0. -1.
       -2   -1    0    0    0  501  0.00000000000E+00  0.00000000000E+00 -0.90015129243E+03  0.90015129244E+03  0.25500000920E-02 0.  1.
    10030    2    1    2    0    0  0.00000000000E+00  0.00000000000E+00  0.60807620985E+03  0.24083787947E+04  0.23303501329E+04 0.  0.
        1    1    3    3  502    0  0.33123817941E+03  0.31143934114E+03  0.14127689658E+04  0.14841257849E+04  0.50400001928E-02 0. -1.
       -1    1    3    3    0  502 -0.33123817941E+03 -0.31143934114E+03 -0.80469275593E+03  0.92425300982E+03  0.50400001928E-02 0.  1.
</event>
<event>
 5   0  0.1401596E-05  0.2415085E+04  0.7818609E-02  0.8433877E-01
       -1   -1    0    0    0  501  0.00000000000E+00  0.00000000000E+00  0.74219480609E+03  0.74219480611E+03  0.50400001928E-02 0. -1.
        1   -1    0    0  501    0  0.00000000000E+00  0.00000000000E+00 -0.19646581313E+04  0.19646581313E+04  0.50400001928E-02 0.  1.
    10030    2    1    2    0    0  0.00000000000E+00  0.00000000000E+00 -0.12224633252E+04  0.27068529374E+04  0.24150851421E+04 0.  0.
        2    1    3    3  502    0  0.43453483798E+03 -0.92372062710E+03  0.11173783937E+03  0.10269204775E+04  0.25500000920E-02 0. -1.
       -2    1    3    3    0  502 -0.43453483798E+03  0.92372062710E+03 -0.13342011646E+04  0.16799324599E+04  0.25500000920E-02 0.  1.
</event>
<event>
 5   0  0.1434943E-05  0.2397289E+04  0.7818609E-02  0.8440519E-01
        1   -1    0    0  501    0  0.00000000000E+00  0.00000000000E+00  0.12283151648E+04  0.12283151648E+04  0.50400001928E-02 0. -1.
       -1   -1    0    0    0  501  0.00000000000E+00  0.00000000000E+00 -0.11696902499E+04  0.11696902499E+04  0.50400001928E-02 0.  1.
    10030    2    1    2    0    0  0.00000000000E+00  0.00000000000E+00  0.58624914865E+02  0.23980054147E+04  0.23972886952E+04 0.  0.
        5    1    3    3  502    0  0.11272511970E+04 -0.13237460819E+03 -0.35616996274E+03  0.11895786777E+04  0.46999998093E+01 0. -1.
       -5    1    3    3    0  502 -0.11272511970E+04  0.13237460819E+03  0.41479487760E+03  0.12084267370E+04  0.46999998093E+01 0.  1.
</event>
<event>
 5   0  0.1407158E-05  0.2362889E+04  0.7818609E-02  0.8453529E-01
        1   -1    0    0  501    0  0.00000000000E+00  0.00000000000E+00  0.29408797050E+04  0.29408797050E+04  0.50400001928E-02 0.  1.
       -1   -1    0    0    0  501  0.00000000000E+00  0.00000000000E+00 -0.47462373142E+03  0.47462373145E+03  0.50400001928E-02 0. -1.
    10030    2    1    2    0    0  0.00000000000E+00  0.00000000000E+00  0.24662559736E+04  0.34155034364E+04  0.23628891631E+04 0.  0.
        1    1    3    3  502    0  0.42151078246E+03 -0.54714028150E+03 -0.15240396362E+03  0.70729116743E+03  0.50400001928E-02 0. -1.
       -1    1    3    3    0  502 -0.42151078246E+03  0.54714028150E+03  0.26186599372E+04  0.27082122690E+04  0.50400001928E-02 0.  1.
</event>
<event>
 5   0  0.3320780E-05  0.2341693E+04  0.7818609E-02  0.8461661E-01
       -2   -1    0    0    0  501  0.00000000000E+00  0.00000000000E+00  0.63122742721E+03  0.63122742722E+03  0.25500000920E-02 0. -1.
        2   -1    0    0  501    0  0.00000000000E+00  0.00000000000E+00 -0.21717714874E+04  0.21717714874E+04  0.25500000920E-02 0.  1.
    10030    2    1    2    0    0  0.00000000000E+00  0.00000000000E+00 -0.15405440602E+04  0.28029989146E+04  0.23416931725E+04 0.  0.
        5    1    3    3  502    0 -0.25634637919E+03 -0.11249453660E+04 -0.10086039429E+04  0.15324880249E+04  0.46999998093E+01 0.  1.
       -5    1    3    3    0  502  0.25634637919E+03  0.11249453660E+04 -0.53194011724E+03  0.12705108897E+04  0.46999998093E+01 0. -1.
</event>
<event>
 5   0  0.3347728E-05  0.2392614E+04  0.7818609E-02  0.8442274E-01
        2   -1    0    0  501    0  0.00000000000E+00  0.00000000000E+00  0.22721764928E+04  0.22721764928E+04  0.25500000920E-02 0. -1.
       -2   -1    0    0    0  501  0.00000000000E+00  0.00000000000E+00 -0.62985870446E+03  0.62985870447E+03  0.25500000920E-02 0.  1.
    10030    2    1    2    0    0  0.00000000000E+00  0.00000000000E+00  0.16423177883E+04  0.29020351972E+04  0.23926137524E+04 0.  0.
        3    1    3    3  502    0 -0.59073844992E+03  0.77018541948E+03  0.16693256378E+04  0.19310115463E+04  0.10100000352E+00 0. -1.
       -3    1    3    3    0  502  0.59073844992E+03 -0.77018541948E+03 -0.27007849510E+02  0.97102365096E+03  0.10100000352E+00 0.  1.
</event>
<event>
 5   0  0.3345974E-05  0.2402862E+04  0.7818609E-02  0.8438433E-01
       -2   -1    0    0    0  501  0.00000000000E+00  0.00000000000E+00  0.10268964116E+04  0.10268964116E+04  0.25500000920E-02 0.  1.
        2   -1    0    0  501    0  0.00000000000E+00  0.00000000000E+00 -0.14056303208E+04  0.14056303208E+04  0.25500000920E-02 0. -1.
    10030    2    1    2    0    0  0.00000000000E+00  0.00000000000E+00 -0.37873390915E+03  0.24325267324E+04  0.24028622370E+04 0.  0.
        4    1    3    3  502    0  0.11483000724E+04 -0.33899504918E+03 -0.88515698027E+02  0.12005612610E+04  0.12699999809E+01 0. -1.
       -4    1    3    3    0  502 -0.11483000724E+04  0.33899504918E+03 -0.29021821112E+03  0.12319654714E+04  0.12699999809E+01 0.  1.
</event>
<event>
 5   0  0.3347728E-05  0.2398952E+04  0.7818609E-02  0.8439896E-01
       -2   -1    0    0    0  501  0.00000000000E+00  0.00000000000E+00  0.59369127932E+03  0.59369127933E+03  0.25500000920E-02 0. -1.
        2   -1    0    0  501    0  0.00000000000E+00  0.00000000000E+00 -0.24233856684E+04  0.24233856684E+04  0.25500000920E-02 0.  1.
    10030    2    1    2    0    0  0.00000000000E+00  0.00000000000E+00 -0.18296943890E+04  0.30170769477E+04  0.23989522194E+04 0.  0.
        3    1    3    3  502    0  0.11172319123E+04  0.95132601861E+02 -0.14506263804E+04  0.18334596433E+04  0.10100000352E+00 0.  1.
       -3    1    3    3    0  502 -0.11172319123E+04 -0.95132601861E+02 -0.37906800862E+03  0.11836173044E+04  0.10100000352E+00 0. -1.
</event>
<event>
 5   0  0.1434943E-05  0.2355304E+04  0.7818609E-02  0.8456429E-01
        1   -1    0    0  501    0  0.00000000000E+00  0.00000000000E+00  0.14739905541E+04  0.14739905541E+04  0.50400001928E-02 0.  1.
       -1   -1    0    0    0  501  0.00000000000E+00  0.00000000000E+00 -0.94089112693E+03  0.94089112694E+03  0.50400001928E-02 0. -1.
    10030    2    1    2    0    0  0.00000000000E+00  0.00000000000E+00  0.53309942719E+03  0.24148816811E+04  0.23553043401E+04 0.  0.
        5    1    3    3  502    0 -0.25568121029E+03  0.10114688054E+04  0.82662783889E+03  0.13310814024E+04  0.46999998093E+01 0.  1.
       -5    1    3    3    0  502  0.25568121029E+03 -0.10114688054E+04 -0.29352841170E+03  0.10838002787E+04  0.46999998093E+01 0. -1.
</event>
<event>
 5   0  0.1393026E-05  0.2362006E+04  0.7818609E-02  0.8453867E-01
       -1   -1    0    0    0  501  0.00000000000E+00  0.00000000000E+00  0.12157461069E+04  0.12157461069E+04  0.50400001928E-02 0.  1.
        1   -1    0    0  501    0  0.00000000000E+00  0.00000000000E+00 -0.11472523043E+04  0.11472523043E+04  0.50400001928E-02 0. -1.
    10030    2    1    2    0    0  0.00000000000E+00  0.00000000000E+00  0.68493802646E+02  0.23629984112E+04  0.23620055230E+04 0.  0.
        4    1    3    3  502    0 -0.28744938294E+03  0.43116606467E+01  0.11802065534E+04  0.12147159585E+04  0.12699999809E+01 0.  1.
       -4    1    3    3    0  502  0.28744938294E+03 -0.43116606467E+01 -0.11117127508E+04  0.11482824528E+04  0.12699999809E+01 0. -1.
</event>
<event>
 5   0  0.1434943E-05  0.2384722E+04  0.7818609E-02  0.8445246E-01
       -1   -1    0    0    0  501  0.00000000000E+00  0.00000000000E+00  0.99232036464E+03  0.99232036465E+03  0.50400001928E-02 0. -1.
        1   -1    0    0  501    0  0.00000000000E+00  0.00000000000E+00 -0.14327270560E+04  0.14327270560E+04  0.50400001928E-02 0.  1.
    10030    2    1    2    0    0  0.00000000000E+00  0.00000000000E+00 -0.44040669139E+03  0.24250474207E+04  0.23847215642E+04 0.  0.
        5    1    3    3  502    0 -0.79415344741E+03  0.24942965984E+03  0.64793494320E+03  0.10548633247E+04  0.46999998093E+01 0. -1.
       -5    1    3    3    0  502  0.79415344741E+03 -0.24942965984E+03 -0.10883416346E+04  0.13701840960E+04  0.46999998093E+01 0.  1.
</event>
<event>
 5   0  0.1393026E-05  0.2386857E+04  0.7818609E-02  0.8444441E-01
       -1   -1    0    0    0  501  0.00000000000E+00  0.00000000000E+00  0.14906250467E+04  0.14906250467E+04  0.50400001928E-02 0. -1.
        1   -1    0    0  501    0  0.00000000000E+00  0.00000000000E+00 -0.95548584691E+03  0.95548584692E+03  0.50400001928E-02 0.  1.
    10030    2    1    2    0    0  0.00000000000E+00  0.00000000000E+00  0.53513919978E+03  0.24461108936E+04  0.23868566234E+04 0.  0.
        4    1    3    3  502    0  0.11596821346E+04  0.28178787537E+03  0.26596146634E+03  0.12227036331E+04  0.12699999809E+01 0.  1.
       -4    1    3    3    0  502 -0.11596821346E+04 -0.28178787537E+03  0.26917773344E+03  0.12234072605E+04  0.12699999809E+01 0. -1.
</event>
<event>
 5   0  0.3347728E-05  0.2390398E+04  0.7818609E-02  0.8443107E-01
        2   -1    0    0  501    0  0.00000000000E+00  0.00000000000E+00  0.29421319671E+04  0.29421319671E+04  0.25500000920E-02 0.  1.
       -2   -1    0    0    0  501  0.00000000000E+00  0.00000000000E+00 -0.48553243737E+03  0.48553243738E+03  0.25500000920E-02 0. -1.
    10030    2    1    2    0    0  0.00000000000E+00  0.00000000000E+00  0.24565995297E+04  0.34276644045E+04  0.23903978791E+04 0.  0.
        3    1    3    3  502    0 -0.49390733431E+03 -0.65688981874E+03  0.24726439620E+04  0.26056509479E+04  0.10100000352E+00 0. -1.
       -3    1    3    3    0  502  0.49390733431E+03  0.65688981874E+03 -0.16044432318E+02  0.82201345661E+03  0.10100000352E+00 0.  1.
</event>
<event>
 5   0  0.1506985E-05  0.2375102E+04  0.7818609E-02  0.8448884E-01
        1   -1    0    0  501    0  0.00000000000E+00  0.00000000000E+00  0.14855965097E+04  0.14855965097E+04  0.50400001928E-02 0. -1.
       -1   -1    0    0    0  501  0.00000000000E+00  0.00000000000E+00 -0.94930073875E+03  0.94930073876E+03  0.50400001928E-02 0.  1.
    10030    2    1    2    0    0  0.00000000000E+00  0.00000000000E+00  0.53629577091E+03  0.24348972484E+04  0.23751024097E+04 0.  0.
        3    1    3    3  502    0  0.27805720735E+02  0.71243725492E+03  0.12417614273E+04  0.14318908662E+04  0.10100000352E+00 0. -1.
       -3    1    3    3    0  502 -0.27805720735E+02 -0.71243725492E+03 -0.70546565634E+03  0.10030063822E+04  0.10100000352E+00 0.  1.
</event>
<event>
 5   0  0.3320780E-05  0.2428397E+04  0.7818609E-02  0.8428948E-01
        2   -1    0    0  501    0  0.00000000000E+00  0.00000000000E+00  0.11733455125E+04  0.11733455125E+04  0.25500000920E-02 0.  1.
       -2   -1    0    0    0  501  0.00000000000E+00  0.00000000000E+00 -0.12564737354E+04  0.12564737354E+04  0.25500000920E-02 0. -1.
    10030    2    1    2    0    0  0.00000000000E+00  0.00000000000E+00 -0.83128222860E+02  0.24298192479E+04  0.24283968531E+04 0.  0.
        5    1    3    3  502    0  0.10050826301E+04 -0.63063127160E+03  0.21620828194E+03  0.12060907947E+04  0.46999998093E+01 0.  1.
       -5    1    3    3    0  502 -0.10050826301E+04  0.63063127160E+03 -0.29933650480E+03  0.12237284532E+04  0.46999998093E+01 0. -1.
</event>
<event>
 5   0  0.3347728E-05  0.2449516E+04  0.7818609E-02  0.8421195E-01
        2   -1    0    0  501    0  0.00000000000E+00  0.00000000000E+00  0.13337825637E+04  0.13337825637E+04  0.25500000920E-02 0.  1.
       -2   -1    0    0    0  501  0.00000000000E+00  0.00000000000E+00 -0.11246452958E+04  0.11246452958E+04  0.25500000920E-02 0. -1.
    10030    2    1    2    0    0  0.00000000000E+00  0.00000000000E+00  0.20913726787E+03  0.24584278596E+04  0.24495161040E+04 0.  0.
        3    1    3    3  502    0 -0.12170041393E+04  0.13588776136E+03  0.82863186685E+02  0.12273674579E+04  0.10100000352E+00 0. -1.
       -3    1    3    3    0  502  0.12170041393E+04 -0.13588776136E+03  0.12627408119E+03  0.12310604017E+04  0.10100000352E+00 0.  1.
</event>
<event>
 5   0  0.1506985E-05  0.2410120E+04  0.7818609E-02  0.8435725E-01
        1   -1    0    0  501    0  0.00000000000E+00  0.00000000000E+00  0.14961623340E+04  0.14961623341E+04  0.50400001928E-02 0.  1.
       -1   -1    0    0    0  501  0.00000000000E+00  0.00000000000E+00 -0.97059607712E+03  0.97059607714E+03  0.50400001928E-02 0. -1.
    10030    2    1    2    0    0  0.00000000000E+00  0.00000000000E+00  0.52556625692E+03  0.24667584112E+04  0.24101197416E+04 0.  0.
        3    1    3    3  502    0  0.71852347827E+03 -0.96732033132E+03  0.24887444858E+03  0.12304158295E+04  0.10100000352E+00 0.  1.
       -3    1    3    3    0  502 -0.71852347827E+03  0.96732033132E+03  0.27669180835E+03  0.12363425817E+04  0.10100000352E+00 0. -1.
</event>
<event>
 5   0  0.3345974E-05  0.2400607E+04  0.7818609E-02  0.8439276E-01
       -2   -1    0    0    0  501  0.00000000000E+00  0.00000000000E+00  0.10220299649E+04  0.10220299649E+04  0.25500000920E-02 0.  1.
        2   -1    0    0  501    0  0.00000000000E+00  0.00000000000E+00 -0.14096731734E+04  0.14096731734E+04  0.25500000920E-02 0. -1.
    10030    2    1    2    0    0  0.00000000000E+00  0.00000000000E+00 -0.38764320847E+03  0.24317031384E+04  0.24006067766E+04 0.  0.
        4    1    3    3  502    0  0.36289901644E+03 -0.95740058572E+03 -0.82836648682E+03  0.13170057809E+04  0.12699999809E+01 0. -1.
       -4    1    3    3    0  502 -0.36289901644E+03  0.95740058572E+03  0.44072327834E+03  0.11146973574E+04  0.12699999809E+01 0.  1.
</event>
<event>
 5   0  0.3320780E-05  0.2346850E+04  0.7818609E-02  0.8459674E-01
        2   -1    0    0  501    0  0.00000000000E+00  0.00000000000E+00  0.22731000416E+04  0.22731000416E+04  0.25500000920E-02 0. -1.
       -2   -1    0    0    0  501  0.00000000000E+00  0.00000000000E+00 -0.60574828984E+03  0.60574828984E+03  0.25500000920E-02 0.  1.
    10030    2    1    2    0    0  0.00000000000E+00  0.00000000000E+00  0.16673517518E+04  0.28788483315E+04  0.23468501979E+04 0.  0.
        5    1    3    3  502    0 -0.49793208809E+02  0.46071635647E+03 -0.48873799510E+03  0.67351751470E+03  0.46999998093E+01 0.  1.
       -5    1    3    3    0  502  0.49793208809E+02 -0.46071635647E+03  0.21560897469E+04  0.22053308168E+04  0.46999998093E+01 0. -1.
</event>
<event>
 5   0  0.1401596E-05  0.2402258E+04  0.7818609E-02  0.8438659E-01
       -1   -1    0    0    0  501  0.00000000000E+00  0.00000000000E+00  0.75229851910E+03  0.75229851912E+03  0.50400001928E-02 0. -1.
        1   -1    0    0  501    0  0.00000000000E+00  0.00000000000E+00 -0.19177369223E+04  0.19177369223E+04  0.50400001928E-02 0.  1.
    10030    2    1    2    0    0  0.00000000000E+00  0.00000000000E+00 -0.11654384032E+04  0.26700354415E+04  0.24022578103E+04 0.  0.
        2    1    3    3  502    0 -0.11697956561E+04 -0.27032773364E+03 -0.62140864445E+03  0.13519051979E+04  0.25500000920E-02 0.  1.
       -2    1    3    3    0  502  0.11697956561E+04  0.27032773364E+03 -0.54402975879E+03  0.13181302436E+04  0.25500000920E-02 0. -1.
</event>
<event>
 5   0  0.1393026E-05  0.2396357E+04  0.7818609E-02  0.8440869E-01
       -1   -1    0    0    0  501  0.00000000000E+00  0.00000000000E+00  0.99979091973E+03  0.99979091974E+03  0.50400001928E-02 0. -1.
        1   -1    0    0  501    0  0.00000000000E+00  0.00000000000E+00 -0.14359313607E+04  0.14359313607E+04  0.50400001928E-02 0.  1.
    10030    2    1    2    0    0  0.00000000000E+00  0.00000000000E+00 -0.43614044099E+03  0.24357222805E+04  0.23963565142E+04 0.  0.
        4    1    3    3  502    0  0.37046571673E+03  0.15681183165E+03 -0.13652356791E+04  0.14232725917E+04  0.12699999809E+01 0.  1.
       -4    1    3    3    0  502 -0.37046571673E+03 -0.15681183165E+03  0.92909523815E+03  0.10124496888E+04  0.12699999809E+01 0. -1.
</event>
<event>
 5   0  0.1506985E-05  0.2405061E+04  0.7818609E-02  0.8437611E-01
        1   -1    0    0  501    0  0.00000000000E+00  0.00000000000E+00  0.66360891768E+03  0.66360891770E+03  0.50400001928E-02 0.  1.
       -1   -1    0    0    0  501  0.00000000000E+00  0.00000000000E+00 -0.21791142329E+04  0.21791142329E+04  0.50400001928E-02 0. -1.
    10030    2    1    2    0    0  0.00000000000E+00  0.00000000000E+00 -0.15155053152E+04  0.28427231506E+04  0.24050610285E+04 0.  0.
        3    1    3    3  502    0  0.11919659665E+04 -0.12696573574E+03 -0.87097865416E+03  0.14817243298E+04  0.10100000352E+00 0. -1.
       -3    1    3    3    0  502 -0.11919659665E+04  0.12696573574E+03 -0.64452666108E+03  0.13609988208E+04  0.10100000352E+00 0.  1.
</event>
<event>
 5   0  0.1434943E-05  0.2410874E+04  0.7818609E-02  0.8435444E-01
        1   -1    0    0  501    0  0.00000000000E+00  0.00000000000E+00  0.78565179219E+03  0.78565179221E+03  0.50400001928E-02 0. -1.
       -1   -1    0    0    0  501  0.00000000000E+00  0.00000000000E+00 -0.18495203078E+04  0.18495203078E+04  0.50400001928E-02 0.  1.
    10030    2    1    2    0    0  0.00000000000E+00  0.00000000000E+00 -0.10638685156E+04  0.26351721000E+04  0.24108744841E+04 0.  0.
        5    1    3    3  502    0 -0.93785079956E+03 -0.21060803358E+03  0.26315968299E+03  0.99659167907E+03  0.46999998093E+01 0. -1.
       -5    1    3    3    0  502  0.93785079956E+03  0.21060803358E+03 -0.13270281986E+04  0.16385804210E+04  0.46999998093E+01 0.  1.
</event>
<event>
 5   0  0.3215208E-05  0.2388197E+04  0.7818609E-02  0.8443936E-01
       -2   -1    0    0    0  501  0.00000000000E+00  0.00000000000E+00  0.79958683588E+03  0.79958683589E+03  0.25500000920E-02 0.  1.
        2   -1    0    0  501    0  0.00000000000E+00  0.00000000000E+00 -0.17832606309E+04  0.17832606309E+04  0.25500000920E-02 0. -1.
    10030    2    1    2    0    0  0.00000000000E+00  0.00000000000E+00 -0.98367379505E+03  0.25828474668E+04  0.23881974168E+04 0.  0.
        1    1    3    3  502    0  0.80851262885E+03 -0.75346318203E+03 -0.27953433701E+01  0.11051729510E+04  0.50400001928E-02 0.  1.
       -1    1    3    3    0  502 -0.80851262885E+03  0.75346318203E+03 -0.98087845168E+03  0.14776745158E+04  0.50400001928E-02 0. -1.
</event>
<event>
 5   0  0.1407158E-05  0.2396092E+04  0.7818609E-02  0.8440968E-01
       -1   -1    0    0    0  501  0.00000000000E+00  0.00000000000E+00  0.10904349617E+04  0.10904349617E+04  0.50400001928E-02 0. -1.
        1   -1    0    0  501    0  0.00000000000E+00  0.00000000000E+00 -0.13162771302E+04  0.13162771302E+04  0.50400001928E-02 0.  1.
    10030    2    1    2    0    0  0.00000000000E+00  0.00000000000E+00 -0.22584216852E+03  0.24067120919E+04  0.23960923205E+04 0.  0.
        1    1    3    3  502    0  0.91752476571E+03 -0.54973917161E+03 -0.65498858845E+03  0.12542228285E+04  0.50400001928E-02 0.  1.
       -1    1    3    3    0  502 -0.91752476571E+03  0.54973917161E+03  0.42914641993E+03  0.11524892634E+04  0.50400001928E-02 0. -1.
</event>
<event>
 5   0  0.3215208E-05  0.2389763E+04  0.7818609E-02  0.8443346E-01
        2   -1    0    0  501    0  0.00000000000E+00  0.00000000000E+00  0.13168614799E+04  0.13168614799E+04  0.25500000920E-02 0. -1.
       -2   -1    0    0    0  501  0.00000000000E+00  0.00000000000E+00 -0.10842001288E+04  0.10842001288E+04  0.25500000920E-02 0.  1.
    10030    2    1    2    0    0  0.00000000000E+00  0.00000000000E+00  0.23266135105E+03  0.24010616087E+04  0.23897626544E+04 0.  0.
        1    1    3    3  502    0 -0.10691582874E+04 -0.21883176174E+03 -0.37254423454E+03  0.11531591348E+04  0.50400001928E-02 0.  1.
       -1    1    3    3    0  502  0.10691582874E+04  0.21883176174E+03  0.60520558559E+03  0.12479024739E+04  0.50400001928E-02 0. -1.
</event>
<event>
 5   0  0.1506985E-05  0.2353921E+04  0.7818609E-02  0.8456959E-01
        1   -1    0    0  501    0  0.00000000000E+00  0.00000000000E+00  0.23029502952E+04  0.23029502952E+04  0.50400001928E-02 0.  1.
       -1   -1    0    0    0  501  0.00000000000E+00  0.00000000000E+00 -0.60150489353E+03  0.60150489355E+03  0.50400001928E-02 0. -1.
    10030    2    1    2    0    0  0.00000000000E+00  0.00000000000E+00  0.17014454017E+04  0.29044551888E+04  0.23539208756E+04 0.  0.
        3    1    3    3  502    0  0.74179649126E+03 -0.21263134072E+03  0.19472535776E+04  0.20945812535E+04  0.10100000352E+00 0.  1.
       -3    1    3    3    0  502 -0.74179649126E+03  0.21263134072E+03 -0.24580817596E+03  0.80987393530E+03  0.10100000352E+00 0. -1.
</event>
<event>
 5   0  0.1401596E-05  0.2396434E+04  0.7818609E-02  0.8440840E-01
        1   -1    0    0  501    0  0.00000000000E+00  0.00000000000E+00  0.29819432351E+04  0.29819432351E+04  0.50400001928E-02 0. -1.
       -1   -1    0    0    0  501  0.00000000000E+00  0.00000000000E+00 -0.48147242744E+03  0.48147242746E+03  0.50400001928E-02 0.  1.
    10030    2    1    2    0    0  0.00000000000E+00  0.00000000000E+00  0.25004708077E+04  0.34634156626E+04  0.23964335567E+04 0.  0.
        2    1    3    3  502    0 -0.11568209065E+04  0.12582717115E+03  0.16632203639E+04  0.20298692237E+04  0.25500000920E-02 0. -1.
       -2    1    3    3    0  502  0.11568209065E+04 -0.12582717115E+03  0.83725044378E+03  0.14335464388E+04  0.25500000920E-02 0.  1.
</event>
<event>
 5   0  0.1434943E-05  0.2352253E+04  0.7818609E-02  0.8457599E-01
       -1   -1    0    0    0  501  0.00000000000E+00  0.00000000000E+00  0.74177978628E+03  0.74177978630E+03  0.50400001928E-02 0. -1.
        1   -1    0    0  501    0  0.00000000000E+00  0.00000000000E+00 -0.18648041856E+04  0.18648041856E+04  0.50400001928E-02 0.  1.
    10030    2    1    2    0    0  0.00000000000E+00  0.00000000000E+00 -0.11230243993E+04  0.26065839719E+04  0.23522534305E+04 0.  0.
        5    1    3    3  502    0  0.45582178353E+03  0.10108173603E+04 -0.12703969359E+03  0.11161032246E+04  0.46999998093E+01 0.  1.
       -5    1    3    3    0  502 -0.45582178353E+03 -0.10108173603E+04 -0.99598470574E+03  0.14904807473E+04  0.46999998093E+01 0. -1.
</event>
<event>
 5   0  0.3320780E-05  0.2407299E+04  0.7818609E-02  0.8436776E-01
        2   -1    0    0  501    0  0.00000000000E+00  0.00000000000E+00  0.16387885291E+04  0.16387885291E+04  0.25500000920E-02 0. -1.
       -2   -1    0    0    0  501  0.00000000000E+00  0.00000000000E+00 -0.88405033592E+03  0.88405033593E+03  0.25500000920E-02 0.  1.
    10030    2    1    2    0    0  0.00000000000E+00  0.00000000000E+00  0.75473819315E+03  0.25228388650E+04  0.24072985271E+04 0.  0.
        5    1    3    3  502    0 -0.56050919557E+03  0.69276794985E+03 -0.47056995309E+03  0.10077480645E+04  0.46999998093E+01 0.  1.
       -5    1    3    3    0  502  0.56050919557E+03 -0.69276794985E+03  0.12253081462E+04  0.15150908005E+04  0.46999998093E+01 0. -1.
</event>
<event>
 5   0  0.3320780E-05  0.2354014E+04  0.7818609E-02  0.8456924E-01
       -2   -1    0    0    0  501  0.00000000000E+00  0.00000000000E+00  0.14741805221E+04  0.14741805221E+04  0.25500000920E-02 0.  1.
        2   -1    0    0  501    0  0.00000000000E+00  0.00000000000E+00 -0.93973916541E+03  0.93973916541E+03  0.25500000920E-02 0. -1.
    10030    2    1    2    0    0  0.00000000000E+00  0.00000000000E+00  0.53444135666E+03  0.24139196875E+04  0.23540137412E+04 0.  0.
        5    1    3    3  502    0  0.43124966570E+03 -0.69512158089E+03 -0.60057337425E+03  0.10148304066E+04  0.46999998093E+01 0. -1.
       -5    1    3    3    0  502 -0.43124966570E+03  0.69512158089E+03  0.11350147309E+04  0.13990892808E+04  0.46999998093E+01 0.  1.
</event>
<event>
 5   0  0.3320780E-05  0.2363546E+04  0.7818609E-02  0.8453279E-01
       -2   -1    0    0    0  501  0.00000000000E+00  0.00000000000E+00  0.19617046016E+04  0.19617046016E+04  0.25500000920E-02 0. -1.
        2   -1    0    0  501    0  0.00000000000E+00  0.00000000000E+00 -0.71192547456E+03  0.71192547457E+03  0.25500000920E-02 0.  1.
    10030    2    1    2    0    0  0.00000000000E+00  0.00000000000E+00  0.12497791270E+04  0.26736300761E+04  0.23635460473E+04 0.  0.
        5    1    3    3  502    0  0.22516242334E+03 -0.69125008987E+03  0.16788086410E+04  0.18294658638E+04  0.46999998093E+01 0. -1.
       -5    1    3    3    0  502 -0.22516242334E+03  0.69125008987E+03 -0.42902951396E+03  0.84416421239E+03  0.46999998093E+01 0.  1.
</event>
<event>
 5   0  0.1393026E-05  0.2379142E+04  0.7818609E-02  0.8447354E-01
       -1   -1    0    0    0  501  0.00000000000E+00  0.00000000000E+00  0.11065397903E+04  0.11065397903E+04  0.50400001928E-02 0. -1.
        1   -1    0    0  501    0  0.00000000000E+00  0.00000000000E+00 -0.12788322816E+04  0.12788322816E+04  0.50400001928E-02 0.  1.
    10030    2    1    2    0    0  0.00000000000E+00  0.00000000000E+00 -0.17229249132E+03  0.23853720719E+04  0.23791416979E+04 0.  0.
        4    1    3    3  502    0 -0.10739526223E+04 -0.15115033356E+02 -0.59883109785E+03  0.12297166323E+04  0.12699999809E+01 0.  1.
       -4    1    3    3    0  502  0.10739526223E+04  0.15115033356E+02  0.42653860653E+03  0.11556554395E+04  0.12699999809E+01 0. -1.
</event>
<event>
 5   0  0.3310037E-05  0.2430614E+04  0.7818609E-02  0.8428130E-01
        2   -1    0    0  501    0  0.00000000000E+00  0.00000000000E+00  0.89692334684E+03  0.89692334685E+03  0.25500000920E-02 0. -1.
       -2   -1    0    0    0  501  0.00000000000E+00  0.00000000000E+00 -0.16467079905E+04  0.16467079905E+04  0.25500000920E-02 0.  1.
    10030    2    1    2    0    0  0.00000000000E+00  0.00000000000E+00 -0.74978464363E+03  0.25436313373E+04  0.24306137843E+04 0.  0.
        2    1    3    3  502    0  0.11164189974E+03 -0.87213344794E+03  0.50309988824E+03  0.10130104453E+04  0.25500000920E-02 0. -1.
       -2    1    3    3    0  502 -0.11164189974E+03  0.87213344794E+03 -0.12528845319E+04  0.15306208920E+04  0.25500000920E-02 0.  1.
</event>
<event>
 5   0  0.3347728E-05  0.2384106E+04  0.7818609E-02  0.8445478E-01
       -2   -1    0    0    0  501  0.00000000000E+00  0.00000000000E+00  0.15004131287E+04  0.15004131287E+04  0.25500000920E-02 0. -1.
        2   -1    0    0  501    0  0.00000000000E+00  0.00000000000E+00 -0.94706641116E+03  0.94706641116E+03  0.25500000920E-02 0.  1.
    10030    2    1    2    0    0  0.00000000000E+00  0.00000000000E+00  0.55334671755E+03  0.24474795399E+04  0.23841064381E+04 0.  0.
        3    1    3    3  502    0  0.47592902305E+03  0.86626350275E+03  0.96077264108E+03  0.13784066777E+04  0.10100000352E+00 0. -1.
       -3    1    3    3    0  502 -0.47592902305E+03 -0.86626350275E+03 -0.40742592353E+03  0.10690728621E+04  0.10100000352E+00 0.  1.
</event>
<event>
 5   0  0.1407158E-05  0.2432953E+04  0.7818609E-02  0.8427269E-01
        1   -1    0    0  501    0  0.00000000000E+00  0.00000000000E+00  0.15695616845E+04  0.15695616845E+04  0.50400001928E-02 0.  1.
       -1   -1    0    0    0  501  0.00000000000E+00  0.00000000000E+00 -0.94282054198E+03  0.94282054199E+03  0.50400001928E-02 0. -1.
    10030    2    1    2    0    0  0.00000000000E+00  0.00000000000E+00  0.62674114248E+03  0.25123822265E+04  0.24329529367E+04 0.  0.
        1    1    3    3  502    0 -0.97050876555E+03 -0.19700169729E+03  0.10429181979E+04  0.14381847240E+04  0.50400001928E-02 0.  1.
       -1    1    3    3    0  502  0.97050876555E+03  0.19700169729E+03 -0.41617705546E+03  0.10741975024E+04  0.50400001928E-02 0. -1.
</event>
<event>
 5   0  0.3347728E-05  0.2412010E+04  0.7818609E-02  0.8435021E-01
       -2   -1    0    0    0  501  0.00000000000E+00  0.00000000000E+00  0.11635029028E+04  0.11635029028E+04  0.25500000920E-02 0.  1.
        2   -1    0    0  501    0  0.00000000000E+00  0.00000000000E+00 -0.12500597902E+04  0.12500597902E+04  0.25500000920E-02 0. -1.
    10030    2    1    2    0    0  0.00000000000E+00  0.00000000000E+00 -0.86556887394E+02  0.24135626930E+04  0.24120101116E+04 0.  0.
        3    1    3    3  502    0  0.75511759129E+02  0.11395941316E+04  0.34436138187E+03  0.11928795337E+04  0.10100000352E+00 0. -1.
       -3    1    3    3    0  502 -0.75511759129E+02 -0.11395941316E+04 -0.43091826926E+03  0.12206831593E+04  0.10100000352E+00 0.  1.
</event>
<event>
 5   0  0.1393026E-05  0.2428906E+04  0.7818609E-02  0.8428760E-01
        1   -1    0    0  501    0  0.00000000000E+00  0.00000000000E+00  0.11805171922E+04  0.11805171923E+04  0.50400001928E-02 0. -1.
       -1   -1    0    0    0  501  0.00000000000E+00  0.00000000000E+00 -0.12493645126E+04  0.12493645126E+04  0.50400001928E-02 0.  1.
    10030    2    1    2    0    0  0.00000000000E+00  0.00000000000E+00 -0.68847320382E+02  0.24298817049E+04  0.24289061625E+04 0.  0.
        4    1    3    3  502    0  0.55407494619E+03 -0.36895309397E+03 -0.10505920543E+04  0.12437325713E+04  0.12699999809E+01 0.  1.
       -4    1    3    3    0  502 -0.55407494619E+03  0.36895309397E+03  0.98174473392E+03  0.11861491336E+04  0.12699999809E+01 0. -1.
</event>
<event>
 5   0  0.3320780E-05  0.2102015E+04  0.7818609E-02  0.8560356E-01
        2   -1    0    0  501    0  0.00000000000E+00  0.00000000000E+00  0.10528422632E+04  0.10528422633E+04  0.25500000920E-02 0.  1.
       -2   -1    0    0    0  501  0.00000000000E+00  0.00000000000E+00 -0.10491762555E+04  0.10491762555E+04  0.25500000920E-02 0. -1.
    10030    2    1    2    0    0  0.00000000000E+00  0.00000000000E+00  0.36660077153E+01  0.21020185188E+04  0.21020153220E+04 0.  0.
        5    1    3    3  502    0  0.72320472838E+03  0.51372808390E+03 -0.56177533205E+03  0.10500263030E+04  0.46999998093E+01 0.  1.
       -5    1    3    3    0  502 -0.72320472838E+03 -0.51372808390E+03  0.56544133976E+03  0.10519922158E+04  0.46999998093E+01 0. -1.
</event>
<event>
 5   0  0.1506985E-05  0.2302414E+04  0.7818609E-02  0.8476970E-01
        1   -1    0    0  501    0  0.00000000000E+00  0.00000000000E+00  0.25684671816E+04  0.25684671816E+04  0.50400001928E-02 0. -1.
       -1   -1    0    0    0  501  0.00000000000E+00  0.00000000000E+00 -0.51598004210E+03  0.51598004212E+03  0.50400001928E-02 0.  1.
    10030    2    1    2    0    0  0.00000000000E+00  0.00000000000E+00  0.20524871395E+04  0.30844472237E+04  0.23024142151E+04 0.  0.
        3    1    3    3  502    0 -0.36574208219E+03 -0.10853512991E+04  0.87045639084E+03  0.14385579765E+04  0.10100000352E+00 0. -1.
       -3    1    3    3    0  502  0.36574208219E+03  0.10853512991E+04  0.11820307486E+04  0.16458892472E+04  0.10100000352E+00 0.  1.
</event>
<event>
 5   0  0.3310037E-05  0.2597521E+04  0.7818609E-02  0.8369044E-01
       -2   -1    0    0    0  501  0.00000000000E+00  0.00000000000E+00  0.97786093997E+03  0.97786093998E+03  0.25500000920E-02 0. -1.
        2   -1    0    0  501    0  0.00000000000E+00  0.00000000000E+00 -0.17249674462E+04  0.17249674462E+04  0.25500000920E-02 0.  1.
    10030    2    1    2    0    0  0.00000000000E+00  0.00000000000E+00 -0.74710650618E+03  0.27028283861E+04  0.25975205780E+04 0.  0.
        2    1    3    3  502    0 -0.46419881305E+03 -0.10187516502E+04  0.31150165776E+03  0.11620536759E+04  0.25500000920E-02 0. -1.
       -2    1    3    3    0  502  0.46419881305E+03  0.10187516502E+04 -0.10586081639E+04  0.15407747102E+04  0.25500000920E-02 0.  1.
</event>
<event>
 5   0  0.1434943E-05  0.2441310E+04  0.7818609E-02  0.8424198E-01
        1   -1    0    0  501    0  0.00000000000E+00  0.00000000000E+00  0.17112388357E+04  0.17112388357E+04  0.50400001928E-02 0.  1.
       -1   -1    0    0    0  501  0.00000000000E+00  0.00000000000E+00 -0.87071337316E+03  0.87071337318E+03  0.50400001928E-02 0. -1.
    10030    2    1    2    0    0  0.00000000000E+00  0.00000000000E+00  0.84052546253E+03  0.25819522089E+04  0.24413099262E+04 0.  0.
        5    1    3    3  502    0 -0.10892592241E+03  0.10785839727E+04 -0.17310061063E+03  0.10978133512E+04  0.46999998093E+01 0. -1.
       -5    1    3    3    0  502  0.10892592241E+03 -0.10785839727E+04  0.10136260732E+04  0.14841388577E+04  0.46999998093E+01 0.  1.
</event>
<event>
 5   0  0.1401596E-05  0.2449734E+04  0.7818609E-02  0.8421115E-01
       -1   -1    0    0    0  501  0.00000000000E+00  0.00000000000E+00  0.12868133010E+04  0.12868133010E+04  0.50400001928E-02 0.  1.
        1   -1    0    0  501    0  0.00000000000E+00  0.00000000000E+00 -0.11659023913E+04  0.11659023914E+04  0.50400001928E-02 0. -1.
    10030    2    1    2    0    0  0.00000000000E+00  0.00000000000E+00  0.12091090968E+03  0.24527156924E+04  0.24497336222E+04 0.  0.
        2    1    3    3  502    0 -0.30142176274E+03  0.54248109183E+03 -0.99684039560E+03  0.11742365981E+04  0.25500000920E-02 0. -1.
       -2    1    3    3    0  502  0.30142176274E+03 -0.54248109183E+03  0.11177513053E+04  0.12784790943E+04  0.25500000920E-02 0.  1.
</event>
<event>
 5   0  0.1434943E-05  0.2406398E+04  0.7818609E-02  0.8437112E-01
       -1   -1    0    0    0  501  0.00000000000E+00  0.00000000000E+00  0.98313554077E+03  0.98313554078E+03  0.50400001928E-02 0. -1.
        1   -1    0    0  501    0  0.00000000000E+00  0.00000000000E+00 -0.14725205394E+04  0.14725205394E+04  0.50400001928E-02 0.  1.
    10030    2    1    2    0    0  0.00000000000E+00  0.00000000000E+00 -0.48938499862E+03  0.24556560802E+04  0.24063975372E+04 0.  0.
        5    1    3    3  502    0  0.60400008740E+03 -0.85758036294E+03  0.35678336131E+03  0.11079605775E+04  0.46999998093E+01 0. -1.
       -5    1    3    3    0  502 -0.60400008740E+03  0.85758036294E+03 -0.84616835993E+03  0.13476955026E+04  0.46999998093E+01 0.  1.
</event>
<event>
 5   0  0.3320780E-05  0.2404926E+04  0.7818609E-02  0.8437662E-01
       -2   -1    0    0    0  501  0.00000000000E+00  0.00000000000E+00  0.63971319887E+03  0.63971319887E+03  0.25500000920E-02 0.  1.
        2   -1    0    0  501    0  0.00000000000E+00  0.00000000000E+00 -0.22602587386E+04  0.22602587386E+04  0.25500000920E-02 0. -1.
    10030    2    1    2    0    0  0.00000000000E+00  0.00000000000E+00 -0.16205455397E+04  0.28999719374E+04  0.24049260678E+04 0.  0.
        5    1    3    3  502    0 -0.26923467891E+03  0.79732366939E+03 -0.18459559593E+04  0.20287404565E+04  0.46999998093E+01 0. -1.
       -5    1    3    3    0  502  0.26923467891E+03 -0.79732366939E+03  0.22541041963E+03  0.87123148093E+03  0.46999998093E+01 0.  1.
</event>
<event>
 5   0  0.1434943E-05  0.2382689E+04  0.7818609E-02  0.8446013E-01
        1   -1    0    0  501    0  0.00000000000E+00  0.00000000000E+00  0.46153820316E+03  0.46153820319E+03  0.50400001928E-02 0.  1.
       -1   -1    0    0    0  501  0.00000000000E+00  0.00000000000E+00 -0.30751556637E+04  0.30751556637E+04  0.50400001928E-02 0. -1.
    10030    2    1    2    0    0  0.00000000000E+00  0.00000000000E+00 -0.26136174605E+04  0.35366938669E+04  0.23826890855E+04 0.  0.
        5    1    3    3  502    0  0.11149837533E+04 -0.30776024857E+03 -0.88338567880E+03  0.14554372155E+04  0.46999998093E+01 0.  1.
       -5    1    3    3    0  502 -0.11149837533E+04  0.30776024857E+03 -0.17302317817E+04  0.20812566514E+04  0.46999998093E+01 0. -1.
</event>
<event>
 5   0  0.3215208E-05  0.2377788E+04  0.7818609E-02  0.8447867E-01
        2   -1    0    0  501    0  0.00000000000E+00  0.00000000000E+00  0.20927897624E+04  0.20927897624E+04  0.25500000920E-02 0. -1.
       -2   -1    0    0    0  501  0.00000000000E+00  0.00000000000E+00 -0.67539920589E+03  0.67539920589E+03  0.25500000920E-02 0.  1.
    10030    2    1    2    0    0  0.00000000000E+00  0.00000000000E+00  0.14173905565E+04  0.27681889683E+04  0.23777876639E+04 0.  0.
        1    1    3    3  502    0 -0.55254711976E+03 -0.10039374249E+04  0.34005066508E+03  0.11953380808E+04  0.50400001928E-02 0. -1.
       -1    1    3    3    0  502  0.55254711976E+03  0.10039374249E+04  0.10773398914E+04  0.15728508875E+04  0.50400001928E-02 0.  1.
</event>
<event>
 5   0  0.3320780E-05  0.2317734E+04  0.7818609E-02  0.8470962E-01
        2   -1    0    0  501    0  0.00000000000E+00  0.00000000000E+00  0.12604929684E+04  0.12604929684E+04  0.25500000920E-02 0. -1.
       -2   -1    0    0    0  501  0.00000000000E+00  0.00000000000E+00 -0.10654341477E+04  0.10654341477E+04  0.25500000920E-02 0.  1.
    10030    2    1    2    0    0  0.00000000000E+00  0.00000000000E+00  0.19505882070E+03  0.23259271162E+04  0.23177335926E+04 0.  0.
        5    1    3    3  502    0 -0.19007350578E+03 -0.26987441030E+03 -0.10172486459E+04  0.10694751201E+04  0.46999998093E+01 0.  1.
       -5    1    3    3    0  502  0.19007350578E+03  0.26987441030E+03  0.12123074666E+04  0.12564519961E+04  0.46999998093E+01 0. -1.
</event>
<event>
 5   0  0.3320780E-05  0.2406877E+04  0.7818609E-02  0.8436933E-01
        2   -1    0    0  501    0  0.00000000000E+00  0.00000000000E+00  0.11763597446E+04  0.11763597446E+04  0.25500000920E-02 0. -1.
       -2   -1    0    0    0  501  0.00000000000E+00  0.00000000000E+00 -0.12311408050E+04  0.12311408050E+04  0.25500000920E-02 0.  1.
    10030    2    1    2    0    0  0.00000000000E+00  0.00000000000E+00 -0.54781060404E+02  0.24075005496E+04  0.24068772157E+04 0.  0.
        5    1    3    3  502    0 -0.51843230523E+03  0.50099626230E+03 -0.99121315795E+03  0.12256814123E+04  0.46999998093E+01 0.  1.
       -5    1    3    3    0  502  0.51843230523E+03 -0.50099626230E+03  0.93643209755E+03  0.11818191373E+04  0.46999998093E+01 0. -1.
</event>
<event>
 5   0  0.1434943E-05  0.2204259E+04  0.7818609E-02  0.8516657E-01
        1   -1    0    0  501    0  0.00000000000E+00  0.00000000000E+00  0.30778344315E+04  0.30778344315E+04  0.50400001928E-02 0.  1.
       -1   -1    0    0    0  501  0.00000000000E+00  0.00000000000E+00 -0.39465724260E+03  0.39465724263E+03  0.50400001928E-02 0. -1.
    10030    2    1    2    0    0  0.00000000000E+00  0.00000000000E+00  0.26831771889E+04  0.34724916741E+04  0.22042591952E+04 0.  0.
        5    1    3    3  502    0 -0.19438701662E+03  0.62538376520E+03  0.27380471169E+04  0.28152824494E+04  0.46999998093E+01 0.  1.
       -5    1    3    3    0  502  0.19438701662E+03 -0.62538376520E+03 -0.54869927976E+02  0.65720922467E+03  0.46999998093E+01 0. -1.
</event>
<event>
 5   0  0.1434943E-05  0.2390711E+04  0.7818609E-02  0.8442990E-01
        1   -1    0    0  501    0  0.00000000000E+00  0.00000000000E+00  0.15917337176E+04  0.15917337176E+04  0.50400001928E-02 0.  1.
       -1   -1    0    0    0  501  0.00000000000E+00  0.00000000000E+00 -0.89768420854E+03  0.89768420856E+03  0.50400001928E-02 0. -1.
    10030    2    1    2    0    0  0.00000000000E+00  0.00000000000E+00  0.69404950910E+03  0.24894179262E+04  0.23907105409E+04 0.  0.
        5    1    3    3  502    0  0.89777118159E+03 -0.32618118161E+03  0.10953514034E+04  0.14533423700E+04  0.46999998093E+01 0.  1.
       -5    1    3    3    0  502 -0.89777118159E+03  0.32618118161E+03 -0.40130189426E+03  0.10360755562E+04  0.46999998093E+01 0. -1.
</event>
<event>
 5   0  0.3320780E-05  0.2392280E+04  0.7818609E-02  0.8442399E-01
        2   -1    0    0  501    0  0.00000000000E+00  0.00000000000E+00  0.15079350586E+04  0.15079350586E+04  0.25500000920E-02 0. -1.
       -2   -1    0    0    0  501  0.00000000000E+00  0.00000000000E+00 -0.94881504801E+03  0.94881504802E+03  0.25500000920E-02 0.  1.
    10030    2    1    2    0    0  0.00000000000E+00  0.00000000000E+00  0.55912001057E+03  0.24567501066E+04  0.23922804811E+04 0.  0.
        5    1    3    3  502    0 -0.96266851445E+03 -0.33325884019E+03  0.92330000269E+03  0.13748807615E+04  0.46999998093E+01 0. -1.
       -5    1    3    3    0  502  0.96266851445E+03  0.33325884019E+03 -0.36417999213E+03  0.10818693451E+04  0.46999998093E+01 0.  1.
</event>
<event>
 5   0  0.1393026E-05  0.2383577E+04  0.7818609E-02  0.8445678E-01
       -1   -1    0    0    0  501  0.00000000000E+00  0.00000000000E+00  0.10378311013E+04  0.10378311013E+04  0.50400001928E-02 0. -1.
        1   -1    0    0  501    0  0.00000000000E+00  0.00000000000E+00 -0.13685850825E+04  0.13685850825E+04  0.50400001928E-02 0.  1.
    10030    2    1    2    0    0  0.00000000000E+00  0.00000000000E+00 -0.33075398116E+03  0.24064161838E+04  0.23835772808E+04 0.  0.
        4    1    3    3  502    0 -0.10956534135E+03  0.34128957566E+03  0.98212069599E+03  0.10454883131E+04  0.12699999809E+01 0. -1.
       -4    1    3    3    0  502  0.10956534135E+03 -0.34128957566E+03 -0.13128746771E+04  0.13609278707E+04  0.12699999809E+01 0.  1.
</event>
<event>
 5   0  0.3215208E-05  0.2397669E+04  0.7818609E-02  0.8440377E-01
       -2   -1    0    0    0  501  0.00000000000E+00  0.00000000000E+00  0.96173905932E+03  0.96173905932E+03  0.25500000920E-02 0. -1.
        2   -1    0    0  501    0  0.00000000000E+00  0.00000000000E+00 -0.14943800121E+04  0.14943800121E+04  0.25500000920E-02 0.  1.
    10030    2    1    2    0    0  0.00000000000E+00  0.00000000000E+00 -0.53264095281E+03  0.24561190715E+04  0.23976685569E+04 0.  0.
        1    1    3    3  502    0 -0.77321235656E+03  0.79053052657E+03 -0.74065040129E+03  0.13309240695E+04  0.50400001928E-02 0.  1.
       -1    1    3    3    0  502  0.77321235656E+03 -0.79053052657E+03  0.20800944848E+03  0.11251950020E+04  0.50400001928E-02 0. -1.
</event>
<event>
 5   0  0.1434943E-05  0.2398313E+04  0.7818609E-02  0.8440135E-01
       -1   -1    0    0    0  501  0.00000000000E+00  0.00000000000E+00  0.16177771766E+04  0.16177771766E+04  0.50400001928E-02 0. -1.
        1   -1    0    0  501    0  0.00000000000E+00  0.00000000000E+00 -0.88885936955E+03  0.88885936957E+03  0.50400001928E-02 0.  1.
    10030    2    1    2    0    0  0.00000000000E+00  0.00000000000E+00  0.72891780703E+03  0.25066365462E+04  0.23983130749E+04 0.  0.
        5    1    3    3  502    0  0.48678881425E+03  0.22881253908E+03 -0.75569233417E+03  0.92758370061E+03  0.46999998093E+01 0.  1.
       -5    1    3    3    0  502 -0.48678881425E+03 -0.22881253908E+03  0.14846101412E+04  0.15790528456E+04  0.46999998093E+01 0. -1.
</event>
<event>
 5   0  0.1407158E-05  0.2587319E+04  0.7818609E-02  0.8372521E-01
       -1   -1    0    0    0  501  0.00000000000E+00  0.00000000000E+00  0.85587568575E+03  0.85587568577E+03  0.50400001928E-02 0.  1.
        1   -1    0    0  501    0  0.00000000000E+00  0.00000000000E+00 -0.19553717709E+04  0.19553717709E+04  0.50400001928E-02 0. -1.
    10030    2    1    2    0    0  0.00000000000E+00  0.00000000000E+00 -0.10994960852E+04  0.28112474567E+04  0.25873191959E+04 0.  0.
        1    1    3    3  502    0  0.10099301025E+04 -0.54952939268E+03  0.94542882901E+02  0.11536376043E+04  0.50400001928E-02 0.  1.
       -1    1    3    3    0  502 -0.10099301025E+04  0.54952939268E+03 -0.11940389681E+04  0.16576098524E+04  0.50400001928E-02 0. -1.
</event>
<event>
 5   0  0.1407158E-05  0.2403171E+04  0.7818609E-02  0.8438317E-01
       -1   -1    0    0    0  501  0.00000000000E+00  0.00000000000E+00  0.55937967694E+03  0.55937967696E+03  0.50400001928E-02 0. -1.
        1   -1    0    0  501    0  0.00000000000E+00  0.00000000000E+00 -0.25810876081E+04  0.25810876081E+04  0.50400001928E-02 0.  1.
    10030    2    1    2    0    0  0.00000000000E+00  0.00000000000E+00 -0.20217079311E+04  0.31404672850E+04  0.24031711986E+04 0.  0.
        1    1    3    3  502    0 -0.15705607631E+03  0.33110118624E+03 -0.25062785897E+04  0.25329285375E+04  0.50400001928E-02 0.  1.
       -1    1    3    3    0  502  0.15705607631E+03 -0.33110118624E+03  0.48457065857E+03  0.60753874758E+03  0.50400001928E-02 0. -1.
</event>
<event>
 5   0  0.1393026E-05  0.2416018E+04  0.7818609E-02  0.8433531E-01
        1   -1    0    0  501    0  0.00000000000E+00  0.00000000000E+00  0.13739762712E+04  0.13739762712E+04  0.50400001928E-02 0. -1.
       -1   -1    0    0    0  501  0.00000000000E+00  0.00000000000E+00 -0.10620896892E+04  0.10620896892E+04  0.50400001928E-02 0.  1.
    10030    2    1    2    0    0  0.00000000000E+00  0.00000000000E+00  0.31188658199E+03  0.24360659604E+04  0.24160182374E+04 0.  0.
        4    1    3    3  502    0  0.84372973774E+03 -0.56042691020E+02  0.10258091239E+04  0.13294008519E+04  0.12699999809E+01 0. -1.
       -4    1    3    3    0  502 -0.84372973774E+03  0.56042691020E+02 -0.71392254187E+03  0.11066651084E+04  0.12699999809E+01 0.  1.
</event>
<event>
 5   0  0.3345974E-05  0.2404480E+04  0.7818609E-02  0.8437828E-01
        2   -1    0    0  501    0  0.00000000000E+00  0.00000000000E+00  0.15315275927E+04  0.15315275927E+04  0.25500000920E-02 0. -1.
       -2   -1    0    0    0  501  0.00000000000E+00  0.00000000000E+00 -0.94375139721E+03  0.94375139721E+03  0.25500000920E-02 0.  1.
    10030    2    1    2    0    0  0.00000000000E+00  0.00000000000E+00  0.58777619554E+03  0.24752789900E+04  0.24044802395E+04 0.  0.
        4    1    3    3  502    0  0.45024466295E+03 -0.79825804720E+03  0.10949014642E+04  0.14278469791E+04  0.12699999809E+01 0. -1.
       -4    1    3    3    0  502 -0.45024466295E+03  0.79825804720E+03 -0.50712526866E+03  0.10474320109E+04  0.12699999809E+01 0.  1.
</event>
<event>
 5   0  0.3215208E-05  0.2389326E+04  0.7818609E-02  0.8443510E-01
        2   -1    0    0  501    0  0.00000000000E+00  0.00000000000E+00  0.16539773287E+04  0.16539773287E+04  0.25500000920E-02 0.  1.
       -2   -1    0    0    0  501  0.00000000000E+00  0.00000000000E+00 -0.86290187437E+03  0.86290187438E+03  0.25500000920E-02 0. -1.
    10030    2    1    2    0    0  0.00000000000E+00  0.00000000000E+00  0.79107545431E+03  0.25168792031E+04  0.23893263796E+04 0.  0.
        1    1    3    3  502    0  0.10065676584E+04  0.42677218116E+03  0.90281336126E+03  0.14178804290E+04  0.50400001928E-02 0.  1.
       -1    1    3    3    0  502 -0.10065676584E+04 -0.42677218116E+03 -0.11173790695E+03  0.10989987741E+04  0.50400001928E-02 0. -1.
</event>
<event>
 5   0  0.1393026E-05  0.2337864E+04  0.7818609E-02  0.8463140E-01
       -1   -1    0    0    0  501  0.00000000000E+00  0.00000000000E+00  0.82797186074E+03  0.82797186076E+03  0.50400001928E-02 0. -1.
        1   -1    0    0  501    0  0.00000000000E+00  0.00000000000E+00 -0.16503005655E+04  0.16503005655E+04  0.50400001928E-02 0.  1.
    10030    2    1    2    0    0  0.00000000000E+00  0.00000000000E+00 -0.82232870480E+03  0.24782724263E+04  0.23378643503E+04 0.  0.
        4    1    3    3  502    0  0.76597494002E+03  0.88298257807E+03 -0.41646202051E+03  0.12408940605E+04  0.12699999809E+01 0. -1.
       -4    1    3    3    0  502 -0.76597494002E+03 -0.88298257807E+03 -0.40586668429E+03  0.12373783658E+04  0.12699999809E+01 0.  1.
</event>
<event>
 5   0  0.3320780E-05  0.2392635E+04  0.7818609E-02  0.8442266E-01
        2   -1    0    0  501    0  0.00000000000E+00  0.00000000000E+00  0.20155009062E+04  0.20155009062E+04  0.25500000920E-02 0.  1.
       -2   -1    0    0    0  501  0.00000000000E+00  0.00000000000E+00 -0.71008423066E+03  0.71008423067E+03  0.25500000920E-02 0. -1.
    10030    2    1    2    0    0  0.00000000000E+00  0.00000000000E+00  0.13054166756E+04  0.27255851369E+04  0.23926348743E+04 0.  0.
        5    1    3    3  502    0 -0.97473022719E+03  0.12642318827E+03  0.14295690855E+04  0.17348693607E+04  0.46999998093E+01 0.  1.
       -5    1    3    3    0  502  0.97473022719E+03 -0.12642318827E+03 -0.12415240997E+03  0.99071577621E+03  0.46999998093E+01 0. -1.
</event>
<event>
 5   0  0.3347728E-05  0.2424636E+04  0.7818609E-02  0.8430337E-01
       -2   -1    0    0    0  501  0.00000000000E+00  0.00000000000E+00  0.57283153753E+03  0.57283153753E+03  0.25500000920E-02 0. -1.
        2   -1    0    0  501    0  0.00000000000E+00  0.00000000000E+00 -0.25657016373E+04  0.25657016373E+04  0.25500000920E-02 0.  1.
    10030    2    1    2    0    0  0.00000000000E+00  0.00000000000E+00 -0.19928700998E+04  0.31385331749E+04  0.24246359015E+04 0.  0.
        3    1    3    3  502    0 -0.90568188806E+03  0.13087955900E+03  0.32885387505E+02  0.91568040289E+03  0.10100000352E+00 0. -1.
       -3    1    3    3    0  502  0.90568188806E+03 -0.13087955900E+03 -0.20257554873E+04  0.22228527720E+04  0.10100000352E+00 0.  1.
</event>
<event>
 5   0  0.3345974E-05  0.2409816E+04  0.7818609E-02  0.8435838E-01
       -2   -1    0    0    0  501  0.00000000000E+00  0.00000000000E+00  0.97542868167E+03  0.97542868167E+03  0.25500000920E-02 0.  1.
        2   -1    0    0  501    0  0.00000000000E+00  0.00000000000E+00 -0.14883748640E+04  0.14883748640E+04  0.25500000920E-02 0. -1.
    10030    2    1    2    0    0  0.00000000000E+00  0.00000000000E+00 -0.51294618236E+03  0.24638035457E+04  0.24098162017E+04 0.  0.
        4    1    3    3  502    0 -0.10589097202E+04  0.16010662306E+03  0.30805452740E+03  0.11143711819E+04  0.12699999809E+01 0.  1.
       -4    1    3    3    0  502  0.10589097202E+04 -0.16010662306E+03 -0.82100070976E+03  0.13494323638E+04  0.12699999809E+01 0. -1.
</event>
<event>
 5   0  0.3310037E-05  0.2393951E+04  0.7818609E-02  0.8441772E-01
       -2   -1    0    0    0  501  0.00000000000E+00  0.00000000000E+00  0.76578685046E+03  0.76578685047E+03  0.25500000920E-02 0. -1.
        2   -1    0    0  501    0  0.00000000000E+00  0.00000000000E+00 -0.18709521785E+04  0.18709521785E+04  0.25500000920E-02 0.  1.
    10030    2    1    2    0    0  0.00000000000E+00  0.00000000000E+00 -0.11051653280E+04  0.26367390289E+04  0.23939511909E+04 0.  0.
        2    1    3    3  502    0  0.20459156000E+03  0.83370216650E+03  0.36618255025E+03  0.93327738050E+03  0.25500000920E-02 0. -1.
       -2    1    3    3    0  502 -0.20459156000E+03 -0.83370216650E+03 -0.14713478782E+04  0.17034616484E+04  0.25500000920E-02 0.  1.
</event>
<event>
 5   0  0.3310037E-05  0.2388407E+04  0.7818609E-02  0.8443857E-01
        2   -1    0    0  501    0  0.00000000000E+00  0.00000000000E+00  0.17017117849E+04  0.17017117849E+04  0.25500000920E-02 0. -1.
       -2   -1    0    0    0  501  0.00000000000E+00  0.00000000000E+00 -0.83805108441E+03  0.83805108441E+03  0.25500000920E-02 0.  1.
    10030    2    1    2    0    0  0.00000000000E+00  0.00000000000E+00  0.86366070047E+03  0.25397628693E+04  0.23884065037E+04 0.  0.
        2    1    3    3  502    0  0.11254325134E+03  0.11876847864E+04  0.37495965336E+03  0.12505422331E+04  0.25500000920E-02 0.  1.
       -2    1    3    3    0  502 -0.11254325134E+03 -0.11876847864E+04  0.48870104711E+03  0.12892206361E+04  0.25500000920E-02 0. -1.
</event>
<event>
 5   0  0.3310037E-05  0.2402598E+04  0.7818609E-02  0.8438532E-01
       -2   -1    0    0    0  501  0.00000000000E+00  0.00000000000E+00  0.60643940209E+03  0.60643940209E+03  0.25500000920E-02 0. -1.
        2   -1    0    0  501    0  0.00000000000E+00  0.00000000000E+00 -0.23796590064E+04  0.23796590064E+04  0.25500000920E-02 0.  1.
    10030    2    1    2    0    0  0.00000000000E+00  0.00000000000E+00 -0.17732196043E+04  0.29860984085E+04  0.24025977483E+04 0.  0.
        2    1    3    3  502    0  0.82042118429E+03  0.53195221142E+03 -0.19224590792E+02  0.97797426335E+03  0.25500000920E-02 0. -1.
       -2    1    3    3    0  502 -0.82042118429E+03 -0.53195221142E+03 -0.17539950135E+04  0.20081241452E+04  0.25500000920E-02 0.  1.
</event>
<event>
 5   0  0.3347728E-05  0.2431159E+04  0.7818609E-02  0.8427929E-01
        2   -1    0    0  501    0  0.00000000000E+00  0.00000000000E+00  0.20036609022E+04  0.20036609022E+04  0.25500000920E-02 0. -1.
       -2   -1    0    0    0  501  0.00000000000E+00  0.00000000000E+00 -0.73746678641E+03  0.73746678641E+03  0.25500000920E-02 0.  1.
    10030    2    1    2    0    0  0.00000000000E+00  0.00000000000E+00  0.12661941158E+04  0.27411276886E+04  0.24311588731E+04 0.  0.
        3    1    3    3  502    0 -0.94575198263E+03  0.41323441927E+03 -0.90985050853E+02  0.10360925574E+04  0.10100000352E+00 0. -1.
       -3    1    3    3    0  502  0.94575198263E+03 -0.41323441927E+03  0.13571791666E+04  0.17050351312E+04  0.10100000352E+00 0.  1.
</event>
<event>
 5   0  0.3345974E-05  0.2339322E+04  0.7818609E-02  0.8462576E-01
        2   -1    0    0  501    0  0.00000000000E+00  0.00000000000E+00  0.87617689834E+03  0.87617689834E+03  0.25500000920E-02 0. -1.
       -2   -1    0    0    0  501  0.00000000000E+00  0.00000000000E+00 -0.15614508045E+04  0.15614508045E+04  0.25500000920E-02 0.  1.
    10030    2    1    2    0    0  0.00000000000E+00  0.00000000000E+00 -0.68527390612E+03  0.24376277028E+04  0.23393222290E+04 0.  0.
        4    1    3    3  502    0  0.12383161661E+03 -0.78261820994E+03 -0.12391886376E+04  0.14708554057E+04  0.12699999809E+01 0.  1.
       -4    1    3    3    0  502 -0.12383161661E+03  0.78261820994E+03  0.55391473152E+03  0.96677229713E+03  0.12699999809E+01 0. -1.
</event>
<event>
 5   0  0.3215208E-05  0.2396100E+04  0.7818609E-02  0.8440965E-01
        2   -1    0    0  501    0  0.00000000000E+00  0.00000000000E+00  0.15237300925E+04  0.15237300925E+04  0.25500000920E-02 0.  1.
       -2   -1    0    0    0  501  0.00000000000E+00  0.00000000000E+00 -0.94198007097E+03  0.94198007097E+03  0.25500000920E-02 0. -1.
    10030    2    1    2    0    0  0.00000000000E+00  0.00000000000E+00  0.58175002153E+03  0.24657101635E+04  0.23960996479E+04 0.  0.
        1    1    3    3  502    0  0.39502615998E+03 -0.31386027236E+03 -0.82732554236E+03  0.96903121245E+03  0.50400001928E-02 0. -1.
       -1    1    3    3    0  502 -0.39502615998E+03  0.31386027236E+03  0.14090755639E+04  0.14966789510E+04  0.50400001928E-02 0.  1.
</event>
<event>
 5   0  0.1407158E-05  0.2403483E+04  0.7818609E-02  0.8438201E-01
       -1   -1    0    0    0  501  0.00000000000E+00  0.00000000000E+00  0.11349919568E+04  0.11349919568E+04  0.50400001928E-02 0. -1.
        1   -1    0    0  501    0  0.00000000000E+00  0.00000000000E+00 -0.12724168557E+04  0.12724168557E+04  0.50400001928E-02 0.  1.
    10030    2    1    2    0    0  0.00000000000E+00  0.00000000000E+00 -0.13742489890E+03  0.24074088125E+04  0.24034832198E+04 0.  0.
        1    1    3    3  502    0 -0.11082403977E+03 -0.39996117781E+03  0.10609291991E+04  0.11392197668E+04  0.50400001928E-02 0. -1.
       -1    1    3    3    0  502  0.11082403977E+03  0.39996117781E+03 -0.11983540980E+04  0.12681890457E+04  0.50400001928E-02 0.  1.
</event>
<event>
 5   0  0.1506985E-05  0.2010231E+04  0.7818609E-02  0.8601852E-01
        1   -1    0    0  501    0  0.00000000000E+00  0.00000000000E+00  0.11238585442E+04  0.11238585442E+04  0.50400001928E-02 0. -1.
       -1   -1    0    0    0  501  0.00000000000E+00  0.00000000000E+00 -0.89891846284E+03  0.89891846285E+03  0.50400001928E-02 0.  1.
    10030    2    1    2    0    0  0.00000000000E+00  0.00000000000E+00  0.22494008133E+03  0.20227770070E+04  0.20102310265E+04 0.  0.
        3    1    3    3  502    0  0.29906151230E+03 -0.54507019325E+03  0.90715708717E+03  0.10997605624E+04  0.10100000352E+00 0. -1.
       -3    1    3    3    0  502 -0.29906151230E+03  0.54507019325E+03 -0.68221700584E+03  0.92301644458E+03  0.10100000352E+00 0.  1.
</event>
<event>
 5   0  0.1407158E-05  0.2389791E+04  0.7818609E-02  0.8443336E-01
       -1   -1    0    0    0  501  0.00000000000E+00  0.00000000000E+00  0.68260173562E+03  0.68260173564E+03  0.50400001928E-02 0. -1.
        1   -1    0    0  501    0  0.00000000000E+00  0.00000000000E+00 -0.20916660373E+04  0.20916660373E+04  0.50400001928E-02 0.  1.
    10030    2    1    2    0    0  0.00000000000E+00  0.00000000000E+00 -0.14090643017E+04  0.27742677730E+04  0.23897906749E+04 0.  0.
        1    1    3    3  502    0 -0.83563653577E+03  0.57357398687E+03 -0.14391972541E+04  0.17602739203E+04  0.50400001928E-02 0.  1.
       -1    1    3    3    0  502  0.83563653577E+03 -0.57357398687E+03  0.30132952402E+02  0.10139938526E+04  0.50400001928E-02 0. -1.
</event>
<event>
 5   0  0.3345974E-05  0.2396568E+04  0.7818609E-02  0.8440790E-01
       -2   -1    0    0    0  501  0.00000000000E+00  0.00000000000E+00  0.77637824585E+03  0.77637824585E+03  0.25500000920E-02 0. -1.
        2   -1    0    0  501    0  0.00000000000E+00  0.00000000000E+00 -0.18494652657E+04  0.18494652657E+04  0.25500000920E-02 0.  1.
    10030    2    1    2    0    0  0.00000000000E+00  0.00000000000E+00 -0.10730870198E+04  0.26258435115E+04  0.23965680451E+04 0.  0.
        4    1    3    3  502    0  0.64181878685E+03  0.80163697089E+03  0.14005252394E+03  0.10364214927E+04  0.12699999809E+01 0. -1.
       -4    1    3    3    0  502 -0.64181878685E+03 -0.80163697089E+03 -0.12131395438E+04  0.15894220188E+04  0.12699999809E+01 0.  1.
</event>
<event>
 5   0  0.3310037E-05  0.2381470E+04  0.7818609E-02  0.8446474E-01
        2   -1    0    0  501    0  0.00000000000E+00  0.00000000000E+00  0.13750641506E+04  0.13750641506E+04  0.25500000920E-02 0.  1.
       -2   -1    0    0    0  501  0.00000000000E+00  0.00000000000E+00 -0.10311150438E+04  0.10311150438E+04  0.25500000920E-02 0. -1.
    10030    2    1    2    0    0  0.00000000000E+00  0.00000000000E+00  0.34394910682E+03  0.24061791943E+04  0.23814695730E+04 0.  0.
        2    1    3    3  502    0  0.16433102679E+03 -0.49268917246E+02  0.13625116318E+04  0.13732698421E+04  0.25500000920E-02 0.  1.
       -2    1    3    3    0  502 -0.16433102679E+03  0.49268917246E+02 -0.10185625250E+04  0.10329093522E+04  0.25500000920E-02 0. -1.
</event>
<event>
 5   0  0.3310037E-05  0.2390474E+04  0.7818609E-02  0.8443079E-01
        2   -1    0    0  501    0  0.00000000000E+00  0.00000000000E+00  0.15764711649E+04  0.15764711649E+04  0.25500000920E-02 0. -1.
       -2   -1    0    0    0  501  0.00000000000E+00  0.00000000000E+00 -0.90619559538E+03  0.90619559538E+03  0.25500000920E-02 0.  1.
    10030    2    1    2    0    0  0.00000000000E+00  0.00000000000E+00  0.67027556953E+03  0.24826667603E+04  0.23904737822E+04 0.  0.
        2    1    3    3  502    0 -0.25515164847E+02  0.46396951648E+03  0.14788222116E+04  0.15501076961E+04  0.25500000920E-02 0. -1.
       -2    1    3    3    0  502  0.25515164847E+02 -0.46396951648E+03 -0.80854664207E+03  0.93255906423E+03  0.25500000920E-02 0.  1.
</event>
<event>
 5   0  0.3215208E-05  0.2358372E+04  0.7818609E-02  0.8455255E-01
       -2   -1    0    0    0  501  0.00000000000E+00  0.00000000000E+00  0.19839597398E+04  0.19839597398E+04  0.25500000920E-02 0. -1.
        2   -1    0    0  501    0  0.00000000000E+00  0.00000000000E+00 -0.70086094481E+03  0.70086094481E+03  0.25500000920E-02 0.  1.
    10030    2    1    2    0    0  0.00000000000E+00  0.00000000000E+00  0.12830987950E+04  0.26848206846E+04  0.23583722333E+04 0.  0.
        1    1    3    3  502    0 -0.61031516110E+03  0.60789133993E+03  0.15582883257E+04  0.17805277260E+04  0.50400001928E-02 0. -1.
       -1    1    3    3    0  502  0.61031516110E+03 -0.60789133993E+03 -0.27518953077E+03  0.90429295856E+03  0.50400001928E-02 0.  1.
</event>
<event>
 5   0  0.3320780E-05  0.2381304E+04  0.7818609E-02  0.8446536E-01
       -2   -1    0    0    0  501  0.00000000000E+00  0.00000000000E+00  0.96947679662E+03  0.96947679662E+03  0.25500000920E-02 0.  1.
        2   -1    0    0  501    0  0.00000000000E+00  0.00000000000E+00 -0.14622861166E+04  0.14622861166E+04  0.25500000920E-02 0. -1.
    10030    2    1    2    0    0  0.00000000000E+00  0.00000000000E+00 -0.49280931999E+03  0.24317629132E+04  0.23813042309E+04 0.  0.
        5    1    3    3  502    0 -0.73065814524E+03 -0.13332960501E+03  0.70390108050E+03  0.10232970878E+04  0.46999998093E+01 0.  1.
       -5    1    3    3    0  502  0.73065814524E+03  0.13332960501E+03 -0.11967104005E+04  0.14084658254E+04  0.46999998093E+01 0. -1.
</event>
<event>
 5   0  0.1401596E-05  0.2411692E+04  0.7818609E-02  0.8435139E-01
       -1   -1    0    0    0  501  0.00000000000E+00  0.00000000000E+00  0.28255217590E+04  0.28255217590E+04  0.50400001928E-02 0.  1.
        1   -1    0    0  501    0  0.00000000000E+00  0.00000000000E+00 -0.51461814541E+03  0.51461814543E+03  0.50400001928E-02 0. -1.
    10030    2    1    2    0    0  0.00000000000E+00  0.00000000000E+00  0.23109036136E+04  0.33401399044E+04  0.24116921590E+04 0.  0.
        2    1    3    3  502    0 -0.37531866479E+03  0.99633110042E+03  0.19395559431E+04  0.22125589298E+04  0.25500000920E-02 0. -1.
       -2    1    3    3    0  502  0.37531866479E+03 -0.99633110042E+03  0.37134767051E+03  0.11275809746E+04  0.25500000920E-02 0.  1.
</event>
<event>
 5   0  0.1506985E-05  0.2444791E+04  0.7818609E-02  0.8422922E-01
       -1   -1    0    0    0  501  0.00000000000E+00  0.00000000000E+00  0.15366638121E+04  0.15366638121E+04  0.50400001928E-02 0.  1.
        1   -1    0    0  501    0  0.00000000000E+00  0.00000000000E+00 -0.97239902269E+03  0.97239902270E+03  0.50400001928E-02 0. -1.
    10030    2    1    2    0    0  0.00000000000E+00  0.00000000000E+00  0.56426478944E+03  0.25090628348E+04  0.24447906979E+04 0.  0.
        3    1    3    3  502    0  0.87860459182E+03  0.86016921077E+02 -0.58561666914E+03  0.10593827603E+04  0.10100000352E+00 0. -1.
       -3    1    3    3    0  502 -0.87860459182E+03 -0.86016921077E+02  0.11498814586E+04  0.14496800745E+04  0.10100000352E+00 0.  1.
</event>
<event>
 5   0  0.1407158E-05  0.2514750E+04  0.7818609E-02  0.8397750E-01
       -1   -1    0    0    0  501  0.00000000000E+00  0.00000000000E+00  0.11685199974E+04  0.11685199974E+04  0.50400001928E-02 0. -1.
        1   -1    0    0  501    0  0.00000000000E+00  0.00000000000E+00 -0.13529865722E+04  0.13529865722E+04  0.50400001928E-02 0.  1.
    10030    2    1    2    0    0  0.00000000000E+00  0.00000000000E+00 -0.18446657485E+03  0.25215065696E+04  0.25147499803E+04 0.  0.
        1    1    3    3  502    0  0.50091226690E+03  0.76813265939E+03  0.77034021113E+03  0.11976497495E+04  0.50400001928E-02 0. -1.
       -1    1    3    3    0  502 -0.50091226690E+03 -0.76813265939E+03 -0.95480678598E+03  0.13238568201E+04  0.50400001928E-02 0.  1.
</event>
<event>
 5   0  0.1401596E-05  0.2424279E+04  0.7818609E-02  0.8430470E-01
       -1   -1    0    0    0  501  0.00000000000E+00  0.00000000000E+00  0.10281189171E+04  0.10281189171E+04  0.50400001928E-02 0. -1.
        1   -1    0    0  501    0  0.00000000000E+00  0.00000000000E+00 -0.14290971584E+04  0.14290971584E+04  0.50400001928E-02 0.  1.
    10030    2    1    2    0    0  0.00000000000E+00  0.00000000000E+00 -0.40097824129E+03  0.24572160754E+04  0.24242787157E+04 0.  0.
        2    1    3    3  502    0 -0.82143830124E+03  0.47390861101E+02 -0.11026807391E+04  0.13758312356E+04  0.25500000920E-02 0.  1.
       -2    1    3    3    0  502  0.82143830124E+03 -0.47390861101E+02  0.70170249780E+03  0.10813848399E+04  0.25500000920E-02 0. -1.
</event>
<event>
 5   0  0.3347728E-05  0.2394008E+04  0.7818609E-02  0.8441750E-01
        2   -1    0    0  501    0  0.00000000000E+00  0.00000000000E+00  0.20662352339E+04  0.20662352339E+04  0.25500000920E-02 0. -1.
       -2   -1    0    0    0  501  0.00000000000E+00  0.00000000000E+00 -0.69344407124E+03  0.69344407124E+03  0.25500000920E-02 0.  1.
    10030    2    1    2    0    0  0.00000000000E+00  0.00000000000E+00  0.13727911627E+04  0.27596793051E+04  0.23940079973E+04 0.  0.
        3    1    3    3  502    0  0.73944351935E+03 -0.80485046327E+03  0.12372218805E+03  0.10999400786E+04  0.10100000352E+00 0.  1.
       -3    1    3    3    0  502 -0.73944351935E+03  0.80485046327E+03  0.12490689746E+04  0.16597392265E+04  0.10100000352E+00 0. -1.
</event>
<event>
 5   0  0.1401596E-05  0.2097570E+04  0.7818609E-02  0.8562315E-01
       -1   -1    0    0    0  501  0.00000000000E+00  0.00000000000E+00  0.54968512823E+03  0.54968512825E+03  0.50400001928E-02 0.  1.
        1   -1    0    0  501    0  0.00000000000E+00  0.00000000000E+00 -0.20010539665E+04  0.20010539665E+04  0.50400001928E-02 0. -1.
    10030    2    1    2    0    0  0.00000000000E+00  0.00000000000E+00 -0.14513688383E+04  0.25507390948E+04  0.20975696472E+04 0.  0.
        2    1    3    3  502    0 -0.81268255840E+03 -0.72440663877E+02  0.75659729303E+02  0.81940526308E+03  0.25500000920E-02 0.  1.
       -2    1    3    3    0  502  0.81268255840E+03  0.72440663877E+02 -0.15270285676E+04  0.17313338317E+04  0.25500000920E-02 0. -1.
</event>
<event>
 5   0  0.3320780E-05  0.2283971E+04  0.7818609E-02  0.8484268E-01
        2   -1    0    0  501    0  0.00000000000E+00  0.00000000000E+00  0.12667104639E+04  0.12667104639E+04  0.25500000920E-02 0.  1.
       -2   -1    0    0    0  501  0.00000000000E+00  0.00000000000E+00 -0.10295412915E+04  0.10295412915E+04  0.25500000920E-02 0. -1.
    10030    2    1    2    0    0  0.00000000000E+00  0.00000000000E+00  0.23716917239E+03  0.22962517555E+04  0.22839708641E+04 0.  0.
        5    1    3    3  502    0 -0.54753724045E+03  0.85646267387E+03  0.64175102561E+03  0.12021613079E+04  0.46999998093E+01 0.  1.
       -5    1    3    3    0  502  0.54753724045E+03 -0.85646267387E+03 -0.40458185322E+03  0.10940904475E+04  0.46999998093E+01 0. -1.
</event>
<event>
 5   0  0.3215208E-05  0.2391644E+04  0.7818609E-02  0.8442638E-01
        2   -1    0    0  501    0  0.00000000000E+00  0.00000000000E+00  0.17896761704E+04  0.17896761704E+04  0.25500000920E-02 0. -1.
       -2   -1    0    0    0  501  0.00000000000E+00  0.00000000000E+00 -0.79902196421E+03  0.79902196421E+03  0.25500000920E-02 0.  1.
    10030    2    1    2    0    0  0.00000000000E+00  0.00000000000E+00  0.99065420623E+03  0.25886981347E+04  0.23916442620E+04 0.  0.
        1    1    3    3  502    0 -0.76410690850E+03  0.90790254941E+03  0.33535195378E+03  0.12331290848E+04  0.50400001928E-02 0.  1.
       -1    1    3    3    0  502  0.76410690850E+03 -0.90790254941E+03  0.65530225245E+03  0.13555690499E+04  0.50400001928E-02 0. -1.
</event>
<event>
 5   0  0.1434943E-05  0.2389202E+04  0.7818609E-02  0.8443557E-01
        1   -1    0    0  501    0  0.00000000000E+00  0.00000000000E+00  0.16640873227E+04  0.16640873227E+04  0.50400001928E-02 0. -1.
       -1   -1    0    0    0  501  0.00000000000E+00  0.00000000000E+00 -0.85757041138E+03  0.85757041140E+03  0.50400001928E-02 0.  1.
    10030    2    1    2    0    0  0.00000000000E+00  0.00000000000E+00  0.80651691129E+03  0.25216577341E+04  0.23892024191E+04 0.  0.
        5    1    3    3  502    0  0.82220064680E+03 -0.77906815126E+02  0.13142232427E+04  0.15521881964E+04  0.46999998093E+01 0. -1.
       -5    1    3    3    0  502 -0.82220064680E+03  0.77906815126E+02 -0.50770633142E+03  0.96946953764E+03  0.46999998093E+01 0.  1.
</event>
<event>
 5   0  0.1506985E-05  0.2392643E+04  0.7818609E-02  0.8442263E-01
       -1   -1    0    0    0  501  0.00000000000E+00  0.00000000000E+00  0.72124183900E+03  0.72124183902E+03  0.50400001928E-02 0. -1.
        1   -1    0    0  501    0  0.00000000000E+00  0.00000000000E+00 -0.19843353461E+04  0.19843353462E+04  0.50400001928E-02 0.  1.
    10030    2    1    2    0    0  0.00000000000E+00  0.00000000000E+00 -0.12630935071E+04  0.27055771852E+04  0.23926434538E+04 0.  0.
        3    1    3    3  502    0  0.11572398911E+03  0.80814384254E+03 -0.16203882396E+04  0.18144273392E+04  0.10100000352E+00 0.  1.
       -3    1    3    3    0  502 -0.11572398911E+03 -0.80814384254E+03  0.35729473250E+03  0.89114984596E+03  0.10100000352E+00 0. -1.
</event>
<event>
 5   0  0.1393026E-05  0.2280493E+04  0.7818609E-02  0.8485652E-01
        1   -1    0    0  501    0  0.00000000000E+00  0.00000000000E+00  0.13225403842E+04  0.13225403842E+04  0.50400001928E-02 0. -1.
       -1   -1    0    0    0  501  0.00000000000E+00  0.00000000000E+00 -0.98307960342E+03  0.98307960344E+03  0.50400001928E-02 0.  1.
    10030    2    1    2    0    0  0.00000000000E+00  0.00000000000E+00  0.33946078076E+03  0.23056199876E+04  0.22804933470E+04 0.  0.
        4    1    3    3  502    0  0.30662566328E+03  0.23683576513E+03 -0.91448945674E+03  0.99317826014E+03  0.12699999809E+01 0.  1.
       -4    1    3    3    0  502 -0.30662566328E+03 -0.23683576513E+03  0.12539502375E+04  0.13124417275E+04  0.12699999809E+01 0. -1.
</event>
<event>
 5   0  0.1434943E-05  0.2407154E+04  0.7818609E-02  0.8436830E-01
       -1   -1    0    0    0  501  0.00000000000E+00  0.00000000000E+00  0.10171949687E+04  0.10171949687E+04  0.50400001928E-02 0. -1.
        1   -1    0    0  501    0  0.00000000000E+00  0.00000000000E+00 -0.14241101163E+04  0.14241101163E+04  0.50400001928E-02 0.  1.
    10030    2    1    2    0    0  0.00000000000E+00  0.00000000000E+00 -0.40691514760E+03  0.24413050850E+04  0.24071540417E+04 0.  0.
        5    1    3    3  502    0 -0.51974359856E+03  0.21621033247E+03  0.87544670891E+03  0.10408214767E+04  0.46999998093E+01 0. -1.
       -5    1    3    3    0  502  0.51974359856E+03 -0.21621033247E+03 -0.12823618565E+04  0.14004836083E+04  0.46999998093E+01 0.  1.
</event>
<event>
 5   0  0.3310037E-05  0.2402756E+04  0.7818609E-02  0.8438473E-01
       -2   -1    0    0    0  501  0.00000000000E+00  0.00000000000E+00  0.92024487225E+03  0.92024487225E+03  0.25500000920E-02 0. -1.
        2   -1    0    0  501    0  0.00000000000E+00  0.00000000000E+00 -0.15683965330E+04  0.15683965330E+04  0.25500000920E-02 0.  1.
    10030    2    1    2    0    0  0.00000000000E+00  0.00000000000E+00 -0.64815166074E+03  0.24886414052E+04  0.24027558071E+04 0.  0.
        2    1    3    3  502    0  0.14843691946E+03  0.34803283345E+03  0.85692217941E+03  0.93673688610E+03  0.25500000920E-02 0. -1.
       -2    1    3    3    0  502 -0.14843691946E+03 -0.34803283345E+03 -0.15050738401E+04  0.15519045191E+04  0.25500000920E-02 0.  1.
</event>
<event>
 5   0  0.1401596E-05  0.2338100E+04  0.7818609E-02  0.8463049E-01
       -1   -1    0    0    0  501  0.00000000000E+00  0.00000000000E+00  0.27072820363E+04  0.27072820363E+04  0.50400001928E-02 0. -1.
        1   -1    0    0  501    0  0.00000000000E+00  0.00000000000E+00 -0.50481543131E+03  0.50481543133E+03  0.50400001928E-02 0.  1.
    10030    2    1    2    0    0  0.00000000000E+00  0.00000000000E+00  0.22024666050E+04  0.32120974676E+04  0.23380998686E+04 0.  0.
        2    1    3    3  502    0  0.21425354215E+03  0.87066529473E+03  0.21317853896E+04  0.23126762815E+04  0.25500000920E-02 0. -1.
       -2    1    3    3    0  502 -0.21425354215E+03 -0.87066529473E+03  0.70681215362E+02  0.89942118609E+03  0.25500000920E-02 0.  1.
</event>
<event>
 5   0  0.3320780E-05  0.2404281E+04  0.7818609E-02  0.8437903E-01
       -2   -1    0    0    0  501  0.00000000000E+00  0.00000000000E+00  0.10991487326E+04  0.10991487326E+04  0.25500000920E-02 0.  1.
        2   -1    0    0  501    0  0.00000000000E+00  0.00000000000E+00 -0.13147824774E+04  0.13147824774E+04  0.25500000920E-02 0. -1.
    10030    2    1    2    0    0  0.00000000000E+00  0.00000000000E+00 -0.21563374481E+03  0.24139312100E+04  0.24042807603E+04 0.  0.
        5    1    3    3  502    0 -0.10457827842E+04 -0.46060076766E+03 -0.48255044255E+03  0.12404401310E+04  0.46999998093E+01 0. -1.
       -5    1    3    3    0  502  0.10457827842E+04  0.46060076766E+03  0.26691669775E+03  0.11734910790E+04  0.46999998093E+01 0.  1.
</event>
<event>
 5   0  0.1407158E-05  0.2394200E+04  0.7818609E-02  0.8441678E-01
       -1   -1    0    0    0  501  0.00000000000E+00  0.00000000000E+00  0.83354918236E+03  0.83354918238E+03  0.50400001928E-02 0.  1.
        1   -1    0    0  501    0  0.00000000000E+00  0.00000000000E+00 -0.17192132680E+04  0.17192132680E+04  0.50400001928E-02 0. -1.
    10030    2    1    2    0    0  0.00000000000E+00  0.00000000000E+00 -0.88566408563E+03  0.25527624504E+04  0.23942003374E+04 0.  0.
        1    1    3    3  502    0 -0.52913258434E+03  0.45096885818E+03  0.59623100949E+03  0.91588515632E+03  0.50400001928E-02 0.  1.
       -1    1    3    3    0  502  0.52913258434E+03 -0.45096885818E+03 -0.14818950951E+04  0.16368772941E+04  0.50400001928E-02 0. -1.
</event>
<event>
 5   0  0.3347728E-05  0.2417110E+04  0.7818609E-02  0.8433126E-01
        2   -1    0    0  501    0  0.00000000000E+00  0.00000000000E+00  0.13748257460E+04  0.13748257460E+04  0.25500000920E-02 0.  1.
       -2   -1    0    0    0  501  0.00000000000E+00  0.00000000000E+00 -0.10623926574E+04  0.10623926574E+04  0.25500000920E-02 0. -1.
    10030    2    1    2    0    0  0.00000000000E+00  0.00000000000E+00  0.31243308858E+03  0.24372184034E+04  0.24171096606E+04 0.  0.
        3    1    3    3  502    0 -0.10728526776E+04 -0.40163100409E+03 -0.23206422378E+03  0.11688345244E+04  0.10100000352E+00 0. -1.
       -3    1    3    3    0  502  0.10728526776E+04  0.40163100409E+03  0.54449731235E+03  0.12683838790E+04  0.10100000352E+00 0.  1.
</event>
<event>
 5   0  0.3320780E-05  0.2401046E+04  0.7818609E-02  0.8439112E-01
       -2   -1    0    0    0  501  0.00000000000E+00  0.00000000000E+00  0.62962829325E+03  0.62962829325E+03  0.25500000920E-02 0. -1.
        2   -1    0    0  501    0  0.00000000000E+00  0.00000000000E+00 -0.22890571211E+04  0.22890571211E+04  0.25500000920E-02 0.  1.
    10030    2    1    2    0    0  0.00000000000E+00  0.00000000000E+00 -0.16594288278E+04  0.29186854143E+04  0.24010457124E+04 0.  0.
        5    1    3    3  502    0 -0.76046864640E+03 -0.91679477490E+03 -0.64774992895E+03  0.13558861611E+04  0.46999998093E+01 0. -1.
       -5    1    3    3    0  502  0.76046864640E+03  0.91679477490E+03 -0.10116788989E+04  0.15627992532E+04  0.46999998093E+01 0.  1.
</event>
<event>
 5   0  0.3320780E-05  0.2396484E+04  0.7818609E-02  0.8440821E-01
        2   -1    0    0  501    0  0.00000000000E+00  0.00000000000E+00  0.19022327911E+04  0.19022327911E+04  0.25500000920E-02 0. -1.
       -2   -1    0    0    0  501  0.00000000000E+00  0.00000000000E+00 -0.75478849054E+03  0.75478849054E+03  0.25500000920E-02 0.  1.
    10030    2    1    2    0    0  0.00000000000E+00  0.00000000000E+00  0.11474443006E+04  0.26570212817E+04  0.23964836048E+04 0.  0.
        5    1    3    3  502    0  0.10695587305E+04  0.42960883897E+03  0.93680221544E+03  0.14853080870E+04  0.46999998093E+01 0. -1.
       -5    1    3    3    0  502 -0.10695587305E+04 -0.42960883897E+03  0.21064208513E+03  0.11717131946E+04  0.46999998093E+01 0.  1.
</event>
<event>
 5   0  0.3347728E-05  0.2399722E+04  0.7818609E-02  0.8439608E-01
       -2   -1    0    0    0  501  0.00000000000E+00  0.00000000000E+00  0.71604508040E+03  0.71604508040E+03  0.25500000920E-02 0.  1.
        2   -1    0    0  501    0  0.00000000000E+00  0.00000000000E+00 -0.20105812516E+04  0.20105812516E+04  0.25500000920E-02 0. -1.
    10030    2    1    2    0    0  0.00000000000E+00  0.00000000000E+00 -0.12945361712E+04  0.27266263320E+04  0.23997223289E+04 0.  0.
        3    1    3    3  502    0 -0.76039257187E+02 -0.12755745743E+03  0.70556313726E+03  0.72102165324E+03  0.10100000352E+00 0.  1.
       -3    1    3    3    0  502  0.76039257187E+02  0.12755745743E+03 -0.20000993085E+04  0.20056046788E+04  0.10100000352E+00 0. -1.
</event>
<event>
 5   0  0.1407158E-05  0.2395891E+04  0.7818609E-02  0.8441043E-01
        1   -1    0    0  501    0  0.00000000000E+00  0.00000000000E+00  0.16289614803E+04  0.16289614803E+04  0.50400001928E-02 0.  1.
       -1   -1    0    0    0  501  0.00000000000E+00  0.00000000000E+00 -0.88097474925E+03  0.88097474926E+03  0.50400001928E-02 0. -1.
    10030    2    1    2    0    0  0.00000000000E+00  0.00000000000E+00  0.74798673109E+03  0.25099362296E+04  0.23958914263E+04 0.  0.
        1    1    3    3  502    0  0.81490642909E+03  0.23333779366E+03  0.12607823596E+04  0.15192403274E+04  0.50400001928E-02 0.  1.
       -1    1    3    3    0  502 -0.81490642909E+03 -0.23333779366E+03 -0.51279562846E+03  0.99069590224E+03  0.50400001928E-02 0. -1.
</event>
<event>
 5   0  0.1393026E-05  0.2405851E+04  0.7818609E-02  0.8437316E-01
        1   -1    0    0  501    0  0.00000000000E+00  0.00000000000E+00  0.12720651178E+04  0.12720651178E+04  0.50400001928E-02 0.  1.
       -1   -1    0    0    0  501  0.00000000000E+00  0.00000000000E+00 -0.11375434436E+04  0.11375434436E+04  0.50400001928E-02 0. -1.
    10030    2    1    2    0    0  0.00000000000E+00  0.00000000000E+00  0.13452167418E+03  0.24096085614E+04  0.24058506476E+04 0.  0.
        4    1    3    3  502    0  0.97321988525E+03  0.44251884344E+03  0.61952746736E+03  0.12356357746E+04  0.12699999809E+01 0.  1.
       -4    1    3    3    0  502 -0.97321988525E+03 -0.44251884344E+03 -0.48500579317E+03  0.11739727868E+04  0.12699999809E+01 0. -1.
</event>
<event>
 5   0  0.1434943E-05  0.2359436E+04  0.7818609E-02  0.8454848E-01
       -1   -1    0    0    0  501  0.00000000000E+00  0.00000000000E+00  0.15125842860E+04  0.15125842860E+04  0.50400001928E-02 0.  1.
        1   -1    0    0  501    0  0.00000000000E+00  0.00000000000E+00 -0.92010394645E+03  0.92010394646E+03  0.50400001928E-02 0. -1.
    10030    2    1    2    0    0  0.00000000000E+00  0.00000000000E+00  0.59248033959E+03  0.24326882325E+04  0.23594361792E+04 0.  0.
        5    1    3    3  502    0 -0.53629818395E+03  0.50427642653E+03 -0.65422706823E+03  0.98485816403E+03  0.46999998093E+01 0. -1.
       -5    1    3    3    0  502  0.53629818395E+03 -0.50427642653E+03  0.12467074078E+04  0.14478300685E+04  0.46999998093E+01 0.  1.
</event>
<event>
 5   0  0.3310037E-05  0.2486999E+04  0.7818609E-02  0.8407632E-01
       -2   -1    0    0    0  501  0.00000000000E+00  0.00000000000E+00  0.10988304239E+04  0.10988304239E+04  0.25500000920E-02 0. -1.
        2   -1    0    0  501    0  0.00000000000E+00  0.00000000000E+00 -0.14072154735E+04  0.14072154735E+04  0.25500000920E-02 0.  1.
    10030    2    1    2    0    0  0.00000000000E+00  0.00000000000E+00 -0.30838504961E+03  0.25060458974E+04  0.24869991358E+04 0.  0.
        2    1    3    3  502    0  0.79142565112E+03 -0.74324157163E+03  0.45669174861E+03  0.11778497138E+04  0.25500000920E-02 0. -1.
       -2    1    3    3    0  502 -0.79142565112E+03  0.74324157163E+03 -0.76507679823E+03  0.13281961836E+04  0.25500000920E-02 0.  1.
</event>
<event>
 5   0  0.1506985E-05  0.2374746E+04  0.7818609E-02  0.8449019E-01
       -1   -1    0    0    0  501  0.00000000000E+00  0.00000000000E+00  0.84216461171E+03  0.84216461172E+03  0.50400001928E-02 0. -1.
        1   -1    0    0  501    0  0.00000000000E+00  0.00000000000E+00 -0.16740847301E+04  0.16740847301E+04  0.50400001928E-02 0.  1.
    10030    2    1    2    0    0  0.00000000000E+00  0.00000000000E+00 -0.83192011839E+03  0.25162493418E+04  0.23747462321E+04 0.  0.
        3    1    3    3  502    0 -0.30029784482E+03 -0.22794212240E+03 -0.16089804897E+04  0.16525600241E+04  0.10100000352E+00 0.  1.
       -3    1    3    3    0  502  0.30029784482E+03  0.22794212240E+03  0.77706037130E+03  0.86368931776E+03  0.10100000352E+00 0. -1.
</event>
<event>
 5   0  0.1393026E-05  0.2381365E+04  0.7818609E-02  0.8446513E-01
       -1   -1    0    0    0  501  0.00000000000E+00  0.00000000000E+00  0.11588182842E+04  0.11588182842E+04  0.50400001928E-02 0.  1.
        1   -1    0    0  501    0  0.00000000000E+00  0.00000000000E+00 -0.12234225151E+04  0.12234225151E+04  0.50400001928E-02 0. -1.
    10030    2    1    2    0    0  0.00000000000E+00  0.00000000000E+00 -0.64604230860E+02  0.23822407993E+04  0.23813646339E+04 0.  0.
        4    1    3    3  502    0 -0.40240874356E+03  0.81689534693E+03  0.73509938959E+03  0.11703091601E+04  0.12699999809E+01 0.  1.
       -4    1    3    3    0  502  0.40240874356E+03 -0.81689534693E+03 -0.79970362045E+03  0.12119316392E+04  0.12699999809E+01 0. -1.
</event>
<event>
 5   0  0.3345974E-05  0.2419492E+04  0.7818609E-02  0.8432242E-01
        2   -1    0    0  501    0  0.00000000000E+00  0.00000000000E+00  0.24949000332E+04  0.24949000332E+04  0.25500000920E-02 0.  1.
       -2   -1    0    0    0  501  0.00000000000E+00  0.00000000000E+00 -0.58659071772E+03  0.58659071772E+03  0.25500000920E-02 0. -1.
    10030    2    1    2    0    0  0.00000000000E+00  0.00000000000E+00  0.19083093155E+04  0.30814907509E+04  0.24194918484E+04 0.  0.
        4    1    3    3  502    0 -0.84306784596E+03 -0.64626092415E+03  0.21692543369E+03  0.10841931708E+04  0.12699999809E+01 0. -1.
       -4    1    3    3    0  502  0.84306784596E+03  0.64626092415E+03  0.16913838818E+04  0.19972975801E+04  0.12699999809E+01 0.  1.
</event>
<event>
 5   0  0.1393026E-05  0.2412943E+04  0.7818609E-02  0.8434674E-01
       -1   -1    0    0    0  501  0.00000000000E+00  0.00000000000E+00  0.75471137881E+03  0.75471137883E+03  0.50400001928E-02 0. -1.
        1   -1    0    0  501    0  0.00000000000E+00  0.00000000000E+00 -0.19286491710E+04  0.19286491710E+04  0.50400001928E-02 0.  1.
    10030    2    1    2    0    0  0.00000000000E+00  0.00000000000E+00 -0.11739377922E+04  0.26833605499E+04  0.24129429957E+04 0.  0.
        4    1    3    3  502    0  0.59759315035E+03 -0.57410288947E+03  0.38814567844E+03  0.91507944006E+03  0.12699999809E+01 0. -1.
       -4    1    3    3    0  502 -0.59759315035E+03  0.57410288947E+03 -0.15620834707E+04  0.17682811098E+04  0.12699999809E+01 0.  1.
</event>
<event>
 5   0  0.1393026E-05  0.2396365E+04  0.7818609E-02  0.8440866E-01
       -1   -1    0    0    0  501  0.00000000000E+00  0.00000000000E+00  0.15969781254E+04  0.15969781254E+04  0.50400001928E-02 0.  1.
        1   -1    0    0  501    0  0.00000000000E+00  0.00000000000E+00 -0.89897370300E+03  0.89897370301E+03  0.50400001928E-02 0. -1.
    10030    2    1    2    0    0  0.00000000000E+00  0.00000000000E+00  0.69800442235E+03  0.24959518284E+04  0.23963650298E+04 0.  0.
        4    1    3    3  502    0 -0.12305703698E+01  0.93344706427E+03  0.11314294159E+04  0.14667852850E+04  0.12699999809E+01 0.  1.
       -4    1    3    3    0  502  0.12305703698E+01 -0.93344706427E+03 -0.43342499358E+03  0.10291665434E+04  0.12699999809E+01 0. -1.
</event>
<event>
 5   0  0.1407158E-05  0.2423011E+04  0.7818609E-02  0.8430938E-01
       -1   -1    0    0    0  501  0.00000000000E+00  0.00000000000E+00  0.12195883714E+04  0.12195883714E+04  0.50400001928E-02 0. -1.
        1   -1    0    0  501    0  0.00000000000E+00  0.00000000000E+00 -0.12034763602E+04  0.12034763603E+04  0.50400001928E-02 0.  1.
    10030    2    1    2    0    0  0.00000000000E+00  0.00000000000E+00  0.16112011173E+02  0.24230647317E+04  0.24230111632E+04 0.  0.
        1    1    3    3  502    0 -0.11271076749E+04 -0.26298396053E+03 -0.35002103812E+03  0.12091513559E+04  0.50400001928E-02 0.  1.
       -1    1    3    3    0  502  0.11271076749E+04  0.26298396053E+03  0.36613304930E+03  0.12139133758E+04  0.50400001928E-02 0. -1.
</event>
<event>
 5   0  0.3215208E-05  0.2403045E+04  0.7818609E-02  0.8438364E-01
        2   -1    0    0  501    0  0.00000000000E+00  0.00000000000E+00  0.14869054540E+04  0.14869054540E+04  0.25500000920E-02 0. -1.
       -2   -1    0    0    0  501  0.00000000000E+00  0.00000000000E+00 -0.97091328579E+03  0.97091328580E+03  0.25500000920E-02 0.  1.
    10030    2    1    2    0    0  0.00000000000E+00  0.00000000000E+00  0.51599216817E+03  0.24578187398E+04  0.24030449517E+04 0.  0.
        1    1    3    3  502    0 -0.47781575443E+03  0.61297405575E+03  0.11951848210E+04  0.14256618971E+04  0.50400001928E-02 0. -1.
       -1    1    3    3    0  502  0.47781575443E+03 -0.61297405575E+03 -0.67919265288E+03  0.10321568427E+04  0.50400001928E-02 0.  1.
</event>
<event>
 5   0  0.1506985E-05  0.2401020E+04  0.7818609E-02  0.8439122E-01
        1   -1    0    0  501    0  0.00000000000E+00  0.00000000000E+00  0.13394862844E+04  0.13394862844E+04  0.50400001928E-02 0.  1.
       -1   -1    0    0    0  501  0.00000000000E+00  0.00000000000E+00 -0.10759531729E+04  0.10759531729E+04  0.50400001928E-02 0. -1.
    10030    2    1    2    0    0  0.00000000000E+00  0.00000000000E+00  0.26353311152E+03  0.24154394573E+04  0.24010202146E+04 0.  0.
        3    1    3    3  502    0  0.10696734101E+04 -0.37483197154E+03  0.52977402287E+03  0.12511437714E+04  0.10100000352E+00 0.  1.
       -3    1    3    3    0  502 -0.10696734101E+04  0.37483197154E+03 -0.26624091136E+03  0.11642956859E+04  0.10100000352E+00 0. -1.
</event>
<event>
 5   0  0.3310037E-05  0.2412386E+04  0.7818609E-02  0.8434881E-01
        2   -1    0    0  501    0  0.00000000000E+00  0.00000000000E+00  0.11759179125E+04  0.11759179125E+04  0.25500000920E-02 0.  1.
       -2   -1    0    0    0  501  0.00000000000E+00  0.00000000000E+00 -0.12372478185E+04  0.12372478185E+04  0.25500000920E-02 0. -1.
    10030    2    1    2    0    0  0.00000000000E+00  0.00000000000E+00 -0.61329905916E+02  0.24131657310E+04  0.24123862642E+04 0.  0.
        2    1    3    3  502    0 -0.30056734493E+03  0.33137021706E+03 -0.11511853239E+04  0.12350605652E+04  0.25500000920E-02 0. -1.
       -2    1    3    3    0  502  0.30056734493E+03 -0.33137021706E+03  0.10898554180E+04  0.11781051658E+04  0.25500000920E-02 0.  1.
</event>
<event>
 5   0  0.3347728E-05  0.2398446E+04  0.7818609E-02  0.8440086E-01
        2   -1    0    0  501    0  0.00000000000E+00  0.00000000000E+00  0.13262257185E+04  0.13262257185E+04  0.25500000920E-02 0. -1.
       -2   -1    0    0    0  501  0.00000000000E+00  0.00000000000E+00 -0.10843823123E+04  0.10843823123E+04  0.25500000920E-02 0.  1.
    10030    2    1    2    0    0  0.00000000000E+00  0.00000000000E+00  0.24184340612E+03  0.24106080308E+04  0.23984459229E+04 0.  0.
        3    1    3    3  502    0  0.11819058163E+04  0.19285162447E+03  0.57017899807E+02  0.11988928887E+04  0.10100000352E+00 0. -1.
       -3    1    3    3    0  502 -0.11819058163E+04 -0.19285162447E+03  0.18482550632E+03  0.12117151421E+04  0.10100000352E+00 0.  1.
</event>
<event>
 5   0  0.1434943E-05  0.2616878E+04  0.7818609E-02  0.8362491E-01
       -1   -1    0    0    0  501  0.00000000000E+00  0.00000000000E+00  0.14244787225E+04  0.14244787225E+04  0.50400001928E-02 0. -1.
        1   -1    0    0  501    0  0.00000000000E+00  0.00000000000E+00 -0.12018521410E+04  0.12018521410E+04  0.50400001928E-02 0.  1.
    10030    2    1    2    0    0  0.00000000000E+00  0.00000000000E+00  0.22262658151E+03  0.26263308635E+04  0.26168781419E+04 0.  0.
        5    1    3    3  502    0 -0.68357121875E+03 -0.95894238584E+02  0.12268703174E+04  0.14077280212E+04  0.46999998093E+01 0. -1.
       -5    1    3    3    0  502  0.68357121875E+03  0.95894238584E+02 -0.10042437359E+04  0.12186028423E+04  0.46999998093E+01 0.  1.
</event>
<event>
 5   0  0.3345974E-05  0.2324673E+04  0.7818609E-02  0.8468256E-01
        2   -1    0    0  501    0  0.00000000000E+00  0.00000000000E+00  0.16129051195E+04  0.16129051195E+04  0.25500000920E-02 0. -1.
       -2   -1    0    0    0  501  0.00000000000E+00  0.00000000000E+00 -0.83763487365E+03  0.83763487365E+03  0.25500000920E-02 0.  1.
    10030    2    1    2    0    0  0.00000000000E+00  0.00000000000E+00  0.77527024586E+03  0.24505399932E+04  0.23246725154E+04 0.  0.
        4    1    3    3  502    0 -0.13580060789E+03  0.13540064951E+03  0.15961132990E+04  0.16075927399E+04  0.12699999809E+01 0. -1.
       -4    1    3    3    0  502  0.13580060789E+03 -0.13540064951E+03 -0.82084305318E+03  0.84294725330E+03  0.12699999809E+01 0.  1.
</event>
<event>
 5   0  0.3345974E-05  0.2289665E+04  0.7818609E-02  0.8482007E-01
        2   -1    0    0  501    0  0.00000000000E+00  0.00000000000E+00  0.12778338185E+04  0.12778338185E+04  0.25500000920E-02 0.  1.
       -2   -1    0    0    0  501  0.00000000000E+00  0.00000000000E+00 -0.10256747772E+04  0.10256747773E+04  0.25500000920E-02 0. -1.
    10030    2    1    2    0    0  0.00000000000E+00  0.00000000000E+00  0.25215904127E+03  0.23035085958E+04  0.22896654054E+04 0.  0.
        4    1    3    3  502    0 -0.13351130182E+03  0.14092381029E+03  0.12611541809E+04  0.12760079424E+04  0.12699999809E+01 0.  1.
       -4    1    3    3    0  502  0.13351130182E+03 -0.14092381029E+03 -0.10089951396E+04  0.10275006534E+04  0.12699999809E+01 0. -1.
</event>
<event>
 5   0  0.3310037E-05  0.2381706E+04  0.7818609E-02  0.8446384E-01
       -2   -1    0    0    0  501  0.00000000000E+00  0.00000000000E+00  0.11381313012E+04  0.11381313012E+04  0.25500000920E-02 0. -1.
        2   -1    0    0  501    0  0.00000000000E+00  0.00000000000E+00 -0.12460168995E+04  0.12460168995E+04  0.25500000920E-02 0.  1.
    10030    2    1    2    0    0  0.00000000000E+00  0.00000000000E+00 -0.10788559834E+03  0.23841482007E+04  0.23817059728E+04 0.  0.
        2    1    3    3  502    0 -0.40134513335E+03 -0.27668280202E+03  0.10336792778E+04  0.11428578820E+04  0.25500000920E-02 0. -1.
       -2    1    3    3    0  502  0.40134513335E+03  0.27668280202E+03 -0.11415648762E+04  0.12412903188E+04  0.25500000920E-02 0.  1.
</event>
<event>
 5   0  0.1434943E-05  0.2325260E+04  0.7818609E-02  0.8468028E-01
        1   -1    0    0  501    0  0.00000000000E+00  0.00000000000E+00  0.15972788930E+04  0.15972788930E+04  0.50400001928E-02 0.  1.
       -1   -1    0    0    0  501  0.00000000000E+00  0.00000000000E+00 -0.84625693810E+03  0.84625693812E+03  0.50400001928E-02 0. -1.
    10030    2    1    2    0    0  0.00000000000E+00  0.00000000000E+00  0.75102195493E+03  0.24435358312E+04  0.23252598524E+04 0.  0.
        5    1    3    3  502    0 -0.11236113509E+04  0.27369841130E+03  0.50105740233E+03  0.12603546718E+04  0.46999998093E+01 0. -1.
       -5    1    3    3    0  502  0.11236113509E+04 -0.27369841130E+03  0.24996455261E+03  0.11831811594E+04  0.46999998093E+01 0.  1.
</event>
<event>
 5   0  0.3347728E-05  0.2383803E+04  0.7818609E-02  0.8445592E-01
        2   -1    0    0  501    0  0.00000000000E+00  0.00000000000E+00  0.14461262635E+04  0.14461262635E+04  0.25500000920E-02 0.  1.
       -2   -1    0    0    0  501  0.00000000000E+00  0.00000000000E+00 -0.98236885310E+03  0.98236885311E+03  0.25500000920E-02 0. -1.
    10030    2    1    2    0    0  0.00000000000E+00  0.00000000000E+00  0.46375741038E+03  0.24284951166E+04  0.23838031789E+04 0.  0.
        3    1    3    3  502    0  0.75318055784E+03  0.70661703993E+03  0.83804738568E+03  0.13300045205E+04  0.10100000352E+00 0.  1.
       -3    1    3    3    0  502 -0.75318055784E+03 -0.70661703993E+03 -0.37428997530E+03  0.10984905961E+04  0.10100000352E+00 0. -1.
</event>
<event>
 5   0  0.1147362E-05  0.2394886E+04  0.7818609E-02  0.8441420E-01
       -3   -1    0    0    0  501  0.00000000000E+00  0.00000000000E+00  0.14623256277E+04  0.14623256312E+04  0.10100000352E+00 0.  1.
        3   -1    0    0  501    0  0.00000000000E+00  0.00000000000E+00 -0.98054100125E+03  0.98054100646E+03  0.10100000352E+00 0. -1.
    10030    2    1    2    0    0  0.00000000000E+00  0.00000000000E+00  0.48178462649E+03  0.24428666377E+04  0.23948864239E+04 0.  0.
        4    1    3    3  502    0  0.11378684562E+04 -0.13106395543E+02  0.62112338120E+03  0.12964228742E+04  0.12699999809E+01 0.  1.
       -4    1    3    3    0  502 -0.11378684562E+04  0.13106395543E+02 -0.13933875470E+03  0.11464437634E+04  0.12699999809E+01 0. -1.
</event>
<event>
 5   0  0.1506985E-05  0.2392182E+04  0.7818609E-02  0.8442436E-01
        1   -1    0    0  501    0  0.00000000000E+00  0.00000000000E+00  0.14630143960E+04  0.14630143960E+04  0.50400001928E-02 0.  1.
       -1   -1    0    0    0  501  0.00000000000E+00  0.00000000000E+00 -0.97786747316E+03  0.97786747318E+03  0.50400001928E-02 0. -1.
    10030    2    1    2    0    0  0.00000000000E+00  0.00000000000E+00  0.48514692286E+03  0.24408818692E+04  0.23921824267E+04 0.  0.
        3    1    3    3  502    0 -0.17788918851E+03  0.45543465549E+03  0.13563858499E+04  0.14418210267E+04  0.10100000352E+00 0.  1.
       -3    1    3    3    0  502  0.17788918851E+03 -0.45543465549E+03 -0.87123892709E+03  0.99906084254E+03  0.10100000352E+00 0. -1.
</event>
<event>
 5   0  0.1147362E-05  0.2418509E+04  0.7818609E-02  0.8432606E-01
       -3   -1    0    0    0  501  0.00000000000E+00  0.00000000000E+00  0.16538358251E+04  0.16538358282E+04  0.10100000352E+00 0. -1.
        3   -1    0    0  501    0  0.00000000000E+00  0.00000000000E+00 -0.88418474667E+03  0.88418475244E+03  0.10100000352E+00 0.  1.
    10030    2    1    2    0    0  0.00000000000E+00  0.00000000000E+00  0.76965107843E+03  0.25380205806E+04  0.24185089798E+04 0.  0.
        3    1    3    3  502    0  0.93263926361E+03 -0.75775593026E+03  0.24291615031E+03  0.12259764729E+04  0.10100000352E+00 0.  1.
       -3    1    3    3    0  502 -0.93263926361E+03  0.75775593026E+03  0.52673492812E+03  0.13120441077E+04  0.10100000352E+00 0. -1.
</event>
<event>
 5   0  0.3345974E-05  0.2411365E+04  0.7818609E-02  0.8435261E-01
       -2   -1    0    0    0  501  0.00000000000E+00  0.00000000000E+00  0.13967069946E+04  0.13967069946E+04  0.25500000920E-02 0. -1.
        2   -1    0    0  501    0  0.00000000000E+00  0.00000000000E+00 -0.10407839660E+04  0.10407839660E+04  0.25500000920E-02 0.  1.
    10030    2    1    2    0    0  0.00000000000E+00  0.00000000000E+00  0.35592302858E+03  0.24374909606E+04  0.24113649622E+04 0.  0.
        4    1    3    3  502    0 -0.85260257188E+03 -0.45163497165E+03  0.90881888176E+03  0.13254654526E+04  0.12699999809E+01 0. -1.
       -4    1    3    3    0  502  0.85260257188E+03  0.45163497165E+03 -0.55289585317E+03  0.11120255080E+04  0.12699999809E+01 0.  1.
</event>
<event>
 5   0  0.1393026E-05  0.2415869E+04  0.7818609E-02  0.8433586E-01
        1   -1    0    0  501    0  0.00000000000E+00  0.00000000000E+00  0.13193380962E+04  0.13193380962E+04  0.50400001928E-02 0.  1.
       -1   -1    0    0    0  501  0.00000000000E+00  0.00000000000E+00 -0.11059377116E+04  0.11059377116E+04  0.50400001928E-02 0. -1.
    10030    2    1    2    0    0  0.00000000000E+00  0.00000000000E+00  0.21340038462E+03  0.24252758078E+04  0.24158689989E+04 0.  0.
        4    1    3    3  502    0  0.68891749060E+02 -0.13582591712E+03 -0.10962600425E+04  0.11067892512E+04  0.12699999809E+01 0. -1.
       -4    1    3    3    0  502 -0.68891749060E+02  0.13582591712E+03  0.13096604271E+04  0.13184865566E+04  0.12699999809E+01 0.  1.
</event>
<event>
 5   0  0.1506985E-05  0.2280049E+04  0.7818609E-02  0.8485829E-01
        1   -1    0    0  501    0  0.00000000000E+00  0.00000000000E+00  0.21411866666E+04  0.21411866666E+04  0.50400001928E-02 0.  1.
       -1   -1    0    0    0  501  0.00000000000E+00  0.00000000000E+00 -0.60697898255E+03  0.60697898257E+03  0.50400001928E-02 0. -1.
    10030    2    1    2    0    0  0.00000000000E+00  0.00000000000E+00  0.15342076841E+04  0.27481656492E+04  0.22800485121E+04 0.  0.
        3    1    3    3  502    0 -0.66296268006E+03  0.47474126520E+03 -0.19318614662E+03  0.83798549001E+03  0.10100000352E+00 0. -1.
       -3    1    3    3    0  502  0.66296268006E+03 -0.47474126520E+03  0.17273938307E+04  0.19101801592E+04  0.10100000352E+00 0.  1.
</event>
<event>
 5   0  0.3310037E-05  0.2390648E+04  0.7818609E-02  0.8443013E-01
       -2   -1    0    0    0  501  0.00000000000E+00  0.00000000000E+00  0.89874230061E+03  0.89874230062E+03  0.25500000920E-02 0. -1.
        2   -1    0    0  501    0  0.00000000000E+00  0.00000000000E+00 -0.15897769624E+04  0.15897769624E+04  0.25500000920E-02 0.  1.
    10030    2    1    2    0    0  0.00000000000E+00  0.00000000000E+00 -0.69103466178E+03  0.24885192630E+04  0.23906482842E+04 0.  0.
        2    1    3    3  502    0 -0.26740980460E+03 -0.99149278338E+03 -0.98230824854E+03  0.14210895251E+04  0.25500000920E-02 0.  1.
       -2    1    3    3    0  502  0.26740980460E+03  0.99149278338E+03  0.29127358677E+03  0.10674297379E+04  0.25500000920E-02 0. -1.
</event>
<event>
 5   0  0.1506985E-05  0.2405057E+04  0.7818609E-02  0.8437613E-01
       -1   -1    0    0    0  501  0.00000000000E+00  0.00000000000E+00  0.72959987566E+03  0.72959987568E+03  0.50400001928E-02 0. -1.
        1   -1    0    0  501    0  0.00000000000E+00  0.00000000000E+00 -0.19820115274E+04  0.19820115274E+04  0.50400001928E-02 0.  1.
    10030    2    1    2    0    0  0.00000000000E+00  0.00000000000E+00 -0.12524116517E+04  0.27116114031E+04  0.24050574746E+04 0.  0.
        3    1    3    3  502    0  0.59007555825E+02 -0.11536011105E+04 -0.24922531991E+03  0.11816897579E+04  0.10100000352E+00 0. -1.
       -3    1    3    3    0  502 -0.59007555825E+02  0.11536011105E+04 -0.10031863318E+04  0.15299216452E+04  0.10100000352E+00 0.  1.
</event>
<event>
 5   0  0.3345974E-05  0.2428550E+04  0.7818609E-02  0.8428891E-01
       -2   -1    0    0    0  501  0.00000000000E+00  0.00000000000E+00  0.12171560624E+04  0.12171560624E+04  0.25500000920E-02 0.  1.
        2   -1    0    0  501    0  0.00000000000E+00  0.00000000000E+00 -0.12114012006E+04  0.12114012006E+04  0.25500000920E-02 0. -1.
    10030    2    1    2    0    0  0.00000000000E+00  0.00000000000E+00  0.57548618082E+01  0.24285572629E+04  0.24285504444E+04 0.  0.
        4    1    3    3  502    0  0.68199604705E+03  0.99921072241E+03  0.10738622315E+03  0.12145262821E+04  0.12699999809E+01 0. -1.
       -4    1    3    3    0  502 -0.68199604705E+03 -0.99921072241E+03 -0.10163136134E+03  0.12140309809E+04  0.12699999809E+01 0.  1.
</event>
<event>
 5   0  0.3215208E-05  0.2453369E+04  0.7818609E-02  0.8419789E-01
        2   -1    0    0  501    0  0.00000000000E+00  0.00000000000E+00  0.11320060784E+04  0.11320060784E+04  0.25500000920E-02 0. -1.
       -2   -1    0    0    0  501  0.00000000000E+00  0.00000000000E+00 -0.13292821013E+04  0.13292821013E+04  0.25500000920E-02 0.  1.
    10030    2    1    2    0    0  0.00000000000E+00  0.00000000000E+00 -0.19727602296E+03  0.24612881797E+04  0.24533694533E+04 0.  0.
        1    1    3    3  502    0 -0.34839541201E+03  0.10753571211E+03 -0.12736622656E+04  0.13248240862E+04  0.50400001928E-02 0.  1.
       -1    1    3    3    0  502  0.34839541201E+03 -0.10753571211E+03  0.10763862426E+04  0.11364640935E+04  0.50400001928E-02 0. -1.
</event>
<event>
 5   0  0.3215208E-05  0.2289418E+04  0.7818609E-02  0.8482105E-01
       -2   -1    0    0    0  501  0.00000000000E+00  0.00000000000E+00  0.10569658675E+04  0.10569658675E+04  0.25500000920E-02 0. -1.
        2   -1    0    0  501    0  0.00000000000E+00  0.00000000000E+00 -0.12397362532E+04  0.12397362532E+04  0.25500000920E-02 0.  1.
    10030    2    1    2    0    0  0.00000000000E+00  0.00000000000E+00 -0.18277038564E+03  0.22967021207E+04  0.22894181832E+04 0.  0.
        1    1    3    3  502    0  0.43428686387E+03  0.65833222400E+03  0.74092457774E+03  0.10821162725E+04  0.50400001928E-02 0. -1.
       -1    1    3    3    0  502 -0.43428686387E+03 -0.65833222400E+03 -0.92369496338E+03  0.12145858482E+04  0.50400001928E-02 0.  1.
</event>
<event>
 5   0  0.3347728E-05  0.2366895E+04  0.7818609E-02  0.8452003E-01
        2   -1    0    0  501    0  0.00000000000E+00  0.00000000000E+00  0.25483736460E+04  0.25483736460E+04  0.25500000920E-02 0. -1.
       -2   -1    0    0    0  501  0.00000000000E+00  0.00000000000E+00 -0.54958492845E+03  0.54958492845E+03  0.25500000920E-02 0.  1.
    10030    2    1    2    0    0  0.00000000000E+00  0.00000000000E+00  0.19987887176E+04  0.30979585745E+04  0.23668947994E+04 0.  0.
        3    1    3    3  502    0 -0.59182438636E+03 -0.97489797256E+03  0.14130172418E+04  0.18158468815E+04  0.10100000352E+00 0. -1.
       -3    1    3    3    0  502  0.59182438636E+03  0.97489797256E+03  0.58577147572E+03  0.12821116929E+04  0.10100000352E+00 0.  1.
</event>
<event>
 5   0  0.3320780E-05  0.2381746E+04  0.7818609E-02  0.8446369E-01
        2   -1    0    0  501    0  0.00000000000E+00  0.00000000000E+00  0.11867032411E+04  0.11867032411E+04  0.25500000920E-02 0.  1.
       -2   -1    0    0    0  501  0.00000000000E+00  0.00000000000E+00 -0.11950577211E+04  0.11950577211E+04  0.25500000920E-02 0. -1.
    10030    2    1    2    0    0  0.00000000000E+00  0.00000000000E+00 -0.83544800855E+01  0.23817609622E+04  0.23817463097E+04 0.  0.
        5    1    3    3  502    0  0.60596568830E+02 -0.96263856231E+03  0.69426233301E+03  0.11884305713E+04  0.46999998093E+01 0.  1.
       -5    1    3    3    0  502 -0.60596568830E+02  0.96263856231E+03 -0.70261681309E+03  0.11933303909E+04  0.46999998093E+01 0. -1.
</event>
<event>
 5   0  0.1506985E-05  0.2278709E+04  0.7818609E-02  0.8486364E-01
       -1   -1    0    0    0  501  0.00000000000E+00  0.00000000000E+00  0.12124687584E+04  0.12124687584E+04  0.50400001928E-02 0.  1.
        1   -1    0    0  501    0  0.00000000000E+00  0.00000000000E+00 -0.10706489750E+04  0.10706489750E+04  0.50400001928E-02 0. -1.
    10030    2    1    2    0    0  0.00000000000E+00  0.00000000000E+00  0.14181978341E+03  0.22831177334E+04  0.22787087865E+04 0.  0.
        3    1    3    3  502    0  0.86709185063E+03 -0.67419510392E+03  0.37438387845E+03  0.11604096752E+04  0.10100000352E+00 0.  1.
       -3    1    3    3    0  502 -0.86709185063E+03  0.67419510392E+03 -0.23256409505E+03  0.11227080583E+04  0.10100000352E+00 0. -1.
</event>
<event>
 5   0  0.1393026E-05  0.2375697E+04  0.7818609E-02  0.8448658E-01
        1   -1    0    0  501    0  0.00000000000E+00  0.00000000000E+00  0.16394429918E+04  0.16394429918E+04  0.50400001928E-02 0.  1.
       -1   -1    0    0    0  501  0.00000000000E+00  0.00000000000E+00 -0.86064876333E+03  0.86064876335E+03  0.50400001928E-02 0. -1.
    10030    2    1    2    0    0  0.00000000000E+00  0.00000000000E+00  0.77879422848E+03  0.25000917552E+04  0.23756974416E+04 0.  0.
        4    1    3    3  502    0  0.98853014343E+03 -0.37430920841E+03 -0.18090472332E+03  0.10723932860E+04  0.12699999809E+01 0. -1.
       -4    1    3    3    0  502 -0.98853014343E+03  0.37430920841E+03  0.95969895180E+03  0.14276984692E+04  0.12699999809E+01 0.  1.
</event>
<event>
 5   0  0.3345974E-05  0.2400152E+04  0.7818609E-02  0.8439447E-01
        2   -1    0    0  501    0  0.00000000000E+00  0.00000000000E+00  0.13678696292E+04  0.13678696292E+04  0.25500000920E-02 0. -1.
       -2   -1    0    0    0  501  0.00000000000E+00  0.00000000000E+00 -0.10528650676E+04  0.10528650676E+04  0.25500000920E-02 0.  1.
    10030    2    1    2    0    0  0.00000000000E+00  0.00000000000E+00  0.31500456165E+03  0.24207346968E+04  0.24001517866E+04 0.  0.
        4    1    3    3  502    0 -0.97675417367E+03 -0.64123487448E+03 -0.11861482433E+03  0.11744368733E+04  0.12699999809E+01 0.  1.
       -4    1    3    3    0  502  0.97675417367E+03  0.64123487448E+03  0.43361938598E+03  0.12462978235E+04  0.12699999809E+01 0. -1.
</event>
<event>
 5   0  0.1506985E-05  0.2349374E+04  0.7818609E-02  0.8458704E-01
        1   -1    0    0  501    0  0.00000000000E+00  0.00000000000E+00  0.13952727273E+04  0.13952727273E+04  0.50400001928E-02 0. -1.
       -1   -1    0    0    0  501  0.00000000000E+00  0.00000000000E+00 -0.98897502960E+03  0.98897502962E+03  0.50400001928E-02 0.  1.
    10030    2    1    2    0    0  0.00000000000E+00  0.00000000000E+00  0.40629769772E+03  0.23842477569E+04  0.23493742885E+04 0.  0.
        3    1    3    3  502    0  0.26792820793E+03 -0.17818774270E+03 -0.94337912299E+03  0.99674499053E+03  0.10100000352E+00 0.  1.
       -3    1    3    3    0  502 -0.26792820793E+03  0.17818774270E+03  0.13496768207E+04  0.13875027664E+04  0.10100000352E+00 0. -1.
</event>
<event>
 5   0  0.1401596E-05  0.2408191E+04  0.7818609E-02  0.8436443E-01
       -1   -1    0    0    0  501  0.00000000000E+00  0.00000000000E+00  0.11300740911E+04  0.11300740911E+04  0.50400001928E-02 0.  1.
        1   -1    0    0  501    0  0.00000000000E+00  0.00000000000E+00 -0.12829652305E+04  0.12829652305E+04  0.50400001928E-02 0. -1.
    10030    2    1    2    0    0  0.00000000000E+00  0.00000000000E+00 -0.15289113945E+03  0.24130393216E+04  0.24081908286E+04 0.  0.
        2    1    3    3  502    0  0.34239583390E+03  0.32417396202E+03 -0.11866121799E+04  0.12768602626E+04  0.25500000920E-02 0. -1.
       -2    1    3    3    0  502 -0.34239583390E+03 -0.32417396202E+03  0.10337210404E+04  0.11361790590E+04  0.25500000920E-02 0.  1.
</event>
<event>
 5   0  0.1506985E-05  0.2378637E+04  0.7818609E-02  0.8447545E-01
       -1   -1    0    0    0  501  0.00000000000E+00  0.00000000000E+00  0.15383673759E+04  0.15383673759E+04  0.50400001928E-02 0. -1.
        1   -1    0    0  501    0  0.00000000000E+00  0.00000000000E+00 -0.91946735515E+03  0.91946735517E+03  0.50400001928E-02 0.  1.
    10030    2    1    2    0    0  0.00000000000E+00  0.00000000000E+00  0.61890002070E+03  0.24578347310E+04  0.23786370739E+04 0.  0.
        3    1    3    3  502    0 -0.59582128513E+03 -0.10031284783E+04  0.54780065194E+03  0.12889357285E+04  0.10100000352E+00 0. -1.
       -3    1    3    3    0  502  0.59582128513E+03  0.10031284783E+04  0.71099368762E+02  0.11688990025E+04  0.10100000352E+00 0.  1.
</event>
<event>
 5   0  0.1506985E-05  0.2381455E+04  0.7818609E-02  0.8446479E-01
       -1   -1    0    0    0  501  0.00000000000E+00  0.00000000000E+00  0.15648978178E+04  0.15648978178E+04  0.50400001928E-02 0.  1.
        1   -1    0    0  501    0  0.00000000000E+00  0.00000000000E+00 -0.90602178436E+03  0.90602178437E+03  0.50400001928E-02 0. -1.
    10030    2    1    2    0    0  0.00000000000E+00  0.00000000000E+00  0.65887603341E+03  0.24709196021E+04  0.23814546086E+04 0.  0.
        3    1    3    3  502    0  0.88204390996E+03  0.41568834224E+02 -0.49938420282E+03  0.10144525712E+04  0.10100000352E+00 0. -1.
       -3    1    3    3    0  502 -0.88204390996E+03 -0.41568834224E+02  0.11582602362E+04  0.14564670309E+04  0.10100000352E+00 0.  1.
</event>
<event>
 5   0  0.1434943E-05  0.2433981E+04  0.7818609E-02  0.8426890E-01
       -1   -1    0    0    0  501  0.00000000000E+00  0.00000000000E+00  0.14105482066E+04  0.14105482066E+04  0.50400001928E-02 0. -1.
        1   -1    0    0  501    0  0.00000000000E+00  0.00000000000E+00 -0.10499933608E+04  0.10499933608E+04  0.50400001928E-02 0.  1.
    10030    2    1    2    0    0  0.00000000000E+00  0.00000000000E+00  0.36055484581E+03  0.24605415674E+04  0.24339813081E+04 0.  0.
        5    1    3    3  502    0 -0.19977440686E+03 -0.10398622696E+03  0.13892884372E+04  0.14074329116E+04  0.46999998093E+01 0. -1.
       -5    1    3    3    0  502  0.19977440686E+03  0.10398622696E+03 -0.10287335913E+04  0.10531086558E+04  0.46999998093E+01 0.  1.
</event>
<event>
 5   0  0.1401596E-05  0.2374751E+04  0.7818609E-02  0.8449017E-01
        1   -1    0    0  501    0  0.00000000000E+00  0.00000000000E+00  0.97522376995E+03  0.97522376996E+03  0.50400001928E-02 0. -1.
       -1   -1    0    0    0  501  0.00000000000E+00  0.00000000000E+00 -0.14456784966E+04  0.14456784966E+04  0.50400001928E-02 0.  1.
    10030    2    1    2    0    0  0.00000000000E+00  0.00000000000E+00 -0.47045472668E+03  0.24209022666E+04  0.23747505415E+04 0.  0.
        2    1    3    3  502    0  0.76176658925E+03  0.51210876848E+03  0.53261469182E+03  0.10612361364E+04  0.25500000920E-02 0. -1.
       -2    1    3    3    0  502 -0.76176658925E+03 -0.51210876848E+03 -0.10030694185E+04  0.13596661302E+04  0.25500000920E-02 0.  1.
</event>
<event>
 5   0  0.1401596E-05  0.2418792E+04  0.7818609E-02  0.8432501E-01
       -1   -1    0    0    0  501  0.00000000000E+00  0.00000000000E+00  0.17942839668E+04  0.17942839668E+04  0.50400001928E-02 0.  1.
        1   -1    0    0  501    0  0.00000000000E+00  0.00000000000E+00 -0.81516568156E+03  0.81516568158E+03  0.50400001928E-02 0. -1.
    10030    2    1    2    0    0  0.00000000000E+00  0.00000000000E+00  0.97911828526E+03  0.26094496484E+04  0.24187920231E+04 0.  0.
        2    1    3    3  502    0 -0.96025947711E+03 -0.51841815938E+03 -0.72861932990E+02  0.10936930614E+04  0.25500000920E-02 0. -1.
       -2    1    3    3    0  502  0.96025947711E+03  0.51841815938E+03  0.10519802182E+04  0.15157565870E+04  0.25500000920E-02 0.  1.
</event>
<event>
 5   0  0.3320780E-05  0.2387157E+04  0.7818609E-02  0.8444327E-01
       -2   -1    0    0    0  501  0.00000000000E+00  0.00000000000E+00  0.10646870511E+04  0.10646870511E+04  0.25500000920E-02 0. -1.
        2   -1    0    0  501    0  0.00000000000E+00  0.00000000000E+00 -0.13380741527E+04  0.13380741527E+04  0.25500000920E-02 0.  1.
    10030    2    1    2    0    0  0.00000000000E+00  0.00000000000E+00 -0.27338710156E+03  0.24027612039E+04  0.23871574928E+04 0.  0.
        5    1    3    3  502    0 -0.61506440889E+03 -0.58026198259E+03  0.71119022082E+03  0.11049080576E+04  0.46999998093E+01 0. -1.
       -5    1    3    3    0  502  0.61506440889E+03  0.58026198259E+03 -0.98457732238E+03  0.12978531463E+04  0.46999998093E+01 0.  1.
</event>
<event>
 5   0  0.1506985E-05  0.2316266E+04  0.7818609E-02  0.8471535E-01
       -1   -1    0    0    0  501  0.00000000000E+00  0.00000000000E+00  0.11448465345E+04  0.11448465345E+04  0.50400001928E-02 0. -1.
        1   -1    0    0  501    0  0.00000000000E+00  0.00000000000E+00 -0.11715737145E+04  0.11715737145E+04  0.50400001928E-02 0.  1.
    10030    2    1    2    0    0  0.00000000000E+00  0.00000000000E+00 -0.26727179978E+02  0.23164202490E+04  0.23162660529E+04 0.  0.
        3    1    3    3  502    0 -0.67672074122E+03  0.39558928945E+03 -0.86596374485E+03  0.11680475440E+04  0.10100000352E+00 0.  1.
       -3    1    3    3    0  502  0.67672074122E+03 -0.39558928945E+03  0.83923656487E+03  0.11483727050E+04  0.10100000352E+00 0. -1.
</event>
<event>
 5   0  0.3320780E-05  0.2376546E+04  0.7818609E-02  0.8448337E-01
        2   -1    0    0  501    0  0.00000000000E+00  0.00000000000E+00  0.85846119890E+03  0.85846119890E+03  0.25500000920E-02 0.  1.
       -2   -1    0    0    0  501  0.00000000000E+00  0.00000000000E+00 -0.16447949361E+04  0.16447949361E+04  0.25500000920E-02 0. -1.
    10030    2    1    2    0    0  0.00000000000E+00  0.00000000000E+00 -0.78633373716E+03  0.25032561350E+04  0.23765459245E+04 0.  0.
        5    1    3    3  502    0 -0.70676957305E+03 -0.33212124477E+03  0.55020934322E+03  0.95529061651E+03  0.46999998093E+01 0.  1.
       -5    1    3    3    0  502  0.70676957305E+03  0.33212124477E+03 -0.13365430804E+04  0.15479655185E+04  0.46999998093E+01 0. -1.
</event>
<event>
 5   0  0.1506985E-05  0.2399300E+04  0.7818609E-02  0.8439766E-01
       -1   -1    0    0    0  501  0.00000000000E+00  0.00000000000E+00  0.79531987370E+03  0.79531987372E+03  0.50400001928E-02 0.  1.
        1   -1    0    0  501    0  0.00000000000E+00  0.00000000000E+00 -0.18095366042E+04  0.18095366042E+04  0.50400001928E-02 0. -1.
    10030    2    1    2    0    0  0.00000000000E+00  0.00000000000E+00 -0.10142167305E+04  0.26048564779E+04  0.23993002509E+04 0.  0.
        3    1    3    3  502    0  0.80113048108E+03  0.89241157214E+03 -0.47361131117E+03  0.12893859570E+04  0.10100000352E+00 0. -1.
       -3    1    3    3    0  502 -0.80113048108E+03 -0.89241157214E+03 -0.54060541931E+03  0.13154705209E+04  0.10100000352E+00 0.  1.
</event>
<event>
 5   0  0.3345974E-05  0.2389412E+04  0.7818609E-02  0.8443478E-01
       -2   -1    0    0    0  501  0.00000000000E+00  0.00000000000E+00  0.11825601282E+04  0.11825601282E+04  0.25500000920E-02 0. -1.
        2   -1    0    0  501    0  0.00000000000E+00  0.00000000000E+00 -0.12069764341E+04  0.12069764341E+04  0.25500000920E-02 0.  1.
    10030    2    1    2    0    0  0.00000000000E+00  0.00000000000E+00 -0.24416305869E+02  0.23895365622E+04  0.23894118160E+04 0.  0.
        4    1    3    3  502    0  0.90657560895E+03 -0.45261839251E+03 -0.64515339343E+03  0.12012357212E+04  0.12699999809E+01 0.  1.
       -4    1    3    3    0  502 -0.90657560895E+03  0.45261839251E+03  0.62073708756E+03  0.11883008410E+04  0.12699999809E+01 0. -1.
</event>
<event>
 5   0  0.1393026E-05  0.2402310E+04  0.7818609E-02  0.8438639E-01
       -1   -1    0    0    0  501  0.00000000000E+00  0.00000000000E+00  0.13943077572E+04  0.13943077572E+04  0.50400001928E-02 0. -1.
        1   -1    0    0  501    0  0.00000000000E+00  0.00000000000E+00 -0.10347594481E+04  0.10347594481E+04  0.50400001928E-02 0.  1.
    10030    2    1    2    0    0  0.00000000000E+00  0.00000000000E+00  0.35954830913E+03  0.24290672053E+04  0.24023098263E+04 0.  0.
        4    1    3    3  502    0  0.13268566794E+03 -0.83468436302E+03 -0.68323571886E+03  0.10867916694E+04  0.12699999809E+01 0.  1.
       -4    1    3    3    0  502 -0.13268566794E+03  0.83468436302E+03  0.10427840280E+04  0.13422755359E+04  0.12699999809E+01 0. -1.
</event>
<event>
 5   0  0.3345974E-05  0.2402196E+04  0.7818609E-02  0.8438682E-01
        2   -1    0    0  501    0  0.00000000000E+00  0.00000000000E+00  0.23738616015E+04  0.23738616015E+04  0.25500000920E-02 0.  1.
       -2   -1    0    0    0  501  0.00000000000E+00  0.00000000000E+00 -0.60771721912E+03  0.60771721912E+03  0.25500000920E-02 0. -1.
    10030    2    1    2    0    0  0.00000000000E+00  0.00000000000E+00  0.17661443824E+04  0.29815788207E+04  0.24021961378E+04 0.  0.
        4    1    3    3  502    0 -0.39171232610E+03 -0.40616981674E+03  0.21990966634E+04  0.22703392289E+04  0.12699999809E+01 0.  1.
       -4    1    3    3    0  502  0.39171232610E+03  0.40616981674E+03 -0.43295228094E+03  0.71123959178E+03  0.12699999809E+01 0. -1.
</event>
<event>
 5   0  0.3310037E-05  0.2161673E+04  0.7818609E-02  0.8534552E-01
        2   -1    0    0  501    0  0.00000000000E+00  0.00000000000E+00  0.81114029572E+03  0.81114029572E+03  0.25500000920E-02 0.  1.
       -2   -1    0    0    0  501  0.00000000000E+00  0.00000000000E+00 -0.14402034378E+04  0.14402034378E+04  0.25500000920E-02 0. -1.
    10030    2    1    2    0    0  0.00000000000E+00  0.00000000000E+00 -0.62906314210E+03  0.22513437335E+04  0.21616725399E+04 0.  0.
        2    1    3    3  502    0  0.43836189964E+02  0.64870054557E+03  0.58469239063E+03  0.87441363269E+03  0.25500000920E-02 0.  1.
       -2    1    3    3    0  502 -0.43836189964E+02 -0.64870054557E+03 -0.12137555327E+04  0.13769301008E+04  0.25500000920E-02 0. -1.
</event>
<event>
 5   0  0.1407158E-05  0.2107465E+04  0.7818609E-02  0.8557962E-01
        1   -1    0    0  501    0  0.00000000000E+00  0.00000000000E+00  0.17591234719E+04  0.17591234719E+04  0.50400001928E-02 0.  1.
       -1   -1    0    0    0  501  0.00000000000E+00  0.00000000000E+00 -0.63119637844E+03  0.63119637846E+03  0.50400001928E-02 0. -1.
    10030    2    1    2    0    0  0.00000000000E+00  0.00000000000E+00  0.11279270934E+04  0.23903198503E+04  0.21074651738E+04 0.  0.
        1    1    3    3  502    0 -0.56497204280E+03 -0.66378996311E+03 -0.10756664436E+03  0.87828304508E+03  0.50400001928E-02 0. -1.
       -1    1    3    3    0  502  0.56497204280E+03  0.66378996311E+03  0.12354937378E+04  0.15120368053E+04  0.50400001928E-02 0.  1.
</event>
<event>
 5   0  0.1147362E-05  0.2483769E+04  0.7818609E-02  0.8408791E-01
       -3   -1    0    0    0  501  0.00000000000E+00  0.00000000000E+00  0.69146231772E+03  0.69146232510E+03  0.10100000352E+00 0.  1.
        3   -1    0    0  501    0  0.00000000000E+00  0.00000000000E+00 -0.22304573607E+04  0.22304573629E+04  0.10100000352E+00 0. -1.
    10030    2    1    2    0    0  0.00000000000E+00  0.00000000000E+00 -0.15389950429E+04  0.29219196880E+04  0.24837690958E+04 0.  0.
        3    1    3    3  502    0 -0.93273604434E+03 -0.38271617645E+03 -0.16225408123E+04  0.19102635677E+04  0.10100000352E+00 0. -1.
       -3    1    3    3    0  502  0.93273604434E+03  0.38271617645E+03  0.83545769369E+02  0.10116561204E+04  0.10100000352E+00 0.  1.
</event>
<event>
 5   0  0.1407158E-05  0.2294383E+04  0.7818609E-02  0.8480139E-01
        1   -1    0    0  501    0  0.00000000000E+00  0.00000000000E+00  0.85399976877E+03  0.85399976878E+03  0.50400001928E-02 0. -1.
       -1   -1    0    0    0  501  0.00000000000E+00  0.00000000000E+00 -0.15410400976E+04  0.15410400976E+04  0.50400001928E-02 0.  1.
    10030    2    1    2    0    0  0.00000000000E+00  0.00000000000E+00 -0.68704032883E+03  0.23950398664E+04  0.22943826072E+04 0.  0.
        1    1    3    3  502    0  0.37411016789E+02  0.70446389377E+03 -0.12878508965E+04  0.14684103287E+04  0.50400001928E-02 0.  1.
       -1    1    3    3    0  502 -0.37411016789E+02 -0.70446389377E+03  0.60081056769E+03  0.92662953767E+03  0.50400001928E-02 0. -1.
</event>
<event>
 5   0  0.3320780E-05  0.2386584E+04  0.7818609E-02  0.8444544E-01
        2   -1    0    0  501    0  0.00000000000E+00  0.00000000000E+00  0.85759748029E+03  0.85759748029E+03  0.25500000920E-02 0.  1.
       -2   -1    0    0    0  501  0.00000000000E+00  0.00000000000E+00 -0.16603887512E+04  0.16603887512E+04  0.25500000920E-02 0. -1.
    10030    2    1    2    0    0  0.00000000000E+00  0.00000000000E+00 -0.80279127096E+03  0.25179862315E+04  0.23865835073E+04 0.  0.
        5    1    3    3  502    0  0.17595939524E+03 -0.14766416324E+03  0.83404039179E+03  0.86510801581E+03  0.46999998093E+01 0.  1.
       -5    1    3    3    0  502 -0.17595939524E+03  0.14766416324E+03 -0.16368316627E+04  0.16528782157E+04  0.46999998093E+01 0. -1.
</event>
<event>
 5   0  0.3347728E-05  0.2397052E+04  0.7818609E-02  0.8440608E-01
       -2   -1    0    0    0  501  0.00000000000E+00  0.00000000000E+00  0.63512573035E+03  0.63512573035E+03  0.25500000920E-02 0.  1.
        2   -1    0    0  501    0  0.00000000000E+00  0.00000000000E+00 -0.22617017594E+04  0.22617017594E+04  0.25500000920E-02 0. -1.
    10030    2    1    2    0    0  0.00000000000E+00  0.00000000000E+00 -0.16265760290E+04  0.28968274897E+04  0.23970523413E+04 0.  0.
        3    1    3    3  502    0  0.63424452047E+03  0.44131153339E+03 -0.19205253443E+04  0.20701303315E+04  0.10100000352E+00 0. -1.
       -3    1    3    3    0  502 -0.63424452047E+03 -0.44131153339E+03  0.29394931526E+03  0.82669715821E+03  0.10100000352E+00 0.  1.
</event>
<event>
 5   0  0.3347728E-05  0.2393778E+04  0.7818609E-02  0.8441837E-01
        2   -1    0    0  501    0  0.00000000000E+00  0.00000000000E+00  0.17613533404E+04  0.17613533404E+04  0.25500000920E-02 0. -1.
       -2   -1    0    0    0  501  0.00000000000E+00  0.00000000000E+00 -0.81331969266E+03  0.81331969267E+03  0.25500000920E-02 0.  1.
    10030    2    1    2    0    0  0.00000000000E+00  0.00000000000E+00  0.94803364769E+03  0.25746730330E+04  0.23937780661E+04 0.  0.
        3    1    3    3  502    0  0.69545136466E+03  0.97046629281E+03  0.56455596261E+03  0.13206744002E+04  0.10100000352E+00 0. -1.
       -3    1    3    3    0  502 -0.69545136466E+03 -0.97046629281E+03  0.38347768508E+03  0.12539986329E+04  0.10100000352E+00 0.  1.
</event>
<event>
 5   0  0.1401596E-05  0.2411071E+04  0.7818609E-02  0.8435370E-01
        1   -1    0    0  501    0  0.00000000000E+00  0.00000000000E+00  0.10224577277E+04  0.10224577277E+04  0.50400001928E-02 0. -1.
       -1   -1    0    0    0  501  0.00000000000E+00  0.00000000000E+00 -0.14213943702E+04  0.14213943702E+04  0.50400001928E-02 0.  1.
    10030    2    1    2    0    0  0.00000000000E+00  0.00000000000E+00 -0.39893664245E+03  0.24438520979E+04  0.24110708475E+04 0.  0.
        2    1    3    3  502    0 -0.92503782391E+03  0.57058767800E+03  0.32920770685E+03  0.11356244926E+04  0.25500000920E-02 0. -1.
       -2    1    3    3    0  502  0.92503782391E+03 -0.57058767800E+03 -0.72814434930E+03  0.13082276053E+04  0.25500000920E-02 0.  1.
</event>
<event>
 5   0  0.3345974E-05  0.2398017E+04  0.7818609E-02  0.8440246E-01
       -2   -1    0    0    0  501  0.00000000000E+00  0.00000000000E+00  0.80177945732E+03  0.80177945732E+03  0.25500000920E-02 0.  1.
        2   -1    0    0  501    0  0.00000000000E+00  0.00000000000E+00 -0.17930379756E+04  0.17930379756E+04  0.25500000920E-02 0. -1.
    10030    2    1    2    0    0  0.00000000000E+00  0.00000000000E+00 -0.99125851831E+03  0.25948174330E+04  0.23980166931E+04 0.  0.
        4    1    3    3  502    0  0.17341047185E+03  0.90120393813E+02 -0.17756872814E+04  0.17864097546E+04  0.12699999809E+01 0. -1.
       -4    1    3    3    0  502 -0.17341047185E+03 -0.90120393813E+02  0.78442876310E+03  0.80840767834E+03  0.12699999809E+01 0.  1.
</event>
<event>
 5   0  0.1407158E-05  0.2411377E+04  0.7818609E-02  0.8435256E-01
       -1   -1    0    0    0  501  0.00000000000E+00  0.00000000000E+00  0.11845642637E+04  0.11845642637E+04  0.50400001928E-02 0. -1.
        1   -1    0    0  501    0  0.00000000000E+00  0.00000000000E+00 -0.12271894832E+04  0.12271894832E+04  0.50400001928E-02 0.  1.
    10030    2    1    2    0    0  0.00000000000E+00  0.00000000000E+00 -0.42625219525E+02  0.24117537469E+04  0.24113770395E+04 0.  0.
        1    1    3    3  502    0 -0.71910158844E+03 -0.60174271839E+03 -0.77937785736E+03  0.12192748821E+04  0.50400001928E-02 0.  1.
       -1    1    3    3    0  502  0.71910158844E+03  0.60174271839E+03  0.73675263783E+03  0.11924788648E+04  0.50400001928E-02 0. -1.
</event>
<event>
 5   0  0.3347728E-05  0.2410943E+04  0.7818609E-02  0.8435418E-01
        2   -1    0    0  501    0  0.00000000000E+00  0.00000000000E+00  0.13893846921E+04  0.13893846921E+04  0.25500000920E-02 0.  1.
       -2   -1    0    0    0  501  0.00000000000E+00  0.00000000000E+00 -0.10459030561E+04  0.10459030561E+04  0.25500000920E-02 0. -1.
    10030    2    1    2    0    0  0.00000000000E+00  0.00000000000E+00  0.34348163601E+03  0.24352877482E+04  0.24109431313E+04 0.  0.
        3    1    3    3  502    0  0.54910453685E+03  0.71870369499E+03 -0.63324475641E+03  0.11041058488E+04  0.10100000352E+00 0. -1.
       -3    1    3    3    0  502 -0.54910453685E+03 -0.71870369499E+03  0.97672639242E+03  0.13311818995E+04  0.10100000352E+00 0.  1.
</event>
<event>
 5   0  0.1407158E-05  0.2257505E+04  0.7818609E-02  0.8494867E-01
       -1   -1    0    0    0  501  0.00000000000E+00  0.00000000000E+00  0.10543193691E+04  0.10543193691E+04  0.50400001928E-02 0. -1.
        1   -1    0    0  501    0  0.00000000000E+00  0.00000000000E+00 -0.12084408407E+04  0.12084408407E+04  0.50400001928E-02 0.  1.
    10030    2    1    2    0    0  0.00000000000E+00  0.00000000000E+00 -0.15412147163E+03  0.22627602099E+04  0.22575053354E+04 0.  0.
        1    1    3    3  502    0  0.34052828281E+03 -0.74469570131E+03 -0.85575481672E+03  0.11844186360E+04  0.50400001928E-02 0.  1.
       -1    1    3    3    0  502 -0.34052828281E+03  0.74469570131E+03  0.70163334509E+03  0.10783415739E+04  0.50400001928E-02 0. -1.
</event>
<event>
 5   0  0.3320780E-05  0.2403185E+04  0.7818609E-02  0.8438312E-01
       -2   -1    0    0    0  501  0.00000000000E+00  0.00000000000E+00  0.15374910580E+04  0.15374910580E+04  0.25500000920E-02 0. -1.
        2   -1    0    0  501    0  0.00000000000E+00  0.00000000000E+00 -0.93907862768E+03  0.93907862768E+03  0.25500000920E-02 0.  1.
    10030    2    1    2    0    0  0.00000000000E+00  0.00000000000E+00  0.59841243030E+03  0.24765696857E+04  0.24031853801E+04 0.  0.
        5    1    3    3  502    0 -0.14507845246E-01 -0.53146981107E+03  0.14097699421E+04  0.15066298616E+04  0.46999998093E+01 0. -1.
       -5    1    3    3    0  502  0.14507845246E-01  0.53146981107E+03 -0.81135751180E+03  0.96993982403E+03  0.46999998093E+01 0.  1.
</event>
<event>
 5   0  0.1147362E-05  0.2324366E+04  0.7818609E-02  0.8468375E-01
       -3   -1    0    0    0  501  0.00000000000E+00  0.00000000000E+00  0.16734320414E+04  0.16734320445E+04  0.10100000352E+00 0.  1.
        3   -1    0    0  501    0  0.00000000000E+00  0.00000000000E+00 -0.80712562700E+03  0.80712563332E+03  0.10100000352E+00 0. -1.
    10030    2    1    2    0    0  0.00000000000E+00  0.00000000000E+00  0.86630641443E+03  0.24805576778E+04  0.23243664920E+04 0.  0.
        5    1    3    3  502    0 -0.94938513604E+02 -0.70763469185E+03  0.14117723466E+04  0.15820503870E+04  0.46999998093E+01 0.  1.
       -5    1    3    3    0  502  0.94938513604E+02  0.70763469185E+03 -0.54546593214E+03  0.89850729079E+03  0.46999998093E+01 0. -1.
</event>
<event>
 5   0  0.1393026E-05  0.2403149E+04  0.7818609E-02  0.8438325E-01
        1   -1    0    0  501    0  0.00000000000E+00  0.00000000000E+00  0.15659059024E+04  0.15659059024E+04  0.50400001928E-02 0. -1.
       -1   -1    0    0    0  501  0.00000000000E+00  0.00000000000E+00 -0.92201055118E+03  0.92201055119E+03  0.50400001928E-02 0.  1.
    10030    2    1    2    0    0  0.00000000000E+00  0.00000000000E+00  0.64389535124E+03  0.24879164536E+04  0.24031494038E+04 0.  0.
        4    1    3    3  502    0  0.35233351506E+03  0.72713298827E+03  0.12426537050E+04  0.14822453008E+04  0.12699999809E+01 0. -1.
       -4    1    3    3    0  502 -0.35233351506E+03 -0.72713298827E+03 -0.59875835374E+03  0.10056711528E+04  0.12699999809E+01 0.  1.
</event>
<event>
 5   0  0.3310037E-05  0.2389226E+04  0.7818609E-02  0.8443548E-01
        2   -1    0    0  501    0  0.00000000000E+00  0.00000000000E+00  0.24968431196E+04  0.24968431196E+04  0.25500000920E-02 0. -1.
       -2   -1    0    0    0  501  0.00000000000E+00  0.00000000000E+00 -0.57156163188E+03  0.57156163188E+03  0.25500000920E-02 0.  1.
    10030    2    1    2    0    0  0.00000000000E+00  0.00000000000E+00  0.19252814877E+04  0.30684047515E+04  0.23892255883E+04 0.  0.
        2    1    3    3  502    0  0.23595109265E+02  0.69212033528E+03 -0.28746845120E+03  0.74981690974E+03  0.25500000920E-02 0.  1.
       -2    1    3    3    0  502 -0.23595109265E+02 -0.69212033528E+03  0.22127499389E+04  0.23185878417E+04  0.25500000920E-02 0. -1.
</event>
<event>
 5   0  0.3347728E-05  0.2428576E+04  0.7818609E-02  0.8428882E-01
       -2   -1    0    0    0  501  0.00000000000E+00  0.00000000000E+00  0.13560232849E+04  0.13560232849E+04  0.25500000920E-02 0. -1.
        2   -1    0    0  501    0  0.00000000000E+00  0.00000000000E+00 -0.10873669886E+04  0.10873669886E+04  0.25500000920E-02 0.  1.
    10030    2    1    2    0    0  0.00000000000E+00  0.00000000000E+00  0.26865629623E+03  0.24433902735E+04  0.24285756779E+04 0.  0.
        3    1    3    3  502    0  0.86949556354E+03 -0.84435086981E+03  0.20924052261E+03  0.12299319220E+04  0.10100000352E+00 0. -1.
       -3    1    3    3    0  502 -0.86949556354E+03  0.84435086981E+03  0.59415773624E+02  0.12134583515E+04  0.10100000352E+00 0.  1.
</event>
<event>
 5   0  0.1434943E-05  0.2419838E+04  0.7818609E-02  0.8432114E-01
        1   -1    0    0  501    0  0.00000000000E+00  0.00000000000E+00  0.17993391796E+04  0.17993391796E+04  0.50400001928E-02 0.  1.
       -1   -1    0    0    0  501  0.00000000000E+00  0.00000000000E+00 -0.81357875726E+03  0.81357875728E+03  0.50400001928E-02 0. -1.
    10030    2    1    2    0    0  0.00000000000E+00  0.00000000000E+00  0.98576042237E+03  0.26129179369E+04  0.24198381216E+04 0.  0.
        5    1    3    3  502    0 -0.33050174670E+02 -0.60149704700E+02  0.17972257627E+04  0.17985418631E+04  0.46999998093E+01 0.  1.
       -5    1    3    3    0  502  0.33050174670E+02  0.60149704700E+02 -0.81146534037E+03  0.81437607384E+03  0.46999998093E+01 0. -1.
</event>
<event>
 5   0  0.1147362E-05  0.2419661E+04  0.7818609E-02  0.8432179E-01
       -4   -1    0    0    0  501  0.00000000000E+00  0.00000000000E+00  0.12713464918E+04  0.12713471261E+04  0.12699999809E+01 0. -1.
        4   -1    0    0  501    0  0.00000000000E+00  0.00000000000E+00 -0.11512895402E+04  0.11512902407E+04  0.12699999809E+01 0.  1.
    10030    2    1    2    0    0  0.00000000000E+00  0.00000000000E+00  0.12005695157E+03  0.24226373667E+04  0.24196607488E+04 0.  0.
        2    1    3    3  502    0 -0.70325152491E+03  0.23821353208E+02 -0.92533635050E+03  0.11624876454E+04  0.25500000920E-02 0.  1.
       -2    1    3    3    0  502  0.70325152491E+03 -0.23821353208E+02  0.10453933021E+04  0.12601497213E+04  0.25500000920E-02 0. -1.
</event>
<event>
 5   0  0.3345974E-05  0.2419806E+04  0.7818609E-02  0.8432125E-01
        2   -1    0    0  501    0  0.00000000000E+00  0.00000000000E+00  0.16735103666E+04  0.16735103666E+04  0.25500000920E-02 0. -1.
       -2   -1    0    0    0  501  0.00000000000E+00  0.00000000000E+00 -0.87472764989E+03  0.87472764989E+03  0.25500000920E-02 0.  1.
    10030    2    1    2    0    0  0.00000000000E+00  0.00000000000E+00  0.79878271673E+03  0.25482380165E+04  0.24198064303E+04 0.  0.
        4    1    3    3  502    0 -0.31023094191E+02 -0.82210927575E+03 -0.53484601724E+03  0.98126855076E+03  0.12699999809E+01 0.  1.
       -4    1    3    3    0  502  0.31023094191E+02  0.82210927575E+03  0.13336287340E+04  0.15669694658E+04  0.12699999809E+01 0. -1.
</event>
<event>
 5   0  0.3310037E-05  0.2367336E+04  0.7818609E-02  0.8451835E-01
        2   -1    0    0  501    0  0.00000000000E+00  0.00000000000E+00  0.11921371078E+04  0.11921371078E+04  0.25500000920E-02 0. -1.
       -2   -1    0    0    0  501  0.00000000000E+00  0.00000000000E+00 -0.11752592667E+04  0.11752592667E+04  0.25500000920E-02 0.  1.
    10030    2    1    2    0    0  0.00000000000E+00  0.00000000000E+00  0.16877841049E+02  0.23673963745E+04  0.23673362103E+04 0.  0.
        2    1    3    3  502    0 -0.71417972293E+03  0.94385889376E+03 -0.37226029948E+01  0.11836114843E+04  0.25500000920E-02 0. -1.
       -2    1    3    3    0  502  0.71417972293E+03 -0.94385889376E+03  0.20600444044E+02  0.11837848902E+04  0.25500000920E-02 0.  1.
</event>
<event>
 5   0  0.1401596E-05  0.2402375E+04  0.7818609E-02  0.8438615E-01
       -1   -1    0    0    0  501  0.00000000000E+00  0.00000000000E+00  0.99882792542E+03  0.99882792543E+03  0.50400001928E-02 0. -1.
        1   -1    0    0  501    0  0.00000000000E+00  0.00000000000E+00 -0.14445445277E+04  0.14445445277E+04  0.50400001928E-02 0.  1.
    10030    2    1    2    0    0  0.00000000000E+00  0.00000000000E+00 -0.44571660231E+03  0.24433724532E+04  0.24023750031E+04 0.  0.
        2    1    3    3  502    0  0.53674329782E+03 -0.54686587988E+03 -0.11636826787E+04  0.13933101001E+04  0.25500000920E-02 0.  1.
       -2    1    3    3    0  502 -0.53674329782E+03  0.54686587988E+03  0.71796607643E+03  0.10500623530E+04  0.25500000920E-02 0. -1.
</event>
<event>
 5   0  0.3310037E-05  0.2432043E+04  0.7818609E-02  0.8427604E-01
        2   -1    0    0  501    0  0.00000000000E+00  0.00000000000E+00  0.13829611788E+04  0.13829611788E+04  0.25500000920E-02 0. -1.
       -2   -1    0    0    0  501  0.00000000000E+00  0.00000000000E+00 -0.10692337279E+04  0.10692337279E+04  0.25500000920E-02 0.  1.
    10030    2    1    2    0    0  0.00000000000E+00  0.00000000000E+00  0.31372745084E+03  0.24521949067E+04  0.24320433686E+04 0.  0.
        2    1    3    3  502    0 -0.64971604374E+03 -0.25377182369E+03 -0.84747080179E+03  0.10976055010E+04  0.25500000920E-02 0.  1.
       -2    1    3    3    0  502  0.64971604374E+03  0.25377182369E+03  0.11611982526E+04  0.13545894056E+04  0.25500000920E-02 0. -1.
</event>
<event>
 5   0  0.3320780E-05  0.2396936E+04  0.7818609E-02  0.8440652E-01
       -2   -1    0    0    0  501  0.00000000000E+00  0.00000000000E+00  0.64090748646E+03  0.64090748646E+03  0.25500000920E-02 0.  1.
        2   -1    0    0  501    0  0.00000000000E+00  0.00000000000E+00 -0.22410802764E+04  0.22410802764E+04  0.25500000920E-02 0. -1.
    10030    2    1    2    0    0  0.00000000000E+00  0.00000000000E+00 -0.16001727899E+04  0.28819877628E+04  0.23969356494E+04 0.  0.
        5    1    3    3  502    0 -0.10434265512E+04  0.45279016249E+03 -0.34613227488E+03  0.11889438761E+04  0.46999998093E+01 0.  1.
       -5    1    3    3    0  502  0.10434265512E+04 -0.45279016249E+03 -0.12540405150E+04  0.16930438867E+04  0.46999998093E+01 0. -1.
</event>
<event>
 5   0  0.3345974E-05  0.2373773E+04  0.7818609E-02  0.8449388E-01
        2   -1    0    0  501    0  0.00000000000E+00  0.00000000000E+00  0.22036088944E+04  0.22036088944E+04  0.25500000920E-02 0.  1.
       -2   -1    0    0    0  501  0.00000000000E+00  0.00000000000E+00 -0.63926947678E+03  0.63926947679E+03  0.25500000920E-02 0. -1.
    10030    2    1    2    0    0  0.00000000000E+00  0.00000000000E+00  0.15643394177E+04  0.28428783712E+04  0.23737732874E+04 0.  0.
        4    1    3    3  502    0 -0.14732536553E+03  0.96747022004E+03  0.15864452424E+04  0.18640046969E+04  0.12699999809E+01 0.  1.
       -4    1    3    3    0  502  0.14732536553E+03 -0.96747022004E+03 -0.22105824700E+02  0.97887367437E+03  0.12699999809E+01 0. -1.
</event>
<event>
 5   0  0.3310037E-05  0.2332356E+04  0.7818609E-02  0.8465272E-01
       -2   -1    0    0    0  501  0.00000000000E+00  0.00000000000E+00  0.97411218094E+03  0.97411218094E+03  0.25500000920E-02 0.  1.
        2   -1    0    0  501    0  0.00000000000E+00  0.00000000000E+00 -0.13961128793E+04  0.13961128793E+04  0.25500000920E-02 0. -1.
    10030    2    1    2    0    0  0.00000000000E+00  0.00000000000E+00 -0.42200069834E+03  0.23702250602E+04  0.23323555146E+04 0.  0.
        2    1    3    3  502    0 -0.10335880738E+04 -0.22349964915E+03  0.28862663329E+03  0.10961577135E+04  0.25500000920E-02 0.  1.
       -2    1    3    3    0  502  0.10335880738E+04  0.22349964915E+03 -0.71062733163E+03  0.12740673467E+04  0.25500000920E-02 0. -1.
</event>
<event>
 5   0  0.3320780E-05  0.2242278E+04  0.7818609E-02  0.8501034E-01
       -2   -1    0    0    0  501  0.00000000000E+00  0.00000000000E+00  0.70645542463E+03  0.70645542464E+03  0.25500000920E-02 0. -1.
        2   -1    0    0  501    0  0.00000000000E+00  0.00000000000E+00 -0.17792379937E+04  0.17792379937E+04  0.25500000920E-02 0.  1.
    10030    2    1    2    0    0  0.00000000000E+00  0.00000000000E+00 -0.10727825691E+04  0.24856934183E+04  0.22422777102E+04 0.  0.
        5    1    3    3  502    0  0.11163213365E+04 -0.77433904860E+02 -0.61288098967E+03  0.12758583516E+04  0.46999998093E+01 0. -1.
       -5    1    3    3    0  502 -0.11163213365E+04  0.77433904860E+02 -0.45990157939E+03  0.12098350667E+04  0.46999998093E+01 0.  1.
</event>
<event>
 5   0  0.1407158E-05  0.2402024E+04  0.7818609E-02  0.8438746E-01
        1   -1    0    0  501    0  0.00000000000E+00  0.00000000000E+00  0.10188895531E+04  0.10188895532E+04  0.50400001928E-02 0.  1.
       -1   -1    0    0    0  501  0.00000000000E+00  0.00000000000E+00 -0.14156878767E+04  0.14156878767E+04  0.50400001928E-02 0. -1.
    10030    2    1    2    0    0  0.00000000000E+00  0.00000000000E+00 -0.39679832355E+03  0.24345774299E+04  0.24020238035E+04 0.  0.
        1    1    3    3  502    0  0.30246046838E+03 -0.57423928916E+03  0.82583897343E+03  0.10503538005E+04  0.50400001928E-02 0.  1.
       -1    1    3    3    0  502 -0.30246046838E+03  0.57423928916E+03 -0.12226372970E+04  0.13842236294E+04  0.50400001928E-02 0. -1.
</event>
<event>
 5   0  0.3347728E-05  0.2415302E+04  0.7818609E-02  0.8433797E-01
       -2   -1    0    0    0  501  0.00000000000E+00  0.00000000000E+00  0.64771555712E+03  0.64771555712E+03  0.25500000920E-02 0.  1.
        2   -1    0    0  501    0  0.00000000000E+00  0.00000000000E+00 -0.22516383473E+04  0.22516383473E+04  0.25500000920E-02 0. -1.
    10030    2    1    2    0    0  0.00000000000E+00  0.00000000000E+00 -0.16039227902E+04  0.28993539044E+04  0.24153022060E+04 0.  0.
        3    1    3    3  502    0 -0.25571797447E+03  0.11210907271E+04 -0.35897079595E+03  0.12046145206E+04  0.10100000352E+00 0. -1.
       -3    1    3    3    0  502  0.25571797447E+03 -0.11210907271E+04 -0.12449519942E+04  0.16947393838E+04  0.10100000352E+00 0.  1.
</event>
<event>
 5   0  0.1407158E-05  0.2355149E+04  0.7818609E-02  0.8456488E-01
       -1   -1    0    0    0  501  0.00000000000E+00  0.00000000000E+00  0.61404203651E+03  0.61404203653E+03  0.50400001928E-02 0.  1.
        1   -1    0    0  501    0  0.00000000000E+00  0.00000000000E+00 -0.22582851116E+04  0.22582851116E+04  0.50400001928E-02 0. -1.
    10030    2    1    2    0    0  0.00000000000E+00  0.00000000000E+00 -0.16442430751E+04  0.28723271482E+04  0.23551492428E+04 0.  0.
        1    1    3    3  502    0 -0.62812318351E+03 -0.71752872932E+03  0.20454815249E+02  0.95383678402E+03  0.50400001928E-02 0. -1.
       -1    1    3    3    0  502  0.62812318351E+03  0.71752872932E+03 -0.16646978904E+04  0.19184903642E+04  0.50400001928E-02 0.  1.
</event>
<event>
 5   0  0.3310037E-05  0.2441770E+04  0.7818609E-02  0.8424029E-01
        2   -1    0    0  501    0  0.00000000000E+00  0.00000000000E+00  0.56018060880E+03  0.56018060880E+03  0.25500000920E-02 0.  1.
       -2   -1    0    0    0  501  0.00000000000E+00  0.00000000000E+00 -0.26608561529E+04  0.26608561530E+04  0.25500000920E-02 0. -1.
    10030    2    1    2    0    0  0.00000000000E+00  0.00000000000E+00 -0.21006755442E+04  0.32210367618E+04  0.24417698661E+04 0.  0.
        2    1    3    3  502    0  0.21778495321E+03 -0.67287794507E+03 -0.23631076244E+04  0.24666723859E+04  0.25500000920E-02 0. -1.
       -2    1    3    3    0  502 -0.21778495321E+03  0.67287794507E+03  0.26243208026E+03  0.75436437585E+03  0.25500000920E-02 0.  1.
</event>
<event>
 5   0  0.3320780E-05  0.2412000E+04  0.7818609E-02  0.8435024E-01
       -2   -1    0    0    0  501  0.00000000000E+00  0.00000000000E+00  0.12043114148E+04  0.12043114148E+04  0.25500000920E-02 0.  1.
        2   -1    0    0  501    0  0.00000000000E+00  0.00000000000E+00 -0.12076913802E+04  0.12076913802E+04  0.25500000920E-02 0. -1.
    10030    2    1    2    0    0  0.00000000000E+00  0.00000000000E+00 -0.33799654542E+01  0.24120027950E+04  0.24120004268E+04 0.  0.
        5    1    3    3  502    0  0.42161265041E+02  0.64887648939E+03  0.10139862352E+04  0.12045781195E+04  0.46999998093E+01 0.  1.
       -5    1    3    3    0  502 -0.42161265041E+02 -0.64887648939E+03 -0.10173662007E+04  0.12074246755E+04  0.46999998093E+01 0. -1.
</event>
<event>
 5   0  0.1407158E-05  0.2414718E+04  0.7818609E-02  0.8434014E-01
       -1   -1    0    0    0  501  0.00000000000E+00  0.00000000000E+00  0.10721607586E+04  0.10721607586E+04  0.50400001928E-02 0.  1.
        1   -1    0    0  501    0  0.00000000000E+00  0.00000000000E+00 -0.13596050921E+04  0.13596050921E+04  0.50400001928E-02 0. -1.
    10030    2    1    2    0    0  0.00000000000E+00  0.00000000000E+00 -0.28744433351E+03  0.24317658507E+04  0.24147175627E+04 0.  0.
        1    1    3    3  502    0 -0.45075594109E+02  0.87385183611E+03  0.69405649091E+03  0.11168541773E+04  0.50400001928E-02 0.  1.
       -1    1    3    3    0  502  0.45075594109E+02 -0.87385183611E+03 -0.98150082442E+03  0.13149116735E+04  0.50400001928E-02 0. -1.
</event>
<event>
 5   0  0.1393026E-05  0.2408187E+04  0.7818609E-02  0.8436445E-01
        1   -1    0    0  501    0  0.00000000000E+00  0.00000000000E+00  0.25966638785E+04  0.25966638785E+04  0.50400001928E-02 0. -1.
       -1   -1    0    0    0  501  0.00000000000E+00  0.00000000000E+00 -0.55834755062E+03  0.55834755064E+03  0.50400001928E-02 0.  1.
    10030    2    1    2    0    0  0.00000000000E+00  0.00000000000E+00  0.20383163279E+04  0.31550114292E+04  0.24081868004E+04 0.  0.
        4    1    3    3  502    0 -0.21307272160E+03  0.89629316283E+03  0.20349000579E+04  0.22337325885E+04  0.12699999809E+01 0. -1.
       -4    1    3    3    0  502  0.21307272160E+03 -0.89629316283E+03  0.34162699961E+01  0.92127884065E+03  0.12699999809E+01 0.  1.
</event>
<event>
 5   0  0.1434943E-05  0.2417060E+04  0.7818609E-02  0.8433144E-01
       -1   -1    0    0    0  501  0.00000000000E+00  0.00000000000E+00  0.99466789915E+03  0.99466789916E+03  0.50400001928E-02 0.  1.
        1   -1    0    0  501    0  0.00000000000E+00  0.00000000000E+00 -0.14683745999E+04  0.14683745999E+04  0.50400001928E-02 0. -1.
    10030    2    1    2    0    0  0.00000000000E+00  0.00000000000E+00 -0.47370670078E+03  0.24630424991E+04  0.24170602628E+04 0.  0.
        5    1    3    3  502    0  0.11982019823E+04  0.42533084150E+02 -0.39148310330E+03  0.12612605456E+04  0.46999998093E+01 0. -1.
       -5    1    3    3    0  502 -0.11982019823E+04 -0.42533084150E+02 -0.82223597480E+02  0.12017819535E+04  0.46999998093E+01 0.  1.
</event>
<event>
 5   0  0.1147362E-05  0.2383920E+04  0.7818609E-02  0.8445548E-01
        3   -1    0    0  501    0  0.00000000000E+00  0.00000000000E+00  0.66993403309E+03  0.66993404070E+03  0.10100000352E+00 0.  1.
       -3   -1    0    0    0  501  0.00000000000E+00  0.00000000000E+00 -0.21207595622E+04  0.21207595646E+04  0.10100000352E+00 0. -1.
    10030    2    1    2    0    0  0.00000000000E+00  0.00000000000E+00 -0.14508255291E+04  0.27906936053E+04  0.23839203180E+04 0.  0.
        5    1    3    3  502    0  0.54223905748E+03  0.65679322394E+03  0.25074727712E+03  0.88786081198E+03  0.46999998093E+01 0.  1.
       -5    1    3    3    0  502 -0.54223905748E+03 -0.65679322394E+03 -0.17015728062E+04  0.19028327933E+04  0.46999998093E+01 0. -1.
</event>
<event>
 5   0  0.1147362E-05  0.2387344E+04  0.7818609E-02  0.8444257E-01
       -3   -1    0    0    0  501  0.00000000000E+00  0.00000000000E+00  0.10006487692E+04  0.10006487743E+04  0.10100000352E+00 0. -1.
        3   -1    0    0  501    0  0.00000000000E+00  0.00000000000E+00 -0.14239288202E+04  0.14239288238E+04  0.10100000352E+00 0.  1.
    10030    2    1    2    0    0  0.00000000000E+00  0.00000000000E+00 -0.42328005104E+03  0.24245775981E+04  0.23873438226E+04 0.  0.
        4    1    3    3  502    0 -0.42772389454E+03  0.95296717156E+03  0.37508716870E+03  0.11098586203E+04  0.12699999809E+01 0. -1.
       -4    1    3    3    0  502  0.42772389454E+03 -0.95296717156E+03 -0.79836721974E+03  0.13147189778E+04  0.12699999809E+01 0.  1.
</event>
<event>
 5   0  0.1506985E-05  0.2109345E+04  0.7818609E-02  0.8557138E-01
       -1   -1    0    0    0  501  0.00000000000E+00  0.00000000000E+00  0.88261366246E+03  0.88261366247E+03  0.50400001928E-02 0. -1.
        1   -1    0    0  501    0  0.00000000000E+00  0.00000000000E+00 -0.12602730286E+04  0.12602730286E+04  0.50400001928E-02 0.  1.
    10030    2    1    2    0    0  0.00000000000E+00  0.00000000000E+00 -0.37765936612E+03  0.21428866911E+04  0.21093451055E+04 0.  0.
        3    1    3    3  502    0 -0.61967784435E+03  0.64517393351E+03  0.37869848653E+03  0.97142297129E+03  0.10100000352E+00 0. -1.
       -3    1    3    3    0  502  0.61967784435E+03 -0.64517393351E+03 -0.75635785265E+03  0.11714637198E+04  0.10100000352E+00 0.  1.
</event>
<event>
 5   0  0.3320780E-05  0.2305507E+04  0.7818609E-02  0.8475753E-01
       -2   -1    0    0    0  501  0.00000000000E+00  0.00000000000E+00  0.76621087002E+03  0.76621087002E+03  0.25500000920E-02 0. -1.
        2   -1    0    0  501    0  0.00000000000E+00  0.00000000000E+00 -0.17343013784E+04  0.17343013784E+04  0.25500000920E-02 0.  1.
    10030    2    1    2    0    0  0.00000000000E+00  0.00000000000E+00 -0.96809050837E+03  0.25005122484E+04  0.23055069447E+04 0.  0.
        5    1    3    3  502    0  0.12635487119E+03  0.11121331366E+04 -0.18502132198E+03  0.11344869530E+04  0.46999998093E+01 0. -1.
       -5    1    3    3    0  502 -0.12635487119E+03 -0.11121331366E+04 -0.78306918640E+03  0.13660252954E+04  0.46999998093E+01 0.  1.
</event>
<event>
 5   0  0.1147362E-05  0.2046427E+04  0.7818609E-02  0.8585217E-01
        3   -1    0    0  501    0  0.00000000000E+00  0.00000000000E+00  0.67668341370E+03  0.67668342123E+03  0.10100000352E+00 0.  1.
       -3   -1    0    0    0  501  0.00000000000E+00  0.00000000000E+00 -0.15472022251E+04  0.15472022284E+04  0.10100000352E+00 0. -1.
    10030    2    1    2    0    0  0.00000000000E+00  0.00000000000E+00 -0.87051881136E+03  0.22238856496E+04  0.20464272236E+04 0.  0.
        4    1    3    3  502    0 -0.46943038745E+03  0.47105981912E+03 -0.12803182215E+04  0.14427330325E+04  0.12699999809E+01 0. -1.
       -4    1    3    3    0  502  0.46943038745E+03 -0.47105981912E+03  0.40979941009E+03  0.78115261714E+03  0.12699999809E+01 0.  1.
</event>
<event>
 5   0  0.3320780E-05  0.2407656E+04  0.7818609E-02  0.8436643E-01
        2   -1    0    0  501    0  0.00000000000E+00  0.00000000000E+00  0.12498917404E+04  0.12498917404E+04  0.25500000920E-02 0.  1.
       -2   -1    0    0    0  501  0.00000000000E+00  0.00000000000E+00 -0.11594622649E+04  0.11594622649E+04  0.25500000920E-02 0. -1.
    10030    2    1    2    0    0  0.00000000000E+00  0.00000000000E+00  0.90429475492E+02  0.24093540054E+04  0.24076563777E+04 0.  0.
        5    1    3    3  502    0  0.56682032529E+03  0.10488154009E+04 -0.12187961762E+03  0.11984055063E+04  0.46999998093E+01 0.  1.
       -5    1    3    3    0  502 -0.56682032529E+03 -0.10488154009E+04  0.21230909311E+03  0.12109484991E+04  0.46999998093E+01 0. -1.
</event>
<event>
 5   0  0.1393026E-05  0.2394355E+04  0.7818609E-02  0.8441620E-01
       -1   -1    0    0    0  501  0.00000000000E+00  0.00000000000E+00  0.49705368428E+03  0.49705368431E+03  0.50400001928E-02 0. -1.
        1   -1    0    0  501    0  0.00000000000E+00  0.00000000000E+00 -0.28834590585E+04  0.28834590585E+04  0.50400001928E-02 0.  1.
    10030    2    1    2    0    0  0.00000000000E+00  0.00000000000E+00 -0.23864053742E+04  0.33805127428E+04  0.23943549850E+04 0.  0.
        4    1    3    3  502    0 -0.28385861082E+03  0.10843341197E+04 -0.59941844735E+03  0.12710862606E+04  0.12699999809E+01 0. -1.
       -4    1    3    3    0  502  0.28385861082E+03 -0.10843341197E+04 -0.17869869268E+04  0.21094264822E+04  0.12699999809E+01 0.  1.
</event>
<event>
 5   0  0.1434943E-05  0.2326249E+04  0.7818609E-02  0.8467643E-01
       -1   -1    0    0    0  501  0.00000000000E+00  0.00000000000E+00  0.14880421349E+04  0.14880421349E+04  0.50400001928E-02 0. -1.
        1   -1    0    0  501    0  0.00000000000E+00  0.00000000000E+00 -0.90915372572E+03  0.90915372573E+03  0.50400001928E-02 0.  1.
    10030    2    1    2    0    0  0.00000000000E+00  0.00000000000E+00  0.57888840920E+03  0.23971958607E+04  0.23262493856E+04 0.  0.
        5    1    3    3  502    0 -0.15925500668E+03 -0.65253631083E+03 -0.68907947291E+03  0.96229850051E+03  0.46999998093E+01 0.  1.
       -5    1    3    3    0  502  0.15925500668E+03  0.65253631083E+03  0.12679678821E+04  0.14348973602E+04  0.46999998093E+01 0. -1.
</event>
<event>
 5   0  0.3347728E-05  0.2472570E+04  0.7818609E-02  0.8412823E-01
       -2   -1    0    0    0  501  0.00000000000E+00  0.00000000000E+00  0.75931943378E+03  0.75931943378E+03  0.25500000920E-02 0.  1.
        2   -1    0    0  501    0  0.00000000000E+00  0.00000000000E+00 -0.20128562121E+04  0.20128562121E+04  0.25500000920E-02 0. -1.
    10030    2    1    2    0    0  0.00000000000E+00  0.00000000000E+00 -0.12535367784E+04  0.27721756459E+04  0.24725701926E+04 0.  0.
        3    1    3    3  502    0 -0.19964977985E+02 -0.11794276918E+04 -0.21185526356E+03  0.11984702513E+04  0.10100000352E+00 0. -1.
       -3    1    3    3    0  502  0.19964977985E+02  0.11794276918E+04 -0.10416815148E+04  0.15737053946E+04  0.10100000352E+00 0.  1.
</event>
<event>
 5   0  0.3320780E-05  0.2399702E+04  0.7818609E-02  0.8439615E-01
        2   -1    0    0  501    0  0.00000000000E+00  0.00000000000E+00  0.10362249383E+04  0.10362249383E+04  0.25500000920E-02 0.  1.
       -2   -1    0    0    0  501  0.00000000000E+00  0.00000000000E+00 -0.13893147626E+04  0.13893147626E+04  0.25500000920E-02 0. -1.
    10030    2    1    2    0    0  0.00000000000E+00  0.00000000000E+00 -0.35308982434E+03  0.24255397009E+04  0.23997021517E+04 0.  0.
        5    1    3    3  502    0 -0.82889935779E+03  0.71495400901E+03 -0.67314650207E+03  0.12850609649E+04  0.46999998093E+01 0. -1.
       -5    1    3    3    0  502  0.82889935779E+03 -0.71495400901E+03  0.32005667773E+03  0.11404787360E+04  0.46999998093E+01 0.  1.
</event>
<event>
 5   0  0.1147362E-05  0.2387522E+04  0.7818609E-02  0.8444190E-01
       -3   -1    0    0    0  501  0.00000000000E+00  0.00000000000E+00  0.99140221530E+03  0.99140222044E+03  0.10100000352E+00 0. -1.
        3   -1    0    0  501    0  0.00000000000E+00  0.00000000000E+00 -0.14374236285E+04  0.14374236320E+04  0.10100000352E+00 0.  1.
    10030    2    1    2    0    0  0.00000000000E+00  0.00000000000E+00 -0.44602141319E+03  0.24288258525E+04  0.23875217110E+04 0.  0.
        3    1    3    3  502    0  0.26709623010E+03  0.10226658746E+04  0.34145705014E+03  0.11107559653E+04  0.10100000352E+00 0. -1.
       -3    1    3    3    0  502 -0.26709623010E+03 -0.10226658746E+04 -0.78747846333E+03  0.13180698872E+04  0.10100000352E+00 0.  1.
</event>
<event>
 5   0  0.3345974E-05  0.2335712E+04  0.7818609E-02  0.8463972E-01
        2   -1    0    0  501    0  0.00000000000E+00  0.00000000000E+00  0.17505848761E+04  0.17505848761E+04  0.25500000920E-02 0.  1.
       -2   -1    0    0    0  501  0.00000000000E+00  0.00000000000E+00 -0.77910376818E+03  0.77910376819E+03  0.25500000920E-02 0. -1.
    10030    2    1    2    0    0  0.00000000000E+00  0.00000000000E+00  0.97148110792E+03  0.25296886443E+04  0.23357116890E+04 0.  0.
        4    1    3    3  502    0  0.46308319050E+03  0.67337263103E+03 -0.41781579013E+03  0.91784987277E+03  0.12699999809E+01 0. -1.
       -4    1    3    3    0  502 -0.46308319050E+03 -0.67337263103E+03  0.13892968980E+04  0.16118387715E+04  0.12699999809E+01 0.  1.
</event>
<event>
 5   0  0.1407158E-05  0.2363039E+04  0.7818609E-02  0.8453472E-01
        1   -1    0    0  501    0  0.00000000000E+00  0.00000000000E+00  0.10881805261E+04  0.10881805262E+04  0.50400001928E-02 0.  1.
       -1   -1    0    0    0  501  0.00000000000E+00  0.00000000000E+00 -0.12828642532E+04  0.12828642532E+04  0.50400001928E-02 0. -1.
    10030    2    1    2    0    0  0.00000000000E+00  0.00000000000E+00 -0.19468372706E+03  0.23710447794E+04  0.23630386354E+04 0.  0.
        1    1    3    3  502    0  0.24096759408E+03 -0.43253554629E+03  0.97906277901E+03  0.10971400574E+04  0.50400001928E-02 0.  1.
       -1    1    3    3    0  502 -0.24096759408E+03  0.43253554629E+03 -0.11737465061E+04  0.12739047220E+04  0.50400001928E-02 0. -1.
</event>
<event>
 5   0  0.1393026E-05  0.2419544E+04  0.7818609E-02  0.8432223E-01
       -1   -1    0    0    0  501  0.00000000000E+00  0.00000000000E+00  0.10647444889E+04  0.10647444889E+04  0.50400001928E-02 0. -1.
        1   -1    0    0  501    0  0.00000000000E+00  0.00000000000E+00 -0.13745532264E+04  0.13745532264E+04  0.50400001928E-02 0.  1.
    10030    2    1    2    0    0  0.00000000000E+00  0.00000000000E+00 -0.30980873749E+03  0.24392977152E+04  0.24195437359E+04 0.  0.
        4    1    3    3  502    0 -0.38012805487E+03  0.10611771655E+04 -0.59775373236E+03  0.12758939815E+04  0.12699999809E+01 0. -1.
       -4    1    3    3    0  502  0.38012805487E+03 -0.10611771655E+04  0.28794499487E+03  0.11634037337E+04  0.12699999809E+01 0.  1.
</event>
<event>
 5   0  0.1393026E-05  0.2401525E+04  0.7818609E-02  0.8438933E-01
       -1   -1    0    0    0  501  0.00000000000E+00  0.00000000000E+00  0.16452476464E+04  0.16452476464E+04  0.50400001928E-02 0.  1.
        1   -1    0    0  501    0  0.00000000000E+00  0.00000000000E+00 -0.87636095819E+03  0.87636095820E+03  0.50400001928E-02 0. -1.
    10030    2    1    2    0    0  0.00000000000E+00  0.00000000000E+00  0.76888668822E+03  0.25216086046E+04  0.24015251853E+04 0.  0.
        4    1    3    3  502    0 -0.75797461178E+03 -0.41123004332E+03 -0.49291789202E+03  0.99328008226E+03  0.12699999809E+01 0. -1.
       -4    1    3    3    0  502  0.75797461178E+03  0.41123004332E+03  0.12618045802E+04  0.15283285224E+04  0.12699999809E+01 0.  1.
</event>
<event>
 5   0  0.1393026E-05  0.2417653E+04  0.7818609E-02  0.8432924E-01
       -1   -1    0    0    0  501  0.00000000000E+00  0.00000000000E+00  0.81967906326E+03  0.81967906328E+03  0.50400001928E-02 0. -1.
        1   -1    0    0  501    0  0.00000000000E+00  0.00000000000E+00 -0.17827238923E+04  0.17827238923E+04  0.50400001928E-02 0.  1.
    10030    2    1    2    0    0  0.00000000000E+00  0.00000000000E+00 -0.96304482904E+03  0.26024029556E+04  0.24176529529E+04 0.  0.
        4    1    3    3  502    0 -0.12061467948E+04 -0.73944323168E+02 -0.51559545706E+03  0.13138105426E+04  0.12699999809E+01 0.  1.
       -4    1    3    3    0  502  0.12061467948E+04  0.73944323168E+02 -0.44744937198E+03  0.12885924130E+04  0.12699999809E+01 0. -1.
</event>
<event>
 5   0  0.1407158E-05  0.2398001E+04  0.7818609E-02  0.8440252E-01
       -1   -1    0    0    0  501  0.00000000000E+00  0.00000000000E+00  0.81404579317E+03  0.81404579319E+03  0.50400001928E-02 0. -1.
        1   -1    0    0  501    0  0.00000000000E+00  0.00000000000E+00 -0.17659972339E+04  0.17659972339E+04  0.50400001928E-02 0.  1.
    10030    2    1    2    0    0  0.00000000000E+00  0.00000000000E+00 -0.95195144068E+03  0.25800430270E+04  0.23980013503E+04 0.  0.
        1    1    3    3  502    0 -0.34819333597E+02  0.10367172479E+04 -0.11229638142E+04  0.15287389464E+04  0.50400001928E-02 0.  1.
       -1    1    3    3    0  502  0.34819333597E+02 -0.10367172479E+04  0.17101237349E+03  0.10513040807E+04  0.50400001928E-02 0. -1.
</event>
<event>
 5   0  0.1434943E-05  0.2439691E+04  0.7818609E-02  0.8424792E-01
        1   -1    0    0  501    0  0.00000000000E+00  0.00000000000E+00  0.11439069069E+04  0.11439069069E+04  0.50400001928E-02 0.  1.
       -1   -1    0    0    0  501  0.00000000000E+00  0.00000000000E+00 -0.13008250960E+04  0.13008250961E+04  0.50400001928E-02 0. -1.
    10030    2    1    2    0    0  0.00000000000E+00  0.00000000000E+00 -0.15691818913E+03  0.24447320030E+04  0.24396908100E+04 0.  0.
        5    1    3    3  502    0  0.42249589276E+03 -0.84843473461E+02 -0.12220005390E+04  0.12957656430E+04  0.46999998093E+01 0. -1.
       -5    1    3    3    0  502 -0.42249589276E+03  0.84843473461E+02  0.10650823498E+04  0.11489663600E+04  0.46999998093E+01 0.  1.
</event>
<event>
 5   0  0.3345974E-05  0.2413483E+04  0.7818609E-02  0.8434473E-01
       -2   -1    0    0    0  501  0.00000000000E+00  0.00000000000E+00  0.10208944260E+04  0.10208944260E+04  0.25500000920E-02 0.  1.
        2   -1    0    0  501    0  0.00000000000E+00  0.00000000000E+00 -0.14264211318E+04  0.14264211318E+04  0.25500000920E-02 0. -1.
    10030    2    1    2    0    0  0.00000000000E+00  0.00000000000E+00 -0.40552670579E+03  0.24473155579E+04  0.24134832775E+04 0.  0.
        4    1    3    3  502    0 -0.97643335522E+03  0.43052256929E+03  0.36856358831E+03  0.11289873832E+04  0.12699999809E+01 0.  1.
       -4    1    3    3    0  502  0.97643335522E+03 -0.43052256929E+03 -0.77409029410E+03  0.13183281747E+04  0.12699999809E+01 0. -1.
</event>
<event>
 5   0  0.1434943E-05  0.2413078E+04  0.7818609E-02  0.8434624E-01
        1   -1    0    0  501    0  0.00000000000E+00  0.00000000000E+00  0.70364467738E+03  0.70364467740E+03  0.50400001928E-02 0. -1.
       -1   -1    0    0    0  501  0.00000000000E+00  0.00000000000E+00 -0.20688513315E+04  0.20688513315E+04  0.50400001928E-02 0.  1.
    10030    2    1    2    0    0  0.00000000000E+00  0.00000000000E+00 -0.13652066541E+04  0.27724960089E+04  0.24130778916E+04 0.  0.
        5    1    3    3  502    0 -0.10229644994E+04 -0.63953377429E+03 -0.66428052733E+03  0.13772256621E+04  0.46999998093E+01 0.  1.
       -5    1    3    3    0  502  0.10229644994E+04  0.63953377429E+03 -0.70092612680E+03  0.13952703468E+04  0.46999998093E+01 0. -1.
</event>
<event>
 5   0  0.3345974E-05  0.2398098E+04  0.7818609E-02  0.8440216E-01
        2   -1    0    0  501    0  0.00000000000E+00  0.00000000000E+00  0.67634446076E+03  0.67634446077E+03  0.25500000920E-02 0.  1.
       -2   -1    0    0    0  501  0.00000000000E+00  0.00000000000E+00 -0.21257198417E+04  0.21257198417E+04  0.25500000920E-02 0. -1.
    10030    2    1    2    0    0  0.00000000000E+00  0.00000000000E+00 -0.14493753810E+04  0.28020643025E+04  0.23980982800E+04 0.  0.
        4    1    3    3  502    0  0.47859720382E+03  0.43279728244E+03 -0.19055468106E+04  0.20118347426E+04  0.12699999809E+01 0. -1.
       -4    1    3    3    0  502 -0.47859720382E+03 -0.43279728244E+03  0.45617142966E+03  0.79022955989E+03  0.12699999809E+01 0.  1.
</event>
<event>
 5   0  0.1407158E-05  0.2395472E+04  0.7818609E-02  0.8441201E-01
       -1   -1    0    0    0  501  0.00000000000E+00  0.00000000000E+00  0.81728292105E+03  0.81728292107E+03  0.50400001928E-02 0. -1.
        1   -1    0    0  501    0  0.00000000000E+00  0.00000000000E+00 -0.17552941651E+04  0.17552941651E+04  0.50400001928E-02 0.  1.
    10030    2    1    2    0    0  0.00000000000E+00  0.00000000000E+00 -0.93801124404E+03  0.25725770862E+04  0.23954723481E+04 0.  0.
        1    1    3    3  502    0  0.44556798478E+03 -0.65807011977E+03 -0.14313508690E+04  0.16371781888E+04  0.50400001928E-02 0.  1.
       -1    1    3    3    0  502 -0.44556798478E+03  0.65807011977E+03  0.49333962498E+03  0.93539889737E+03  0.50400001928E-02 0. -1.
</event>
<event>
 5   0  0.3215208E-05  0.2401457E+04  0.7818609E-02  0.8438958E-01
        2   -1    0    0  501    0  0.00000000000E+00  0.00000000000E+00  0.12710965039E+04  0.12710965039E+04  0.25500000920E-02 0. -1.
       -2   -1    0    0    0  501  0.00000000000E+00  0.00000000000E+00 -0.11342559153E+04  0.11342559153E+04  0.25500000920E-02 0.  1.
    10030    2    1    2    0    0  0.00000000000E+00  0.00000000000E+00  0.13684058858E+03  0.24053524191E+04  0.24014568315E+04 0.  0.
        1    1    3    3  502    0 -0.19707757098E+03 -0.96675483010E+03 -0.61701008317E+03  0.11636820499E+04  0.50400001928E-02 0.  1.
       -1    1    3    3    0  502  0.19707757098E+03  0.96675483010E+03  0.75385067175E+03  0.12416703692E+04  0.50400001928E-02 0. -1.
</event>
<event>
 5   0  0.1506985E-05  0.2400565E+04  0.7818609E-02  0.8439292E-01
        1   -1    0    0  501    0  0.00000000000E+00  0.00000000000E+00  0.11036581808E+04  0.11036581808E+04  0.50400001928E-02 0.  1.
       -1   -1    0    0    0  501  0.00000000000E+00  0.00000000000E+00 -0.13053657408E+04  0.13053657408E+04  0.50400001928E-02 0. -1.
    10030    2    1    2    0    0  0.00000000000E+00  0.00000000000E+00 -0.20170755992E+03  0.24090239216E+04  0.24005645826E+04 0.  0.
        3    1    3    3  502    0 -0.53021213732E+03 -0.53350961527E+03  0.83781403542E+03  0.11259173097E+04  0.10100000352E+00 0.  1.
       -3    1    3    3    0  502  0.53021213732E+03  0.53350961527E+03 -0.10395215953E+04  0.12831066119E+04  0.10100000352E+00 0. -1.
</event>
<event>
 5   0  0.3310037E-05  0.2369242E+04  0.7818609E-02  0.8451109E-01
        2   -1    0    0  501    0  0.00000000000E+00  0.00000000000E+00  0.22111712649E+04  0.22111712649E+04  0.25500000920E-02 0. -1.
       -2   -1    0    0    0  501  0.00000000000E+00  0.00000000000E+00 -0.63465340303E+03  0.63465340304E+03  0.25500000920E-02 0.  1.
    10030    2    1    2    0    0  0.00000000000E+00  0.00000000000E+00  0.15765178619E+04  0.28458246680E+04  0.23692423835E+04 0.  0.
        2    1    3    3  502    0  0.17882753356E+03  0.22345935798E+03 -0.59250075261E+03  0.65800494928E+03  0.25500000920E-02 0.  1.
       -2    1    3    3    0  502 -0.17882753356E+03 -0.22345935798E+03  0.21690186145E+04  0.21878197187E+04  0.25500000920E-02 0. -1.
</event>
<event>
 5   0  0.1407158E-05  0.2388800E+04  0.7818609E-02  0.8443709E-01
        1   -1    0    0  501    0  0.00000000000E+00  0.00000000000E+00  0.17123956997E+04  0.17123956997E+04  0.50400001928E-02 0. -1.
       -1   -1    0    0    0  501  0.00000000000E+00  0.00000000000E+00 -0.83309645022E+03  0.83309645024E+03  0.50400001928E-02 0.  1.
    10030    2    1    2    0    0  0.00000000000E+00  0.00000000000E+00  0.87929924947E+03  0.25454921499E+04  0.23887995134E+04 0.  0.
        1    1    3    3  502    0 -0.37525491304E+03  0.18292784752E+03  0.16321219790E+04  0.16846664363E+04  0.50400001928E-02 0. -1.
       -1    1    3    3    0  502  0.37525491304E+03 -0.18292784752E+03 -0.75282272954E+03  0.86082571366E+03  0.50400001928E-02 0.  1.
</event>
<event>
 5   0  0.1506985E-05  0.2400738E+04  0.7818609E-02  0.8439227E-01
        1   -1    0    0  501    0  0.00000000000E+00  0.00000000000E+00  0.12232212150E+04  0.12232212150E+04  0.50400001928E-02 0.  1.
       -1   -1    0    0    0  501  0.00000000000E+00  0.00000000000E+00 -0.11779436510E+04  0.11779436511E+04  0.50400001928E-02 0. -1.
    10030    2    1    2    0    0  0.00000000000E+00  0.00000000000E+00  0.45277563971E+02  0.24011648661E+04  0.24007379399E+04 0.  0.
        3    1    3    3  502    0  0.32846862914E+03 -0.59490154951E+03 -0.96702500691E+03  0.11819208384E+04  0.10100000352E+00 0. -1.
       -3    1    3    3    0  502 -0.32846862914E+03  0.59490154951E+03  0.10123025709E+04  0.12192440277E+04  0.10100000352E+00 0.  1.
</event>
<event>
 5   0  0.1407158E-05  0.2397398E+04  0.7818609E-02  0.8440478E-01
        1   -1    0    0  501    0  0.00000000000E+00  0.00000000000E+00  0.16179410377E+04  0.16179410377E+04  0.50400001928E-02 0. -1.
       -1   -1    0    0    0  501  0.00000000000E+00  0.00000000000E+00 -0.88809109001E+03  0.88809109002E+03  0.50400001928E-02 0.  1.
    10030    2    1    2    0    0  0.00000000000E+00  0.00000000000E+00  0.72984994764E+03  0.25060321277E+04  0.23973977724E+04 0.  0.
        1    1    3    3  502    0 -0.14637835834E+03 -0.37096060467E+03 -0.81671420624E+03  0.90887869857E+03  0.50400001928E-02 0.  1.
       -1    1    3    3    0  502  0.14637835834E+03  0.37096060467E+03  0.15465641539E+04  0.15971534291E+04  0.50400001928E-02 0. -1.
</event>
<event>
 5   0  0.3320780E-05  0.2401119E+04  0.7818609E-02  0.8439085E-01
       -2   -1    0    0    0  501  0.00000000000E+00  0.00000000000E+00  0.88476422302E+03  0.88476422303E+03  0.25500000920E-02 0.  1.
        2   -1    0    0  501    0  0.00000000000E+00  0.00000000000E+00 -0.16290708014E+04  0.16290708014E+04  0.25500000920E-02 0. -1.
    10030    2    1    2    0    0  0.00000000000E+00  0.00000000000E+00 -0.74430657837E+03  0.25138350244E+04  0.24011193738E+04 0.  0.
        5    1    3    3  502    0  0.23363464287E+03  0.53962421023E+03 -0.14679690543E+04  0.15813711358E+04  0.46999998093E+01 0. -1.
       -5    1    3    3    0  502 -0.23363464287E+03 -0.53962421023E+03  0.72366247593E+03  0.93246388867E+03  0.46999998093E+01 0.  1.
</event>
<event>
 5   0  0.3347728E-05  0.2326607E+04  0.7818609E-02  0.8467504E-01
       -2   -1    0    0    0  501  0.00000000000E+00  0.00000000000E+00  0.69134804301E+03  0.69134804301E+03  0.25500000920E-02 0. -1.
        2   -1    0    0  501    0  0.00000000000E+00  0.00000000000E+00 -0.19574435536E+04  0.19574435536E+04  0.25500000920E-02 0.  1.
    10030    2    1    2    0    0  0.00000000000E+00  0.00000000000E+00 -0.12660955106E+04  0.26487915966E+04  0.23266067739E+04 0.  0.
        3    1    3    3  502    0 -0.13823175220E+03 -0.10720585947E+04 -0.14355881489E+03  0.10904250508E+04  0.10100000352E+00 0. -1.
       -3    1    3    3    0  502  0.13823175220E+03  0.10720585947E+04 -0.11225366957E+04  0.15583665458E+04  0.10100000352E+00 0.  1.
</event>
<event>
 5   0  0.3215208E-05  0.2119927E+04  0.7818609E-02  0.8552516E-01
       -2   -1    0    0    0  501  0.00000000000E+00  0.00000000000E+00  0.72211487908E+03  0.72211487908E+03  0.25500000920E-02 0. -1.
        2   -1    0    0  501    0  0.00000000000E+00  0.00000000000E+00 -0.15558785266E+04  0.15558785266E+04  0.25500000920E-02 0.  1.
    10030    2    1    2    0    0  0.00000000000E+00  0.00000000000E+00 -0.83376364754E+03  0.22779934057E+04  0.21199273894E+04 0.  0.
        1    1    3    3  502    0 -0.30699097225E+03 -0.25490905169E+03 -0.14720890932E+04  0.15252109297E+04  0.50400001928E-02 0.  1.
       -1    1    3    3    0  502  0.30699097225E+03  0.25490905169E+03  0.63832544563E+03  0.75278247605E+03  0.50400001928E-02 0. -1.
</event>
<event>
 5   0  0.1401596E-05  0.2384634E+04  0.7818609E-02  0.8445279E-01
        1   -1    0    0  501    0  0.00000000000E+00  0.00000000000E+00  0.14534690984E+04  0.14534690984E+04  0.50400001928E-02 0. -1.
       -1   -1    0    0    0  501  0.00000000000E+00  0.00000000000E+00 -0.97808714254E+03  0.97808714255E+03  0.50400001928E-02 0.  1.
    10030    2    1    2    0    0  0.00000000000E+00  0.00000000000E+00  0.47538195588E+03  0.24315562410E+04  0.23846336719E+04 0.  0.
        2    1    3    3  502    0 -0.18654538045E+03  0.38959426931E+03 -0.89549855569E+03  0.99423364301E+03  0.25500000920E-02 0.  1.
       -2    1    3    3    0  502  0.18654538045E+03 -0.38959426931E+03  0.13708805116E+04  0.14373225980E+04  0.25500000920E-02 0. -1.
</event>
<event>
 5   0  0.1407158E-05  0.2409437E+04  0.7818609E-02  0.8435979E-01
       -1   -1    0    0    0  501  0.00000000000E+00  0.00000000000E+00  0.10073441226E+04  0.10073441226E+04  0.50400001928E-02 0. -1.
        1   -1    0    0  501    0  0.00000000000E+00  0.00000000000E+00 -0.14407657819E+04  0.14407657819E+04  0.50400001928E-02 0.  1.
    10030    2    1    2    0    0  0.00000000000E+00  0.00000000000E+00 -0.43342165933E+03  0.24481099045E+04  0.24094372309E+04 0.  0.
        1    1    3    3  502    0  0.10424331945E+04  0.51984013623E+03 -0.52896450708E+03  0.12793373996E+04  0.50400001928E-02 0.  1.
       -1    1    3    3    0  502 -0.10424331945E+04 -0.51984013623E+03  0.95542847750E+02  0.11687725048E+04  0.50400001928E-02 0. -1.
</event>
<event>
 5   0  0.3320780E-05  0.2390594E+04  0.7818609E-02  0.8443033E-01
       -2   -1    0    0    0  501  0.00000000000E+00  0.00000000000E+00  0.12375546336E+04  0.12375546336E+04  0.25500000920E-02 0. -1.
        2   -1    0    0  501    0  0.00000000000E+00  0.00000000000E+00 -0.11544823032E+04  0.11544823032E+04  0.25500000920E-02 0.  1.
    10030    2    1    2    0    0  0.00000000000E+00  0.00000000000E+00  0.83072330451E+02  0.23920369368E+04  0.23905940046E+04 0.  0.
        5    1    3    3  502    0  0.22583930511E+02 -0.65973041841E+03 -0.95553836103E+03  0.11613913674E+04  0.46999998093E+01 0.  1.
       -5    1    3    3    0  502 -0.22583930511E+02  0.65973041841E+03  0.10386106915E+04  0.12306455693E+04  0.46999998093E+01 0. -1.
</event>
<event>
 5   0  0.1434943E-05  0.2324612E+04  0.7818609E-02  0.8468280E-01
       -1   -1    0    0    0  501  0.00000000000E+00  0.00000000000E+00  0.14594199007E+04  0.14594199007E+04  0.50400001928E-02 0.  1.
        1   -1    0    0  501    0  0.00000000000E+00  0.00000000000E+00 -0.92567931636E+03  0.92567931637E+03  0.50400001928E-02 0. -1.
    10030    2    1    2    0    0  0.00000000000E+00  0.00000000000E+00  0.53374058430E+03  0.23850992170E+04  0.23246116372E+04 0.  0.
        5    1    3    3  502    0  0.19244299676E+03  0.11461658800E+04  0.28145979964E+03  0.11958144674E+04  0.46999998093E+01 0. -1.
       -5    1    3    3    0  502 -0.19244299676E+03 -0.11461658800E+04  0.25228078467E+03  0.11892847497E+04  0.46999998093E+01 0.  1.
</event>
<event>
 5   0  0.1393026E-05  0.2396436E+04  0.7818609E-02  0.8440839E-01
       -1   -1    0    0    0  501  0.00000000000E+00  0.00000000000E+00  0.12931828696E+04  0.12931828696E+04  0.50400001928E-02 0.  1.
        1   -1    0    0  501    0  0.00000000000E+00  0.00000000000E+00 -0.11102266043E+04  0.11102266044E+04  0.50400001928E-02 0. -1.
    10030    2    1    2    0    0  0.00000000000E+00  0.00000000000E+00  0.18295626528E+03  0.24034094740E+04  0.23964357084E+04 0.  0.
        4    1    3    3  502    0  0.37474000796E+03  0.61407271236E+03  0.10524988928E+04  0.12748611305E+04  0.12699999809E+01 0.  1.
       -4    1    3    3    0  502 -0.37474000796E+03 -0.61407271236E+03 -0.86954262756E+03  0.11285483435E+04  0.12699999809E+01 0. -1.
</event>
<event>
 5   0  0.3320780E-05  0.2389342E+04  0.7818609E-02  0.8443505E-01
        2   -1    0    0  501    0  0.00000000000E+00  0.00000000000E+00  0.88713507467E+03  0.88713507468E+03  0.25500000920E-02 0. -1.
       -2   -1    0    0    0  501  0.00000000000E+00  0.00000000000E+00 -0.16088180131E+04  0.16088180131E+04  0.25500000920E-02 0.  1.
    10030    2    1    2    0    0  0.00000000000E+00  0.00000000000E+00 -0.72168293847E+03  0.24959530878E+04  0.23893420753E+04 0.  0.
        5    1    3    3  502    0 -0.56274504899E+03 -0.88190562464E+03 -0.96344950621E+03  0.14222153712E+04  0.46999998093E+01 0.  1.
       -5    1    3    3    0  502  0.56274504899E+03  0.88190562464E+03  0.24176656774E+03  0.10737377167E+04  0.46999998093E+01 0. -1.
</event>
<event>
 5   0  0.1147362E-05  0.2421895E+04  0.7818609E-02  0.8431352E-01
       -3   -1    0    0    0  501  0.00000000000E+00  0.00000000000E+00  0.12931158092E+04  0.12931158131E+04  0.10100000352E+00 0. -1.
        3   -1    0    0  501    0  0.00000000000E+00  0.00000000000E+00 -0.11340004917E+04  0.11340004962E+04  0.10100000352E+00 0.  1.
    10030    2    1    2    0    0  0.00000000000E+00  0.00000000000E+00  0.15911531753E+03  0.24271163093E+04  0.24218951039E+04 0.  0.
        2    1    3    3  502    0  0.10853673063E+04 -0.17909492559E+03  0.58690670019E+03  0.12468186142E+04  0.25500000920E-02 0. -1.
       -2    1    3    3    0  502 -0.10853673063E+04  0.17909492559E+03 -0.42779138266E+03  0.11802976951E+04  0.25500000920E-02 0.  1.
</event>
<event>
 5   0  0.3320780E-05  0.2394322E+04  0.7818609E-02  0.8441632E-01
        2   -1    0    0  501    0  0.00000000000E+00  0.00000000000E+00  0.15356571001E+04  0.15356571001E+04  0.25500000920E-02 0. -1.
       -2   -1    0    0    0  501  0.00000000000E+00  0.00000000000E+00 -0.93327759225E+03  0.93327759225E+03  0.25500000920E-02 0.  1.
    10030    2    1    2    0    0  0.00000000000E+00  0.00000000000E+00  0.60237950789E+03  0.24689346924E+04  0.23943219173E+04 0.  0.
        5    1    3    3  502    0 -0.81695284646E+03 -0.37491843526E+03 -0.51414381761E+03  0.10355393482E+04  0.46999998093E+01 0.  1.
       -5    1    3    3    0  502  0.81695284646E+03  0.37491843526E+03  0.11165233255E+04  0.14333953442E+04  0.46999998093E+01 0. -1.
</event>
<event>
 5   0  0.3345974E-05  0.2379418E+04  0.7818609E-02  0.8447249E-01
       -2   -1    0    0    0  501  0.00000000000E+00  0.00000000000E+00  0.22052603963E+04  0.22052603963E+04  0.25500000920E-02 0.  1.
        2   -1    0    0  501    0  0.00000000000E+00  0.00000000000E+00 -0.64183245868E+03  0.64183245869E+03  0.25500000920E-02 0. -1.
    10030    2    1    2    0    0  0.00000000000E+00  0.00000000000E+00  0.15634279376E+04  0.28470928550E+04  0.23794181660E+04 0.  0.
        4    1    3    3  502    0  0.22696248540E+03  0.30006844309E+03 -0.56877339188E+03  0.68195148253E+03  0.12699999809E+01 0. -1.
       -4    1    3    3    0  502 -0.22696248540E+03 -0.30006844309E+03  0.21322013295E+04  0.21651413724E+04  0.12699999809E+01 0.  1.
</event>
<event>
 5   0  0.3215208E-05  0.2398453E+04  0.7818609E-02  0.8440083E-01
       -2   -1    0    0    0  501  0.00000000000E+00  0.00000000000E+00  0.10668627196E+04  0.10668627196E+04  0.25500000920E-02 0. -1.
        2   -1    0    0  501    0  0.00000000000E+00  0.00000000000E+00 -0.13480121162E+04  0.13480121162E+04  0.25500000920E-02 0.  1.
    10030    2    1    2    0    0  0.00000000000E+00  0.00000000000E+00 -0.28114939659E+03  0.24148748358E+04  0.23984527282E+04 0.  0.
        1    1    3    3  502    0  0.50776727013E+03  0.81180033054E+03  0.58637751841E+03  0.11228027304E+04  0.50400001928E-02 0. -1.
       -1    1    3    3    0  502 -0.50776727013E+03 -0.81180033054E+03 -0.86752691501E+03  0.12920721054E+04  0.50400001928E-02 0.  1.
</event>
<event>
 5   0  0.3215208E-05  0.2327220E+04  0.7818609E-02  0.8467265E-01
        2   -1    0    0  501    0  0.00000000000E+00  0.00000000000E+00  0.25712524389E+04  0.25712524389E+04  0.25500000920E-02 0.  1.
       -2   -1    0    0    0  501  0.00000000000E+00  0.00000000000E+00 -0.52658694002E+03  0.52658694002E+03  0.25500000920E-02 0. -1.
    10030    2    1    2    0    0  0.00000000000E+00  0.00000000000E+00  0.20446654989E+04  0.30978393789E+04  0.23272197609E+04 0.  0.
        1    1    3    3  502    0 -0.10527805600E+04  0.48159200094E+03  0.11781958281E+04  0.16517939255E+04  0.50400001928E-02 0.  1.
       -1    1    3    3    0  502  0.10527805600E+04 -0.48159200094E+03  0.86646967076E+03  0.14460454534E+04  0.50400001928E-02 0. -1.
</event>
<event>
 5   0  0.1401596E-05  0.2410808E+04  0.7818609E-02  0.8435468E-01
       -1   -1    0    0    0  501  0.00000000000E+00  0.00000000000E+00  0.67484998334E+03  0.67484998336E+03  0.50400001928E-02 0. -1.
        1   -1    0    0  501    0  0.00000000000E+00  0.00000000000E+00 -0.21530699061E+04  0.21530699061E+04  0.50400001928E-02 0.  1.
    10030    2    1    2    0    0  0.00000000000E+00  0.00000000000E+00 -0.14782199228E+04  0.28279198895E+04  0.24108083211E+04 0.  0.
        2    1    3    3  502    0 -0.61515523767E+03  0.98284048062E+03 -0.35253390090E+03  0.12118875889E+04  0.25500000920E-02 0. -1.
       -2    1    3    3    0  502  0.61515523767E+03 -0.98284048062E+03 -0.11256860219E+04  0.16160323006E+04  0.25500000920E-02 0.  1.
</event>
<event>
 5   0  0.3215208E-05  0.2396439E+04  0.7818609E-02  0.8440838E-01
       -2   -1    0    0    0  501  0.00000000000E+00  0.00000000000E+00  0.75858656367E+03  0.75858656367E+03  0.25500000920E-02 0. -1.
        2   -1    0    0  501    0  0.00000000000E+00  0.00000000000E+00 -0.18926387812E+04  0.18926387812E+04  0.25500000920E-02 0.  1.
    10030    2    1    2    0    0  0.00000000000E+00  0.00000000000E+00 -0.11340522175E+04  0.26512253449E+04  0.23964393164E+04 0.  0.
        1    1    3    3  502    0  0.52617089863E+03 -0.60901159399E+03 -0.15490852496E+04  0.17456849792E+04  0.50400001928E-02 0.  1.
       -1    1    3    3    0  502 -0.52617089863E+03  0.60901159399E+03  0.41503303202E+03  0.90554036568E+03  0.50400001928E-02 0. -1.
</event>
<event>
 5   0  0.1434943E-05  0.2424940E+04  0.7818609E-02  0.8430225E-01
       -1   -1    0    0    0  501  0.00000000000E+00  0.00000000000E+00  0.14513851133E+04  0.14513851133E+04  0.50400001928E-02 0.  1.
        1   -1    0    0  501    0  0.00000000000E+00  0.00000000000E+00 -0.10128832812E+04  0.10128832812E+04  0.50400001928E-02 0. -1.
    10030    2    1    2    0    0  0.00000000000E+00  0.00000000000E+00  0.43850183207E+03  0.24642683946E+04  0.24249401773E+04 0.  0.
        5    1    3    3  502    0 -0.69569053550E+03 -0.77647537448E+03  0.84829106033E+03  0.13440681312E+04  0.46999998093E+01 0.  1.
       -5    1    3    3    0  502  0.69569053550E+03  0.77647537448E+03 -0.40978922826E+03  0.11202002633E+04  0.46999998093E+01 0. -1.
</event>
<event>
 5   0  0.1506985E-05  0.2414653E+04  0.7818609E-02  0.8434038E-01
        1   -1    0    0  501    0  0.00000000000E+00  0.00000000000E+00  0.98494669698E+03  0.98494669699E+03  0.50400001928E-02 0.  1.
       -1   -1    0    0    0  501  0.00000000000E+00  0.00000000000E+00 -0.14799153148E+04  0.14799153148E+04  0.50400001928E-02 0. -1.
    10030    2    1    2    0    0  0.00000000000E+00  0.00000000000E+00 -0.49496861785E+03  0.24648620118E+04  0.24146533508E+04 0.  0.
        3    1    3    3  502    0  0.20572663082E+03  0.88452511077E+03 -0.10595955344E+04  0.13955109548E+04  0.10100000352E+00 0. -1.
       -3    1    3    3    0  502 -0.20572663082E+03 -0.88452511077E+03  0.56462691650E+03  0.10693510571E+04  0.10100000352E+00 0.  1.
</event>
<event>
 5   0  0.3345974E-05  0.2400966E+04  0.7818609E-02  0.8439142E-01
       -2   -1    0    0    0  501  0.00000000000E+00  0.00000000000E+00  0.74685910962E+03  0.74685910962E+03  0.25500000920E-02 0. -1.
        2   -1    0    0  501    0  0.00000000000E+00  0.00000000000E+00 -0.19296265876E+04  0.19296265876E+04  0.25500000920E-02 0.  1.
    10030    2    1    2    0    0  0.00000000000E+00  0.00000000000E+00 -0.11827674780E+04  0.26764856972E+04  0.24009658016E+04 0.  0.
        4    1    3    3  502    0 -0.92232236662E+03 -0.73250073383E+03 -0.85024125391E+03  0.14526347358E+04  0.12699999809E+01 0.  1.
       -4    1    3    3    0  502  0.92232236662E+03  0.73250073383E+03 -0.33252622405E+03  0.12238509614E+04  0.12699999809E+01 0. -1.
</event>
<event>
 5   0  0.1393026E-05  0.2375943E+04  0.7818609E-02  0.8448565E-01
       -1   -1    0    0    0  501  0.00000000000E+00  0.00000000000E+00  0.11850074794E+04  0.11850074794E+04  0.50400001928E-02 0. -1.
        1   -1    0    0  501    0  0.00000000000E+00  0.00000000000E+00 -0.11909428609E+04  0.11909428609E+04  0.50400001928E-02 0.  1.
    10030    2    1    2    0    0  0.00000000000E+00  0.00000000000E+00 -0.59353814529E+01  0.23759503403E+04  0.23759429267E+04 0.  0.
        4    1    3    3  502    0  0.67471224730E+03 -0.97092447962E+03 -0.11848265226E+03  0.11882637391E+04  0.12699999809E+01 0.  1.
       -4    1    3    3    0  502 -0.67471224730E+03  0.97092447962E+03  0.11254727080E+03  0.11876866013E+04  0.12699999809E+01 0. -1.
</event>
<event>
 5   0  0.3347728E-05  0.2463511E+04  0.7818609E-02  0.8416101E-01
       -2   -1    0    0    0  501  0.00000000000E+00  0.00000000000E+00  0.92056520398E+03  0.92056520398E+03  0.25500000920E-02 0.  1.
        2   -1    0    0  501    0  0.00000000000E+00  0.00000000000E+00 -0.16481416222E+04  0.16481416222E+04  0.25500000920E-02 0. -1.
    10030    2    1    2    0    0  0.00000000000E+00  0.00000000000E+00 -0.72757641823E+03  0.25687068262E+04  0.24635111761E+04 0.  0.
        3    1    3    3  502    0  0.30797611334E+03  0.11522299296E+03 -0.16015307674E+04  0.16349392753E+04  0.10100000352E+00 0. -1.
       -3    1    3    3    0  502 -0.30797611334E+03 -0.11522299296E+03  0.87395434921E+03  0.93376755095E+03  0.10100000352E+00 0.  1.
</event>
<event>
 5   0  0.3347728E-05  0.2391405E+04  0.7818609E-02  0.8442729E-01
       -2   -1    0    0    0  501  0.00000000000E+00  0.00000000000E+00  0.12043393221E+04  0.12043393221E+04  0.25500000920E-02 0. -1.
        2   -1    0    0  501    0  0.00000000000E+00  0.00000000000E+00 -0.11871272290E+04  0.11871272290E+04  0.25500000920E-02 0.  1.
    10030    2    1    2    0    0  0.00000000000E+00  0.00000000000E+00  0.17212093059E+02  0.23914665511E+04  0.23914046101E+04 0.  0.
        3    1    3    3  502    0 -0.76147137333E+03  0.29979629922E+03  0.88040125691E+03  0.12020078439E+04  0.10100000352E+00 0. -1.
       -3    1    3    3    0  502  0.76147137333E+03 -0.29979629922E+03 -0.86318916385E+03  0.11894587072E+04  0.10100000352E+00 0.  1.
</event>
<event>
 5   0  0.3347728E-05  0.2360467E+04  0.7818609E-02  0.8454454E-01
       -2   -1    0    0    0  501  0.00000000000E+00  0.00000000000E+00  0.92642138445E+03  0.92642138446E+03  0.25500000920E-02 0. -1.
        2   -1    0    0  501    0  0.00000000000E+00  0.00000000000E+00 -0.15035831563E+04  0.15035831563E+04  0.25500000920E-02 0.  1.
    10030    2    1    2    0    0  0.00000000000E+00  0.00000000000E+00 -0.57716177184E+03  0.24300045407E+04  0.23604674023E+04 0.  0.
        3    1    3    3  502    0  0.76171194739E+03  0.48119724880E+03  0.49623949495E+03  0.10285959020E+04  0.10100000352E+00 0. -1.
       -3    1    3    3    0  502 -0.76171194739E+03 -0.48119724880E+03 -0.10734012668E+04  0.14014086388E+04  0.10100000352E+00 0.  1.
</event>
<event>
 5   0  0.1401596E-05  0.2422264E+04  0.7818609E-02  0.8431215E-01
        1   -1    0    0  501    0  0.00000000000E+00  0.00000000000E+00  0.10170407932E+04  0.10170407932E+04  0.50400001928E-02 0.  1.
       -1   -1    0    0    0  501  0.00000000000E+00  0.00000000000E+00 -0.14422636135E+04  0.14422636135E+04  0.50400001928E-02 0. -1.
    10030    2    1    2    0    0  0.00000000000E+00  0.00000000000E+00 -0.42522282034E+03  0.24593044068E+04  0.24222641718E+04 0.  0.
        2    1    3    3  502    0 -0.21327506823E+03 -0.54894481610E+03 -0.12871018587E+04  0.14154355727E+04  0.25500000920E-02 0. -1.
       -2    1    3    3    0  502  0.21327506823E+03  0.54894481610E+03  0.86187903837E+03  0.10438688340E+04  0.25500000920E-02 0.  1.
</event>
<event>
 5   0  0.3320780E-05  0.2468180E+04  0.7818609E-02  0.8414410E-01
       -2   -1    0    0    0  501  0.00000000000E+00  0.00000000000E+00  0.90499658830E+03  0.90499658830E+03  0.25500000920E-02 0.  1.
        2   -1    0    0  501    0  0.00000000000E+00  0.00000000000E+00 -0.16828553357E+04  0.16828553357E+04  0.25500000920E-02 0. -1.
    10030    2    1    2    0    0  0.00000000000E+00  0.00000000000E+00 -0.77785874740E+03  0.25878519240E+04  0.24681801696E+04 0.  0.
        5    1    3    3  502    0  0.47492617138E+03 -0.55034282502E+03 -0.14345405857E+04  0.16082166755E+04  0.46999998093E+01 0. -1.
       -5    1    3    3    0  502 -0.47492617138E+03  0.55034282502E+03  0.65668183832E+03  0.97963524849E+03  0.46999998093E+01 0.  1.
</event>
<event>
 5   0  0.3320780E-05  0.2380196E+04  0.7818609E-02  0.8446955E-01
       -2   -1    0    0    0  501  0.00000000000E+00  0.00000000000E+00  0.66514405243E+03  0.66514405244E+03  0.25500000920E-02 0.  1.
        2   -1    0    0  501    0  0.00000000000E+00  0.00000000000E+00 -0.21293634702E+04  0.21293634702E+04  0.25500000920E-02 0. -1.
    10030    2    1    2    0    0  0.00000000000E+00  0.00000000000E+00 -0.14642194178E+04  0.27945075226E+04  0.23801961664E+04 0.  0.
        5    1    3    3  502    0 -0.81454472768E+02  0.93331761007E+03  0.12952581454E+03  0.94578835848E+03  0.46999998093E+01 0.  1.
       -5    1    3    3    0  502  0.81454472768E+02 -0.93331761007E+03 -0.15937452323E+04  0.18487191641E+04  0.46999998093E+01 0. -1.
</event>
<event>
 5   0  0.3345974E-05  0.2225756E+04  0.7818609E-02  0.8507784E-01
       -2   -1    0    0    0  501  0.00000000000E+00  0.00000000000E+00  0.15410525182E+04  0.15410525182E+04  0.25500000920E-02 0. -1.
        2   -1    0    0  501    0  0.00000000000E+00  0.00000000000E+00 -0.80366986989E+03  0.80366986989E+03  0.25500000920E-02 0.  1.
    10030    2    1    2    0    0  0.00000000000E+00  0.00000000000E+00  0.73738264835E+03  0.23447223881E+04  0.22257560305E+04 0.  0.
        4    1    3    3  502    0 -0.72995072434E+03 -0.82914688038E+03  0.51074408637E+03  0.12170348162E+04  0.12699999809E+01 0. -1.
       -4    1    3    3    0  502  0.72995072434E+03  0.82914688038E+03  0.22663856198E+03  0.11276875719E+04  0.12699999809E+01 0.  1.
</event>
<event>
 5   0  0.3345974E-05  0.2401160E+04  0.7818609E-02  0.8439069E-01
       -2   -1    0    0    0  501  0.00000000000E+00  0.00000000000E+00  0.16507685452E+04  0.16507685452E+04  0.25500000920E-02 0.  1.
        2   -1    0    0  501    0  0.00000000000E+00  0.00000000000E+00 -0.87316442664E+03  0.87316442664E+03  0.25500000920E-02 0. -1.
    10030    2    1    2    0    0  0.00000000000E+00  0.00000000000E+00  0.77760411858E+03  0.25239329719E+04  0.24011600282E+04 0.  0.
        4    1    3    3  502    0  0.59921892400E+03  0.10249257781E+04  0.57640632459E+03  0.13197659010E+04  0.12699999809E+01 0.  1.
       -4    1    3    3    0  502 -0.59921892400E+03 -0.10249257781E+04  0.20119779399E+03  0.12041670709E+04  0.12699999809E+01 0. -1.
</event>
<event>
 5   0  0.1401596E-05  0.2501419E+04  0.7818609E-02  0.8402480E-01
       -1   -1    0    0    0  501  0.00000000000E+00  0.00000000000E+00  0.13934232451E+04  0.13934232451E+04  0.50400001928E-02 0.  1.
        1   -1    0    0  501    0  0.00000000000E+00  0.00000000000E+00 -0.11226126931E+04  0.11226126931E+04  0.50400001928E-02 0. -1.
    10030    2    1    2    0    0  0.00000000000E+00  0.00000000000E+00  0.27081055203E+03  0.25160359382E+04  0.25014192945E+04 0.  0.
        2    1    3    3  502    0  0.48905923937E+03 -0.30334770358E+03  0.12523334379E+04  0.13782372106E+04  0.25500000920E-02 0.  1.
       -2    1    3    3    0  502 -0.48905923937E+03  0.30334770358E+03 -0.98152288592E+03  0.11377987276E+04  0.25500000920E-02 0. -1.
</event>
<event>
 5   0  0.3347728E-05  0.2424414E+04  0.7818609E-02  0.8430419E-01
       -2   -1    0    0    0  501  0.00000000000E+00  0.00000000000E+00  0.24689590481E+04  0.24689590482E+04  0.25500000920E-02 0. -1.
        2   -1    0    0  501    0  0.00000000000E+00  0.00000000000E+00 -0.59516838744E+03  0.59516838744E+03  0.25500000920E-02 0.  1.
    10030    2    1    2    0    0  0.00000000000E+00  0.00000000000E+00  0.18737906607E+04  0.30641274356E+04  0.24244144657E+04 0.  0.
        3    1    3    3  502    0 -0.95210663787E+03  0.34813544698E+03  0.96886552216E+02  0.10183773139E+04  0.10100000352E+00 0.  1.
       -3    1    3    3    0  502  0.95210663787E+03 -0.34813544698E+03  0.17769041085E+04  0.20457501217E+04  0.10100000352E+00 0. -1.
</event>
<event>
 5   0  0.1393026E-05  0.2389659E+04  0.7818609E-02  0.8443385E-01
        1   -1    0    0  501    0  0.00000000000E+00  0.00000000000E+00  0.10560136412E+04  0.10560136413E+04  0.50400001928E-02 0. -1.
       -1   -1    0    0    0  501  0.00000000000E+00  0.00000000000E+00 -0.13518925885E+04  0.13518925885E+04  0.50400001928E-02 0.  1.
    10030    2    1    2    0    0  0.00000000000E+00  0.00000000000E+00 -0.29587894724E+03  0.24079062297E+04  0.23896585655E+04 0.  0.
        4    1    3    3  502    0  0.10777714868E+04  0.44604030387E+03  0.11302090684E+03  0.11718867986E+04  0.12699999809E+01 0.  1.
       -4    1    3    3    0  502 -0.10777714868E+04 -0.44604030387E+03 -0.40889985408E+03  0.12360194311E+04  0.12699999809E+01 0. -1.
</event>
<event>
 5   0  0.3215208E-05  0.2413275E+04  0.7818609E-02  0.8434550E-01
        2   -1    0    0  501    0  0.00000000000E+00  0.00000000000E+00  0.10938802311E+04  0.10938802311E+04  0.25500000920E-02 0.  1.
       -2   -1    0    0    0  501  0.00000000000E+00  0.00000000000E+00 -0.13310180214E+04  0.13310180214E+04  0.25500000920E-02 0. -1.
    10030    2    1    2    0    0  0.00000000000E+00  0.00000000000E+00 -0.23713779038E+03  0.24248982525E+04  0.24132752026E+04 0.  0.
        1    1    3    3  502    0 -0.76396763700E+03 -0.37493396495E+03  0.74097628631E+03  0.11283917251E+04  0.50400001928E-02 0.  1.
       -1    1    3    3    0  502  0.76396763700E+03  0.37493396495E+03 -0.97811407669E+03  0.12965065274E+04  0.50400001928E-02 0. -1.
</event>
<event>
 5   0  0.3310037E-05  0.2401193E+04  0.7818609E-02  0.8439057E-01
        2   -1    0    0  501    0  0.00000000000E+00  0.00000000000E+00  0.19535226544E+04  0.19535226544E+04  0.25500000920E-02 0.  1.
       -2   -1    0    0    0  501  0.00000000000E+00  0.00000000000E+00 -0.73786264235E+03  0.73786264235E+03  0.25500000920E-02 0. -1.
    10030    2    1    2    0    0  0.00000000000E+00  0.00000000000E+00  0.12156600121E+04  0.26913852968E+04  0.24011925268E+04 0.  0.
        2    1    3    3  502    0 -0.72494073644E+03  0.38125340014E+03 -0.37605868456E+03  0.90128428407E+03  0.25500000920E-02 0. -1.
       -2    1    3    3    0  502  0.72494073644E+03 -0.38125340014E+03  0.15917186966E+04  0.17901010127E+04  0.25500000920E-02 0.  1.
</event>
<event>
 5   0  0.1393026E-05  0.2410635E+04  0.7818609E-02  0.8435533E-01
       -1   -1    0    0    0  501  0.00000000000E+00  0.00000000000E+00  0.88137790094E+03  0.88137790095E+03  0.50400001928E-02 0.  1.
        1   -1    0    0  501    0  0.00000000000E+00  0.00000000000E+00 -0.16483173586E+04  0.16483173586E+04  0.50400001928E-02 0. -1.
    10030    2    1    2    0    0  0.00000000000E+00  0.00000000000E+00 -0.76693945763E+03  0.25296952595E+04  0.24106351807E+04 0.  0.
        4    1    3    3  502    0  0.88194216415E+03 -0.53071293351E+02  0.47686989875E+03  0.10040144702E+04  0.12699999809E+01 0.  1.
       -4    1    3    3    0  502 -0.88194216415E+03  0.53071293351E+02 -0.12438093564E+04  0.15256807893E+04  0.12699999809E+01 0. -1.
</event>
<event>
 5   0  0.1401596E-05  0.2385321E+04  0.7818609E-02  0.8445020E-01
       -1   -1    0    0    0  501  0.00000000000E+00  0.00000000000E+00  0.58389927411E+03  0.58389927413E+03  0.50400001928E-02 0. -1.
        1   -1    0    0  501    0  0.00000000000E+00  0.00000000000E+00 -0.24361042184E+04  0.24361042184E+04  0.50400001928E-02 0.  1.
    10030    2    1    2    0    0  0.00000000000E+00  0.00000000000E+00 -0.18522049442E+04  0.30200034925E+04  0.23853213492E+04 0.  0.
        2    1    3    3  502    0  0.11395637334E+04  0.33397665439E+02 -0.13696250241E+04  0.17820195322E+04  0.25500000920E-02 0.  1.
       -2    1    3    3    0  502 -0.11395637334E+04 -0.33397665439E+02 -0.48257992019E+03  0.12379839603E+04  0.25500000920E-02 0. -1.
</event>
<event>
 5   0  0.3345974E-05  0.2088825E+04  0.7818609E-02  0.8566182E-01
       -2   -1    0    0    0  501  0.00000000000E+00  0.00000000000E+00  0.79971587479E+03  0.79971587479E+03  0.25500000920E-02 0. -1.
        2   -1    0    0  501    0  0.00000000000E+00  0.00000000000E+00 -0.13639814616E+04  0.13639814616E+04  0.25500000920E-02 0.  1.
    10030    2    1    2    0    0  0.00000000000E+00  0.00000000000E+00 -0.56426558683E+03  0.21636973364E+04  0.20888251509E+04 0.  0.
        4    1    3    3  502    0  0.10312196920E+03  0.25331758780E+03  0.76196116407E+03  0.80956183783E+03  0.12699999809E+01 0. -1.
       -4    1    3    3    0  502 -0.10312196920E+03 -0.25331758780E+03 -0.13262267509E+04  0.13541354986E+04  0.12699999809E+01 0.  1.
</event>
<event>
 5   0  0.3345974E-05  0.2209762E+04  0.7818609E-02  0.8514376E-01
       -2   -1    0    0    0  501  0.00000000000E+00  0.00000000000E+00  0.83637947999E+03  0.83637947999E+03  0.25500000920E-02 0. -1.
        2   -1    0    0  501    0  0.00000000000E+00  0.00000000000E+00 -0.14595797786E+04  0.14595797786E+04  0.25500000920E-02 0.  1.
    10030    2    1    2    0    0  0.00000000000E+00  0.00000000000E+00 -0.62320029861E+03  0.22959592586E+04  0.22097624997E+04 0.  0.
        4    1    3    3  502    0  0.15380300114E+03 -0.26507611912E+02  0.82486812153E+03  0.83950404851E+03  0.12699999809E+01 0. -1.
       -4    1    3    3    0  502 -0.15380300114E+03  0.26507611912E+02 -0.14480684201E+04  0.14564552101E+04  0.12699999809E+01 0.  1.
</event>
<event>
 5   0  0.1393026E-05  0.2446465E+04  0.7818609E-02  0.8422310E-01
       -1   -1    0    0    0  501  0.00000000000E+00  0.00000000000E+00  0.88998212410E+03  0.88998212412E+03  0.50400001928E-02 0.  1.
        1   -1    0    0  501    0  0.00000000000E+00  0.00000000000E+00 -0.16812672052E+04  0.16812672052E+04  0.50400001928E-02 0. -1.
    10030    2    1    2    0    0  0.00000000000E+00  0.00000000000E+00 -0.79128508110E+03  0.25712493293E+04  0.24464650077E+04 0.  0.
        4    1    3    3  502    0  0.48053764295E+03  0.11178378124E+04 -0.26345646820E+03  0.12449452697E+04  0.12699999809E+01 0.  1.
       -4    1    3    3    0  502 -0.48053764295E+03 -0.11178378124E+04 -0.52782861290E+03  0.13263040596E+04  0.12699999809E+01 0. -1.
</event>
<event>
 5   0  0.1401596E-05  0.2428023E+04  0.7818609E-02  0.8429086E-01
        1   -1    0    0  501    0  0.00000000000E+00  0.00000000000E+00  0.18307756967E+04  0.18307756967E+04  0.50400001928E-02 0. -1.
       -1   -1    0    0    0  501  0.00000000000E+00  0.00000000000E+00 -0.80502690120E+03  0.80502690121E+03  0.50400001928E-02 0.  1.
    10030    2    1    2    0    0  0.00000000000E+00  0.00000000000E+00  0.10257487955E+04  0.26358025979E+04  0.24280228054E+04 0.  0.
        2    1    3    3  502    0 -0.18239866169E+03 -0.31011922429E+03 -0.74582266654E+03  0.82806681795E+03  0.25500000920E-02 0.  1.
       -2    1    3    3    0  502  0.18239866169E+03  0.31011922429E+03  0.17715714620E+04  0.18077357800E+04  0.25500000920E-02 0. -1.
</event>
<event>
 5   0  0.3320780E-05  0.2349717E+04  0.7818609E-02  0.8458572E-01
       -2   -1    0    0    0  501  0.00000000000E+00  0.00000000000E+00  0.89330796439E+03  0.89330796439E+03  0.25500000920E-02 0.  1.
        2   -1    0    0  501    0  0.00000000000E+00  0.00000000000E+00 -0.15451475196E+04  0.15451475196E+04  0.25500000920E-02 0. -1.
    10030    2    1    2    0    0  0.00000000000E+00  0.00000000000E+00 -0.65183955518E+03  0.24384554840E+04  0.23497170769E+04 0.  0.
        5    1    3    3  502    0 -0.56401158599E+03  0.21076006484E+03  0.72101114197E+03  0.93936575992E+03  0.46999998093E+01 0.  1.
       -5    1    3    3    0  502  0.56401158599E+03 -0.21076006484E+03 -0.13728506972E+04  0.14990897240E+04  0.46999998093E+01 0. -1.
</event>
<event>
 5   0  0.3320780E-05  0.2399830E+04  0.7818609E-02  0.8439567E-01
       -2   -1    0    0    0  501  0.00000000000E+00  0.00000000000E+00  0.10852895191E+04  0.10852895191E+04  0.25500000920E-02 0. -1.
        2   -1    0    0  501    0  0.00000000000E+00  0.00000000000E+00 -0.13266471583E+04  0.13266471583E+04  0.25500000920E-02 0.  1.
    10030    2    1    2    0    0  0.00000000000E+00  0.00000000000E+00 -0.24135763922E+03  0.24119366774E+04  0.23998302077E+04 0.  0.
        5    1    3    3  502    0  0.51217486441E+03  0.81823799277E+03 -0.83697163290E+03  0.12776463160E+04  0.46999998093E+01 0.  1.
       -5    1    3    3    0  502 -0.51217486441E+03 -0.81823799277E+03  0.59561399368E+03  0.11342903614E+04  0.46999998093E+01 0. -1.
</event>
<event>
 5   0  0.1434943E-05  0.2512512E+04  0.7818609E-02  0.8398541E-01
        1   -1    0    0  501    0  0.00000000000E+00  0.00000000000E+00  0.13145531546E+04  0.13145531547E+04  0.50400001928E-02 0. -1.
       -1   -1    0    0    0  501  0.00000000000E+00  0.00000000000E+00 -0.12005445725E+04  0.12005445725E+04  0.50400001928E-02 0.  1.
    10030    2    1    2    0    0  0.00000000000E+00  0.00000000000E+00  0.11400858218E+03  0.25150977271E+04  0.25125124120E+04 0.  0.
        5    1    3    3  502    0  0.10208315925E+04  0.27645466304E+03 -0.62165588449E+03  0.12267854131E+04  0.46999998093E+01 0.  1.
       -5    1    3    3    0  502 -0.10208315925E+04 -0.27645466304E+03  0.73566446667E+03  0.12883123141E+04  0.46999998093E+01 0. -1.
</event>
<event>
 5   0  0.3310037E-05  0.2346544E+04  0.7818609E-02  0.8459792E-01
        2   -1    0    0  501    0  0.00000000000E+00  0.00000000000E+00  0.16686279572E+04  0.16686279572E+04  0.25500000920E-02 0. -1.
       -2   -1    0    0    0  501  0.00000000000E+00  0.00000000000E+00 -0.82496937223E+03  0.82496937223E+03  0.25500000920E-02 0.  1.
    10030    2    1    2    0    0  0.00000000000E+00  0.00000000000E+00  0.84365858495E+03  0.24935973294E+04  0.23465438060E+04 0.  0.
        2    1    3    3  502    0  0.20174009870E+03  0.46073295642E+03 -0.70459543848E+03  0.86569547561E+03  0.25500000920E-02 0.  1.
       -2    1    3    3    0  502 -0.20174009870E+03 -0.46073295642E+03  0.15482540234E+04  0.16279018538E+04  0.25500000920E-02 0. -1.
</event>
<event>
 5   0  0.1393026E-05  0.2384407E+04  0.7818609E-02  0.8445364E-01
       -1   -1    0    0    0  501  0.00000000000E+00  0.00000000000E+00  0.93353936145E+03  0.93353936146E+03  0.50400001928E-02 0. -1.
        1   -1    0    0  501    0  0.00000000000E+00  0.00000000000E+00 -0.15225382848E+04  0.15225382848E+04  0.50400001928E-02 0.  1.
    10030    2    1    2    0    0  0.00000000000E+00  0.00000000000E+00 -0.58899892336E+03  0.24560776463E+04  0.23844071953E+04 0.  0.
        4    1    3    3  502    0  0.14827400443E+03  0.42050708207E+02 -0.15122329201E+04  0.15200669262E+04  0.12699999809E+01 0.  1.
       -4    1    3    3    0  502 -0.14827400443E+03 -0.42050708207E+02  0.92323399677E+03  0.93601072010E+03  0.12699999809E+01 0. -1.
</event>
<event>
 5   0  0.3347728E-05  0.2384780E+04  0.7818609E-02  0.8445224E-01
       -2   -1    0    0    0  501  0.00000000000E+00  0.00000000000E+00  0.11357894529E+04  0.11357894529E+04  0.25500000920E-02 0. -1.
        2   -1    0    0  501    0  0.00000000000E+00  0.00000000000E+00 -0.12518111944E+04  0.12518111944E+04  0.25500000920E-02 0.  1.
    10030    2    1    2    0    0  0.00000000000E+00  0.00000000000E+00 -0.11602174150E+03  0.23876006474E+04  0.23847800332E+04 0.  0.
        3    1    3    3  502    0  0.10605982996E+04 -0.30067717590E+03 -0.51299134861E+03  0.12159093927E+04  0.10100000352E+00 0.  1.
       -3    1    3    3    0  502 -0.10605982996E+04  0.30067717590E+03  0.39696960710E+03  0.11716912547E+04  0.10100000352E+00 0. -1.
</event>
<event>
 5   0  0.3320780E-05  0.2396308E+04  0.7818609E-02  0.8440887E-01
        2   -1    0    0  501    0  0.00000000000E+00  0.00000000000E+00  0.75655900094E+03  0.75655900094E+03  0.25500000920E-02 0. -1.
       -2   -1    0    0    0  501  0.00000000000E+00  0.00000000000E+00 -0.18975033137E+04  0.18975033137E+04  0.25500000920E-02 0.  1.
    10030    2    1    2    0    0  0.00000000000E+00  0.00000000000E+00 -0.11409443127E+04  0.26540623146E+04  0.23963081699E+04 0.  0.
        5    1    3    3  502    0  0.90098758696E+03  0.75738848121E+03 -0.81846533061E+03  0.14336399585E+04  0.46999998093E+01 0.  1.
       -5    1    3    3    0  502 -0.90098758696E+03 -0.75738848121E+03 -0.32247898214E+03  0.12204223561E+04  0.46999998093E+01 0. -1.
</event>
<event>
 5   0  0.3310037E-05  0.2392302E+04  0.7818609E-02  0.8442391E-01
        2   -1    0    0  501    0  0.00000000000E+00  0.00000000000E+00  0.23465202264E+04  0.23465202264E+04  0.25500000920E-02 0.  1.
       -2   -1    0    0    0  501  0.00000000000E+00  0.00000000000E+00 -0.60974424402E+03  0.60974424402E+03  0.25500000920E-02 0. -1.
    10030    2    1    2    0    0  0.00000000000E+00  0.00000000000E+00  0.17367759823E+04  0.29562644704E+04  0.23923019889E+04 0.  0.
        2    1    3    3  502    0 -0.70258270310E+02  0.77663226874E+03  0.19892279932E+04  0.21366145919E+04  0.25500000920E-02 0.  1.
       -2    1    3    3    0  502  0.70258270310E+02 -0.77663226874E+03 -0.25245201092E+03  0.81964987843E+03  0.25500000920E-02 0. -1.
</event>
<event>
 5   0  0.1506985E-05  0.2393230E+04  0.7818609E-02  0.8442043E-01
       -1   -1    0    0    0  501  0.00000000000E+00  0.00000000000E+00  0.82089999712E+03  0.82089999714E+03  0.50400001928E-02 0. -1.
        1   -1    0    0  501    0  0.00000000000E+00  0.00000000000E+00 -0.17442891270E+04  0.17442891270E+04  0.50400001928E-02 0.  1.
    10030    2    1    2    0    0  0.00000000000E+00  0.00000000000E+00 -0.92338912991E+03  0.25651891242E+04  0.23932295664E+04 0.  0.
        3    1    3    3  502    0  0.30566335092E+03 -0.96467847004E+03  0.22282597673E+03  0.10361882362E+04  0.10100000352E+00 0. -1.
       -3    1    3    3    0  502 -0.30566335092E+03  0.96467847004E+03 -0.11462151066E+04  0.15290008880E+04  0.10100000352E+00 0.  1.
</event>
<event>
 5   0  0.3310037E-05  0.2414542E+04  0.7818609E-02  0.8434079E-01
        2   -1    0    0  501    0  0.00000000000E+00  0.00000000000E+00  0.17254044479E+04  0.17254044479E+04  0.25500000920E-02 0. -1.
       -2   -1    0    0    0  501  0.00000000000E+00  0.00000000000E+00 -0.84473120422E+03  0.84473120423E+03  0.25500000920E-02 0.  1.
    10030    2    1    2    0    0  0.00000000000E+00  0.00000000000E+00  0.88067324364E+03  0.25701356521E+04  0.24145417594E+04 0.  0.
        2    1    3    3  502    0  0.35911652186E+03  0.26299175584E+03  0.16348709202E+04  0.16943825618E+04  0.25500000920E-02 0. -1.
       -2    1    3    3    0  502 -0.35911652186E+03 -0.26299175584E+03 -0.75419767655E+03  0.87575309033E+03  0.25500000920E-02 0.  1.
</event>
<event>
 5   0  0.1434943E-05  0.2383202E+04  0.7818609E-02  0.8445819E-01
       -1   -1    0    0    0  501  0.00000000000E+00  0.00000000000E+00  0.97878115277E+03  0.97878115278E+03  0.50400001928E-02 0.  1.
        1   -1    0    0  501    0  0.00000000000E+00  0.00000000000E+00 -0.14506949746E+04  0.14506949746E+04  0.50400001928E-02 0. -1.
    10030    2    1    2    0    0  0.00000000000E+00  0.00000000000E+00 -0.47191382186E+03  0.24294761274E+04  0.23832019634E+04 0.  0.
        5    1    3    3  502    0  0.35274330378E+03 -0.11664749335E+03  0.91821756199E+03  0.99054533324E+03  0.46999998093E+01 0.  1.
       -5    1    3    3    0  502 -0.35274330378E+03  0.11664749335E+03 -0.13901313838E+04  0.14389307942E+04  0.46999998093E+01 0. -1.
</event>
<event>
 5   0  0.1393026E-05  0.2404519E+04  0.7818609E-02  0.8437814E-01
       -1   -1    0    0    0  501  0.00000000000E+00  0.00000000000E+00  0.10723903725E+04  0.10723903725E+04  0.50400001928E-02 0.  1.
        1   -1    0    0  501    0  0.00000000000E+00  0.00000000000E+00 -0.13478559103E+04  0.13478559103E+04  0.50400001928E-02 0. -1.
    10030    2    1    2    0    0  0.00000000000E+00  0.00000000000E+00 -0.27546553776E+03  0.24202462828E+04  0.24045188306E+04 0.  0.
        4    1    3    3  502    0  0.25289893699E+03 -0.20268065156E+03 -0.13030569798E+04  0.13427570236E+04  0.12699999809E+01 0. -1.
       -4    1    3    3    0  502 -0.25289893699E+03  0.20268065156E+03  0.10275914421E+04  0.10774892592E+04  0.12699999809E+01 0.  1.
</event>
<event>
 5   0  0.3347728E-05  0.2387465E+04  0.7818609E-02  0.8444211E-01
       -2   -1    0    0    0  501  0.00000000000E+00  0.00000000000E+00  0.64106351003E+03  0.64106351004E+03  0.25500000920E-02 0.  1.
        2   -1    0    0  501    0  0.00000000000E+00  0.00000000000E+00 -0.22228640783E+04  0.22228640783E+04  0.25500000920E-02 0. -1.
    10030    2    1    2    0    0  0.00000000000E+00  0.00000000000E+00 -0.15818005683E+04  0.28639275884E+04  0.23874648047E+04 0.  0.
        3    1    3    3  502    0  0.11223315118E+04 -0.37404508049E+03 -0.59949750953E+03  0.13262484755E+04  0.10100000352E+00 0. -1.
       -3    1    3    3    0  502 -0.11223315118E+04  0.37404508049E+03 -0.98230305878E+03  0.15376791129E+04  0.10100000352E+00 0.  1.
</event>
<event>
 5   0  0.1506985E-05  0.2391902E+04  0.7818609E-02  0.8442542E-01
       -1   -1    0    0    0  501  0.00000000000E+00  0.00000000000E+00  0.96105142660E+03  0.96105142661E+03  0.50400001928E-02 0. -1.
        1   -1    0    0  501    0  0.00000000000E+00  0.00000000000E+00 -0.14882646681E+04  0.14882646681E+04  0.50400001928E-02 0.  1.
    10030    2    1    2    0    0  0.00000000000E+00  0.00000000000E+00 -0.52721324153E+03  0.24493160947E+04  0.23919020737E+04 0.  0.
        3    1    3    3  502    0  0.30750373720E+03 -0.37658895050E+03 -0.13825014124E+04  0.14654992158E+04  0.10100000352E+00 0.  1.
       -3    1    3    3    0  502 -0.30750373720E+03  0.37658895050E+03  0.85528817083E+03  0.98381687899E+03  0.10100000352E+00 0. -1.
</event>
<event>
 5   0  0.1401596E-05  0.2502791E+04  0.7818609E-02  0.8401992E-01
       -1   -1    0    0    0  501  0.00000000000E+00  0.00000000000E+00  0.10021460972E+04  0.10021460973E+04  0.50400001928E-02 0. -1.
        1   -1    0    0  501    0  0.00000000000E+00  0.00000000000E+00 -0.15626375028E+04  0.15626375028E+04  0.50400001928E-02 0.  1.
    10030    2    1    2    0    0  0.00000000000E+00  0.00000000000E+00 -0.56049140552E+03  0.25647836000E+04  0.25027913016E+04 0.  0.
        2    1    3    3  502    0  0.78548517270E+03 -0.22394034343E+03 -0.12518084896E+04  0.14947109181E+04  0.25500000920E-02 0.  1.
       -2    1    3    3    0  502 -0.78548517270E+03  0.22394034343E+03  0.69131708407E+03  0.10700726820E+04  0.25500000920E-02 0. -1.
</event>
<event>
 5   0  0.1401596E-05  0.2417726E+04  0.7818609E-02  0.8432897E-01
       -1   -1    0    0    0  501  0.00000000000E+00  0.00000000000E+00  0.76374349783E+03  0.76374349785E+03  0.50400001928E-02 0. -1.
        1   -1    0    0  501    0  0.00000000000E+00  0.00000000000E+00 -0.19134042931E+04  0.19134042931E+04  0.50400001928E-02 0.  1.
    10030    2    1    2    0    0  0.00000000000E+00  0.00000000000E+00 -0.11496607953E+04  0.26771477909E+04  0.24177262770E+04 0.  0.
        2    1    3    3  502    0  0.10681280444E+03 -0.10730916058E+04 -0.11797197194E+04  0.15983345038E+04  0.25500000920E-02 0. -1.
       -2    1    3    3    0  502 -0.10681280444E+03  0.10730916058E+04  0.30058924129E+02  0.10788132872E+04  0.25500000920E-02 0.  1.
</event>
<event>
 5   0  0.3345974E-05  0.2424435E+04  0.7818609E-02  0.8430412E-01
        2   -1    0    0  501    0  0.00000000000E+00  0.00000000000E+00  0.16848068418E+04  0.16848068418E+04  0.25500000920E-02 0. -1.
       -2   -1    0    0    0  501  0.00000000000E+00  0.00000000000E+00 -0.87218966843E+03  0.87218966843E+03  0.25500000920E-02 0.  1.
    10030    2    1    2    0    0  0.00000000000E+00  0.00000000000E+00  0.81261717336E+03  0.25569965102E+04  0.24244348791E+04 0.  0.
        4    1    3    3  502    0  0.11786438740E+04  0.11447183358E+03  0.13297755497E+03  0.11916332596E+04  0.12699999809E+01 0. -1.
       -4    1    3    3    0  502 -0.11786438740E+04 -0.11447183358E+03  0.67963961839E+03  0.13653632506E+04  0.12699999809E+01 0.  1.
</event>
<event>
 5   0  0.1393026E-05  0.2361188E+04  0.7818609E-02  0.8454179E-01
       -1   -1    0    0    0  501  0.00000000000E+00  0.00000000000E+00  0.78700304101E+03  0.78700304102E+03  0.50400001928E-02 0. -1.
        1   -1    0    0  501    0  0.00000000000E+00  0.00000000000E+00 -0.17710244475E+04  0.17710244475E+04  0.50400001928E-02 0.  1.
    10030    2    1    2    0    0  0.00000000000E+00  0.00000000000E+00 -0.98402140646E+03  0.25580274885E+04  0.23611875198E+04 0.  0.
        4    1    3    3  502    0  0.36552548603E+03  0.95115281965E+03  0.15393229050E+03  0.10305325469E+04  0.12699999809E+01 0. -1.
       -4    1    3    3    0  502 -0.36552548603E+03 -0.95115281965E+03 -0.11379536970E+04  0.15274949416E+04  0.12699999809E+01 0.  1.
</event>
<event>
 5   0  0.1407158E-05  0.2407700E+04  0.7818609E-02  0.8436626E-01
       -1   -1    0    0    0  501  0.00000000000E+00  0.00000000000E+00  0.58576542367E+03  0.58576542369E+03  0.50400001928E-02 0. -1.
        1   -1    0    0  501    0  0.00000000000E+00  0.00000000000E+00 -0.24741210709E+04  0.24741210709E+04  0.50400001928E-02 0.  1.
    10030    2    1    2    0    0  0.00000000000E+00  0.00000000000E+00 -0.18883556472E+04  0.30598864946E+04  0.24076997963E+04 0.  0.
        1    1    3    3  502    0 -0.56741972396E+03 -0.20389385714E-01 -0.22935156614E+04  0.23626635885E+04  0.50400001928E-02 0.  1.
       -1    1    3    3    0  502  0.56741972396E+03  0.20389385714E-01  0.40516001419E+03  0.69722290602E+03  0.50400001928E-02 0. -1.
</event>
<event>
 5   0  0.3320780E-05  0.2357996E+04  0.7818609E-02  0.8455399E-01
        2   -1    0    0  501    0  0.00000000000E+00  0.00000000000E+00  0.22965380497E+04  0.22965380497E+04  0.25500000920E-02 0. -1.
       -2   -1    0    0    0  501  0.00000000000E+00  0.00000000000E+00 -0.60527458196E+03  0.60527458197E+03  0.25500000920E-02 0.  1.
    10030    2    1    2    0    0  0.00000000000E+00  0.00000000000E+00  0.16912634677E+04  0.29018126316E+04  0.23579958507E+04 0.  0.
        5    1    3    3  502    0  0.59368619322E+03 -0.13488988437E+03 -0.39684754043E+03  0.72675211542E+03  0.46999998093E+01 0.  1.
       -5    1    3    3    0  502 -0.59368619322E+03  0.13488988437E+03  0.20881110081E+04  0.21750605162E+04  0.46999998093E+01 0. -1.
</event>
<event>
 5   0  0.3215208E-05  0.2399061E+04  0.7818609E-02  0.8439855E-01
       -2   -1    0    0    0  501  0.00000000000E+00  0.00000000000E+00  0.63262428953E+03  0.63262428954E+03  0.25500000920E-02 0.  1.
        2   -1    0    0  501    0  0.00000000000E+00  0.00000000000E+00 -0.22744522881E+04  0.22744522881E+04  0.25500000920E-02 0. -1.
    10030    2    1    2    0    0  0.00000000000E+00  0.00000000000E+00 -0.16418279986E+04  0.29070765777E+04  0.23990612855E+04 0.  0.
        1    1    3    3  502    0 -0.10916168383E+04  0.37200213105E+02 -0.22007052092E+03  0.11142002566E+04  0.50400001928E-02 0.  1.
       -1    1    3    3    0  502  0.10916168383E+04 -0.37200213105E+02 -0.14217574777E+04  0.17928763211E+04  0.50400001928E-02 0. -1.
</event>
<event>
 5   0  0.3215208E-05  0.2378581E+04  0.7818609E-02  0.8447566E-01
       -2   -1    0    0    0  501  0.00000000000E+00  0.00000000000E+00  0.50196109126E+03  0.50196109127E+03  0.25500000920E-02 0.  1.
        2   -1    0    0  501    0  0.00000000000E+00  0.00000000000E+00 -0.28177724547E+04  0.28177724547E+04  0.25500000920E-02 0. -1.
    10030    2    1    2    0    0  0.00000000000E+00  0.00000000000E+00 -0.23158113634E+04  0.33197335459E+04  0.23785812042E+04 0.  0.
        1    1    3    3  502    0 -0.57508617277E+03 -0.75885341595E+02  0.29113444474E+03  0.64903155248E+03  0.50400001928E-02 0.  1.
       -1    1    3    3    0  502  0.57508617277E+03  0.75885341595E+02 -0.26069458082E+04  0.26707019935E+04  0.50400001928E-02 0. -1.
</event>
<event>
 5   0  0.1506985E-05  0.2389499E+04  0.7818609E-02  0.8443446E-01
       -1   -1    0    0    0  501  0.00000000000E+00  0.00000000000E+00  0.11328192850E+04  0.11328192851E+04  0.50400001928E-02 0. -1.
        1   -1    0    0  501    0  0.00000000000E+00  0.00000000000E+00 -0.12600651698E+04  0.12600651699E+04  0.50400001928E-02 0.  1.
    10030    2    1    2    0    0  0.00000000000E+00  0.00000000000E+00 -0.12724588480E+03  0.23928844549E+04  0.23894987967E+04 0.  0.
        3    1    3    3  502    0 -0.12193479879E+03 -0.11041445333E+04 -0.50404475772E+03  0.12198624404E+04  0.10100000352E+00 0.  1.
       -3    1    3    3    0  502  0.12193479879E+03  0.11041445333E+04  0.37679887292E+03  0.11730220145E+04  0.10100000352E+00 0. -1.
</event>
<event>
 5   0  0.3320780E-05  0.2400007E+04  0.7818609E-02  0.8439501E-01
       -2   -1    0    0    0  501  0.00000000000E+00  0.00000000000E+00  0.78512731618E+03  0.78512731618E+03  0.25500000920E-02 0. -1.
        2   -1    0    0  501    0  0.00000000000E+00  0.00000000000E+00 -0.18341086064E+04  0.18341086064E+04  0.25500000920E-02 0.  1.
    10030    2    1    2    0    0  0.00000000000E+00  0.00000000000E+00 -0.10489812902E+04  0.26192359226E+04  0.24000073064E+04 0.  0.
        5    1    3    3  502    0 -0.12259185313E+03  0.11850134448E+04 -0.68151183044E+03  0.13725035854E+04  0.46999998093E+01 0.  1.
       -5    1    3    3    0  502  0.12259185313E+03 -0.11850134448E+04 -0.36746945977E+03  0.12467323372E+04  0.46999998093E+01 0. -1.
</event>
<event>
 5   0  0.3310037E-05  0.2438344E+04  0.7818609E-02  0.8425286E-01
       -2   -1    0    0    0  501  0.00000000000E+00  0.00000000000E+00  0.79899960475E+03  0.79899960476E+03  0.25500000920E-02 0.  1.
        2   -1    0    0  501    0  0.00000000000E+00  0.00000000000E+00 -0.18603016869E+04  0.18603016869E+04  0.25500000920E-02 0. -1.
    10030    2    1    2    0    0  0.00000000000E+00  0.00000000000E+00 -0.10613020822E+04  0.26593012917E+04  0.24383439565E+04 0.  0.
        2    1    3    3  502    0  0.22923632384E+03 -0.11807680641E+04 -0.31357207249E+03  0.12430164754E+04  0.25500000920E-02 0.  1.
       -2    1    3    3    0  502 -0.22923632384E+03  0.11807680641E+04 -0.74773000969E+03  0.14162848163E+04  0.25500000920E-02 0. -1.
</event>
<event>
 5   0  0.1434943E-05  0.2405725E+04  0.7818609E-02  0.8437363E-01
       -1   -1    0    0    0  501  0.00000000000E+00  0.00000000000E+00  0.10264068447E+04  0.10264068447E+04  0.50400001928E-02 0. -1.
        1   -1    0    0  501    0  0.00000000000E+00  0.00000000000E+00 -0.14096539916E+04  0.14096539916E+04  0.50400001928E-02 0.  1.
    10030    2    1    2    0    0  0.00000000000E+00  0.00000000000E+00 -0.38324714689E+03  0.24360608364E+04  0.24057252592E+04 0.  0.
        5    1    3    3  502    0  0.16007960269E+03  0.48902622899E+03  0.90932320086E+03  0.10448267347E+04  0.46999998093E+01 0. -1.
       -5    1    3    3    0  502 -0.16007960269E+03 -0.48902622899E+03 -0.12925703477E+04  0.13912341017E+04  0.46999998093E+01 0.  1.
</event>
<event>
 5   0  0.3215208E-05  0.2320267E+04  0.7818609E-02  0.8469973E-01
       -2   -1    0    0    0  501  0.00000000000E+00  0.00000000000E+00  0.14813847543E+04  0.14813847543E+04  0.25500000920E-02 0. -1.
        2   -1    0    0  501    0  0.00000000000E+00  0.00000000000E+00 -0.90854873770E+03  0.90854873770E+03  0.25500000920E-02 0.  1.
    10030    2    1    2    0    0  0.00000000000E+00  0.00000000000E+00  0.57283601661E+03  0.23899334920E+04  0.23202674403E+04 0.  0.
        1    1    3    3  502    0  0.38328818333E+03  0.10945017309E+04  0.32005393322E+03  0.12030288403E+04  0.50400001928E-02 0. -1.
       -1    1    3    3    0  502 -0.38328818333E+03 -0.10945017309E+04  0.25278208340E+03  0.11869046517E+04  0.50400001928E-02 0.  1.
</event>
<event>
 5   0  0.3345974E-05  0.2365607E+04  0.7818609E-02  0.8452493E-01
       -2   -1    0    0    0  501  0.00000000000E+00  0.00000000000E+00  0.10211253416E+04  0.10211253416E+04  0.25500000920E-02 0.  1.
        2   -1    0    0  501    0  0.00000000000E+00  0.00000000000E+00 -0.13700802805E+04  0.13700802805E+04  0.25500000920E-02 0. -1.
    10030    2    1    2    0    0  0.00000000000E+00  0.00000000000E+00 -0.34895493887E+03  0.23912056220E+04  0.23656066405E+04 0.  0.
        4    1    3    3  502    0  0.88292279118E+03  0.77596261382E+03 -0.30762780246E+03  0.12150337901E+04  0.12699999809E+01 0. -1.
       -4    1    3    3    0  502 -0.88292279118E+03 -0.77596261382E+03 -0.41327136410E+02  0.11761718320E+04  0.12699999809E+01 0.  1.
</event>
<event>
 5   0  0.3215208E-05  0.2349856E+04  0.7818609E-02  0.8458519E-01
        2   -1    0    0  501    0  0.00000000000E+00  0.00000000000E+00  0.17457309810E+04  0.17457309810E+04  0.25500000920E-02 0.  1.
       -2   -1    0    0    0  501  0.00000000000E+00  0.00000000000E+00 -0.79076112629E+03  0.79076112629E+03  0.25500000920E-02 0. -1.
    10030    2    1    2    0    0  0.00000000000E+00  0.00000000000E+00  0.95496985470E+03  0.25364921073E+04  0.23498563332E+04 0.  0.
        1    1    3    3  502    0  0.10793571864E+04  0.45847553089E+03  0.39931456690E+03  0.12388155115E+04  0.50400001928E-02 0. -1.
       -1    1    3    3    0  502 -0.10793571864E+04 -0.45847553089E+03  0.55565528780E+03  0.12976765957E+04  0.50400001928E-02 0.  1.
</event>
<event>
 5   0  0.3310037E-05  0.2368285E+04  0.7818609E-02  0.8451474E-01
        2   -1    0    0  501    0  0.00000000000E+00  0.00000000000E+00  0.74543220536E+03  0.74543220536E+03  0.25500000920E-02 0.  1.
       -2   -1    0    0    0  501  0.00000000000E+00  0.00000000000E+00 -0.18810469405E+04  0.18810469405E+04  0.25500000920E-02 0. -1.
    10030    2    1    2    0    0  0.00000000000E+00  0.00000000000E+00 -0.11356147352E+04  0.26264791459E+04  0.23682845853E+04 0.  0.
        2    1    3    3  502    0 -0.70807900812E+03  0.85504501521E+03 -0.10246854485E+04  0.15107806354E+04  0.25500000920E-02 0.  1.
       -2    1    3    3    0  502  0.70807900812E+03 -0.85504501521E+03 -0.11092928665E+03  0.11156985105E+04  0.25500000920E-02 0. -1.
</event>
<event>
 5   0  0.1401596E-05  0.2407737E+04  0.7818609E-02  0.8436612E-01
       -1   -1    0    0    0  501  0.00000000000E+00  0.00000000000E+00  0.69029915665E+03  0.69029915666E+03  0.50400001928E-02 0. -1.
        1   -1    0    0  501    0  0.00000000000E+00  0.00000000000E+00 -0.20995242755E+04  0.20995242755E+04  0.50400001928E-02 0.  1.
    10030    2    1    2    0    0  0.00000000000E+00  0.00000000000E+00 -0.14092251188E+04  0.27898234321E+04  0.24077373916E+04 0.  0.
        2    1    3    3  502    0 -0.49892407577E+03 -0.47740536897E+03  0.43801103360E+03  0.81773760172E+03  0.25500000920E-02 0. -1.
       -2    1    3    3    0  502  0.49892407577E+03  0.47740536897E+03 -0.18472361524E+04  0.19720858304E+04  0.25500000920E-02 0.  1.
</event>
<event>
 5   0  0.1401596E-05  0.2368941E+04  0.7818609E-02  0.8451224E-01
       -1   -1    0    0    0  501  0.00000000000E+00  0.00000000000E+00  0.54695710448E+03  0.54695710450E+03  0.50400001928E-02 0. -1.
        1   -1    0    0  501    0  0.00000000000E+00  0.00000000000E+00 -0.25650463377E+04  0.25650463377E+04  0.50400001928E-02 0.  1.
    10030    2    1    2    0    0  0.00000000000E+00  0.00000000000E+00 -0.20180892332E+04  0.31120034422E+04  0.23689409598E+04 0.  0.
        2    1    3    3  502    0 -0.73261222114E+03 -0.60765083576E+03 -0.82922097428E+02  0.95542465899E+03  0.25500000920E-02 0. -1.
       -2    1    3    3    0  502  0.73261222114E+03  0.60765083576E+03 -0.19351671358E+04  0.21565787832E+04  0.25500000920E-02 0.  1.
</event>
<event>
 5   0  0.3215208E-05  0.2425405E+04  0.7818609E-02  0.8430053E-01
        2   -1    0    0  501    0  0.00000000000E+00  0.00000000000E+00  0.18949608564E+04  0.18949608564E+04  0.25500000920E-02 0. -1.
       -2   -1    0    0    0  501  0.00000000000E+00  0.00000000000E+00 -0.77608319451E+03  0.77608319452E+03  0.25500000920E-02 0.  1.
    10030    2    1    2    0    0  0.00000000000E+00  0.00000000000E+00  0.11188776619E+04  0.26710440510E+04  0.24254049352E+04 0.  0.
        1    1    3    3  502    0  0.10619468019E+04 -0.13969376963E+03 -0.66840512388E+02  0.10731789289E+04  0.50400001928E-02 0.  1.
       -1    1    3    3    0  502 -0.10619468019E+04  0.13969376963E+03  0.11857181743E+04  0.15978651220E+04  0.50400001928E-02 0. -1.
</event>
<event>
 5   0  0.1407158E-05  0.2370062E+04  0.7818609E-02  0.8450798E-01
        1   -1    0    0  501    0  0.00000000000E+00  0.00000000000E+00  0.24594670453E+04  0.24594670453E+04  0.50400001928E-02 0.  1.
       -1   -1    0    0    0  501  0.00000000000E+00  0.00000000000E+00 -0.57097663167E+03  0.57097663169E+03  0.50400001928E-02 0. -1.
    10030    2    1    2    0    0  0.00000000000E+00  0.00000000000E+00  0.18884904137E+04  0.30304436770E+04  0.23700617792E+04 0.  0.
        1    1    3    3  502    0 -0.28212705945E+03  0.10313748960E+04  0.15974366314E+04  0.19222730413E+04  0.50400001928E-02 0.  1.
       -1    1    3    3    0  502  0.28212705945E+03 -0.10313748960E+04  0.29105378225E+03  0.11081706358E+04  0.50400001928E-02 0. -1.
</event>
<event>
 5   0  0.1434943E-05  0.2388609E+04  0.7818609E-02  0.8443781E-01
       -1   -1    0    0    0  501  0.00000000000E+00  0.00000000000E+00  0.64849486635E+03  0.64849486637E+03  0.50400001928E-02 0.  1.
        1   -1    0    0  501    0  0.00000000000E+00  0.00000000000E+00 -0.21994981392E+04  0.21994981392E+04  0.50400001928E-02 0. -1.
    10030    2    1    2    0    0  0.00000000000E+00  0.00000000000E+00 -0.15510032728E+04  0.28479930055E+04  0.23886090110E+04 0.  0.
        5    1    3    3  502    0 -0.81893185448E+03 -0.27319305628E+03  0.20847704423E+03  0.88812645285E+03  0.46999998093E+01 0.  1.
       -5    1    3    3    0  502  0.81893185448E+03  0.27319305628E+03 -0.17594803170E+04  0.19598665527E+04  0.46999998093E+01 0. -1.
</event>
<event>
 5   0  0.3215208E-05  0.2370190E+04  0.7818609E-02  0.8450749E-01
       -2   -1    0    0    0  501  0.00000000000E+00  0.00000000000E+00  0.12406333288E+04  0.12406333288E+04  0.25500000920E-02 0.  1.
        2   -1    0    0  501    0  0.00000000000E+00  0.00000000000E+00 -0.11320433324E+04  0.11320433324E+04  0.25500000920E-02 0. -1.
    10030    2    1    2    0    0  0.00000000000E+00  0.00000000000E+00  0.10858999638E+03  0.23726766612E+04  0.23701904462E+04 0.  0.
        1    1    3    3  502    0 -0.10349194075E+04  0.51446487587E+03 -0.20812192076E+03  0.11743283283E+04  0.50400001928E-02 0. -1.
       -1    1    3    3    0  502  0.10349194075E+04 -0.51446487587E+03  0.31671191715E+03  0.11983483330E+04  0.50400001928E-02 0.  1.
</event>
<event>
 5   0  0.1393026E-05  0.2404556E+04  0.7818609E-02  0.8437800E-01
        1   -1    0    0  501    0  0.00000000000E+00  0.00000000000E+00  0.12270236634E+04  0.12270236634E+04  0.50400001928E-02 0.  1.
       -1   -1    0    0    0  501  0.00000000000E+00  0.00000000000E+00 -0.11780311919E+04  0.11780311919E+04  0.50400001928E-02 0. -1.
    10030    2    1    2    0    0  0.00000000000E+00  0.00000000000E+00  0.48992471530E+02  0.24050548553E+04  0.24045557999E+04 0.  0.
        4    1    3    3  502    0  0.86655047627E+01 -0.97701295194E+03 -0.67624972514E+03  0.11882527942E+04  0.12699999809E+01 0. -1.
       -4    1    3    3    0  502 -0.86655047627E+01  0.97701295194E+03  0.72524219667E+03  0.12168020611E+04  0.12699999809E+01 0.  1.
</event>
<event>
 5   0  0.3310037E-05  0.2463516E+04  0.7818609E-02  0.8416099E-01
       -2   -1    0    0    0  501  0.00000000000E+00  0.00000000000E+00  0.94050752715E+03  0.94050752715E+03  0.25500000920E-02 0.  1.
        2   -1    0    0  501    0  0.00000000000E+00  0.00000000000E+00 -0.16132016927E+04  0.16132016928E+04  0.25500000920E-02 0. -1.
    10030    2    1    2    0    0  0.00000000000E+00  0.00000000000E+00 -0.67269416560E+03  0.25537092199E+04  0.24635164581E+04 0.  0.
        2    1    3    3  502    0  0.42978262682E+03 -0.69158011818E+03 -0.12944318548E+04  0.15292318310E+04  0.25500000920E-02 0. -1.
       -2    1    3    3    0  502 -0.42978262682E+03  0.69158011818E+03  0.62173768922E+03  0.10244773889E+04  0.25500000920E-02 0.  1.
</event>
<event>
 5   0  0.1393026E-05  0.2403684E+04  0.7818609E-02  0.8438126E-01
       -1   -1    0    0    0  501  0.00000000000E+00  0.00000000000E+00  0.11315029275E+04  0.11315029275E+04  0.50400001928E-02 0. -1.
        1   -1    0    0  501    0  0.00000000000E+00  0.00000000000E+00 -0.12765532977E+04  0.12765532977E+04  0.50400001928E-02 0.  1.
    10030    2    1    2    0    0  0.00000000000E+00  0.00000000000E+00 -0.14505037017E+03  0.24080562252E+04  0.24036836676E+04 0.  0.
        4    1    3    3  502    0 -0.58570005393E+03  0.71940425774E+03  0.69295583394E+03  0.11579190127E+04  0.12699999809E+01 0. -1.
       -4    1    3    3    0  502  0.58570005393E+03 -0.71940425774E+03 -0.83800620411E+03  0.12501372126E+04  0.12699999809E+01 0.  1.
</event>
<event>
 5   0  0.1407158E-05  0.2358767E+04  0.7818609E-02  0.8455104E-01
        1   -1    0    0  501    0  0.00000000000E+00  0.00000000000E+00  0.11268270668E+04  0.11268270668E+04  0.50400001928E-02 0.  1.
       -1   -1    0    0    0  501  0.00000000000E+00  0.00000000000E+00 -0.12343907598E+04  0.12343907598E+04  0.50400001928E-02 0. -1.
    10030    2    1    2    0    0  0.00000000000E+00  0.00000000000E+00 -0.10756369294E+03  0.23612178266E+04  0.23587665584E+04 0.  0.
        1    1    3    3  502    0 -0.10202378913E+04  0.50495571427E+03  0.25488789528E+03  0.11665476705E+04  0.50400001928E-02 0.  1.
       -1    1    3    3    0  502  0.10202378913E+04 -0.50495571427E+03 -0.36245158822E+03  0.11946701562E+04  0.50400001928E-02 0. -1.
</event>
<event>
 5   0  0.3320780E-05  0.2408138E+04  0.7818609E-02  0.8436463E-01
       -2   -1    0    0    0  501  0.00000000000E+00  0.00000000000E+00  0.11229710533E+04  0.11229710533E+04  0.25500000920E-02 0.  1.
        2   -1    0    0  501    0  0.00000000000E+00  0.00000000000E+00 -0.12910238763E+04  0.12910238763E+04  0.25500000920E-02 0. -1.
    10030    2    1    2    0    0  0.00000000000E+00  0.00000000000E+00 -0.16805282302E+03  0.24139949295E+04  0.24081382370E+04 0.  0.
        5    1    3    3  502    0  0.46710590053E+03  0.88025998740E+03 -0.76147676731E+03  0.12541588914E+04  0.46999998093E+01 0. -1.
       -5    1    3    3    0  502 -0.46710590053E+03 -0.88025998740E+03  0.59342394429E+03  0.11598360381E+04  0.46999998093E+01 0.  1.
</event>
<event>
 5   0  0.1506985E-05  0.2386801E+04  0.7818609E-02  0.8444462E-01
        1   -1    0    0  501    0  0.00000000000E+00  0.00000000000E+00  0.11694401098E+04  0.11694401098E+04  0.50400001928E-02 0. -1.
       -1   -1    0    0    0  501  0.00000000000E+00  0.00000000000E+00 -0.12178516788E+04  0.12178516788E+04  0.50400001928E-02 0.  1.
    10030    2    1    2    0    0  0.00000000000E+00  0.00000000000E+00 -0.48411568963E+02  0.23872917886E+04  0.23868008722E+04 0.  0.
        3    1    3    3  502    0  0.18761884218E+03  0.36973398129E+03  0.10950867342E+04  0.11709479119E+04  0.10100000352E+00 0. -1.
       -3    1    3    3    0  502 -0.18761884218E+03 -0.36973398129E+03 -0.11434983031E+04  0.12163438767E+04  0.10100000352E+00 0.  1.
</event>
<event>
 5   0  0.1506985E-05  0.2359642E+04  0.7818609E-02  0.8454770E-01
       -1   -1    0    0    0  501  0.00000000000E+00  0.00000000000E+00  0.96973894460E+03  0.96973894462E+03  0.50400001928E-02 0.  1.
        1   -1    0    0  501    0  0.00000000000E+00  0.00000000000E+00 -0.14354142156E+04  0.14354142156E+04  0.50400001928E-02 0. -1.
    10030    2    1    2    0    0  0.00000000000E+00  0.00000000000E+00 -0.46567527098E+03  0.24051531602E+04  0.23596415546E+04 0.  0.
        3    1    3    3  502    0 -0.32773998427E+03 -0.11271985469E+04 -0.11228994093E+03  0.11792366609E+04  0.10100000352E+00 0.  1.
       -3    1    3    3    0  502  0.32773998427E+03  0.11271985469E+04 -0.35338533004E+03  0.12259164993E+04  0.10100000352E+00 0. -1.
</event>
<event>
 5   0  0.3310037E-05  0.2397178E+04  0.7818609E-02  0.8440561E-01
        2   -1    0    0  501    0  0.00000000000E+00  0.00000000000E+00  0.11402776669E+04  0.11402776669E+04  0.25500000920E-02 0.  1.
       -2   -1    0    0    0  501  0.00000000000E+00  0.00000000000E+00 -0.12598824998E+04  0.12598824998E+04  0.25500000920E-02 0. -1.
    10030    2    1    2    0    0  0.00000000000E+00  0.00000000000E+00 -0.11960483297E+03  0.24001601667E+04  0.23971782390E+04 0.  0.
        2    1    3    3  502    0  0.82081278343E+03  0.66208250670E+03  0.51058069400E+03  0.11716567399E+04  0.25500000920E-02 0. -1.
       -2    1    3    3    0  502 -0.82081278343E+03 -0.66208250670E+03 -0.63018552696E+03  0.12285034267E+04  0.25500000920E-02 0.  1.
</event>
<event>
 5   0  0.3345974E-05  0.2381948E+04  0.7818609E-02  0.8446293E-01
       -2   -1    0    0    0  501  0.00000000000E+00  0.00000000000E+00  0.15268886481E+04  0.15268886481E+04  0.25500000920E-02 0.  1.
        2   -1    0    0  501    0  0.00000000000E+00  0.00000000000E+00 -0.92896022006E+03  0.92896022007E+03  0.25500000920E-02 0. -1.
    10030    2    1    2    0    0  0.00000000000E+00  0.00000000000E+00  0.59792842803E+03  0.24558488682E+04  0.23819477866E+04 0.  0.
        4    1    3    3  502    0 -0.58492787645E+03 -0.78564563839E+03  0.99750776592E+03  0.13979996587E+04  0.12699999809E+01 0.  1.
       -4    1    3    3    0  502  0.58492787645E+03  0.78564563839E+03 -0.39957933789E+03  0.10578492095E+04  0.12699999809E+01 0. -1.
</event>
<event>
 5   0  0.1506985E-05  0.2339919E+04  0.7818609E-02  0.8462346E-01
        1   -1    0    0  501    0  0.00000000000E+00  0.00000000000E+00  0.18764128888E+04  0.18764128888E+04  0.50400001928E-02 0. -1.
       -1   -1    0    0    0  501  0.00000000000E+00  0.00000000000E+00 -0.72947957174E+03  0.72947957175E+03  0.50400001928E-02 0.  1.
    10030    2    1    2    0    0  0.00000000000E+00  0.00000000000E+00  0.11469333171E+04  0.26058924606E+04  0.23399186914E+04 0.  0.
        3    1    3    3  502    0  0.33249629317E+01  0.10912966420E+04  0.10431460595E+04  0.15096665618E+04  0.10100000352E+00 0. -1.
       -3    1    3    3    0  502 -0.33249629317E+01 -0.10912966420E+04  0.10378725762E+03  0.10962258988E+04  0.10100000352E+00 0.  1.
</event>
<event>
 5   0  0.3310037E-05  0.2380966E+04  0.7818609E-02  0.8446664E-01
       -2   -1    0    0    0  501  0.00000000000E+00  0.00000000000E+00  0.52920730610E+03  0.52920730611E+03  0.25500000920E-02 0. -1.
        2   -1    0    0  501    0  0.00000000000E+00  0.00000000000E+00 -0.26780608581E+04  0.26780608581E+04  0.25500000920E-02 0.  1.
    10030    2    1    2    0    0  0.00000000000E+00  0.00000000000E+00 -0.21488535520E+04  0.32072681642E+04  0.23809656632E+04 0.  0.
        2    1    3    3  502    0  0.98685084945E+03  0.35391353520E+03 -0.18341888601E+04  0.21126708603E+04  0.25500000920E-02 0.  1.
       -2    1    3    3    0  502 -0.98685084945E+03 -0.35391353520E+03 -0.31466469195E+03  0.10945973040E+04  0.25500000920E-02 0. -1.
</event>
<event>
 5   0  0.3345974E-05  0.2356961E+04  0.7818609E-02  0.8455795E-01
       -2   -1    0    0    0  501  0.00000000000E+00  0.00000000000E+00  0.95169054200E+03  0.95169054201E+03  0.25500000920E-02 0. -1.
        2   -1    0    0  501    0  0.00000000000E+00  0.00000000000E+00 -0.14593144583E+04  0.14593144583E+04  0.25500000920E-02 0.  1.
    10030    2    1    2    0    0  0.00000000000E+00  0.00000000000E+00 -0.50762391629E+03  0.24110050003E+04  0.23569605578E+04 0.  0.
        4    1    3    3  502    0  0.48703240393E+03 -0.90897514944E+03 -0.83731044664E+03  0.13283549156E+04  0.12699999809E+01 0.  1.
       -4    1    3    3    0  502 -0.48703240393E+03  0.90897514944E+03  0.32968653035E+03  0.10826500847E+04  0.12699999809E+01 0. -1.
</event>
<event>
 5   0  0.3347728E-05  0.2382565E+04  0.7818609E-02  0.8446060E-01
       -2   -1    0    0    0  501  0.00000000000E+00  0.00000000000E+00  0.98466144125E+03  0.98466144125E+03  0.25500000920E-02 0. -1.
        2   -1    0    0  501    0  0.00000000000E+00  0.00000000000E+00 -0.14412607160E+04  0.14412607160E+04  0.25500000920E-02 0.  1.
    10030    2    1    2    0    0  0.00000000000E+00  0.00000000000E+00 -0.45659927478E+03  0.24259221573E+04  0.23825648817E+04 0.  0.
        3    1    3    3  502    0  0.91421578664E+03 -0.32118723146E+03  0.47727693650E+03  0.10801597227E+04  0.10100000352E+00 0. -1.
       -3    1    3    3    0  502 -0.91421578664E+03  0.32118723146E+03 -0.93387621128E+03  0.13457624346E+04  0.10100000352E+00 0.  1.
</event>
<event>
 5   0  0.1506985E-05  0.2409642E+04  0.7818609E-02  0.8435902E-01
        1   -1    0    0  501    0  0.00000000000E+00  0.00000000000E+00  0.99122464480E+03  0.99122464481E+03  0.50400001928E-02 0.  1.
       -1   -1    0    0    0  501  0.00000000000E+00  0.00000000000E+00 -0.14644448862E+04  0.14644448862E+04  0.50400001928E-02 0. -1.
    10030    2    1    2    0    0  0.00000000000E+00  0.00000000000E+00 -0.47322024140E+03  0.24556695310E+04  0.24096421827E+04 0.  0.
        3    1    3    3  502    0 -0.74016612347E+03 -0.82816731193E+03  0.23908959258E+03  0.11361649662E+04  0.10100000352E+00 0.  1.
       -3    1    3    3    0  502  0.74016612347E+03  0.82816731193E+03 -0.71230983398E+03  0.13195045648E+04  0.10100000352E+00 0. -1.
</event>
<event>
 5   0  0.3310037E-05  0.2403475E+04  0.7818609E-02  0.8438204E-01
       -2   -1    0    0    0  501  0.00000000000E+00  0.00000000000E+00  0.58120655880E+03  0.58120655880E+03  0.25500000920E-02 0.  1.
        2   -1    0    0  501    0  0.00000000000E+00  0.00000000000E+00 -0.24847853971E+04  0.24847853971E+04  0.25500000920E-02 0. -1.
    10030    2    1    2    0    0  0.00000000000E+00  0.00000000000E+00 -0.19035788383E+04  0.30659919559E+04  0.24034754586E+04 0.  0.
        2    1    3    3  502    0  0.55695316635E+02 -0.11609897179E+04 -0.56240389676E+03  0.12912386443E+04  0.25500000920E-02 0.  1.
       -2    1    3    3    0  502 -0.55695316635E+02  0.11609897179E+04 -0.13411749416E+04  0.17747533117E+04  0.25500000920E-02 0. -1.
</event>
<event>
 5   0  0.1147362E-05  0.2299339E+04  0.7818609E-02  0.8478182E-01
        3   -1    0    0  501    0  0.00000000000E+00  0.00000000000E+00  0.12453362818E+04  0.12453362859E+04  0.10100000352E+00 0.  1.
       -3   -1    0    0    0  501  0.00000000000E+00  0.00000000000E+00 -0.10613516628E+04  0.10613516676E+04  0.10100000352E+00 0. -1.
    10030    2    1    2    0    0  0.00000000000E+00  0.00000000000E+00  0.18398461897E+03  0.23066879535E+04  0.22993388125E+04 0.  0.
        4    1    3    3  502    0  0.53637964224E+03 -0.79676664631E+03  0.72583284968E+03  0.12038999742E+04  0.12699999809E+01 0.  1.
       -4    1    3    3    0  502 -0.53637964224E+03  0.79676664631E+03 -0.54184823071E+03  0.11027879793E+04  0.12699999809E+01 0. -1.
</event>
<event>
 5   0  0.1393026E-05  0.2428596E+04  0.7818609E-02  0.8428875E-01
        1   -1    0    0  501    0  0.00000000000E+00  0.00000000000E+00  0.11645863191E+04  0.11645863191E+04  0.50400001928E-02 0.  1.
       -1   -1    0    0    0  501  0.00000000000E+00  0.00000000000E+00 -0.12661319392E+04  0.12661319392E+04  0.50400001928E-02 0. -1.
    10030    2    1    2    0    0  0.00000000000E+00  0.00000000000E+00 -0.10154562007E+03  0.24307182583E+04  0.24285962485E+04 0.  0.
        4    1    3    3  502    0  0.17493583797E+03  0.10045671353E+04 -0.71071275401E+03  0.12429287623E+04  0.12699999809E+01 0. -1.
       -4    1    3    3    0  502 -0.17493583797E+03 -0.10045671353E+04  0.60916713394E+03  0.11877894959E+04  0.12699999809E+01 0.  1.
</event>
<event>
 5   0  0.3310037E-05  0.2368518E+04  0.7818609E-02  0.8451385E-01
       -2   -1    0    0    0  501  0.00000000000E+00  0.00000000000E+00  0.58559728580E+03  0.58559728580E+03  0.25500000920E-02 0.  1.
        2   -1    0    0  501    0  0.00000000000E+00  0.00000000000E+00 -0.23949385701E+04  0.23949385701E+04  0.25500000920E-02 0. -1.
    10030    2    1    2    0    0  0.00000000000E+00  0.00000000000E+00 -0.18093412843E+04  0.29805358560E+04  0.23685181243E+04 0.  0.
        2    1    3    3  502    0 -0.11675712437E+03  0.11774738643E+04 -0.84311716281E+03  0.14529017439E+04  0.25500000920E-02 0. -1.
       -2    1    3    3    0  502  0.11675712437E+03 -0.11774738643E+04 -0.96622412154E+03  0.15276341120E+04  0.25500000920E-02 0.  1.
</event>
<event>
 5   0  0.1434943E-05  0.2418451E+04  0.7818609E-02  0.8432628E-01
       -1   -1    0    0    0  501  0.00000000000E+00  0.00000000000E+00  0.13531123090E+04  0.13531123090E+04  0.50400001928E-02 0. -1.
        1   -1    0    0  501    0  0.00000000000E+00  0.00000000000E+00 -0.10806392209E+04  0.10806392209E+04  0.50400001928E-02 0.  1.
    10030    2    1    2    0    0  0.00000000000E+00  0.00000000000E+00  0.27247308808E+03  0.24337515299E+04  0.24184509351E+04 0.  0.
        5    1    3    3  502    0  0.46204018770E+03  0.42935821392E+03  0.11744489006E+04  0.13331098683E+04  0.46999998093E+01 0. -1.
       -5    1    3    3    0  502 -0.46204018770E+03 -0.42935821392E+03 -0.90197581249E+03  0.11006416616E+04  0.46999998093E+01 0.  1.
</event>
<event>
 5   0  0.1434943E-05  0.2359284E+04  0.7818609E-02  0.8454906E-01
        1   -1    0    0  501    0  0.00000000000E+00  0.00000000000E+00  0.16601874927E+04  0.16601874927E+04  0.50400001928E-02 0.  1.
       -1   -1    0    0    0  501  0.00000000000E+00  0.00000000000E+00 -0.83819142319E+03  0.83819142320E+03  0.50400001928E-02 0. -1.
    10030    2    1    2    0    0  0.00000000000E+00  0.00000000000E+00  0.82199606951E+03  0.24983789159E+04  0.23592837195E+04 0.  0.
        5    1    3    3  502    0  0.92058234005E+03 -0.50936670435E+03  0.97593575807E+03  0.14350606183E+04  0.46999998093E+01 0.  1.
       -5    1    3    3    0  502 -0.92058234005E+03  0.50936670435E+03 -0.15393968856E+03  0.10633182976E+04  0.46999998093E+01 0. -1.
</event>
<event>
 5   0  0.1506985E-05  0.2386786E+04  0.7818609E-02  0.8444467E-01
       -1   -1    0    0    0  501  0.00000000000E+00  0.00000000000E+00  0.11726356635E+04  0.11726356635E+04  0.50400001928E-02 0. -1.
        1   -1    0    0  501    0  0.00000000000E+00  0.00000000000E+00 -0.12145173929E+04  0.12145173929E+04  0.50400001928E-02 0.  1.
    10030    2    1    2    0    0  0.00000000000E+00  0.00000000000E+00 -0.41881729362E+02  0.23871530564E+04  0.23867856283E+04 0.  0.
        3    1    3    3  502    0 -0.62814171419E+03 -0.53418854258E+03 -0.88378276968E+03  0.12087147746E+04  0.10100000352E+00 0.  1.
       -3    1    3    3    0  502  0.62814171419E+03  0.53418854258E+03  0.84190104032E+03  0.11784382818E+04  0.10100000352E+00 0. -1.
</event>
<event>
 5   0  0.1401596E-05  0.2412967E+04  0.7818609E-02  0.8434665E-01
       -1   -1    0    0    0  501  0.00000000000E+00  0.00000000000E+00  0.18759159377E+04  0.18759159377E+04  0.50400001928E-02 0. -1.
        1   -1    0    0  501    0  0.00000000000E+00  0.00000000000E+00 -0.77594235125E+03  0.77594235127E+03  0.50400001928E-02 0.  1.
    10030    2    1    2    0    0  0.00000000000E+00  0.00000000000E+00  0.10999735865E+04  0.26518582890E+04  0.24129671556E+04 0.  0.
        2    1    3    3  502    0  0.10769462550E+04  0.43281866990E+03  0.18805355462E+03  0.11758015890E+04  0.25500000920E-02 0.  1.
       -2    1    3    3    0  502 -0.10769462550E+04 -0.43281866990E+03  0.91192003187E+03  0.14760567000E+04  0.25500000920E-02 0. -1.
</event>
<event>
 5   0  0.3320780E-05  0.2299207E+04  0.7818609E-02  0.8478234E-01
        2   -1    0    0  501    0  0.00000000000E+00  0.00000000000E+00  0.89423845966E+03  0.89423845966E+03  0.25500000920E-02 0. -1.
       -2   -1    0    0    0  501  0.00000000000E+00  0.00000000000E+00 -0.14778924741E+04  0.14778924741E+04  0.25500000920E-02 0.  1.
    10030    2    1    2    0    0  0.00000000000E+00  0.00000000000E+00 -0.58365401439E+03  0.23721309337E+04  0.22992070716E+04 0.  0.
        5    1    3    3  502    0  0.79974867567E+03  0.82298284518E+03 -0.22134109008E+03  0.11687226685E+04  0.46999998093E+01 0. -1.
       -5    1    3    3    0  502 -0.79974867567E+03 -0.82298284518E+03 -0.36231292431E+03  0.12034082652E+04  0.46999998093E+01 0.  1.
</event>
<event>
 5   0  0.1393026E-05  0.2456686E+04  0.7818609E-02  0.8418581E-01
       -1   -1    0    0    0  501  0.00000000000E+00  0.00000000000E+00  0.10792376779E+04  0.10792376780E+04  0.50400001928E-02 0. -1.
        1   -1    0    0  501    0  0.00000000000E+00  0.00000000000E+00 -0.13980485952E+04  0.13980485952E+04  0.50400001928E-02 0.  1.
    10030    2    1    2    0    0  0.00000000000E+00  0.00000000000E+00 -0.31881091722E+03  0.24772862731E+04  0.24566861578E+04 0.  0.
        4    1    3    3  502    0 -0.10445685224E+04 -0.39214450190E+03  0.35863811122E+03  0.11719742386E+04  0.12699999809E+01 0. -1.
       -4    1    3    3    0  502  0.10445685224E+04  0.39214450190E+03 -0.67744902844E+03  0.13053120345E+04  0.12699999809E+01 0.  1.
</event>
<event>
 5   0  0.1434943E-05  0.2403610E+04  0.7818609E-02  0.8438153E-01
       -1   -1    0    0    0  501  0.00000000000E+00  0.00000000000E+00  0.10176126025E+04  0.10176126025E+04  0.50400001928E-02 0.  1.
        1   -1    0    0  501    0  0.00000000000E+00  0.00000000000E+00 -0.14193373872E+04  0.14193373872E+04  0.50400001928E-02 0. -1.
    10030    2    1    2    0    0  0.00000000000E+00  0.00000000000E+00 -0.40172478470E+03  0.24369499897E+04  0.24036102949E+04 0.  0.
        5    1    3    3  502    0  0.42827864636E+03 -0.51902871809E+03  0.80869019334E+03  0.10520529112E+04  0.46999998093E+01 0.  1.
       -5    1    3    3    0  502 -0.42827864636E+03  0.51902871809E+03 -0.12104149780E+04  0.13848970786E+04  0.46999998093E+01 0. -1.
</event>
<event>
 5   0  0.3310037E-05  0.2394170E+04  0.7818609E-02  0.8441690E-01
       -2   -1    0    0    0  501  0.00000000000E+00  0.00000000000E+00  0.77585852244E+03  0.77585852244E+03  0.25500000920E-02 0.  1.
        2   -1    0    0  501    0  0.00000000000E+00  0.00000000000E+00 -0.18470016655E+04  0.18470016655E+04  0.25500000920E-02 0. -1.
    10030    2    1    2    0    0  0.00000000000E+00  0.00000000000E+00 -0.10711431430E+04  0.26228601879E+04  0.23941695705E+04 0.  0.
        2    1    3    3  502    0  0.30600139167E+03  0.95508161566E+03  0.18046124665E+03  0.10190112884E+04  0.25500000920E-02 0.  1.
       -2    1    3    3    0  502 -0.30600139167E+03 -0.95508161566E+03 -0.12516043897E+04  0.16038488995E+04  0.25500000920E-02 0. -1.
</event>
<event>
 5   0  0.1401596E-05  0.2390370E+04  0.7818609E-02  0.8443118E-01
        1   -1    0    0  501    0  0.00000000000E+00  0.00000000000E+00  0.93098211086E+03  0.93098211087E+03  0.50400001928E-02 0. -1.
       -1   -1    0    0    0  501  0.00000000000E+00  0.00000000000E+00 -0.15343665020E+04  0.15343665020E+04  0.50400001928E-02 0.  1.
    10030    2    1    2    0    0  0.00000000000E+00  0.00000000000E+00 -0.60338439111E+03  0.24653486128E+04  0.23903704858E+04 0.  0.
        2    1    3    3  502    0  0.40399599620E+03  0.62272572586E+03  0.66442248972E+03  0.99622153131E+03  0.25500000920E-02 0. -1.
       -2    1    3    3    0  502 -0.40399599620E+03 -0.62272572586E+03 -0.12678068808E+04  0.14691270815E+04  0.25500000920E-02 0.  1.
</event>
<event>
 5   0  0.3320780E-05  0.2375945E+04  0.7818609E-02  0.8448565E-01
       -2   -1    0    0    0  501  0.00000000000E+00  0.00000000000E+00  0.71924030619E+03  0.71924030619E+03  0.25500000920E-02 0. -1.
        2   -1    0    0  501    0  0.00000000000E+00  0.00000000000E+00 -0.19621799372E+04  0.19621799372E+04  0.25500000920E-02 0.  1.
    10030    2    1    2    0    0  0.00000000000E+00  0.00000000000E+00 -0.12429396310E+04  0.26814202434E+04  0.23759452004E+04 0.  0.
        5    1    3    3  502    0 -0.79539443315E+03 -0.32621642718E+02 -0.16166229772E+04  0.18020012254E+04  0.46999998093E+01 0.  1.
       -5    1    3    3    0  502  0.79539443315E+03  0.32621642718E+02  0.37368334626E+03  0.87941901795E+03  0.46999998093E+01 0. -1.
</event>
<event>
 5   0  0.1407158E-05  0.2408621E+04  0.7818609E-02  0.8436283E-01
       -1   -1    0    0    0  501  0.00000000000E+00  0.00000000000E+00  0.16094453949E+04  0.16094453949E+04  0.50400001928E-02 0. -1.
        1   -1    0    0  501    0  0.00000000000E+00  0.00000000000E+00 -0.90115750937E+03  0.90115750938E+03  0.50400001928E-02 0.  1.
    10030    2    1    2    0    0  0.00000000000E+00  0.00000000000E+00  0.70828788550E+03  0.25106029043E+04  0.24086210192E+04 0.  0.
        1    1    3    3  502    0 -0.12038292716E+04 -0.11973076567E+02  0.38736066360E+03  0.12646725084E+04  0.50400001928E-02 0.  1.
       -1    1    3    3    0  502  0.12038292716E+04  0.11973076567E+02  0.32092722190E+03  0.12459303959E+04  0.50400001928E-02 0. -1.
</event>
<event>
 5   0  0.3347728E-05  0.2420146E+04  0.7818609E-02  0.8432000E-01
        2   -1    0    0  501    0  0.00000000000E+00  0.00000000000E+00  0.14995157055E+04  0.14995157055E+04  0.25500000920E-02 0.  1.
       -2   -1    0    0    0  501  0.00000000000E+00  0.00000000000E+00 -0.97649936811E+03  0.97649936811E+03  0.25500000920E-02 0. -1.
    10030    2    1    2    0    0  0.00000000000E+00  0.00000000000E+00  0.52301633743E+03  0.24760150736E+04  0.24201455650E+04 0.  0.
        3    1    3    3  502    0 -0.78594682863E+03 -0.24904248336E+03  0.11676992244E+04  0.14294250819E+04  0.10100000352E+00 0.  1.
       -3    1    3    3    0  502  0.78594682863E+03  0.24904248336E+03 -0.64468288694E+03  0.10465899918E+04  0.10100000352E+00 0. -1.
</event>
<event>
 5   0  0.3320780E-05  0.2434740E+04  0.7818609E-02  0.8426611E-01
       -2   -1    0    0    0  501  0.00000000000E+00  0.00000000000E+00  0.10992120808E+04  0.10992120808E+04  0.25500000920E-02 0.  1.
        2   -1    0    0  501    0  0.00000000000E+00  0.00000000000E+00 -0.13482292221E+04  0.13482292221E+04  0.25500000920E-02 0. -1.
    10030    2    1    2    0    0  0.00000000000E+00  0.00000000000E+00 -0.24901714134E+03  0.24474413029E+04  0.24347401082E+04 0.  0.
        5    1    3    3  502    0 -0.52846018535E+03  0.27311415630E+03  0.94315562115E+03  0.11150901872E+04  0.46999998093E+01 0.  1.
       -5    1    3    3    0  502  0.52846018535E+03 -0.27311415630E+03 -0.11921727625E+04  0.13323511157E+04  0.46999998093E+01 0. -1.
</event>
<event>
 5   0  0.1407158E-05  0.2402546E+04  0.7818609E-02  0.8438551E-01
        1   -1    0    0  501    0  0.00000000000E+00  0.00000000000E+00  0.13819938788E+04  0.13819938788E+04  0.50400001928E-02 0. -1.
       -1   -1    0    0    0  501  0.00000000000E+00  0.00000000000E+00 -0.10441843930E+04  0.10441843930E+04  0.50400001928E-02 0.  1.
    10030    2    1    2    0    0  0.00000000000E+00  0.00000000000E+00  0.33780948581E+03  0.24261782719E+04  0.24025456828E+04 0.  0.
        1    1    3    3  502    0  0.11503854023E+04 -0.51653292415E+02 -0.17651513942E+03  0.11649945197E+04  0.50400001928E-02 0.  1.
       -1    1    3    3    0  502 -0.11503854023E+04  0.51653292415E+02  0.51432462523E+03  0.12611837521E+04  0.50400001928E-02 0. -1.
</event>
<event>
 5   0  0.3310037E-05  0.2496929E+04  0.7818609E-02  0.8404081E-01
        2   -1    0    0  501    0  0.00000000000E+00  0.00000000000E+00  0.13713020905E+04  0.13713020905E+04  0.25500000920E-02 0.  1.
       -2   -1    0    0    0  501  0.00000000000E+00  0.00000000000E+00 -0.11366300358E+04  0.11366300358E+04  0.25500000920E-02 0. -1.
    10030    2    1    2    0    0  0.00000000000E+00  0.00000000000E+00  0.23467205472E+03  0.25079321263E+04  0.24969286287E+04 0.  0.
        2    1    3    3  502    0 -0.14251743600E+03  0.89797515871E+03  0.97667197029E+03  0.13343757877E+04  0.25500000920E-02 0.  1.
       -2    1    3    3    0  502  0.14251743600E+03 -0.89797515871E+03 -0.74199991557E+03  0.11735563386E+04  0.25500000920E-02 0. -1.
</event>
<event>
 5   0  0.3320780E-05  0.2139716E+04  0.7818609E-02  0.8543947E-01
       -2   -1    0    0    0  501  0.00000000000E+00  0.00000000000E+00  0.71728637660E+03  0.71728637661E+03  0.25500000920E-02 0. -1.
        2   -1    0    0  501    0  0.00000000000E+00  0.00000000000E+00 -0.15957316084E+04  0.15957316084E+04  0.25500000920E-02 0.  1.
    10030    2    1    2    0    0  0.00000000000E+00  0.00000000000E+00 -0.87844523181E+03  0.23130179850E+04  0.21397163769E+04 0.  0.
        5    1    3    3  502    0  0.36278956114E+03  0.10745080648E+03  0.64253336647E+03  0.74567630947E+03  0.46999998093E+01 0. -1.
       -5    1    3    3    0  502 -0.36278956114E+03 -0.10745080648E+03 -0.15209785983E+04  0.15673416755E+04  0.46999998093E+01 0.  1.
</event>
<event>
 5   0  0.1401596E-05  0.2406030E+04  0.7818609E-02  0.8437249E-01
        1   -1    0    0  501    0  0.00000000000E+00  0.00000000000E+00  0.13625254477E+04  0.13625254478E+04  0.50400001928E-02 0.  1.
       -1   -1    0    0    0  501  0.00000000000E+00  0.00000000000E+00 -0.10621787473E+04  0.10621787473E+04  0.50400001928E-02 0. -1.
    10030    2    1    2    0    0  0.00000000000E+00  0.00000000000E+00  0.30034670048E+03  0.24247041950E+04  0.24060304015E+04 0.  0.
        2    1    3    3  502    0  0.30509798330E+03 -0.10199971386E+04 -0.41432286000E+03  0.11424282798E+04  0.25500000920E-02 0. -1.
       -2    1    3    3    0  502 -0.30509798330E+03  0.10199971386E+04  0.71466956049E+03  0.12822759152E+04  0.25500000920E-02 0.  1.
</event>
<event>
 5   0  0.3320780E-05  0.2430639E+04  0.7818609E-02  0.8428121E-01
        2   -1    0    0  501    0  0.00000000000E+00  0.00000000000E+00  0.20127477312E+04  0.20127477312E+04  0.25500000920E-02 0. -1.
       -2   -1    0    0    0  501  0.00000000000E+00  0.00000000000E+00 -0.73382338869E+03  0.73382338869E+03  0.25500000920E-02 0.  1.
    10030    2    1    2    0    0  0.00000000000E+00  0.00000000000E+00  0.12789243425E+04  0.27465711199E+04  0.24306388960E+04 0.  0.
        5    1    3    3  502    0 -0.66154550434E+03 -0.75997667258E+02  0.17882464893E+04  0.19082100766E+04  0.46999998093E+01 0. -1.
       -5    1    3    3    0  502  0.66154550434E+03  0.75997667258E+02 -0.50932214682E+03  0.83836104333E+03  0.46999998093E+01 0.  1.
</event>
<event>
 5   0  0.1393026E-05  0.2403033E+04  0.7818609E-02  0.8438369E-01
       -1   -1    0    0    0  501  0.00000000000E+00  0.00000000000E+00  0.14221475345E+04  0.14221475345E+04  0.50400001928E-02 0.  1.
        1   -1    0    0  501    0  0.00000000000E+00  0.00000000000E+00 -0.10151136874E+04  0.10151136874E+04  0.50400001928E-02 0. -1.
    10030    2    1    2    0    0  0.00000000000E+00  0.00000000000E+00  0.40703384710E+03  0.24372612219E+04  0.24030326072E+04 0.  0.
        4    1    3    3  502    0 -0.14568785240E+03  0.39709596048E+03  0.13441376713E+04  0.14091195281E+04  0.12699999809E+01 0.  1.
       -4    1    3    3    0  502  0.14568785240E+03 -0.39709596048E+03 -0.93710382425E+03  0.10281416938E+04  0.12699999809E+01 0. -1.
</event>
<event>
 5   0  0.1434943E-05  0.2396269E+04  0.7818609E-02  0.8440902E-01
        1   -1    0    0  501    0  0.00000000000E+00  0.00000000000E+00  0.26351834825E+04  0.26351834825E+04  0.50400001928E-02 0.  1.
       -1   -1    0    0    0  501  0.00000000000E+00  0.00000000000E+00 -0.54475394052E+03  0.54475394054E+03  0.50400001928E-02 0. -1.
    10030    2    1    2    0    0  0.00000000000E+00  0.00000000000E+00  0.20904295420E+04  0.31799374231E+04  0.23962692554E+04 0.  0.
        5    1    3    3  502    0  0.33612944218E+03 -0.53862881102E+03  0.23935784977E+04  0.24763570245E+04  0.46999998093E+01 0.  1.
       -5    1    3    3    0  502 -0.33612944218E+03  0.53862881102E+03 -0.30314895569E+03  0.70358039861E+03  0.46999998093E+01 0. -1.
</event>
<event>
 5   0  0.1434943E-05  0.2423202E+04  0.7818609E-02  0.8430868E-01
       -1   -1    0    0    0  501  0.00000000000E+00  0.00000000000E+00  0.10860844974E+04  0.10860844974E+04  0.50400001928E-02 0. -1.
        1   -1    0    0  501    0  0.00000000000E+00  0.00000000000E+00 -0.13516234840E+04  0.13516234840E+04  0.50400001928E-02 0.  1.
    10030    2    1    2    0    0  0.00000000000E+00  0.00000000000E+00 -0.26553898661E+03  0.24377079815E+04  0.24232022717E+04 0.  0.
        5    1    3    3  502    0  0.87048383545E+03  0.84261994626E+03 -0.11837507373E+03  0.12172860098E+04  0.46999998093E+01 0.  1.
       -5    1    3    3    0  502 -0.87048383545E+03 -0.84261994626E+03 -0.14716391288E+03  0.12204219716E+04  0.46999998093E+01 0. -1.
</event>
<event>
 5   0  0.1147362E-05  0.2385988E+04  0.7818609E-02  0.8444768E-01
       -3   -1    0    0    0  501  0.00000000000E+00  0.00000000000E+00  0.16552848039E+04  0.16552848070E+04  0.10100000352E+00 0.  1.
        3   -1    0    0  501    0  0.00000000000E+00  0.00000000000E+00 -0.85981271281E+03  0.85981271874E+03  0.10100000352E+00 0. -1.
    10030    2    1    2    0    0  0.00000000000E+00  0.00000000000E+00  0.79547209110E+03  0.25150975257E+04  0.23859882054E+04 0.  0.
        4    1    3    3  502    0 -0.68246446928E+03  0.97850670481E+03  0.39819909779E+03  0.12576952165E+04  0.12699999809E+01 0. -1.
       -4    1    3    3    0  502  0.68246446928E+03 -0.97850670481E+03  0.39727299331E+03  0.12574023092E+04  0.12699999809E+01 0.  1.
</event>
<event>
 5   0  0.3347728E-05  0.2192557E+04  0.7818609E-02  0.8521532E-01
       -2   -1    0    0    0  501  0.00000000000E+00  0.00000000000E+00  0.85766718988E+03  0.85766718988E+03  0.25500000920E-02 0. -1.
        2   -1    0    0  501    0  0.00000000000E+00  0.00000000000E+00 -0.14012737105E+04  0.14012737105E+04  0.25500000920E-02 0.  1.
    10030    2    1    2    0    0  0.00000000000E+00  0.00000000000E+00 -0.54360652059E+03  0.22589409004E+04  0.21925569416E+04 0.  0.
        3    1    3    3  502    0  0.78215145938E+03  0.72798574654E+03 -0.19222878168E+02  0.10686878318E+04  0.10100000352E+00 0. -1.
       -3    1    3    3    0  502 -0.78215145938E+03 -0.72798574654E+03 -0.52438364242E+03  0.11902530686E+04  0.10100000352E+00 0.  1.
</event>
<event>
 5   0  0.1434943E-05  0.2384445E+04  0.7818609E-02  0.8445350E-01
        1   -1    0    0  501    0  0.00000000000E+00  0.00000000000E+00  0.10173254980E+04  0.10173254980E+04  0.50400001928E-02 0. -1.
       -1   -1    0    0    0  501  0.00000000000E+00  0.00000000000E+00 -0.13971878148E+04  0.13971878148E+04  0.50400001928E-02 0.  1.
    10030    2    1    2    0    0  0.00000000000E+00  0.00000000000E+00 -0.37986231677E+03  0.24145133128E+04  0.23844452516E+04 0.  0.
        5    1    3    3  502    0  0.18740347068E+03 -0.20242163011E+03  0.98455604378E+03  0.10224809389E+04  0.46999998093E+01 0. -1.
       -5    1    3    3    0  502 -0.18740347068E+03  0.20242163011E+03 -0.13644183606E+04  0.13920323738E+04  0.46999998093E+01 0.  1.
</event>
<event>
 5   0  0.1434943E-05  0.2200505E+04  0.7818609E-02  0.8518218E-01
       -1   -1    0    0    0  501  0.00000000000E+00  0.00000000000E+00  0.13163927688E+04  0.13163927689E+04  0.50400001928E-02 0. -1.
        1   -1    0    0  501    0  0.00000000000E+00  0.00000000000E+00 -0.91960040344E+03  0.91960040345E+03  0.50400001928E-02 0.  1.
    10030    2    1    2    0    0  0.00000000000E+00  0.00000000000E+00  0.39679236541E+03  0.22359931723E+04  0.22005047797E+04 0.  0.
        5    1    3    3  502    0 -0.93868188918E+02 -0.67911271570E+03 -0.67602138373E+03  0.96282517560E+03  0.46999998093E+01 0.  1.
       -5    1    3    3    0  502  0.93868188918E+02  0.67911271570E+03  0.10728137491E+04  0.12731679967E+04  0.46999998093E+01 0. -1.
</event>
<event>
 5   0  0.3347728E-05  0.2401280E+04  0.7818609E-02  0.8439025E-01
        2   -1    0    0  501    0  0.00000000000E+00  0.00000000000E+00  0.48229752734E+03  0.48229752735E+03  0.25500000920E-02 0. -1.
       -2   -1    0    0    0  501  0.00000000000E+00  0.00000000000E+00 -0.29888939271E+04  0.29888939271E+04  0.25500000920E-02 0.  1.
    10030    2    1    2    0    0  0.00000000000E+00  0.00000000000E+00 -0.25065963998E+04  0.34711914545E+04  0.24012797842E+04 0.  0.
        3    1    3    3  502    0  0.49464342925E+03  0.10281382278E+04 -0.71281416562E+03  0.13453045687E+04  0.10100000352E+00 0. -1.
       -3    1    3    3    0  502 -0.49464342925E+03 -0.10281382278E+04 -0.17937822342E+04  0.21258868858E+04  0.10100000352E+00 0.  1.
</event>
<event>
 5   0  0.3215208E-05  0.2310541E+04  0.7818609E-02  0.8473777E-01
       -2   -1    0    0    0  501  0.00000000000E+00  0.00000000000E+00  0.92655923962E+03  0.92655923963E+03  0.25500000920E-02 0. -1.
        2   -1    0    0  501    0  0.00000000000E+00  0.00000000000E+00 -0.14404364337E+04  0.14404364337E+04  0.25500000920E-02 0.  1.
    10030    2    1    2    0    0  0.00000000000E+00  0.00000000000E+00 -0.51387719412E+03  0.23669956734E+04  0.23105407911E+04 0.  0.
        1    1    3    3  502    0 -0.51073577990E+03 -0.24717908330E+03  0.77398024126E+03  0.95968429704E+03  0.50400001928E-02 0. -1.
       -1    1    3    3    0  502  0.51073577990E+03  0.24717908330E+03 -0.12878574354E+04  0.14073113763E+04  0.50400001928E-02 0.  1.
</event>
<event>
 5   0  0.3345974E-05  0.2392554E+04  0.7818609E-02  0.8442296E-01
        2   -1    0    0  501    0  0.00000000000E+00  0.00000000000E+00  0.15537028986E+04  0.15537028986E+04  0.25500000920E-02 0.  1.
       -2   -1    0    0    0  501  0.00000000000E+00  0.00000000000E+00 -0.92107624263E+03  0.92107624264E+03  0.25500000920E-02 0. -1.
    10030    2    1    2    0    0  0.00000000000E+00  0.00000000000E+00  0.63262665599E+03  0.24747791413E+04  0.23925541399E+04 0.  0.
        4    1    3    3  502    0  0.22504504452E+03  0.14001126430E+03 -0.89032305754E+03  0.92893766523E+03  0.12699999809E+01 0. -1.
       -4    1    3    3    0  502 -0.22504504452E+03 -0.14001126430E+03  0.15229497135E+04  0.15458414760E+04  0.12699999809E+01 0.  1.
</event>
<event>
 5   0  0.1401596E-05  0.2352443E+04  0.7818609E-02  0.8457526E-01
       -1   -1    0    0    0  501  0.00000000000E+00  0.00000000000E+00  0.94603558637E+03  0.94603558638E+03  0.50400001928E-02 0.  1.
        1   -1    0    0  501    0  0.00000000000E+00  0.00000000000E+00 -0.14624148429E+04  0.14624148429E+04  0.50400001928E-02 0. -1.
    10030    2    1    2    0    0  0.00000000000E+00  0.00000000000E+00 -0.51637925652E+03  0.24084504293E+04  0.23524425463E+04 0.  0.
        2    1    3    3  502    0 -0.26496802651E+02 -0.10482840659E+04 -0.80369307292E+03  0.13211828484E+04  0.25500000920E-02 0. -1.
       -2    1    3    3    0  502  0.26496802651E+02  0.10482840659E+04  0.28731381640E+03  0.10872675809E+04  0.25500000920E-02 0.  1.
</event>
<event>
 5   0  0.3320780E-05  0.2409320E+04  0.7818609E-02  0.8436022E-01
        2   -1    0    0  501    0  0.00000000000E+00  0.00000000000E+00  0.10939301351E+04  0.10939301351E+04  0.25500000920E-02 0.  1.
       -2   -1    0    0    0  501  0.00000000000E+00  0.00000000000E+00 -0.13265984768E+04  0.13265984768E+04  0.25500000920E-02 0. -1.
    10030    2    1    2    0    0  0.00000000000E+00  0.00000000000E+00 -0.23266834166E+03  0.24205286119E+04  0.24093202784E+04 0.  0.
        5    1    3    3  502    0  0.71168965419E+03 -0.66932510503E+03 -0.82437208379E+03  0.12783229962E+04  0.46999998093E+01 0. -1.
       -5    1    3    3    0  502 -0.71168965419E+03  0.66932510503E+03  0.59170374213E+03  0.11422056157E+04  0.46999998093E+01 0.  1.
</event>
<event>
 5   0  0.1393026E-05  0.2362516E+04  0.7818609E-02  0.8453672E-01
        1   -1    0    0  501    0  0.00000000000E+00  0.00000000000E+00  0.16167237129E+04  0.16167237129E+04  0.50400001928E-02 0.  1.
       -1   -1    0    0    0  501  0.00000000000E+00  0.00000000000E+00 -0.86308509376E+03  0.86308509378E+03  0.50400001928E-02 0. -1.
    10030    2    1    2    0    0  0.00000000000E+00  0.00000000000E+00  0.75363861917E+03  0.24798088067E+04  0.23625157247E+04 0.  0.
        4    1    3    3  502    0  0.86284814447E+03 -0.49982478022E+02 -0.46836752012E+03  0.98304369960E+03  0.12699999809E+01 0. -1.
       -4    1    3    3    0  502 -0.86284814447E+03  0.49982478022E+02  0.12220061393E+04  0.14967651071E+04  0.12699999809E+01 0.  1.
</event>
<event>
 5   0  0.3215208E-05  0.2441707E+04  0.7818609E-02  0.8424052E-01
       -2   -1    0    0    0  501  0.00000000000E+00  0.00000000000E+00  0.10520239378E+04  0.10520239378E+04  0.25500000920E-02 0.  1.
        2   -1    0    0  501    0  0.00000000000E+00  0.00000000000E+00 -0.14167765936E+04  0.14167765936E+04  0.25500000920E-02 0. -1.
    10030    2    1    2    0    0  0.00000000000E+00  0.00000000000E+00 -0.36475265575E+03  0.24688005314E+04  0.24417066908E+04 0.  0.
        1    1    3    3  502    0 -0.10530704573E+04 -0.44628980576E+03  0.24938772222E+03  0.11706093349E+04  0.50400001928E-02 0. -1.
       -1    1    3    3    0  502  0.10530704573E+04  0.44628980576E+03 -0.61414037798E+03  0.12981911965E+04  0.50400001928E-02 0.  1.
</event>
<event>
 5   0  0.3320780E-05  0.2268716E+04  0.7818609E-02  0.8490359E-01
        2   -1    0    0  501    0  0.00000000000E+00  0.00000000000E+00  0.18394962381E+04  0.18394962381E+04  0.25500000920E-02 0. -1.
       -2   -1    0    0    0  501  0.00000000000E+00  0.00000000000E+00 -0.69952212703E+03  0.69952212704E+03  0.25500000920E-02 0.  1.
    10030    2    1    2    0    0  0.00000000000E+00  0.00000000000E+00  0.11399741110E+04  0.25390183651E+04  0.22687162195E+04 0.  0.
        5    1    3    3  502    0 -0.67260304233E+03 -0.15383367936E+03 -0.43766862517E+03  0.81708969453E+03  0.46999998093E+01 0.  1.
       -5    1    3    3    0  502  0.67260304233E+03  0.15383367936E+03  0.15776427362E+04  0.17219286706E+04  0.46999998093E+01 0. -1.
</event>
<event>
 5   0  0.3310037E-05  0.2392487E+04  0.7818609E-02  0.8442322E-01
       -2   -1    0    0    0  501  0.00000000000E+00  0.00000000000E+00  0.14643843902E+04  0.14643843902E+04  0.25500000920E-02 0.  1.
        2   -1    0    0  501    0  0.00000000000E+00  0.00000000000E+00 -0.97720170707E+03  0.97720170707E+03  0.25500000920E-02 0. -1.
    10030    2    1    2    0    0  0.00000000000E+00  0.00000000000E+00  0.48718268317E+03  0.24415860973E+04  0.23924873466E+04 0.  0.
        2    1    3    3  502    0  0.10131869558E+04  0.50069273274E+03  0.64375820355E+03  0.13006404748E+04  0.25500000920E-02 0.  1.
       -2    1    3    3    0  502 -0.10131869558E+04 -0.50069273274E+03 -0.15657552038E+03  0.11409456225E+04  0.25500000920E-02 0. -1.
</event>
<event>
 5   0  0.1407158E-05  0.2396134E+04  0.7818609E-02  0.8440953E-01
       -1   -1    0    0    0  501  0.00000000000E+00  0.00000000000E+00  0.77058240309E+03  0.77058240310E+03  0.50400001928E-02 0.  1.
        1   -1    0    0  501    0  0.00000000000E+00  0.00000000000E+00 -0.18627002362E+04  0.18627002362E+04  0.50400001928E-02 0. -1.
    10030    2    1    2    0    0  0.00000000000E+00  0.00000000000E+00 -0.10921178331E+04  0.26332826393E+04  0.23961335725E+04 0.  0.
        1    1    3    3  502    0 -0.67645881873E+03  0.96607070548E+03 -0.77782178543E+03  0.14127617886E+04  0.50400001928E-02 0. -1.
       -1    1    3    3    0  502  0.67645881873E+03 -0.96607070548E+03 -0.31429604770E+03  0.12205208507E+04  0.50400001928E-02 0.  1.
</event>
<event>
 5   0  0.1393026E-05  0.2425765E+04  0.7818609E-02  0.8429920E-01
        1   -1    0    0  501    0  0.00000000000E+00  0.00000000000E+00  0.15849023305E+04  0.15849023305E+04  0.50400001928E-02 0. -1.
       -1   -1    0    0    0  501  0.00000000000E+00  0.00000000000E+00 -0.92818619144E+03  0.92818619146E+03  0.50400001928E-02 0.  1.
    10030    2    1    2    0    0  0.00000000000E+00  0.00000000000E+00  0.65671613906E+03  0.25130885220E+04  0.24257654116E+04 0.  0.
        4    1    3    3  502    0 -0.11593251694E+04  0.27936426602E+02 -0.39775031395E+02  0.11603443275E+04  0.12699999809E+01 0.  1.
       -4    1    3    3    0  502  0.11593251694E+04 -0.27936426602E+02  0.69649117045E+03  0.13527441945E+04  0.12699999809E+01 0. -1.
</event>
<event>
 5   0  0.3310037E-05  0.2348680E+04  0.7818609E-02  0.8458971E-01
       -2   -1    0    0    0  501  0.00000000000E+00  0.00000000000E+00  0.10325394669E+04  0.10325394669E+04  0.25500000920E-02 0.  1.
        2   -1    0    0  501    0  0.00000000000E+00  0.00000000000E+00 -0.13356141630E+04  0.13356141630E+04  0.25500000920E-02 0. -1.
    10030    2    1    2    0    0  0.00000000000E+00  0.00000000000E+00 -0.30307469612E+03  0.23681536299E+04  0.23486799151E+04 0.  0.
        2    1    3    3  502    0  0.79135380695E+03 -0.82893602173E+03 -0.40997986652E+03  0.12171521133E+04  0.25500000920E-02 0. -1.
       -2    1    3    3    0  502 -0.79135380695E+03  0.82893602173E+03  0.10690517040E+03  0.11510015167E+04  0.25500000920E-02 0.  1.
</event>
<event>
 5   0  0.3320780E-05  0.2420877E+04  0.7818609E-02  0.8431728E-01
        2   -1    0    0  501    0  0.00000000000E+00  0.00000000000E+00  0.83314930029E+03  0.83314930030E+03  0.25500000920E-02 0. -1.
       -2   -1    0    0    0  501  0.00000000000E+00  0.00000000000E+00 -0.17585826804E+04  0.17585826804E+04  0.25500000920E-02 0.  1.
    10030    2    1    2    0    0  0.00000000000E+00  0.00000000000E+00 -0.92543338015E+03  0.25917319807E+04  0.24208774688E+04 0.  0.
        5    1    3    3  502    0 -0.37401106529E+03 -0.11215351642E+04 -0.74068400956E+03  0.13951201717E+04  0.46999998093E+01 0.  1.
       -5    1    3    3    0  502  0.37401106529E+03  0.11215351642E+04 -0.18474937059E+03  0.11966118090E+04  0.46999998093E+01 0. -1.
</event>
<event>
 5   0  0.1393026E-05  0.2400106E+04  0.7818609E-02  0.8439464E-01
        1   -1    0    0  501    0  0.00000000000E+00  0.00000000000E+00  0.97969132140E+03  0.97969132141E+03  0.50400001928E-02 0.  1.
       -1   -1    0    0    0  501  0.00000000000E+00  0.00000000000E+00 -0.14699800591E+04  0.14699800591E+04  0.50400001928E-02 0. -1.
    10030    2    1    2    0    0  0.00000000000E+00  0.00000000000E+00 -0.49028873767E+03  0.24496713805E+04  0.24001055864E+04 0.  0.
        4    1    3    3  502    0 -0.67367440654E+03  0.93875039625E+03 -0.57592928835E+03  0.12910405379E+04  0.12699999809E+01 0.  1.
       -4    1    3    3    0  502  0.67367440654E+03 -0.93875039625E+03  0.85640550687E+02  0.11586308426E+04  0.12699999809E+01 0. -1.
</event>
<event>
 5   0  0.1401596E-05  0.2383142E+04  0.7818609E-02  0.8445842E-01
       -1   -1    0    0    0  501  0.00000000000E+00  0.00000000000E+00  0.14892886968E+04  0.14892886968E+04  0.50400001928E-02 0.  1.
        1   -1    0    0  501    0  0.00000000000E+00  0.00000000000E+00 -0.95336869754E+03  0.95336869755E+03  0.50400001928E-02 0. -1.
    10030    2    1    2    0    0  0.00000000000E+00  0.00000000000E+00  0.53591999924E+03  0.24426573943E+04  0.23831418129E+04 0.  0.
        2    1    3    3  502    0  0.89419403259E+03 -0.25678263832E+03 -0.49516083507E+03  0.10538996840E+04  0.25500000920E-02 0. -1.
       -2    1    3    3    0  502 -0.89419403259E+03  0.25678263832E+03  0.10310808343E+04  0.13887577104E+04  0.25500000920E-02 0.  1.
</event>
<event>
 5   0  0.3345974E-05  0.2402759E+04  0.7818609E-02  0.8438471E-01
        2   -1    0    0  501    0  0.00000000000E+00  0.00000000000E+00  0.17939701634E+04  0.17939701634E+04  0.25500000920E-02 0. -1.
       -2   -1    0    0    0  501  0.00000000000E+00  0.00000000000E+00 -0.80453529156E+03  0.80453529157E+03  0.25500000920E-02 0.  1.
    10030    2    1    2    0    0  0.00000000000E+00  0.00000000000E+00  0.98943487184E+03  0.25985054550E+04  0.24027586716E+04 0.  0.
        4    1    3    3  502    0  0.48943045747E+01 -0.12011906869E+04  0.51708251296E+03  0.13077686947E+04  0.12699999809E+01 0. -1.
       -4    1    3    3    0  502 -0.48943045747E+01  0.12011906869E+04  0.47235235889E+03  0.12907367603E+04  0.12699999809E+01 0.  1.
</event>
<event>
 5   0  0.1147362E-05  0.2392778E+04  0.7818609E-02  0.8442212E-01
        3   -1    0    0  501    0  0.00000000000E+00  0.00000000000E+00  0.15262382141E+04  0.15262382174E+04  0.10100000352E+00 0. -1.
       -3   -1    0    0    0  501  0.00000000000E+00  0.00000000000E+00 -0.93782665874E+03  0.93782666417E+03  0.10100000352E+00 0.  1.
    10030    2    1    2    0    0  0.00000000000E+00  0.00000000000E+00  0.58841155536E+03  0.24640648816E+04  0.23927782142E+04 0.  0.
        2    1    3    3  502    0 -0.61968015144E+03  0.33349801940E+03 -0.70215363893E+03  0.99410469856E+03  0.25500000920E-02 0.  1.
       -2    1    3    3    0  502  0.61968015144E+03 -0.33349801940E+03  0.12905651943E+04  0.14699601831E+04  0.25500000920E-02 0. -1.
</event>
<event>
 5   0  0.3345974E-05  0.2407135E+04  0.7818609E-02  0.8436837E-01
        2   -1    0    0  501    0  0.00000000000E+00  0.00000000000E+00  0.12442567768E+04  0.12442567768E+04  0.25500000920E-02 0.  1.
       -2   -1    0    0    0  501  0.00000000000E+00  0.00000000000E+00 -0.11642087135E+04  0.11642087135E+04  0.25500000920E-02 0. -1.
    10030    2    1    2    0    0  0.00000000000E+00  0.00000000000E+00  0.80048063306E+02  0.24084654903E+04  0.24071348790E+04 0.  0.
        4    1    3    3  502    0  0.20720454577E+03  0.11569672100E+04 -0.21909039410E+03  0.11956207854E+04  0.12699999809E+01 0.  1.
       -4    1    3    3    0  502 -0.20720454577E+03 -0.11569672100E+04  0.29913845741E+03  0.12128447050E+04  0.12699999809E+01 0. -1.
</event>
<event>
 5   0  0.3345974E-05  0.2375382E+04  0.7818609E-02  0.8448778E-01
        2   -1    0    0  501    0  0.00000000000E+00  0.00000000000E+00  0.12078800950E+04  0.12078800950E+04  0.25500000920E-02 0.  1.
       -2   -1    0    0    0  501  0.00000000000E+00  0.00000000000E+00 -0.11678392915E+04  0.11678392915E+04  0.25500000920E-02 0. -1.
    10030    2    1    2    0    0  0.00000000000E+00  0.00000000000E+00  0.40040803520E+02  0.23757193864E+04  0.23753819350E+04 0.  0.
        4    1    3    3  502    0  0.79149333609E+03  0.87943797931E+03  0.12364670747E+03  0.11896062297E+04  0.12699999809E+01 0.  1.
       -4    1    3    3    0  502 -0.79149333609E+03 -0.87943797931E+03 -0.83605903949E+02  0.11861131567E+04  0.12699999809E+01 0. -1.
</event>
<event>
 5   0  0.3347728E-05  0.2389164E+04  0.7818609E-02  0.8443572E-01
        2   -1    0    0  501    0  0.00000000000E+00  0.00000000000E+00  0.73572430503E+03  0.73572430504E+03  0.25500000920E-02 0.  1.
       -2   -1    0    0    0  501  0.00000000000E+00  0.00000000000E+00 -0.19396201473E+04  0.19396201473E+04  0.25500000920E-02 0. -1.
    10030    2    1    2    0    0  0.00000000000E+00  0.00000000000E+00 -0.12038958423E+04  0.26753444524E+04  0.23891636067E+04 0.  0.
        3    1    3    3  502    0 -0.36691878318E+03 -0.11079370241E+04 -0.88715604793E+03  0.14660149066E+04  0.10100000352E+00 0. -1.
       -3    1    3    3    0  502  0.36691878318E+03  0.11079370241E+04 -0.31673979435E+03  0.12093295458E+04  0.10100000352E+00 0.  1.
</event>
<event>
 5   0  0.1401596E-05  0.2403759E+04  0.7818609E-02  0.8438098E-01
       -1   -1    0    0    0  501  0.00000000000E+00  0.00000000000E+00  0.29032868556E+04  0.29032868556E+04  0.50400001928E-02 0. -1.
        1   -1    0    0  501    0  0.00000000000E+00  0.00000000000E+00 -0.49754448752E+03  0.49754448755E+03  0.50400001928E-02 0.  1.
    10030    2    1    2    0    0  0.00000000000E+00  0.00000000000E+00  0.24057423681E+04  0.34008313432E+04  0.24037590318E+04 0.  0.
        2    1    3    3  502    0 -0.43286340763E+03  0.20663686012E+03  0.27620038265E+04  0.28033434786E+04  0.25500000920E-02 0. -1.
       -2    1    3    3    0  502  0.43286340763E+03 -0.20663686012E+03 -0.35626145834E+03  0.59748786459E+03  0.25500000920E-02 0.  1.
</event>
<event>
 5   0  0.1407158E-05  0.2423947E+04  0.7818609E-02  0.8430592E-01
       -1   -1    0    0    0  501  0.00000000000E+00  0.00000000000E+00  0.16064451976E+04  0.16064451976E+04  0.50400001928E-02 0.  1.
        1   -1    0    0  501    0  0.00000000000E+00  0.00000000000E+00 -0.91436620426E+03  0.91436620428E+03  0.50400001928E-02 0. -1.
    10030    2    1    2    0    0  0.00000000000E+00  0.00000000000E+00  0.69207899331E+03  0.25208114019E+04  0.24239465322E+04 0.  0.
        1    1    3    3  502    0 -0.10076820904E+04 -0.24682532946E+03 -0.30552220474E+03  0.10815219629E+04  0.50400001928E-02 0. -1.
       -1    1    3    3    0  502  0.10076820904E+04  0.24682532946E+03  0.99760119805E+03  0.14392894389E+04  0.50400001928E-02 0.  1.
</event>
<event>
 5   0  0.1434943E-05  0.2370673E+04  0.7818609E-02  0.8450566E-01
       -1   -1    0    0    0  501  0.00000000000E+00  0.00000000000E+00  0.78665527500E+03  0.78665527501E+03  0.50400001928E-02 0. -1.
        1   -1    0    0  501    0  0.00000000000E+00  0.00000000000E+00 -0.17860710539E+04  0.17860710539E+04  0.50400001928E-02 0.  1.
    10030    2    1    2    0    0  0.00000000000E+00  0.00000000000E+00 -0.99941577892E+03  0.25727263289E+04  0.23706726608E+04 0.  0.
        5    1    3    3  502    0 -0.97512246083E+03 -0.45594634256E+03  0.38821555101E+02  0.10771629793E+04  0.46999998093E+01 0. -1.
       -5    1    3    3    0  502  0.97512246083E+03  0.45594634256E+03 -0.10382373340E+04  0.14955633496E+04  0.46999998093E+01 0.  1.
</event>
<event>
 5   0  0.3215208E-05  0.2413937E+04  0.7818609E-02  0.8434304E-01
       -2   -1    0    0    0  501  0.00000000000E+00  0.00000000000E+00  0.52559955570E+03  0.52559955570E+03  0.25500000920E-02 0.  1.
        2   -1    0    0  501    0  0.00000000000E+00  0.00000000000E+00 -0.27716392972E+04  0.27716392972E+04  0.25500000920E-02 0. -1.
    10030    2    1    2    0    0  0.00000000000E+00  0.00000000000E+00 -0.22460397415E+04  0.32972388529E+04  0.24139365221E+04 0.  0.
        1    1    3    3  502    0  0.68975183632E+03 -0.25020543142E+03 -0.24320310181E+04  0.25403021920E+04  0.50400001928E-02 0. -1.
       -1    1    3    3    0  502 -0.68975183632E+03  0.25020543142E+03  0.18599127661E+03  0.75693666090E+03  0.50400001928E-02 0.  1.
</event>
<event>
 5   0  0.3320780E-05  0.2412953E+04  0.7818609E-02  0.8434670E-01
        2   -1    0    0  501    0  0.00000000000E+00  0.00000000000E+00  0.15790589919E+04  0.15790589919E+04  0.25500000920E-02 0.  1.
       -2   -1    0    0    0  501  0.00000000000E+00  0.00000000000E+00 -0.92180535832E+03  0.92180535832E+03  0.25500000920E-02 0. -1.
    10030    2    1    2    0    0  0.00000000000E+00  0.00000000000E+00  0.65725363357E+03  0.25008643502E+04  0.24129525812E+04 0.  0.
        5    1    3    3  502    0  0.40018911634E+03 -0.38749353963E+03 -0.78053131172E+03  0.95893367376E+03  0.46999998093E+01 0. -1.
       -5    1    3    3    0  502 -0.40018911634E+03  0.38749353963E+03  0.14377849453E+04  0.15419306765E+04  0.46999998093E+01 0.  1.
</event>
<event>
 5   0  0.3345974E-05  0.2398961E+04  0.7818609E-02  0.8439893E-01
        2   -1    0    0  501    0  0.00000000000E+00  0.00000000000E+00  0.93370236744E+03  0.93370236744E+03  0.25500000920E-02 0. -1.
       -2   -1    0    0    0  501  0.00000000000E+00  0.00000000000E+00 -0.15409117068E+04  0.15409117068E+04  0.25500000920E-02 0.  1.
    10030    2    1    2    0    0  0.00000000000E+00  0.00000000000E+00 -0.60720933939E+03  0.24746140743E+04  0.23989605321E+04 0.  0.
        4    1    3    3  502    0  0.41555894691E+03  0.79236708556E+03  0.52047343576E+03  0.10350985687E+04  0.12699999809E+01 0. -1.
       -4    1    3    3    0  502 -0.41555894691E+03 -0.79236708556E+03 -0.11276827751E+04  0.14395155056E+04  0.12699999809E+01 0.  1.
</event>
<event>
 5   0  0.1434943E-05  0.2193547E+04  0.7818609E-02  0.8521119E-01
       -1   -1    0    0    0  501  0.00000000000E+00  0.00000000000E+00  0.61768282558E+03  0.61768282560E+03  0.50400001928E-02 0.  1.
        1   -1    0    0  501    0  0.00000000000E+00  0.00000000000E+00 -0.19474590969E+04  0.19474590969E+04  0.50400001928E-02 0. -1.
    10030    2    1    2    0    0  0.00000000000E+00  0.00000000000E+00 -0.13297762713E+04  0.25651419225E+04  0.21935469338E+04 0.  0.
        5    1    3    3  502    0 -0.87088554090E+03  0.21901841586E+03 -0.14012218776E+04  0.16642882959E+04  0.46999998093E+01 0. -1.
       -5    1    3    3    0  502  0.87088554090E+03 -0.21901841586E+03  0.71445606254E+02  0.90085362656E+03  0.46999998093E+01 0.  1.
</event>
<event>
 5   0  0.1407158E-05  0.2419261E+04  0.7818609E-02  0.8432328E-01
       -1   -1    0    0    0  501  0.00000000000E+00  0.00000000000E+00  0.90897640879E+03  0.90897640881E+03  0.50400001928E-02 0. -1.
        1   -1    0    0  501    0  0.00000000000E+00  0.00000000000E+00 -0.16097290791E+04  0.16097290791E+04  0.50400001928E-02 0.  1.
    10030    2    1    2    0    0  0.00000000000E+00  0.00000000000E+00 -0.70075267034E+03  0.25187054879E+04  0.24192608437E+04 0.  0.
        1    1    3    3  502    0 -0.48392826566E+03 -0.70543250451E+03 -0.12407400874E+04  0.15070691919E+04  0.50400001928E-02 0.  1.
       -1    1    3    3    0  502  0.48392826566E+03  0.70543250451E+03  0.53998741710E+03  0.10116362960E+04  0.50400001928E-02 0. -1.
</event>
<event>
 5   0  0.1401596E-05  0.2425562E+04  0.7818609E-02  0.8429995E-01
        1   -1    0    0  501    0  0.00000000000E+00  0.00000000000E+00  0.13211370678E+04  0.13211370679E+04  0.50400001928E-02 0. -1.
       -1   -1    0    0    0  501  0.00000000000E+00  0.00000000000E+00 -0.11133122924E+04  0.11133122924E+04  0.50400001928E-02 0.  1.
    10030    2    1    2    0    0  0.00000000000E+00  0.00000000000E+00  0.20782477544E+03  0.24344493603E+04  0.24255623163E+04 0.  0.
        2    1    3    3  502    0  0.26046327945E+03  0.10011388600E+04  0.73925463411E+03  0.12714627604E+04  0.25500000920E-02 0. -1.
       -2    1    3    3    0  502 -0.26046327945E+03 -0.10011388600E+04 -0.53142985867E+03  0.11629865999E+04  0.25500000920E-02 0.  1.
</event>
<event>
 5   0  0.1401596E-05  0.2491585E+04  0.7818609E-02  0.8405989E-01
       -1   -1    0    0    0  501  0.00000000000E+00  0.00000000000E+00  0.16513357443E+04  0.16513357443E+04  0.50400001928E-02 0.  1.
        1   -1    0    0  501    0  0.00000000000E+00  0.00000000000E+00 -0.93984491014E+03  0.93984491016E+03  0.50400001928E-02 0. -1.
    10030    2    1    2    0    0  0.00000000000E+00  0.00000000000E+00  0.71149083415E+03  0.25911806545E+04  0.24915854344E+04 0.  0.
        2    1    3    3  502    0  0.74922102406E+03 -0.75746661929E+03  0.10272421998E+04  0.14799710670E+04  0.25500000920E-02 0.  1.
       -2    1    3    3    0  502 -0.74922102406E+03  0.75746661929E+03 -0.31575136564E+03  0.11112095874E+04  0.25500000920E-02 0. -1.
</event>
<event>
 5   0  0.1434943E-05  0.2388785E+04  0.7818609E-02  0.8443714E-01
       -1   -1    0    0    0  501  0.00000000000E+00  0.00000000000E+00  0.89928424874E+03  0.89928424875E+03  0.50400001928E-02 0.  1.
        1   -1    0    0  501    0  0.00000000000E+00  0.00000000000E+00 -0.15863428085E+04  0.15863428085E+04  0.50400001928E-02 0. -1.
    10030    2    1    2    0    0  0.00000000000E+00  0.00000000000E+00 -0.68705855972E+03  0.24856270572E+04  0.23887847126E+04 0.  0.
        5    1    3    3  502    0  0.89110583437E+03  0.36270156956E+03  0.39292710701E+03  0.10392477270E+04  0.46999998093E+01 0.  1.
       -5    1    3    3    0  502 -0.89110583437E+03 -0.36270156956E+03 -0.10799856667E+04  0.14463793302E+04  0.46999998093E+01 0. -1.
</event>
<event>
 5   0  0.3215208E-05  0.2404134E+04  0.7818609E-02  0.8437958E-01
        2   -1    0    0  501    0  0.00000000000E+00  0.00000000000E+00  0.14530083898E+04  0.14530083898E+04  0.25500000920E-02 0. -1.
       -2   -1    0    0    0  501  0.00000000000E+00  0.00000000000E+00 -0.99446427230E+03  0.99446427231E+03  0.25500000920E-02 0.  1.
    10030    2    1    2    0    0  0.00000000000E+00  0.00000000000E+00  0.45854411746E+03  0.24474726621E+04  0.24041338823E+04 0.  0.
        1    1    3    3  502    0  0.79715910462E+03 -0.15781451958E+03 -0.67247033159E+03  0.10547911677E+04  0.50400001928E-02 0.  1.
       -1    1    3    3    0  502 -0.79715910462E+03  0.15781451958E+03  0.11310144490E+04  0.13926814943E+04  0.50400001928E-02 0. -1.
</event>
<event>
 5   0  0.1401596E-05  0.2398047E+04  0.7818609E-02  0.8440235E-01
       -1   -1    0    0    0  501  0.00000000000E+00  0.00000000000E+00  0.13206826297E+04  0.13206826297E+04  0.50400001928E-02 0.  1.
        1   -1    0    0  501    0  0.00000000000E+00  0.00000000000E+00 -0.10885712690E+04  0.10885712691E+04  0.50400001928E-02 0. -1.
    10030    2    1    2    0    0  0.00000000000E+00  0.00000000000E+00  0.23211136066E+03  0.24092538988E+04  0.23980468438E+04 0.  0.
        2    1    3    3  502    0 -0.44053825656E+03  0.35967944864E+03 -0.94444071100E+03  0.11024570367E+04  0.25500000920E-02 0. -1.
       -2    1    3    3    0  502  0.44053825656E+03 -0.35967944864E+03  0.11765520717E+04  0.13067968620E+04  0.25500000920E-02 0.  1.
</event>
<event>
 5   0  0.1407158E-05  0.2402051E+04  0.7818609E-02  0.8438736E-01
       -1   -1    0    0    0  501  0.00000000000E+00  0.00000000000E+00  0.76576285676E+03  0.76576285677E+03  0.50400001928E-02 0. -1.
        1   -1    0    0  501    0  0.00000000000E+00  0.00000000000E+00 -0.18836932086E+04  0.18836932086E+04  0.50400001928E-02 0.  1.
    10030    2    1    2    0    0  0.00000000000E+00  0.00000000000E+00 -0.11179303519E+04  0.26494560654E+04  0.24020510342E+04 0.  0.
        1    1    3    3  502    0  0.10563479245E+04  0.21528340566E+03 -0.11428712211E+04  0.15711055058E+04  0.50400001928E-02 0. -1.
       -1    1    3    3    0  502 -0.10563479245E+04 -0.21528340566E+03  0.24940869204E+02  0.10783505596E+04  0.50400001928E-02 0.  1.
</event>
<event>
 5   0  0.3345974E-05  0.2401631E+04  0.7818609E-02  0.8438893E-01
       -2   -1    0    0    0  501  0.00000000000E+00  0.00000000000E+00  0.93552384620E+03  0.93552384620E+03  0.25500000920E-02 0.  1.
        2   -1    0    0  501    0  0.00000000000E+00  0.00000000000E+00 -0.15413371201E+04  0.15413371201E+04  0.25500000920E-02 0. -1.
    10030    2    1    2    0    0  0.00000000000E+00  0.00000000000E+00 -0.60581327392E+03  0.24768609663E+04  0.24016308050E+04 0.  0.
        4    1    3    3  502    0 -0.27475543870E+03  0.53459597833E+03 -0.13750243098E+04  0.15006588142E+04  0.12699999809E+01 0. -1.
       -4    1    3    3    0  502  0.27475543870E+03 -0.53459597833E+03  0.76921103590E+03  0.97620215212E+03  0.12699999809E+01 0.  1.
</event>
<event>
 5   0  0.1434943E-05  0.2404984E+04  0.7818609E-02  0.8437640E-01
        1   -1    0    0  501    0  0.00000000000E+00  0.00000000000E+00  0.10551798791E+04  0.10551798791E+04  0.50400001928E-02 0. -1.
       -1   -1    0    0    0  501  0.00000000000E+00  0.00000000000E+00 -0.13703702725E+04  0.13703702725E+04  0.50400001928E-02 0.  1.
    10030    2    1    2    0    0  0.00000000000E+00  0.00000000000E+00 -0.31519039343E+03  0.24255501516E+04  0.24049841068E+04 0.  0.
        5    1    3    3  502    0 -0.70318867326E+03  0.53663886164E+03  0.66393136752E+03  0.11060210345E+04  0.46999998093E+01 0. -1.
       -5    1    3    3    0  502  0.70318867326E+03 -0.53663886164E+03 -0.97912176095E+03  0.13195291171E+04  0.46999998093E+01 0.  1.
</event>
<event>
 5   0  0.1434943E-05  0.2403718E+04  0.7818609E-02  0.8438113E-01
       -1   -1    0    0    0  501  0.00000000000E+00  0.00000000000E+00  0.19067057921E+04  0.19067057921E+04  0.50400001928E-02 0.  1.
        1   -1    0    0  501    0  0.00000000000E+00  0.00000000000E+00 -0.75757106465E+03  0.75757106466E+03  0.50400001928E-02 0. -1.
    10030    2    1    2    0    0  0.00000000000E+00  0.00000000000E+00  0.11491347275E+04  0.26642768568E+04  0.24037180674E+04 0.  0.
        5    1    3    3  502    0 -0.27970014153E+03 -0.20899631604E+03 -0.70010574382E+03  0.78235655031E+03  0.46999998093E+01 0. -1.
       -5    1    3    3    0  502  0.27970014153E+03  0.20899631604E+03  0.18492404713E+04  0.18819203065E+04  0.46999998093E+01 0.  1.
</event>
<event>
 5   0  0.1401596E-05  0.2397293E+04  0.7818609E-02  0.8440518E-01
        1   -1    0    0  501    0  0.00000000000E+00  0.00000000000E+00  0.16674423386E+04  0.16674423386E+04  0.50400001928E-02 0. -1.
       -1   -1    0    0    0  501  0.00000000000E+00  0.00000000000E+00 -0.86165133251E+03  0.86165133252E+03  0.50400001928E-02 0.  1.
    10030    2    1    2    0    0  0.00000000000E+00  0.00000000000E+00  0.80579100611E+03  0.25290936711E+04  0.23972934013E+04 0.  0.
        2    1    3    3  502    0  0.24526314480E+03  0.20532658441E+03  0.16215859210E+04  0.16528320894E+04  0.25500000920E-02 0. -1.
       -2    1    3    3    0  502 -0.24526314480E+03 -0.20532658441E+03 -0.81579491491E+03  0.87626158176E+03  0.25500000920E-02 0.  1.
</event>
<event>
 5   0  0.3215208E-05  0.2425537E+04  0.7818609E-02  0.8430004E-01
       -2   -1    0    0    0  501  0.00000000000E+00  0.00000000000E+00  0.75370508978E+03  0.75370508979E+03  0.25500000920E-02 0. -1.
        2   -1    0    0  501    0  0.00000000000E+00  0.00000000000E+00 -0.19514368839E+04  0.19514368839E+04  0.25500000920E-02 0.  1.
    10030    2    1    2    0    0  0.00000000000E+00  0.00000000000E+00 -0.11977317941E+04  0.27051419737E+04  0.24255373935E+04 0.  0.
        1    1    3    3  502    0  0.88595117635E+03 -0.81042159727E+03 -0.78916748917E+03  0.14368291402E+04  0.50400001928E-02 0. -1.
       -1    1    3    3    0  502 -0.88595117635E+03  0.81042159727E+03 -0.40856430491E+03  0.12683128334E+04  0.50400001928E-02 0.  1.
</event>
<event>
 5   0  0.1401596E-05  0.2382778E+04  0.7818609E-02  0.8445980E-01
       -1   -1    0    0    0  501  0.00000000000E+00  0.00000000000E+00  0.79344374952E+03  0.79344374954E+03  0.50400001928E-02 0.  1.
        1   -1    0    0  501    0  0.00000000000E+00  0.00000000000E+00 -0.17889203206E+04  0.17889203206E+04  0.50400001928E-02 0. -1.
    10030    2    1    2    0    0  0.00000000000E+00  0.00000000000E+00 -0.99547657109E+03  0.25823640702E+04  0.23827779140E+04 0.  0.
        2    1    3    3  502    0 -0.46239864671E+03  0.56098148162E+03 -0.15206711807E+04  0.16855128511E+04  0.25500000920E-02 0. -1.
       -2    1    3    3    0  502  0.46239864671E+03 -0.56098148162E+03  0.52519460964E+03  0.89685121910E+03  0.25500000920E-02 0.  1.
</event>
<event>
 5   0  0.3215208E-05  0.2367103E+04  0.7818609E-02  0.8451923E-01
       -2   -1    0    0    0  501  0.00000000000E+00  0.00000000000E+00  0.70693163513E+03  0.70693163513E+03  0.25500000920E-02 0.  1.
        2   -1    0    0  501    0  0.00000000000E+00  0.00000000000E+00 -0.19815127563E+04  0.19815127563E+04  0.25500000920E-02 0. -1.
    10030    2    1    2    0    0  0.00000000000E+00  0.00000000000E+00 -0.12745811212E+04  0.26884443915E+04  0.23671029153E+04 0.  0.
        1    1    3    3  502    0 -0.99850060814E+03 -0.54980578402E+03 -0.99913832917E+03  0.15157728278E+04  0.50400001928E-02 0.  1.
       -1    1    3    3    0  502  0.99850060814E+03  0.54980578402E+03 -0.27544279205E+03  0.11726715637E+04  0.50400001928E-02 0. -1.
</event>
<event>
 5   0  0.3347728E-05  0.2389558E+04  0.7818609E-02  0.8443423E-01
        2   -1    0    0  501    0  0.00000000000E+00  0.00000000000E+00  0.11902146584E+04  0.11902146584E+04  0.25500000920E-02 0. -1.
       -2   -1    0    0    0  501  0.00000000000E+00  0.00000000000E+00 -0.11993607757E+04  0.11993607757E+04  0.25500000920E-02 0.  1.
    10030    2    1    2    0    0  0.00000000000E+00  0.00000000000E+00 -0.91461172534E+01  0.23895754341E+04  0.23895579306E+04 0.  0.
        3    1    3    3  502    0  0.69980687845E+03 -0.88872099317E+03 -0.38920829135E+03  0.11962599112E+04  0.10100000352E+00 0.  1.
       -3    1    3    3    0  502 -0.69980687845E+03  0.88872099317E+03  0.38006217410E+03  0.11933155229E+04  0.10100000352E+00 0. -1.
</event>
<event>
 5   0  0.3347728E-05  0.2401987E+04  0.7818609E-02  0.8438760E-01
        2   -1    0    0  501    0  0.00000000000E+00  0.00000000000E+00  0.18360426066E+04  0.18360426066E+04  0.25500000920E-02 0.  1.
       -2   -1    0    0    0  501  0.00000000000E+00  0.00000000000E+00 -0.78559491154E+03  0.78559491154E+03  0.25500000920E-02 0. -1.
    10030    2    1    2    0    0  0.00000000000E+00  0.00000000000E+00  0.10504476951E+04  0.26216375181E+04  0.24019872848E+04 0.  0.
        3    1    3    3  502    0 -0.33548038227E+02 -0.11473735367E+04  0.91079023550E+03  0.14653089663E+04  0.10100000352E+00 0.  1.
       -3    1    3    3    0  502  0.33548038227E+02  0.11473735367E+04  0.13965745955E+03  0.11563285518E+04  0.10100000352E+00 0. -1.
</event>
<event>
 5   0  0.1407158E-05  0.2028944E+04  0.7818609E-02  0.8593207E-01
        1   -1    0    0  501    0  0.00000000000E+00  0.00000000000E+00  0.20388492940E+04  0.20388492940E+04  0.50400001928E-02 0.  1.
       -1   -1    0    0    0  501  0.00000000000E+00  0.00000000000E+00 -0.50477191028E+03  0.50477191030E+03  0.50400001928E-02 0. -1.
    10030    2    1    2    0    0  0.00000000000E+00  0.00000000000E+00  0.15340773837E+04  0.25436212043E+04  0.20289444082E+04 0.  0.
        1    1    3    3  502    0  0.33548162672E+03 -0.50735835083E+03 -0.25082289693E+03  0.65793050064E+03  0.50400001928E-02 0. -1.
       -1    1    3    3    0  502 -0.33548162672E+03  0.50735835083E+03  0.17849002806E+04  0.18856907037E+04  0.50400001928E-02 0.  1.
</event>
<event>
 5   0  0.1434943E-05  0.2379606E+04  0.7818609E-02  0.8447178E-01
       -1   -1    0    0    0  501  0.00000000000E+00  0.00000000000E+00  0.84782657698E+03  0.84782657700E+03  0.50400001928E-02 0. -1.
        1   -1    0    0  501    0  0.00000000000E+00  0.00000000000E+00 -0.16697178565E+04  0.16697178565E+04  0.50400001928E-02 0.  1.
    10030    2    1    2    0    0  0.00000000000E+00  0.00000000000E+00 -0.82189127949E+03  0.25175444335E+04  0.23796059966E+04 0.  0.
        5    1    3    3  502    0 -0.50414388075E+03  0.95659891401E+03  0.11417968206E+03  0.10873369416E+04  0.46999998093E+01 0. -1.
       -5    1    3    3    0  502  0.50414388075E+03 -0.95659891401E+03 -0.93607096155E+03  0.14302074919E+04  0.46999998093E+01 0.  1.
</event>
<event>
 5   0  0.3347728E-05  0.2369225E+04  0.7818609E-02  0.8451116E-01
       -2   -1    0    0    0  501  0.00000000000E+00  0.00000000000E+00  0.17316636339E+04  0.17316636339E+04  0.25500000920E-02 0.  1.
        2   -1    0    0  501    0  0.00000000000E+00  0.00000000000E+00 -0.81038086649E+03  0.81038086649E+03  0.25500000920E-02 0. -1.
    10030    2    1    2    0    0  0.00000000000E+00  0.00000000000E+00  0.92128276745E+03  0.25420445004E+04  0.23692252541E+04 0.  0.
        3    1    3    3  502    0  0.93647822088E+03 -0.55288002506E+03  0.96462708728E+03  0.14536757575E+04  0.10100000352E+00 0. -1.
       -3    1    3    3    0  502 -0.93647822088E+03  0.55288002506E+03 -0.43344319830E+02  0.10883687429E+04  0.10100000352E+00 0.  1.
</event>
<event>
 5   0  0.1434943E-05  0.2388202E+04  0.7818609E-02  0.8443934E-01
        1   -1    0    0  501    0  0.00000000000E+00  0.00000000000E+00  0.16256706082E+04  0.16256706082E+04  0.50400001928E-02 0. -1.
       -1   -1    0    0    0  501  0.00000000000E+00  0.00000000000E+00 -0.87710095466E+03  0.87710095467E+03  0.50400001928E-02 0.  1.
    10030    2    1    2    0    0  0.00000000000E+00  0.00000000000E+00  0.74856965352E+03  0.25027715629E+04  0.23882020370E+04 0.  0.
        5    1    3    3  502    0 -0.10216019751E+04 -0.47539198904E+03  0.78844907608E+03  0.13752607660E+04  0.46999998093E+01 0. -1.
       -5    1    3    3    0  502  0.10216019751E+04  0.47539198904E+03 -0.39879422567E+02  0.11275107969E+04  0.46999998093E+01 0.  1.
</event>
<event>
 5   0  0.3310037E-05  0.2382320E+04  0.7818609E-02  0.8446153E-01
        2   -1    0    0  501    0  0.00000000000E+00  0.00000000000E+00  0.16472858793E+04  0.16472858793E+04  0.25500000920E-02 0. -1.
       -2   -1    0    0    0  501  0.00000000000E+00  0.00000000000E+00 -0.86133294880E+03  0.86133294880E+03  0.25500000920E-02 0.  1.
    10030    2    1    2    0    0  0.00000000000E+00  0.00000000000E+00  0.78595293052E+03  0.25086188281E+04  0.23823195453E+04 0.  0.
        2    1    3    3  502    0  0.96921011928E+03 -0.45417783338E+03 -0.15743516790E+03  0.10818648676E+04  0.25500000920E-02 0.  1.
       -2    1    3    3    0  502 -0.96921011928E+03  0.45417783338E+03  0.94338809841E+03  0.14267539605E+04  0.25500000920E-02 0. -1.
</event>
<event>
 5   0  0.1407158E-05  0.2399787E+04  0.7818609E-02  0.8439583E-01
        1   -1    0    0  501    0  0.00000000000E+00  0.00000000000E+00  0.25215697350E+04  0.25215697350E+04  0.50400001928E-02 0. -1.
       -1   -1    0    0    0  501  0.00000000000E+00  0.00000000000E+00 -0.57097149765E+03  0.57097149768E+03  0.50400001928E-02 0.  1.
    10030    2    1    2    0    0  0.00000000000E+00  0.00000000000E+00  0.19505982373E+04  0.30925412327E+04  0.23997870306E+04 0.  0.
        1    1    3    3  502    0 -0.74455508899E+03 -0.53409685985E+03 -0.23004920745E+02  0.91659749216E+03  0.50400001928E-02 0.  1.
       -1    1    3    3    0  502  0.74455508899E+03  0.53409685985E+03  0.19736031581E+04  0.21759437405E+04  0.50400001928E-02 0. -1.
</event>
<event>
 5   0  0.1407158E-05  0.2404269E+04  0.7818609E-02  0.8437907E-01
        1   -1    0    0  501    0  0.00000000000E+00  0.00000000000E+00  0.12474141742E+04  0.12474141742E+04  0.50400001928E-02 0. -1.
       -1   -1    0    0    0  501  0.00000000000E+00  0.00000000000E+00 -0.11584981455E+04  0.11584981455E+04  0.50400001928E-02 0.  1.
    10030    2    1    2    0    0  0.00000000000E+00  0.00000000000E+00  0.88916028766E+02  0.24059123197E+04  0.24042687100E+04 0.  0.
        1    1    3    3  502    0  0.11752614368E+04 -0.25235251948E+03  0.30103572092E+02  0.12024256584E+04  0.50400001928E-02 0. -1.
       -1    1    3    3    0  502 -0.11752614368E+04  0.25235251948E+03  0.58812456673E+02  0.12034866613E+04  0.50400001928E-02 0.  1.
</event>
<event>
 5   0  0.1393026E-05  0.2382990E+04  0.7818609E-02  0.8445899E-01
        1   -1    0    0  501    0  0.00000000000E+00  0.00000000000E+00  0.10294728442E+04  0.10294728443E+04  0.50400001928E-02 0.  1.
       -1   -1    0    0    0  501  0.00000000000E+00  0.00000000000E+00 -0.13790165366E+04  0.13790165366E+04  0.50400001928E-02 0. -1.
    10030    2    1    2    0    0  0.00000000000E+00  0.00000000000E+00 -0.34954369235E+03  0.24084893809E+04  0.23829897828E+04 0.  0.
        4    1    3    3  502    0  0.44224987781E+03  0.87791013702E+03  0.50574373358E+03  0.11054815693E+04  0.12699999809E+01 0.  1.
       -4    1    3    3    0  502 -0.44224987781E+03 -0.87791013702E+03 -0.85528742593E+03  0.13030078116E+04  0.12699999809E+01 0. -1.
</event>
<event>
 5   0  0.3345974E-05  0.2397630E+04  0.7818609E-02  0.8440392E-01
        2   -1    0    0  501    0  0.00000000000E+00  0.00000000000E+00  0.21219938327E+04  0.21219938327E+04  0.25500000920E-02 0.  1.
       -2   -1    0    0    0  501  0.00000000000E+00  0.00000000000E+00 -0.67726723273E+03  0.67726723274E+03  0.25500000920E-02 0. -1.
    10030    2    1    2    0    0  0.00000000000E+00  0.00000000000E+00  0.14447266000E+04  0.27992610654E+04  0.23976295719E+04 0.  0.
        4    1    3    3  502    0 -0.49228679748E+02  0.46727838946E+03  0.20100091677E+04  0.20641974284E+04  0.12699999809E+01 0.  1.
       -4    1    3    3    0  502  0.49228679748E+02 -0.46727838946E+03 -0.56528256777E+03  0.73506363703E+03  0.12699999809E+01 0. -1.
</event>
<event>
 5   0  0.1506985E-05  0.2420664E+04  0.7818609E-02  0.8431808E-01
       -1   -1    0    0    0  501  0.00000000000E+00  0.00000000000E+00  0.12127731514E+04  0.12127731514E+04  0.50400001928E-02 0. -1.
        1   -1    0    0  501    0  0.00000000000E+00  0.00000000000E+00 -0.12078952664E+04  0.12078952664E+04  0.50400001928E-02 0.  1.
    10030    2    1    2    0    0  0.00000000000E+00  0.00000000000E+00  0.48778850671E+01  0.24206684178E+04  0.24206635031E+04 0.  0.
        3    1    3    3  502    0 -0.11620581591E+04 -0.30644547498E+03 -0.14114040166E+03  0.12100448824E+04  0.10100000352E+00 0.  1.
       -3    1    3    3    0  502  0.11620581591E+04  0.30644547498E+03  0.14601828672E+03  0.12106235354E+04  0.10100000352E+00 0. -1.
</event>
<event>
 5   0  0.1434943E-05  0.2485872E+04  0.7818609E-02  0.8408036E-01
        1   -1    0    0  501    0  0.00000000000E+00  0.00000000000E+00  0.19888090058E+04  0.19888090058E+04  0.50400001928E-02 0. -1.
       -1   -1    0    0    0  501  0.00000000000E+00  0.00000000000E+00 -0.77679139706E+03  0.77679139708E+03  0.50400001928E-02 0.  1.
    10030    2    1    2    0    0  0.00000000000E+00  0.00000000000E+00  0.12120176088E+04  0.27656004029E+04  0.24858718600E+04 0.  0.
        5    1    3    3  502    0 -0.50467511590E+03  0.87120712360E+03 -0.20481590472E+03  0.10274582569E+04  0.46999998093E+01 0.  1.
       -5    1    3    3    0  502  0.50467511590E+03 -0.87120712360E+03  0.14168335135E+04  0.17381421460E+04  0.46999998093E+01 0. -1.
</event>
<event>
 5   0  0.1393026E-05  0.2408621E+04  0.7818609E-02  0.8436283E-01
        1   -1    0    0  501    0  0.00000000000E+00  0.00000000000E+00  0.22641214619E+04  0.22641214619E+04  0.50400001928E-02 0. -1.
       -1   -1    0    0    0  501  0.00000000000E+00  0.00000000000E+00 -0.64058561110E+03  0.64058561112E+03  0.50400001928E-02 0.  1.
    10030    2    1    2    0    0  0.00000000000E+00  0.00000000000E+00  0.16235358508E+04  0.29047070730E+04  0.24086208753E+04 0.  0.
        4    1    3    3  502    0  0.50165451931E+03  0.10226993366E+04  0.34037556738E+03  0.11888769195E+04  0.12699999809E+01 0.  1.
       -4    1    3    3    0  502 -0.50165451931E+03 -0.10226993366E+04  0.12831602834E+04  0.17158301535E+04  0.12699999809E+01 0. -1.
</event>
<event>
 5   0  0.3310037E-05  0.2391723E+04  0.7818609E-02  0.8442609E-01
       -2   -1    0    0    0  501  0.00000000000E+00  0.00000000000E+00  0.16732537729E+04  0.16732537729E+04  0.25500000920E-02 0.  1.
        2   -1    0    0  501    0  0.00000000000E+00  0.00000000000E+00 -0.85467318439E+03  0.85467318440E+03  0.25500000920E-02 0. -1.
    10030    2    1    2    0    0  0.00000000000E+00  0.00000000000E+00  0.81858058849E+03  0.25279269573E+04  0.23917233372E+04 0.  0.
        2    1    3    3  502    0 -0.19908036986E+03 -0.11463953926E+04  0.11746979204E+03  0.11694676319E+04  0.25500000920E-02 0. -1.
       -2    1    3    3    0  502  0.19908036986E+03  0.11463953926E+04  0.70111079645E+03  0.13584593254E+04  0.25500000920E-02 0.  1.
</event>
<event>
 5   0  0.3345974E-05  0.2395986E+04  0.7818609E-02  0.8441008E-01
        2   -1    0    0  501    0  0.00000000000E+00  0.00000000000E+00  0.11646373609E+04  0.11646373609E+04  0.25500000920E-02 0. -1.
       -2   -1    0    0    0  501  0.00000000000E+00  0.00000000000E+00 -0.12323034560E+04  0.12323034560E+04  0.25500000920E-02 0.  1.
    10030    2    1    2    0    0  0.00000000000E+00  0.00000000000E+00 -0.67666095117E+02  0.23969408170E+04  0.23959855132E+04 0.  0.
        4    1    3    3  502    0  0.54281675104E+03  0.95727139784E+03 -0.50748404587E+03  0.12118416662E+04  0.12699999809E+01 0.  1.
       -4    1    3    3    0  502 -0.54281675104E+03 -0.95727139784E+03  0.43981795075E+03  0.11850991507E+04  0.12699999809E+01 0. -1.
</event>
<event>
 5   0  0.3345974E-05  0.2407744E+04  0.7818609E-02  0.8436610E-01
       -2   -1    0    0    0  501  0.00000000000E+00  0.00000000000E+00  0.85539613879E+03  0.85539613880E+03  0.25500000920E-02 0. -1.
        2   -1    0    0  501    0  0.00000000000E+00  0.00000000000E+00 -0.16943124375E+04  0.16943124375E+04  0.25500000920E-02 0.  1.
    10030    2    1    2    0    0  0.00000000000E+00  0.00000000000E+00 -0.83891629870E+03  0.25497085763E+04  0.24077444357E+04 0.  0.
        4    1    3    3  502    0  0.11348900783E+04  0.33710959334E+03 -0.65071054591E+03  0.13509419659E+04  0.12699999809E+01 0. -1.
       -4    1    3    3    0  502 -0.11348900783E+04 -0.33710959334E+03 -0.18820575279E+03  0.11987666104E+04  0.12699999809E+01 0.  1.
</event>
<event>
 5   0  0.1393026E-05  0.2428985E+04  0.7818609E-02  0.8428731E-01
        1   -1    0    0  501    0  0.00000000000E+00  0.00000000000E+00  0.20111381695E+04  0.20111381695E+04  0.50400001928E-02 0. -1.
       -1   -1    0    0    0  501  0.00000000000E+00  0.00000000000E+00 -0.73341147344E+03  0.73341147346E+03  0.50400001928E-02 0.  1.
    10030    2    1    2    0    0  0.00000000000E+00  0.00000000000E+00  0.12777266961E+04  0.27445496430E+04  0.24289848153E+04 0.  0.
        4    1    3    3  502    0  0.27349896674E+02  0.11337213255E+04  0.14774844276E+03  0.11436359893E+04  0.12699999809E+01 0.  1.
       -4    1    3    3    0  502 -0.27349896674E+02 -0.11337213255E+04  0.11299782533E+04  0.16009136537E+04  0.12699999809E+01 0. -1.
</event>
<event>
 5   0  0.3310037E-05  0.2689341E+04  0.7818609E-02  0.8338472E-01
        2   -1    0    0  501    0  0.00000000000E+00  0.00000000000E+00  0.22065114483E+04  0.22065114483E+04  0.25500000920E-02 0. -1.
       -2   -1    0    0    0  501  0.00000000000E+00  0.00000000000E+00 -0.81945585379E+03  0.81945585380E+03  0.25500000920E-02 0.  1.
    10030    2    1    2    0    0  0.00000000000E+00  0.00000000000E+00  0.13870555945E+04  0.30259673021E+04  0.26893409771E+04 0.  0.
        2    1    3    3  502    0 -0.96693337853E+03  0.49008215170E+03  0.15887267126E+04  0.19233286878E+04  0.25500000920E-02 0. -1.
       -2    1    3    3    0  502  0.96693337853E+03 -0.49008215170E+03 -0.20167111807E+03  0.11026386143E+04  0.25500000920E-02 0.  1.
</event>
<event>
 5   0  0.3345974E-05  0.2218398E+04  0.7818609E-02  0.8510809E-01
       -2   -1    0    0    0  501  0.00000000000E+00  0.00000000000E+00  0.92048066571E+03  0.92048066571E+03  0.25500000920E-02 0.  1.
        2   -1    0    0  501    0  0.00000000000E+00  0.00000000000E+00 -0.13366088811E+04  0.13366088811E+04  0.25500000920E-02 0. -1.
    10030    2    1    2    0    0  0.00000000000E+00  0.00000000000E+00 -0.41612821535E+03  0.22570895468E+04  0.22183981903E+04 0.  0.
        4    1    3    3  502    0  0.44833914986E+03  0.77338623121E+03 -0.87616491653E+03  0.12517191497E+04  0.12699999809E+01 0. -1.
       -4    1    3    3    0  502 -0.44833914986E+03 -0.77338623121E+03  0.46003670118E+03  0.10053703970E+04  0.12699999809E+01 0.  1.
</event>
<event>
 5   0  0.3320780E-05  0.2403333E+04  0.7818609E-02  0.8438257E-01
        2   -1    0    0  501    0  0.00000000000E+00  0.00000000000E+00  0.18257431443E+04  0.18257431443E+04  0.25500000920E-02 0. -1.
       -2   -1    0    0    0  501  0.00000000000E+00  0.00000000000E+00 -0.79091225202E+03  0.79091225203E+03  0.25500000920E-02 0.  1.
    10030    2    1    2    0    0  0.00000000000E+00  0.00000000000E+00  0.10348308922E+04  0.26166553963E+04  0.24033332036E+04 0.  0.
        5    1    3    3  502    0  0.35409463230E+03  0.51358310923E+03  0.16356264546E+04  0.17505560853E+04  0.46999998093E+01 0. -1.
       -5    1    3    3    0  502 -0.35409463230E+03 -0.51358310923E+03 -0.60079556238E+03  0.86609931099E+03  0.46999998093E+01 0.  1.
</event>
<event>
 5   0  0.1147362E-05  0.2389693E+04  0.7818609E-02  0.8443372E-01
        4   -1    0    0  501    0  0.00000000000E+00  0.00000000000E+00  0.66040188776E+03  0.66040310891E+03  0.12699999809E+01 0. -1.
       -4   -1    0    0    0  501  0.00000000000E+00  0.00000000000E+00 -0.21617991349E+04  0.21617995079E+04  0.12699999809E+01 0.  1.
    10030    2    1    2    0    0  0.00000000000E+00  0.00000000000E+00 -0.15013972471E+04  0.28222026169E+04  0.23896932684E+04 0.  0.
        1    1    3    3  502    0  0.33746852757E+03 -0.67547761922E+03 -0.18443123939E+04  0.19928981980E+04  0.50400001928E-02 0.  1.
       -1    1    3    3    0  502 -0.33746852757E+03  0.67547761922E+03  0.34291514681E+03  0.82930441884E+03  0.50400001928E-02 0. -1.
</event>
<event>
 5   0  0.3320780E-05  0.2388711E+04  0.7818609E-02  0.8443742E-01
        2   -1    0    0  501    0  0.00000000000E+00  0.00000000000E+00  0.10677304122E+04  0.10677304122E+04  0.25500000920E-02 0.  1.
       -2   -1    0    0    0  501  0.00000000000E+00  0.00000000000E+00 -0.13359977611E+04  0.13359977611E+04  0.25500000920E-02 0. -1.
    10030    2    1    2    0    0  0.00000000000E+00  0.00000000000E+00 -0.26826734892E+03  0.24037281733E+04  0.23887113180E+04 0.  0.
        5    1    3    3  502    0  0.68028327330E+03 -0.87712834013E+03 -0.57772678020E+03  0.12513711598E+04  0.46999998093E+01 0. -1.
       -5    1    3    3    0  502 -0.68028327330E+03  0.87712834013E+03  0.30945943128E+03  0.11523570135E+04  0.46999998093E+01 0.  1.
</event>
<event>
 5   0  0.1434943E-05  0.2286906E+04  0.7818609E-02  0.8483102E-01
        1   -1    0    0  501    0  0.00000000000E+00  0.00000000000E+00  0.25120100026E+04  0.25120100026E+04  0.50400001928E-02 0. -1.
       -1   -1    0    0    0  501  0.00000000000E+00  0.00000000000E+00 -0.52049359259E+03  0.52049359262E+03  0.50400001928E-02 0.  1.
    10030    2    1    2    0    0  0.00000000000E+00  0.00000000000E+00  0.19915164100E+04  0.30325035952E+04  0.22869063041E+04 0.  0.
        5    1    3    3  502    0 -0.67210192110E+03  0.70008116653E+03  0.17975708613E+04  0.20428210209E+04  0.46999998093E+01 0. -1.
       -5    1    3    3    0  502  0.67210192110E+03 -0.70008116653E+03  0.19394554874E+03  0.98968257434E+03  0.46999998093E+01 0.  1.
</event>
<event>
 5   0  0.1401596E-05  0.2397217E+04  0.7818609E-02  0.8440546E-01
       -1   -1    0    0    0  501  0.00000000000E+00  0.00000000000E+00  0.53889452992E+03  0.53889452994E+03  0.50400001928E-02 0. -1.
        1   -1    0    0  501    0  0.00000000000E+00  0.00000000000E+00 -0.26659435943E+04  0.26659435943E+04  0.50400001928E-02 0.  1.
    10030    2    1    2    0    0  0.00000000000E+00  0.00000000000E+00 -0.21270490643E+04  0.32048381242E+04  0.23972170699E+04 0.  0.
        2    1    3    3  502    0  0.70016686258E+03 -0.17732573102E+03 -0.23423332091E+04  0.24511635835E+04  0.25500000920E-02 0.  1.
       -2    1    3    3    0  502 -0.70016686258E+03  0.17732573102E+03  0.21528414480E+03  0.75367454073E+03  0.25500000920E-02 0. -1.
</event>
<event>
 5   0  0.3215208E-05  0.2403131E+04  0.7818609E-02  0.8438332E-01
        2   -1    0    0  501    0  0.00000000000E+00  0.00000000000E+00  0.13977320898E+04  0.13977320898E+04  0.25500000920E-02 0.  1.
       -2   -1    0    0    0  501  0.00000000000E+00  0.00000000000E+00 -0.10329299457E+04  0.10329299457E+04  0.25500000920E-02 0. -1.
    10030    2    1    2    0    0  0.00000000000E+00  0.00000000000E+00  0.36480214412E+03  0.24306620355E+04  0.24031307343E+04 0.  0.
        1    1    3    3  502    0  0.17597988582E+02 -0.68195824025E+03  0.11828652437E+04  0.13654841322E+04  0.50400001928E-02 0.  1.
       -1    1    3    3    0  502 -0.17597988582E+02  0.68195824025E+03 -0.81806309957E+03  0.10651779032E+04  0.50400001928E-02 0. -1.
</event>
<event>
 5   0  0.1393026E-05  0.2418727E+04  0.7818609E-02  0.8432525E-01
        1   -1    0    0  501    0  0.00000000000E+00  0.00000000000E+00  0.11413787184E+04  0.11413787184E+04  0.50400001928E-02 0.  1.
       -1   -1    0    0    0  501  0.00000000000E+00  0.00000000000E+00 -0.12813981637E+04  0.12813981637E+04  0.50400001928E-02 0. -1.
    10030    2    1    2    0    0  0.00000000000E+00  0.00000000000E+00 -0.14001944534E+03  0.24227768821E+04  0.24187274289E+04 0.  0.
        4    1    3    3  502    0  0.35739255418E+02  0.93128155300E+03  0.70199219941E+03  0.11667721655E+04  0.12699999809E+01 0.  1.
       -4    1    3    3    0  502 -0.35739255418E+02 -0.93128155300E+03 -0.84201164475E+03  0.12560047166E+04  0.12699999809E+01 0. -1.
</event>
<event>
 5   0  0.3347728E-05  0.2371866E+04  0.7818609E-02  0.8450112E-01
        2   -1    0    0  501    0  0.00000000000E+00  0.00000000000E+00  0.16960741752E+04  0.16960741752E+04  0.25500000920E-02 0.  1.
       -2   -1    0    0    0  501  0.00000000000E+00  0.00000000000E+00 -0.82923094145E+03  0.82923094145E+03  0.25500000920E-02 0. -1.
    10030    2    1    2    0    0  0.00000000000E+00  0.00000000000E+00  0.86684323376E+03  0.25253051167E+04  0.23718660882E+04 0.  0.
        3    1    3    3  502    0 -0.85256828584E+03  0.43284658263E+03  0.11803830379E+04  0.15190566061E+04  0.10100000352E+00 0. -1.
       -3    1    3    3    0  502  0.85256828584E+03 -0.43284658263E+03 -0.31353980411E+03  0.10062485106E+04  0.10100000352E+00 0.  1.
</event>
<event>
 5   0  0.1434943E-05  0.2393032E+04  0.7818609E-02  0.8442117E-01
       -1   -1    0    0    0  501  0.00000000000E+00  0.00000000000E+00  0.10652733592E+04  0.10652733592E+04  0.50400001928E-02 0. -1.
        1   -1    0    0  501    0  0.00000000000E+00  0.00000000000E+00 -0.13439273594E+04  0.13439273594E+04  0.50400001928E-02 0.  1.
    10030    2    1    2    0    0  0.00000000000E+00  0.00000000000E+00 -0.27865400024E+03  0.24092007186E+04  0.23930315607E+04 0.  0.
        5    1    3    3  502    0 -0.82441619992E+03 -0.64517218937E+03  0.44400032761E+03  0.11371313053E+04  0.46999998093E+01 0.  1.
       -5    1    3    3    0  502  0.82441619992E+03  0.64517218937E+03 -0.72265432785E+03  0.12720694133E+04  0.46999998093E+01 0. -1.
</event>
<event>
 5   0  0.1506985E-05  0.2391138E+04  0.7818609E-02  0.8442829E-01
        1   -1    0    0  501    0  0.00000000000E+00  0.00000000000E+00  0.22444843908E+04  0.22444843908E+04  0.50400001928E-02 0.  1.
       -1   -1    0    0    0  501  0.00000000000E+00  0.00000000000E+00 -0.63684370567E+03  0.63684370569E+03  0.50400001928E-02 0. -1.
    10030    2    1    2    0    0  0.00000000000E+00  0.00000000000E+00  0.16076406851E+04  0.28813280965E+04  0.23911384375E+04 0.  0.
        3    1    3    3  502    0 -0.40278040137E+03  0.10644299623E+04  0.36248239313E+03  0.11944189767E+04  0.10100000352E+00 0. -1.
       -3    1    3    3    0  502  0.40278040137E+03 -0.10644299623E+04  0.12451582920E+04  0.16869091198E+04  0.10100000352E+00 0.  1.
</event>
<event>
 5   0  0.1147362E-05  0.2422101E+04  0.7818609E-02  0.8431275E-01
       -3   -1    0    0    0  501  0.00000000000E+00  0.00000000000E+00  0.65827192567E+03  0.65827193342E+03  0.10100000352E+00 0. -1.
        3   -1    0    0  501    0  0.00000000000E+00  0.00000000000E+00 -0.22280201745E+04  0.22280201768E+04  0.10100000352E+00 0.  1.
    10030    2    1    2    0    0  0.00000000000E+00  0.00000000000E+00 -0.15697482489E+04  0.28862921103E+04  0.24221008610E+04 0.  0.
        1    1    3    3  502    0 -0.70358840537E+03  0.92807891032E+03 -0.11805947016E+04  0.16583639400E+04  0.50400001928E-02 0. -1.
       -1    1    3    3    0  502  0.70358840537E+03 -0.92807891032E+03 -0.38915354725E+03  0.12279281703E+04  0.50400001928E-02 0.  1.
</event>
<event>
 5   0  0.3310037E-05  0.2387915E+04  0.7818609E-02  0.8444042E-01
        2   -1    0    0  501    0  0.00000000000E+00  0.00000000000E+00  0.18973207940E+04  0.18973207940E+04  0.25500000920E-02 0.  1.
       -2   -1    0    0    0  501  0.00000000000E+00  0.00000000000E+00 -0.75134053616E+03  0.75134053616E+03  0.25500000920E-02 0. -1.
    10030    2    1    2    0    0  0.00000000000E+00  0.00000000000E+00  0.11459802578E+04  0.26486613301E+04  0.23879145903E+04 0.  0.
        2    1    3    3  502    0 -0.79515094185E+03  0.48777775792E+03  0.13995757526E+04  0.16819644612E+04  0.25500000920E-02 0.  1.
       -2    1    3    3    0  502  0.79515094185E+03 -0.48777775792E+03 -0.25359549478E+03  0.96669686895E+03  0.25500000920E-02 0. -1.
</event>
<event>
 5   0  0.3320780E-05  0.2295126E+04  0.7818609E-02  0.8479845E-01
       -2   -1    0    0    0  501  0.00000000000E+00  0.00000000000E+00  0.11816154230E+04  0.11816154230E+04  0.25500000920E-02 0.  1.
        2   -1    0    0  501    0  0.00000000000E+00  0.00000000000E+00 -0.11144919029E+04  0.11144919029E+04  0.25500000920E-02 0. -1.
    10030    2    1    2    0    0  0.00000000000E+00  0.00000000000E+00  0.67123520108E+02  0.22961073259E+04  0.22951259846E+04 0.  0.
        5    1    3    3  502    0  0.78559917445E+02 -0.85571215712E+03 -0.72733150135E+03  0.11258100014E+04  0.46999998093E+01 0. -1.
       -5    1    3    3    0  502 -0.78559917445E+02  0.85571215712E+03  0.79445502146E+03  0.11702973244E+04  0.46999998093E+01 0.  1.
</event>
<event>
 5   0  0.1393026E-05  0.2388445E+04  0.7818609E-02  0.8443842E-01
        1   -1    0    0  501    0  0.00000000000E+00  0.00000000000E+00  0.10567210075E+04  0.10567210076E+04  0.50400001928E-02 0. -1.
       -1   -1    0    0    0  501  0.00000000000E+00  0.00000000000E+00 -0.13496153427E+04  0.13496153427E+04  0.50400001928E-02 0.  1.
    10030    2    1    2    0    0  0.00000000000E+00  0.00000000000E+00 -0.29289433518E+03  0.24063363503E+04  0.23884445857E+04 0.  0.
        4    1    3    3  502    0  0.87599794774E+03  0.38637130975E+03  0.57269963099E+03  0.11156350988E+04  0.12699999809E+01 0. -1.
       -4    1    3    3    0  502 -0.87599794774E+03 -0.38637130975E+03 -0.86559396617E+03  0.12907012515E+04  0.12699999809E+01 0.  1.
</event>
<event>
 5   0  0.3345974E-05  0.2369999E+04  0.7818609E-02  0.8450822E-01
        2   -1    0    0  501    0  0.00000000000E+00  0.00000000000E+00  0.12682104759E+04  0.12682104759E+04  0.25500000920E-02 0.  1.
       -2   -1    0    0    0  501  0.00000000000E+00  0.00000000000E+00 -0.11072481246E+04  0.11072481246E+04  0.25500000920E-02 0. -1.
    10030    2    1    2    0    0  0.00000000000E+00  0.00000000000E+00  0.16096235130E+03  0.23754586005E+04  0.23699988785E+04 0.  0.
        4    1    3    3  502    0 -0.13961373171E+03 -0.50708282197E+03 -0.98384880526E+03  0.11156097288E+04  0.12699999809E+01 0. -1.
       -4    1    3    3    0  502  0.13961373171E+03  0.50708282197E+03  0.11448111566E+04  0.12598488717E+04  0.12699999809E+01 0.  1.
</event>
<event>
 5   0  0.1434943E-05  0.2404886E+04  0.7818609E-02  0.8437677E-01
       -1   -1    0    0    0  501  0.00000000000E+00  0.00000000000E+00  0.15582524929E+04  0.15582524929E+04  0.50400001928E-02 0. -1.
        1   -1    0    0  501    0  0.00000000000E+00  0.00000000000E+00 -0.92787825242E+03  0.92787825244E+03  0.50400001928E-02 0.  1.
    10030    2    1    2    0    0  0.00000000000E+00  0.00000000000E+00  0.63037424050E+03  0.24861307454E+04  0.24048855274E+04 0.  0.
        5    1    3    3  502    0  0.38859001666E+01 -0.11784527314E+04  0.68200342100E+02  0.11804403064E+04  0.46999998093E+01 0.  1.
       -5    1    3    3    0  502 -0.38859001666E+01  0.11784527314E+04  0.56217389840E+03  0.13056904390E+04  0.46999998093E+01 0. -1.
</event>
<event>
 5   0  0.3310037E-05  0.2401071E+04  0.7818609E-02  0.8439103E-01
        2   -1    0    0  501    0  0.00000000000E+00  0.00000000000E+00  0.15152041565E+04  0.15152041565E+04  0.25500000920E-02 0.  1.
       -2   -1    0    0    0  501  0.00000000000E+00  0.00000000000E+00 -0.95121545889E+03  0.95121545889E+03  0.25500000920E-02 0. -1.
    10030    2    1    2    0    0  0.00000000000E+00  0.00000000000E+00  0.56398869762E+03  0.24664196154E+04  0.24010711085E+04 0.  0.
        2    1    3    3  502    0  0.99447492283E+02 -0.89773650218E+03 -0.53039354873E+03  0.10474435296E+04  0.25500000920E-02 0. -1.
       -2    1    3    3    0  502 -0.99447492283E+02  0.89773650218E+03  0.10943822464E+04  0.14189760858E+04  0.25500000920E-02 0.  1.
</event>
<event>
 5   0  0.3347728E-05  0.2359659E+04  0.7818609E-02  0.8454763E-01
       -2   -1    0    0    0  501  0.00000000000E+00  0.00000000000E+00  0.10283781542E+04  0.10283781542E+04  0.25500000920E-02 0. -1.
        2   -1    0    0  501    0  0.00000000000E+00  0.00000000000E+00 -0.13535851056E+04  0.13535851056E+04  0.25500000920E-02 0.  1.
    10030    2    1    2    0    0  0.00000000000E+00  0.00000000000E+00 -0.32520695138E+03  0.23819632599E+04  0.23596587487E+04 0.  0.
        3    1    3    3  502    0 -0.49069672426E+03 -0.81528498920E+03  0.54150276719E+03  0.10948507414E+04  0.10100000352E+00 0. -1.
       -3    1    3    3    0  502  0.49069672426E+03  0.81528498920E+03 -0.86670971858E+03  0.12871125185E+04  0.10100000352E+00 0.  1.
</event>
<event>
 5   0  0.1401596E-05  0.2395985E+04  0.7818609E-02  0.8441008E-01
       -1   -1    0    0    0  501  0.00000000000E+00  0.00000000000E+00  0.47398542382E+03  0.47398542384E+03  0.50400001928E-02 0.  1.
        1   -1    0    0  501    0  0.00000000000E+00  0.00000000000E+00 -0.30279117935E+04  0.30279117935E+04  0.50400001928E-02 0. -1.
    10030    2    1    2    0    0  0.00000000000E+00  0.00000000000E+00 -0.25539263697E+04  0.35018972174E+04  0.23959850206E+04 0.  0.
        2    1    3    3  502    0 -0.93972087671E+03 -0.71051181553E+03 -0.95914776033E+03  0.15191664795E+04  0.25500000920E-02 0. -1.
       -2    1    3    3    0  502  0.93972087671E+03  0.71051181553E+03 -0.15947786094E+04  0.19827307379E+04  0.25500000920E-02 0.  1.
</event>
<event>
 5   0  0.1434943E-05  0.2439459E+04  0.7818609E-02  0.8424877E-01
       -1   -1    0    0    0  501  0.00000000000E+00  0.00000000000E+00  0.86386352123E+03  0.86386352124E+03  0.50400001928E-02 0. -1.
        1   -1    0    0  501    0  0.00000000000E+00  0.00000000000E+00 -0.17221931418E+04  0.17221931418E+04  0.50400001928E-02 0.  1.
    10030    2    1    2    0    0  0.00000000000E+00  0.00000000000E+00 -0.85832962057E+03  0.25860566630E+04  0.24394588185E+04 0.  0.
        5    1    3    3  502    0 -0.95923486904E+03  0.57083965184E+03 -0.95036947513E+03  0.14660196695E+04  0.46999998093E+01 0.  1.
       -5    1    3    3    0  502  0.95923486904E+03 -0.57083965184E+03  0.92039854555E+02  0.11200369936E+04  0.46999998093E+01 0. -1.
</event>
<event>
 5   0  0.3347728E-05  0.2432948E+04  0.7818609E-02  0.8427270E-01
       -2   -1    0    0    0  501  0.00000000000E+00  0.00000000000E+00  0.11634875076E+04  0.11634875076E+04  0.25500000920E-02 0. -1.
        2   -1    0    0  501    0  0.00000000000E+00  0.00000000000E+00 -0.12718737483E+04  0.12718737483E+04  0.25500000920E-02 0.  1.
    10030    2    1    2    0    0  0.00000000000E+00  0.00000000000E+00 -0.10838624074E+03  0.24353612559E+04  0.24329481847E+04 0.  0.
        3    1    3    3  502    0 -0.21395827428E+03 -0.84122911226E+03 -0.90730871624E+03  0.12556487085E+04  0.10100000352E+00 0.  1.
       -3    1    3    3    0  502  0.21395827428E+03  0.84122911226E+03  0.79892247549E+03  0.11797125474E+04  0.10100000352E+00 0. -1.
</event>
<event>
 5   0  0.3347728E-05  0.2400130E+04  0.7818609E-02  0.8439455E-01
        2   -1    0    0  501    0  0.00000000000E+00  0.00000000000E+00  0.27779188133E+04  0.27779188133E+04  0.25500000920E-02 0.  1.
       -2   -1    0    0    0  501  0.00000000000E+00  0.00000000000E+00 -0.51842991552E+03  0.51842991553E+03  0.25500000920E-02 0. -1.
    10030    2    1    2    0    0  0.00000000000E+00  0.00000000000E+00  0.22594888977E+04  0.32963487288E+04  0.24001301762E+04 0.  0.
        3    1    3    3  502    0 -0.10400528205E+04 -0.51887275080E+03  0.71951848364E+03  0.13669841475E+04  0.10100000352E+00 0. -1.
       -3    1    3    3    0  502  0.10400528205E+04  0.51887275080E+03  0.15399704141E+04  0.19293645813E+04  0.10100000352E+00 0.  1.
</event>
<event>
 5   0  0.3310037E-05  0.2389470E+04  0.7818609E-02  0.8443456E-01
        2   -1    0    0  501    0  0.00000000000E+00  0.00000000000E+00  0.19854147404E+04  0.19854147404E+04  0.25500000920E-02 0.  1.
       -2   -1    0    0    0  501  0.00000000000E+00  0.00000000000E+00 -0.71893875637E+03  0.71893875637E+03  0.25500000920E-02 0. -1.
    10030    2    1    2    0    0  0.00000000000E+00  0.00000000000E+00  0.12664759840E+04  0.27043534967E+04  0.23894699030E+04 0.  0.
        2    1    3    3  502    0  0.54235902972E+03 -0.94206934614E+03  0.11942898863E+04  0.16149230020E+04  0.25500000920E-02 0.  1.
       -2    1    3    3    0  502 -0.54235902972E+03  0.94206934614E+03  0.72186097720E+02  0.10894304947E+04  0.25500000920E-02 0. -1.
</event>
<event>
 5   0  0.1407158E-05  0.2375257E+04  0.7818609E-02  0.8448825E-01
       -1   -1    0    0    0  501  0.00000000000E+00  0.00000000000E+00  0.92802921954E+03  0.92802921956E+03  0.50400001928E-02 0.  1.
        1   -1    0    0  501    0  0.00000000000E+00  0.00000000000E+00 -0.15198464985E+04  0.15198464985E+04  0.50400001928E-02 0. -1.
    10030    2    1    2    0    0  0.00000000000E+00  0.00000000000E+00 -0.59181727892E+03  0.24478757180E+04  0.23752574259E+04 0.  0.
        1    1    3    3  502    0 -0.53148690478E+03  0.19031396387E+03 -0.13727286300E+04  0.14842781500E+04  0.50400001928E-02 0. -1.
       -1    1    3    3    0  502  0.53148690478E+03 -0.19031396387E+03  0.78091135112E+03  0.96359756804E+03  0.50400001928E-02 0.  1.
</event>
<event>
 5   0  0.3345974E-05  0.2382217E+04  0.7818609E-02  0.8446191E-01
       -2   -1    0    0    0  501  0.00000000000E+00  0.00000000000E+00  0.50915471896E+03  0.50915471897E+03  0.25500000920E-02 0. -1.
        2   -1    0    0  501    0  0.00000000000E+00  0.00000000000E+00 -0.27864611663E+04  0.27864611663E+04  0.25500000920E-02 0.  1.
    10030    2    1    2    0    0  0.00000000000E+00  0.00000000000E+00 -0.22773064473E+04  0.32956158852E+04  0.23822173302E+04 0.  0.
        4    1    3    3  502    0 -0.75789003884E+03  0.90127063310E+03 -0.89097720715E+03  0.14766611194E+04  0.12699999809E+01 0. -1.
       -4    1    3    3    0  502  0.75789003884E+03 -0.90127063310E+03 -0.13863292401E+04  0.18189547658E+04  0.12699999809E+01 0.  1.
</event>
<event>
 5   0  0.3347728E-05  0.2398642E+04  0.7818609E-02  0.8440012E-01
        2   -1    0    0  501    0  0.00000000000E+00  0.00000000000E+00  0.10058587114E+04  0.10058587114E+04  0.25500000920E-02 0.  1.
       -2   -1    0    0    0  501  0.00000000000E+00  0.00000000000E+00 -0.14299933440E+04  0.14299933440E+04  0.25500000920E-02 0. -1.
    10030    2    1    2    0    0  0.00000000000E+00  0.00000000000E+00 -0.42413463259E+03  0.24358520554E+04  0.23986423346E+04 0.  0.
        3    1    3    3  502    0 -0.44973273411E+03 -0.78271823430E+02  0.91418413369E+03  0.10218212422E+04  0.10100000352E+00 0.  1.
       -3    1    3    3    0  502  0.44973273411E+03  0.78271823430E+02 -0.13383187663E+04  0.14140308133E+04  0.10100000352E+00 0. -1.
</event>
<event>
 5   0  0.1401596E-05  0.2358538E+04  0.7818609E-02  0.8455191E-01
       -1   -1    0    0    0  501  0.00000000000E+00  0.00000000000E+00  0.20091265614E+04  0.20091265614E+04  0.50400001928E-02 0. -1.
        1   -1    0    0  501    0  0.00000000000E+00  0.00000000000E+00 -0.69217930017E+03  0.69217930019E+03  0.50400001928E-02 0.  1.
    10030    2    1    2    0    0  0.00000000000E+00  0.00000000000E+00  0.13169472612E+04  0.27013058616E+04  0.23585383756E+04 0.  0.
        2    1    3    3  502    0 -0.10510079244E+04  0.48872517476E+03  0.40962870597E+03  0.12293354426E+04  0.25500000920E-02 0.  1.
       -2    1    3    3    0  502  0.10510079244E+04 -0.48872517476E+03  0.90731855524E+03  0.14719704190E+04  0.25500000920E-02 0. -1.
</event>
<event>
 5   0  0.1407158E-05  0.2397615E+04  0.7818609E-02  0.8440397E-01
       -1   -1    0    0    0  501  0.00000000000E+00  0.00000000000E+00  0.10706682908E+04  0.10706682908E+04  0.50400001928E-02 0. -1.
        1   -1    0    0  501    0  0.00000000000E+00  0.00000000000E+00 -0.13422827607E+04  0.13422827607E+04  0.50400001928E-02 0.  1.
    10030    2    1    2    0    0  0.00000000000E+00  0.00000000000E+00 -0.27161446994E+03  0.24129510516E+04  0.23976151395E+04 0.  0.
        1    1    3    3  502    0 -0.31827308498E+03  0.11223638461E+04  0.14189474907E+03  0.11752159289E+04  0.50400001928E-02 0. -1.
       -1    1    3    3    0  502  0.31827308498E+03 -0.11223638461E+04 -0.41350921901E+03  0.12377351227E+04  0.50400001928E-02 0.  1.
</event>
<event>
 5   0  0.3215208E-05  0.2425658E+04  0.7818609E-02  0.8429959E-01
        2   -1    0    0  501    0  0.00000000000E+00  0.00000000000E+00  0.10703518715E+04  0.10703518715E+04  0.25500000920E-02 0. -1.
       -2   -1    0    0    0  501  0.00000000000E+00  0.00000000000E+00 -0.13742720491E+04  0.13742720491E+04  0.25500000920E-02 0.  1.
    10030    2    1    2    0    0  0.00000000000E+00  0.00000000000E+00 -0.30392017764E+03  0.24446239206E+04  0.24256583928E+04 0.  0.
        1    1    3    3  502    0  0.10348038154E+04  0.49564653351E+03 -0.54806007280E+03  0.12715558446E+04  0.50400001928E-02 0.  1.
       -1    1    3    3    0  502 -0.10348038154E+04 -0.49564653351E+03  0.24413989516E+03  0.11730680760E+04  0.50400001928E-02 0. -1.
</event>
<event>
 5   0  0.1434943E-05  0.2474842E+04  0.7818609E-02  0.8412003E-01
       -1   -1    0    0    0  501  0.00000000000E+00  0.00000000000E+00  0.52654353623E+03  0.52654353626E+03  0.50400001928E-02 0. -1.
        1   -1    0    0  501    0  0.00000000000E+00  0.00000000000E+00 -0.29080428165E+04  0.29080428165E+04  0.50400001928E-02 0.  1.
    10030    2    1    2    0    0  0.00000000000E+00  0.00000000000E+00 -0.23814992803E+04  0.34345863528E+04  0.24748423369E+04 0.  0.
        5    1    3    3  502    0 -0.67084027522E+03  0.97553664560E+03 -0.69135246005E+03  0.13710174090E+04  0.46999998093E+01 0.  1.
       -5    1    3    3    0  502  0.67084027522E+03 -0.97553664560E+03 -0.16901468202E+04  0.20635689438E+04  0.46999998093E+01 0. -1.
</event>
<event>
 5   0  0.1393026E-05  0.2345191E+04  0.7818609E-02  0.8460313E-01
       -1   -1    0    0    0  501  0.00000000000E+00  0.00000000000E+00  0.11094293184E+04  0.11094293184E+04  0.50400001928E-02 0.  1.
        1   -1    0    0  501    0  0.00000000000E+00  0.00000000000E+00 -0.12393582997E+04  0.12393582997E+04  0.50400001928E-02 0. -1.
    10030    2    1    2    0    0  0.00000000000E+00  0.00000000000E+00 -0.12992898135E+03  0.23487876181E+04  0.23451911936E+04 0.  0.
        4    1    3    3  502    0  0.38471579448E+03 -0.34888850969E+03  0.98795614009E+03  0.11161489069E+04  0.12699999809E+01 0.  1.
       -4    1    3    3    0  502 -0.38471579448E+03  0.34888850969E+03 -0.11178851214E+04  0.12326387112E+04  0.12699999809E+01 0. -1.
</event>
<event>
 5   0  0.3347728E-05  0.2483836E+04  0.7818609E-02  0.8408767E-01
       -2   -1    0    0    0  501  0.00000000000E+00  0.00000000000E+00  0.10861802692E+04  0.10861802692E+04  0.25500000920E-02 0. -1.
        2   -1    0    0  501    0  0.00000000000E+00  0.00000000000E+00 -0.14199859666E+04  0.14199859667E+04  0.25500000920E-02 0.  1.
    10030    2    1    2    0    0  0.00000000000E+00  0.00000000000E+00 -0.33380569745E+03  0.25061662359E+04  0.24838363388E+04 0.  0.
        3    1    3    3  502    0  0.92635267591E+03  0.29564969892E+03  0.61258538928E+03  0.11492601507E+04  0.10100000352E+00 0. -1.
       -3    1    3    3    0  502 -0.92635267591E+03 -0.29564969892E+03 -0.94639108673E+03  0.13569060851E+04  0.10100000352E+00 0.  1.
</event>
<event>
 5   0  0.1393026E-05  0.2367853E+04  0.7818609E-02  0.8451638E-01
       -1   -1    0    0    0  501  0.00000000000E+00  0.00000000000E+00  0.61271684441E+03  0.61271684443E+03  0.50400001928E-02 0.  1.
        1   -1    0    0  501    0  0.00000000000E+00  0.00000000000E+00 -0.22876499964E+04  0.22876499964E+04  0.50400001928E-02 0. -1.
    10030    2    1    2    0    0  0.00000000000E+00  0.00000000000E+00 -0.16749331520E+04  0.29003668409E+04  0.23678527716E+04 0.  0.
        4    1    3    3  502    0 -0.51356844207E+03 -0.10423017388E+03 -0.21378530634E+04  0.22011437498E+04  0.12699999809E+01 0. -1.
       -4    1    3    3    0  502  0.51356844207E+03  0.10423017388E+03  0.46291991136E+03  0.69922309106E+03  0.12699999809E+01 0.  1.
</event>
<event>
 5   0  0.1407158E-05  0.2407138E+04  0.7818609E-02  0.8436836E-01
        1   -1    0    0  501    0  0.00000000000E+00  0.00000000000E+00  0.18619905246E+04  0.18619905246E+04  0.50400001928E-02 0. -1.
       -1   -1    0    0    0  501  0.00000000000E+00  0.00000000000E+00 -0.77797282362E+03  0.77797282363E+03  0.50400001928E-02 0.  1.
    10030    2    1    2    0    0  0.00000000000E+00  0.00000000000E+00  0.10840177010E+04  0.26399633482E+04  0.24071377409E+04 0.  0.
        1    1    3    3  502    0 -0.37474326553E+03  0.38172971868E+03  0.17244511952E+04  0.18055143361E+04  0.50400001928E-02 0. -1.
       -1    1    3    3    0  502  0.37474326553E+03 -0.38172971868E+03 -0.64043349427E+03  0.83444901210E+03  0.50400001928E-02 0.  1.
</event>
<event>
 5   0  0.1401596E-05  0.2280903E+04  0.7818609E-02  0.8485489E-01
        1   -1    0    0  501    0  0.00000000000E+00  0.00000000000E+00  0.14995866756E+04  0.14995866756E+04  0.50400001928E-02 0. -1.
       -1   -1    0    0    0  501  0.00000000000E+00  0.00000000000E+00 -0.86732532780E+03  0.86732532782E+03  0.50400001928E-02 0.  1.
    10030    2    1    2    0    0  0.00000000000E+00  0.00000000000E+00  0.63226134779E+03  0.23669120034E+04  0.22809028958E+04 0.  0.
        2    1    3    3  502    0 -0.73375522765E+03  0.49115512818E+03 -0.43289021861E+03  0.98337380248E+03  0.25500000920E-02 0.  1.
       -2    1    3    3    0  502  0.73375522765E+03 -0.49115512818E+03  0.10651515664E+04  0.13835382009E+04  0.25500000920E-02 0. -1.
</event>
<event>
 5   0  0.3215208E-05  0.2410012E+04  0.7818609E-02  0.8435765E-01
        2   -1    0    0  501    0  0.00000000000E+00  0.00000000000E+00  0.52556867694E+03  0.52556867695E+03  0.25500000920E-02 0. -1.
       -2   -1    0    0    0  501  0.00000000000E+00  0.00000000000E+00 -0.27627958664E+04  0.27627958664E+04  0.25500000920E-02 0.  1.
    10030    2    1    2    0    0  0.00000000000E+00  0.00000000000E+00 -0.22372271894E+04  0.32883645433E+04  0.24100115918E+04 0.  0.
        1    1    3    3  502    0 -0.11692375395E+04 -0.96623316702E+02 -0.74348265674E+03  0.13889632645E+04  0.50400001928E-02 0. -1.
       -1    1    3    3    0  502  0.11692375395E+04  0.96623316702E+02 -0.14937445327E+04  0.18994012789E+04  0.50400001928E-02 0.  1.
</event>
<event>
 5   0  0.1147362E-05  0.2211242E+04  0.7818609E-02  0.8513764E-01
       -3   -1    0    0    0  501  0.00000000000E+00  0.00000000000E+00  0.17745294647E+04  0.17745294676E+04  0.10100000352E+00 0. -1.
        3   -1    0    0  501    0  0.00000000000E+00  0.00000000000E+00 -0.68885738259E+03  0.68885739000E+03  0.10100000352E+00 0.  1.
    10030    2    1    2    0    0  0.00000000000E+00  0.00000000000E+00  0.10856720821E+04  0.24633868576E+04  0.22112419452E+04 0.  0.
        1    1    3    3  502    0 -0.76900761202E+03 -0.39867656676E+03 -0.22259326736E+03  0.89435086790E+03  0.50400001928E-02 0.  1.
       -1    1    3    3    0  502  0.76900761202E+03  0.39867656676E+03  0.13082653495E+04  0.15690359897E+04  0.50400001928E-02 0. -1.
</event>
<event>
 5   0  0.3347728E-05  0.2415320E+04  0.7818609E-02  0.8433790E-01
        2   -1    0    0  501    0  0.00000000000E+00  0.00000000000E+00  0.19357795983E+04  0.19357795983E+04  0.25500000920E-02 0. -1.
       -2   -1    0    0    0  501  0.00000000000E+00  0.00000000000E+00 -0.75341373433E+03  0.75341373434E+03  0.25500000920E-02 0.  1.
    10030    2    1    2    0    0  0.00000000000E+00  0.00000000000E+00  0.11823658640E+04  0.26891933326E+04  0.24153202156E+04 0.  0.
        3    1    3    3  502    0 -0.32264266540E+03  0.11634811165E+04  0.61970675544E+03  0.13571378231E+04  0.10100000352E+00 0. -1.
       -3    1    3    3    0  502  0.32264266540E+03 -0.11634811165E+04  0.56265910851E+03  0.13320555095E+04  0.10100000352E+00 0.  1.
</event>
<event>
 5   0  0.3310037E-05  0.2396191E+04  0.7818609E-02  0.8440931E-01
        2   -1    0    0  501    0  0.00000000000E+00  0.00000000000E+00  0.15075632892E+04  0.15075632892E+04  0.25500000920E-02 0.  1.
       -2   -1    0    0    0  501  0.00000000000E+00  0.00000000000E+00 -0.95215446583E+03  0.95215446583E+03  0.25500000920E-02 0. -1.
    10030    2    1    2    0    0  0.00000000000E+00  0.00000000000E+00  0.55540882332E+03  0.24597177550E+04  0.23961912430E+04 0.  0.
        2    1    3    3  502    0 -0.72160238880E+02 -0.85031114139E+03 -0.58554044283E+03  0.10349365910E+04  0.25500000920E-02 0. -1.
       -2    1    3    3    0  502  0.72160238880E+02  0.85031114139E+03  0.11409492662E+04  0.14247811640E+04  0.25500000920E-02 0.  1.
</event>
<event>
 5   0  0.3345974E-05  0.2386054E+04  0.7818609E-02  0.8444743E-01
       -2   -1    0    0    0  501  0.00000000000E+00  0.00000000000E+00  0.65866988611E+03  0.65866988612E+03  0.25500000920E-02 0.  1.
        2   -1    0    0  501    0  0.00000000000E+00  0.00000000000E+00 -0.21608897819E+04  0.21608897819E+04  0.25500000920E-02 0. -1.
    10030    2    1    2    0    0  0.00000000000E+00  0.00000000000E+00 -0.15022198957E+04  0.28195596680E+04  0.23860536679E+04 0.  0.
        4    1    3    3  502    0  0.38614113552E+03 -0.87198590843E+03  0.95957514436E+02  0.95847475633E+03  0.12699999809E+01 0.  1.
       -4    1    3    3    0  502 -0.38614113552E+03  0.87198590843E+03 -0.15981774102E+04  0.18610849116E+04  0.12699999809E+01 0. -1.
</event>
<event>
 5   0  0.3347728E-05  0.2409613E+04  0.7818609E-02  0.8435913E-01
       -2   -1    0    0    0  501  0.00000000000E+00  0.00000000000E+00  0.20210585855E+04  0.20210585855E+04  0.25500000920E-02 0. -1.
        2   -1    0    0  501    0  0.00000000000E+00  0.00000000000E+00 -0.71821685392E+03  0.71821685393E+03  0.25500000920E-02 0.  1.
    10030    2    1    2    0    0  0.00000000000E+00  0.00000000000E+00  0.13028417316E+04  0.27392754394E+04  0.24096126982E+04 0.  0.
        3    1    3    3  502    0 -0.19591950336E+03 -0.59815582492E+02 -0.69827458969E+03  0.72770170298E+03  0.10100000352E+00 0.  1.
       -3    1    3    3    0  502  0.19591950336E+03  0.59815582492E+02  0.20011163213E+04  0.20115737364E+04  0.10100000352E+00 0. -1.
</event>
<event>
 5   0  0.1407158E-05  0.2409100E+04  0.7818609E-02  0.8436105E-01
       -1   -1    0    0    0  501  0.00000000000E+00  0.00000000000E+00  0.62532682234E+03  0.62532682236E+03  0.50400001928E-02 0. -1.
        1   -1    0    0  501    0  0.00000000000E+00  0.00000000000E+00 -0.23202911016E+04  0.23202911016E+04  0.50400001928E-02 0.  1.
    10030    2    1    2    0    0  0.00000000000E+00  0.00000000000E+00 -0.16949642793E+04  0.29456179240E+04  0.24090996339E+04 0.  0.
        1    1    3    3  502    0 -0.32136442550E+03 -0.79659273940E+03  0.18503779750E+03  0.87867745673E+03  0.50400001928E-02 0. -1.
       -1    1    3    3    0  502  0.32136442550E+03  0.79659273940E+03 -0.18800020768E+04  0.20669404673E+04  0.50400001928E-02 0.  1.
</event>
<event>
 5   0  0.1147362E-05  0.2483149E+04  0.7818609E-02  0.8409013E-01
       -3   -1    0    0    0  501  0.00000000000E+00  0.00000000000E+00  0.77547771557E+03  0.77547772215E+03  0.10100000352E+00 0.  1.
        3   -1    0    0  501    0  0.00000000000E+00  0.00000000000E+00 -0.19878166020E+04  0.19878166046E+04  0.10100000352E+00 0. -1.
    10030    2    1    2    0    0  0.00000000000E+00  0.00000000000E+00 -0.12123388864E+04  0.27632943267E+04  0.24831492022E+04 0.  0.
        4    1    3    3  502    0  0.56298163878E+03 -0.10228803073E+03 -0.18323392379E+04  0.19196040900E+04  0.12699999809E+01 0. -1.
       -4    1    3    3    0  502 -0.56298163878E+03  0.10228803073E+03  0.62000035144E+03  0.84369023671E+03  0.12699999809E+01 0.  1.
</event>
<event>
 5   0  0.3345974E-05  0.2395091E+04  0.7818609E-02  0.8441344E-01
        2   -1    0    0  501    0  0.00000000000E+00  0.00000000000E+00  0.76715065256E+03  0.76715065256E+03  0.25500000920E-02 0.  1.
       -2   -1    0    0    0  501  0.00000000000E+00  0.00000000000E+00 -0.18694043241E+04  0.18694043241E+04  0.25500000920E-02 0. -1.
    10030    2    1    2    0    0  0.00000000000E+00  0.00000000000E+00 -0.11022536716E+04  0.26365549767E+04  0.23950906013E+04 0.  0.
        4    1    3    3  502    0 -0.97197249068E+01 -0.95580592331E+03  0.24302937086E+03  0.98626787644E+03  0.12699999809E+01 0.  1.
       -4    1    3    3    0  502  0.97197249068E+01  0.95580592331E+03 -0.13452830424E+04  0.16502871002E+04  0.12699999809E+01 0. -1.
</event>
<event>
 5   0  0.3310037E-05  0.2422427E+04  0.7818609E-02  0.8431155E-01
       -2   -1    0    0    0  501  0.00000000000E+00  0.00000000000E+00  0.92044962583E+03  0.92044962583E+03  0.25500000920E-02 0.  1.
        2   -1    0    0  501    0  0.00000000000E+00  0.00000000000E+00 -0.15938282153E+04  0.15938282153E+04  0.25500000920E-02 0. -1.
    10030    2    1    2    0    0  0.00000000000E+00  0.00000000000E+00 -0.67337858951E+03  0.25142778412E+04  0.24224273648E+04 0.  0.
        2    1    3    3  502    0 -0.16441807777E+02  0.10361024906E+04 -0.98757139070E+03  0.14314593797E+04  0.25500000920E-02 0. -1.
       -2    1    3    3    0  502  0.16441807777E+02 -0.10361024906E+04  0.31419280119E+03  0.10828184614E+04  0.25500000920E-02 0.  1.
</event>
<event>
 5   0  0.1401596E-05  0.2393440E+04  0.7818609E-02  0.8441964E-01
        1   -1    0    0  501    0  0.00000000000E+00  0.00000000000E+00  0.70387516875E+03  0.70387516877E+03  0.50400001928E-02 0. -1.
       -1   -1    0    0    0  501  0.00000000000E+00  0.00000000000E+00 -0.20346491071E+04  0.20346491071E+04  0.50400001928E-02 0.  1.
    10030    2    1    2    0    0  0.00000000000E+00  0.00000000000E+00 -0.13307739383E+04  0.27385242758E+04  0.23934401882E+04 0.  0.
        2    1    3    3  502    0  0.24207556131E+03 -0.41314224415E+03  0.58948695242E+03  0.75946162403E+03  0.25500000920E-02 0. -1.
       -2    1    3    3    0  502 -0.24207556131E+03  0.41314224415E+03 -0.19202608907E+04  0.19790626518E+04  0.25500000920E-02 0.  1.
</event>
<event>
 5   0  0.1147362E-05  0.2340716E+04  0.7818609E-02  0.8462038E-01
        4   -1    0    0  501    0  0.00000000000E+00  0.00000000000E+00  0.70547372175E+03  0.70547486488E+03  0.12699999809E+01 0.  1.
       -4   -1    0    0    0  501  0.00000000000E+00  0.00000000000E+00 -0.19415824437E+04  0.19415828590E+04  0.12699999809E+01 0. -1.
    10030    2    1    2    0    0  0.00000000000E+00  0.00000000000E+00 -0.12361087219E+04  0.26470577239E+04  0.23407156643E+04 0.  0.
        5    1    3    3  502    0 -0.32398989065E+03  0.56296666430E+03  0.48291799232E+03  0.80940273762E+03  0.46999998093E+01 0.  1.
       -5    1    3    3    0  502  0.32398989065E+03 -0.56296666430E+03 -0.17190267142E+04  0.18376549863E+04  0.46999998093E+01 0. -1.
</event>
<event>
 5   0  0.3215208E-05  0.2329942E+04  0.7818609E-02  0.8466208E-01
        2   -1    0    0  501    0  0.00000000000E+00  0.00000000000E+00  0.18094498753E+04  0.18094498753E+04  0.25500000920E-02 0.  1.
       -2   -1    0    0    0  501  0.00000000000E+00  0.00000000000E+00 -0.75003891715E+03  0.75003891716E+03  0.25500000920E-02 0. -1.
    10030    2    1    2    0    0  0.00000000000E+00  0.00000000000E+00  0.10594109581E+04  0.25594887924E+04  0.23299423384E+04 0.  0.
        1    1    3    3  502    0 -0.39518976594E+03 -0.97191232893E+03 -0.26507433415E+02  0.10495194950E+04  0.50400001928E-02 0. -1.
       -1    1    3    3    0  502  0.39518976594E+03  0.97191232893E+03  0.10859183915E+04  0.15099692975E+04  0.50400001928E-02 0.  1.
</event>
<event>
 5   0  0.1393026E-05  0.2388306E+04  0.7818609E-02  0.8443894E-01
        1   -1    0    0  501    0  0.00000000000E+00  0.00000000000E+00  0.14662202095E+04  0.14662202095E+04  0.50400001928E-02 0.  1.
       -1   -1    0    0    0  501  0.00000000000E+00  0.00000000000E+00 -0.97257000877E+03  0.97257000878E+03  0.50400001928E-02 0. -1.
    10030    2    1    2    0    0  0.00000000000E+00  0.00000000000E+00  0.49365020070E+03  0.24387902183E+04  0.23883063472E+04 0.  0.
        4    1    3    3  502    0  0.94865971329E+03 -0.70059785603E+03  0.55222010209E+02  0.11806115749E+04  0.12699999809E+01 0. -1.
       -4    1    3    3    0  502 -0.94865971329E+03  0.70059785603E+03  0.43842819049E+03  0.12581786434E+04  0.12699999809E+01 0.  1.
</event>
<event>
 5   0  0.1434943E-05  0.2399041E+04  0.7818609E-02  0.8439863E-01
       -1   -1    0    0    0  501  0.00000000000E+00  0.00000000000E+00  0.66318665812E+03  0.66318665814E+03  0.50400001928E-02 0. -1.
        1   -1    0    0  501    0  0.00000000000E+00  0.00000000000E+00 -0.21695994823E+04  0.21695994823E+04  0.50400001928E-02 0.  1.
    10030    2    1    2    0    0  0.00000000000E+00  0.00000000000E+00 -0.15064128241E+04  0.28327861404E+04  0.23990410002E+04 0.  0.
        5    1    3    3  502    0  0.85394022918E+03 -0.80594939305E+03 -0.46382863872E+03  0.12625083902E+04  0.46999998093E+01 0. -1.
       -5    1    3    3    0  502 -0.85394022918E+03  0.80594939305E+03 -0.10425841854E+04  0.15702777502E+04  0.46999998093E+01 0.  1.
</event>
<event>
 5   0  0.1407158E-05  0.2411740E+04  0.7818609E-02  0.8435122E-01
       -1   -1    0    0    0  501  0.00000000000E+00  0.00000000000E+00  0.14674364771E+04  0.14674364771E+04  0.50400001928E-02 0. -1.
        1   -1    0    0  501    0  0.00000000000E+00  0.00000000000E+00 -0.99092665356E+03  0.99092665358E+03  0.50400001928E-02 0.  1.
    10030    2    1    2    0    0  0.00000000000E+00  0.00000000000E+00  0.47650982356E+03  0.24583631307E+04  0.24117395528E+04 0.  0.
        1    1    3    3  502    0  0.64847597427E+03 -0.60847437250E+03  0.10684691777E+04  0.13901037857E+04  0.50400001928E-02 0. -1.
       -1    1    3    3    0  502 -0.64847597427E+03  0.60847437250E+03 -0.59195935417E+03  0.10682593450E+04  0.50400001928E-02 0.  1.
</event>
<event>
 5   0  0.1506985E-05  0.2398065E+04  0.7818609E-02  0.8440228E-01
        1   -1    0    0  501    0  0.00000000000E+00  0.00000000000E+00  0.96104179341E+03  0.96104179342E+03  0.50400001928E-02 0.  1.
       -1   -1    0    0    0  501  0.00000000000E+00  0.00000000000E+00 -0.14959585900E+04  0.14959585901E+04  0.50400001928E-02 0. -1.
    10030    2    1    2    0    0  0.00000000000E+00  0.00000000000E+00 -0.53491679664E+03  0.24570003835E+04  0.23980648250E+04 0.  0.
        3    1    3    3  502    0  0.10404087668E+04  0.12321255675E+03  0.33000838641E+03  0.10984249094E+04  0.10100000352E+00 0. -1.
       -3    1    3    3    0  502 -0.10404087668E+04 -0.12321255675E+03 -0.86492518305E+03  0.13585754741E+04  0.10100000352E+00 0.  1.
</event>
<event>
 5   0  0.3215208E-05  0.2424329E+04  0.7818609E-02  0.8430451E-01
        2   -1    0    0  501    0  0.00000000000E+00  0.00000000000E+00  0.89160027004E+03  0.89160027005E+03  0.25500000920E-02 0.  1.
       -2   -1    0    0    0  501  0.00000000000E+00  0.00000000000E+00 -0.16479834000E+04  0.16479834000E+04  0.25500000920E-02 0. -1.
    10030    2    1    2    0    0  0.00000000000E+00  0.00000000000E+00 -0.75638312997E+03  0.25395836701E+04  0.24243287273E+04 0.  0.
        1    1    3    3  502    0 -0.68528364008E+03  0.87650528215E+03  0.12579134575E+03  0.11196868489E+04  0.50400001928E-02 0. -1.
       -1    1    3    3    0  502  0.68528364008E+03 -0.87650528215E+03 -0.88217447572E+03  0.14198968211E+04  0.50400001928E-02 0.  1.
</event>
<event>
 5   0  0.3215208E-05  0.2409543E+04  0.7818609E-02  0.8435939E-01
        2   -1    0    0  501    0  0.00000000000E+00  0.00000000000E+00  0.13084545141E+04  0.13084545141E+04  0.25500000920E-02 0.  1.
       -2   -1    0    0    0  501  0.00000000000E+00  0.00000000000E+00 -0.11093044850E+04  0.11093044850E+04  0.25500000920E-02 0. -1.
    10030    2    1    2    0    0  0.00000000000E+00  0.00000000000E+00  0.19915002908E+03  0.24177589991E+04  0.24095430777E+04 0.  0.
        1    1    3    3  502    0  0.95052533036E+03  0.16859026436E+03 -0.62368324286E+03  0.11493049501E+04  0.50400001928E-02 0. -1.
       -1    1    3    3    0  502 -0.95052533036E+03 -0.16859026436E+03  0.82283327195E+03  0.12684540490E+04  0.50400001928E-02 0.  1.
</event>
<event>
 5   0  0.1147362E-05  0.2405179E+04  0.7818609E-02  0.8437567E-01
        3   -1    0    0  501    0  0.00000000000E+00  0.00000000000E+00  0.24990469102E+04  0.24990469122E+04  0.10100000352E+00 0. -1.
       -3   -1    0    0    0  501  0.00000000000E+00  0.00000000000E+00 -0.57870928464E+03  0.57870929345E+03  0.10100000352E+00 0.  1.
    10030    2    1    2    0    0  0.00000000000E+00  0.00000000000E+00  0.19203376255E+04  0.30777562057E+04  0.24051791338E+04 0.  0.
        3    1    3    3  502    0  0.19332853531E+03 -0.30467545620E+03 -0.50780328851E+03  0.62295043639E+03  0.10100000352E+00 0.  1.
       -3    1    3    3    0  502 -0.19332853531E+03  0.30467545620E+03  0.24281409140E+04  0.24548057693E+04  0.10100000352E+00 0. -1.
</event>
<event>
 5   0  0.3345974E-05  0.2392082E+04  0.7818609E-02  0.8442474E-01
        2   -1    0    0  501    0  0.00000000000E+00  0.00000000000E+00  0.16916460506E+04  0.16916460506E+04  0.25500000920E-02 0. -1.
       -2   -1    0    0    0  501  0.00000000000E+00  0.00000000000E+00 -0.84563404337E+03  0.84563404337E+03  0.25500000920E-02 0.  1.
    10030    2    1    2    0    0  0.00000000000E+00  0.00000000000E+00  0.84601200724E+03  0.25372800940E+04  0.23920815118E+04 0.  0.
        4    1    3    3  502    0 -0.94111127133E+03 -0.23689166647E+02 -0.35951455499E+03  0.10077221491E+04  0.12699999809E+01 0.  1.
       -4    1    3    3    0  502  0.94111127133E+03  0.23689166647E+02  0.12055265622E+04  0.15295579449E+04  0.12699999809E+01 0. -1.
</event>
<event>
 5   0  0.1401596E-05  0.2474869E+04  0.7818609E-02  0.8411994E-01
        1   -1    0    0  501    0  0.00000000000E+00  0.00000000000E+00  0.13901789990E+04  0.13901789990E+04  0.50400001928E-02 0. -1.
       -1   -1    0    0    0  501  0.00000000000E+00  0.00000000000E+00 -0.11014729611E+04  0.11014729611E+04  0.50400001928E-02 0.  1.
    10030    2    1    2    0    0  0.00000000000E+00  0.00000000000E+00  0.28870603790E+03  0.24916519602E+04  0.24748693530E+04 0.  0.
        2    1    3    3  502    0  0.22758299204E+02  0.84150542574E+03 -0.76876770967E+03  0.11400232950E+04  0.25500000920E-02 0.  1.
       -2    1    3    3    0  502 -0.22758299204E+02 -0.84150542574E+03  0.10574737476E+04  0.13516286652E+04  0.25500000920E-02 0. -1.
</event>
<event>
 5   0  0.3320780E-05  0.2401321E+04  0.7818609E-02  0.8439009E-01
        2   -1    0    0  501    0  0.00000000000E+00  0.00000000000E+00  0.20026242246E+04  0.20026242246E+04  0.25500000920E-02 0. -1.
       -2   -1    0    0    0  501  0.00000000000E+00  0.00000000000E+00 -0.71984847444E+03  0.71984847444E+03  0.25500000920E-02 0.  1.
    10030    2    1    2    0    0  0.00000000000E+00  0.00000000000E+00  0.12827757502E+04  0.27224726990E+04  0.24013212971E+04 0.  0.
        5    1    3    3  502    0  0.11594929702E+04  0.54805361030E+01  0.99468902903E+03  0.15277049253E+04  0.46999998093E+01 0. -1.
       -5    1    3    3    0  502 -0.11594929702E+04 -0.54805361030E+01  0.28808672113E+03  0.11947677737E+04  0.46999998093E+01 0.  1.
</event>
<event>
 5   0  0.3320780E-05  0.2092762E+04  0.7818609E-02  0.8564438E-01
       -2   -1    0    0    0  501  0.00000000000E+00  0.00000000000E+00  0.87028650439E+03  0.87028650439E+03  0.25500000920E-02 0.  1.
        2   -1    0    0  501    0  0.00000000000E+00  0.00000000000E+00 -0.12581068912E+04  0.12581068912E+04  0.25500000920E-02 0. -1.
    10030    2    1    2    0    0  0.00000000000E+00  0.00000000000E+00 -0.38782038684E+03  0.21283933956E+04  0.20927622402E+04 0.  0.
        5    1    3    3  502    0  0.63753151753E+03 -0.64288057858E+03  0.33956762135E+03  0.96699024485E+03  0.46999998093E+01 0.  1.
       -5    1    3    3    0  502 -0.63753151753E+03  0.64288057858E+03 -0.72738800820E+03  0.11614031508E+04  0.46999998093E+01 0. -1.
</event>
<event>
 5   0  0.3347728E-05  0.2401191E+04  0.7818609E-02  0.8439058E-01
       -2   -1    0    0    0  501  0.00000000000E+00  0.00000000000E+00  0.62859285458E+03  0.62859285459E+03  0.25500000920E-02 0.  1.
        2   -1    0    0  501    0  0.00000000000E+00  0.00000000000E+00 -0.22931043022E+04  0.22931043022E+04  0.25500000920E-02 0. -1.
    10030    2    1    2    0    0  0.00000000000E+00  0.00000000000E+00 -0.16645114476E+04  0.29216971568E+04  0.24011905207E+04 0.  0.
        3    1    3    3  502    0  0.91240913218E+03  0.69720799170E+03 -0.40579631036E+03  0.12178916470E+04  0.10100000352E+00 0.  1.
       -3    1    3    3    0  502 -0.91240913218E+03 -0.69720799170E+03 -0.12587151373E+04  0.17038055098E+04  0.10100000352E+00 0. -1.
</event>
<event>
 5   0  0.3320780E-05  0.2375553E+04  0.7818609E-02  0.8448713E-01
       -2   -1    0    0    0  501  0.00000000000E+00  0.00000000000E+00  0.11292129723E+04  0.11292129723E+04  0.25500000920E-02 0. -1.
        2   -1    0    0  501    0  0.00000000000E+00  0.00000000000E+00 -0.12493771750E+04  0.12493771750E+04  0.25500000920E-02 0.  1.
    10030    2    1    2    0    0  0.00000000000E+00  0.00000000000E+00 -0.12016420265E+03  0.23785901473E+04  0.23755529153E+04 0.  0.
        5    1    3    3  502    0  0.43232325569E+03 -0.71180615725E+03  0.78788875656E+03  0.11464563601E+04  0.46999998093E+01 0. -1.
       -5    1    3    3    0  502 -0.43232325569E+03  0.71180615725E+03 -0.90805295921E+03  0.12321337872E+04  0.46999998093E+01 0.  1.
</event>
<event>
 5   0  0.3310037E-05  0.2423469E+04  0.7818609E-02  0.8430769E-01
        2   -1    0    0  501    0  0.00000000000E+00  0.00000000000E+00  0.12306703031E+04  0.12306703031E+04  0.25500000920E-02 0.  1.
       -2   -1    0    0    0  501  0.00000000000E+00  0.00000000000E+00 -0.11930900455E+04  0.11930900455E+04  0.25500000920E-02 0. -1.
    10030    2    1    2    0    0  0.00000000000E+00  0.00000000000E+00  0.37580257638E+02  0.24237603486E+04  0.24234689913E+04 0.  0.
        2    1    3    3  502    0 -0.57181644829E+02 -0.25551135100E+03 -0.11644601748E+04  0.11935339499E+04  0.25500000920E-02 0. -1.
       -2    1    3    3    0  502  0.57181644829E+02  0.25551135100E+03  0.12020404324E+04  0.12302263987E+04  0.25500000920E-02 0.  1.
</event>
<event>
 5   0  0.3320780E-05  0.2076427E+04  0.7818609E-02  0.8571699E-01
       -2   -1    0    0    0  501  0.00000000000E+00  0.00000000000E+00  0.54687979512E+03  0.54687979513E+03  0.25500000920E-02 0.  1.
        2   -1    0    0  501    0  0.00000000000E+00  0.00000000000E+00 -0.19709759436E+04  0.19709759436E+04  0.25500000920E-02 0. -1.
    10030    2    1    2    0    0  0.00000000000E+00  0.00000000000E+00 -0.14240961485E+04  0.25178557387E+04  0.20764266616E+04 0.  0.
        5    1    3    3  502    0  0.73721638934E+03  0.10355056423E+03  0.16543046480E+03  0.76262707317E+03  0.46999998093E+01 0.  1.
       -5    1    3    3    0  502 -0.73721638934E+03 -0.10355056423E+03 -0.15895266133E+04  0.17552286655E+04  0.46999998093E+01 0. -1.
</event>
<event>
 5   0  0.3310037E-05  0.2406444E+04  0.7818609E-02  0.8437095E-01
       -2   -1    0    0    0  501  0.00000000000E+00  0.00000000000E+00  0.10561571638E+04  0.10561571638E+04  0.25500000920E-02 0.  1.
        2   -1    0    0  501    0  0.00000000000E+00  0.00000000000E+00 -0.13707654120E+04  0.13707654120E+04  0.25500000920E-02 0. -1.
    10030    2    1    2    0    0  0.00000000000E+00  0.00000000000E+00 -0.31460824829E+03  0.24269225758E+04  0.24064444392E+04 0.  0.
        2    1    3    3  502    0 -0.72994317095E+03  0.65649022160E+03 -0.85888719808E+03  0.13044093157E+04  0.25500000920E-02 0. -1.
       -2    1    3    3    0  502  0.72994317095E+03 -0.65649022160E+03  0.54427894980E+03  0.11225132601E+04  0.25500000920E-02 0.  1.
</event>
<event>
 5   0  0.3345974E-05  0.2405224E+04  0.7818609E-02  0.8437551E-01
        2   -1    0    0  501    0  0.00000000000E+00  0.00000000000E+00  0.14371073055E+04  0.14371073055E+04  0.25500000920E-02 0.  1.
       -2   -1    0    0    0  501  0.00000000000E+00  0.00000000000E+00 -0.10063793010E+04  0.10063793010E+04  0.25500000920E-02 0. -1.
    10030    2    1    2    0    0  0.00000000000E+00  0.00000000000E+00  0.43072800445E+03  0.24434866065E+04  0.24052235202E+04 0.  0.
        4    1    3    3  502    0 -0.78493213762E+03 -0.74900041999E+03 -0.31168914353E+03  0.11288364917E+04  0.12699999809E+01 0. -1.
       -4    1    3    3    0  502  0.78493213762E+03  0.74900041999E+03  0.74241714798E+03  0.13146501148E+04  0.12699999809E+01 0.  1.
</event>
<event>
 5   0  0.3215208E-05  0.2296684E+04  0.7818609E-02  0.8479230E-01
       -2   -1    0    0    0  501  0.00000000000E+00  0.00000000000E+00  0.97585556056E+03  0.97585556057E+03  0.25500000920E-02 0.  1.
        2   -1    0    0  501    0  0.00000000000E+00  0.00000000000E+00 -0.13513157444E+04  0.13513157444E+04  0.25500000920E-02 0. -1.
    10030    2    1    2    0    0  0.00000000000E+00  0.00000000000E+00 -0.37546018383E+03  0.23271713050E+04  0.22966836815E+04 0.  0.
        1    1    3    3  502    0  0.83031256310E+03  0.15539532489E+03 -0.97595246179E+03  0.12907555412E+04  0.50400001928E-02 0. -1.
       -1    1    3    3    0  502 -0.83031256310E+03 -0.15539532489E+03  0.60049227796E+03  0.10364157638E+04  0.50400001928E-02 0.  1.
</event>
<event>
 5   0  0.1407158E-05  0.2239911E+04  0.7818609E-02  0.8501997E-01
       -1   -1    0    0    0  501  0.00000000000E+00  0.00000000000E+00  0.12875388376E+04  0.12875388377E+04  0.50400001928E-02 0. -1.
        1   -1    0    0  501    0  0.00000000000E+00  0.00000000000E+00 -0.97418477736E+03  0.97418477738E+03  0.50400001928E-02 0.  1.
    10030    2    1    2    0    0  0.00000000000E+00  0.00000000000E+00  0.31335406028E+03  0.22617236150E+04  0.22399113696E+04 0.  0.
        1    1    3    3  502    0 -0.29549687103E+03  0.15086883208E+03 -0.92342216462E+03  0.98121776351E+03  0.50400001928E-02 0.  1.
       -1    1    3    3    0  502  0.29549687103E+03 -0.15086883208E+03  0.12367762249E+04  0.12805058515E+04  0.50400001928E-02 0. -1.
</event>
<event>
 5   0  0.1434943E-05  0.2378797E+04  0.7818609E-02  0.8447485E-01
        1   -1    0    0  501    0  0.00000000000E+00  0.00000000000E+00  0.11001396074E+04  0.11001396074E+04  0.50400001928E-02 0. -1.
       -1   -1    0    0    0  501  0.00000000000E+00  0.00000000000E+00 -0.12858991323E+04  0.12858991323E+04  0.50400001928E-02 0.  1.
    10030    2    1    2    0    0  0.00000000000E+00  0.00000000000E+00 -0.18575952495E+03  0.23860387397E+04  0.23787968106E+04 0.  0.
        5    1    3    3  502    0  0.92988239971E+03  0.62747849909E+03 -0.48935001274E+03  0.12238856438E+04  0.46999998093E+01 0.  1.
       -5    1    3    3    0  502 -0.92988239971E+03 -0.62747849909E+03  0.30359048779E+03  0.11621530959E+04  0.46999998093E+01 0. -1.
</event>
<event>
 5   0  0.1401596E-05  0.2314860E+04  0.7818609E-02  0.8472085E-01
        1   -1    0    0  501    0  0.00000000000E+00  0.00000000000E+00  0.16432629156E+04  0.16432629156E+04  0.50400001928E-02 0.  1.
       -1   -1    0    0    0  501  0.00000000000E+00  0.00000000000E+00 -0.81523409609E+03  0.81523409610E+03  0.50400001928E-02 0. -1.
    10030    2    1    2    0    0  0.00000000000E+00  0.00000000000E+00  0.82802881949E+03  0.24584970117E+04  0.23148597864E+04 0.  0.
        2    1    3    3  502    0 -0.19696072921E+03  0.33434015375E+03 -0.74409122315E+03  0.83919521902E+03  0.25500000920E-02 0. -1.
       -2    1    3    3    0  502  0.19696072921E+03 -0.33434015375E+03  0.15721200426E+04  0.16193017927E+04  0.25500000920E-02 0.  1.
</event>
<event>
 5   0  0.1434943E-05  0.2390039E+04  0.7818609E-02  0.8443242E-01
       -1   -1    0    0    0  501  0.00000000000E+00  0.00000000000E+00  0.57651867446E+03  0.57651867448E+03  0.50400001928E-02 0. -1.
        1   -1    0    0  501    0  0.00000000000E+00  0.00000000000E+00 -0.24770611936E+04  0.24770611936E+04  0.50400001928E-02 0.  1.
    10030    2    1    2    0    0  0.00000000000E+00  0.00000000000E+00 -0.19005425192E+04  0.30535798681E+04  0.23900393603E+04 0.  0.
        5    1    3    3  502    0 -0.92147763000E+03  0.75027963771E+03 -0.78861534329E+03  0.14261755877E+04  0.46999998093E+01 0.  1.
       -5    1    3    3    0  502  0.92147763000E+03 -0.75027963771E+03 -0.11119271759E+04  0.16274042804E+04  0.46999998093E+01 0. -1.
</event>
<event>
 5   0  0.3215208E-05  0.2409182E+04  0.7818609E-02  0.8436074E-01
        2   -1    0    0  501    0  0.00000000000E+00  0.00000000000E+00  0.14753865224E+04  0.14753865224E+04  0.25500000920E-02 0.  1.
       -2   -1    0    0    0  501  0.00000000000E+00  0.00000000000E+00 -0.98349770040E+03  0.98349770040E+03  0.25500000920E-02 0. -1.
    10030    2    1    2    0    0  0.00000000000E+00  0.00000000000E+00  0.49188882196E+03  0.24588842228E+04  0.24091818129E+04 0.  0.
        1    1    3    3  502    0 -0.10247725535E+04 -0.11810539602E+02 -0.40015654037E+03  0.11001924977E+04  0.50400001928E-02 0. -1.
       -1    1    3    3    0  502  0.10247725535E+04  0.11810539602E+02  0.89204536233E+03  0.13586917250E+04  0.50400001928E-02 0.  1.
</event>
<event>
 5   0  0.3345974E-05  0.2393575E+04  0.7818609E-02  0.8441913E-01
        2   -1    0    0  501    0  0.00000000000E+00  0.00000000000E+00  0.27587404791E+04  0.27587404791E+04  0.25500000920E-02 0.  1.
       -2   -1    0    0    0  501  0.00000000000E+00  0.00000000000E+00 -0.51918628487E+03  0.51918628487E+03  0.25500000920E-02 0. -1.
    10030    2    1    2    0    0  0.00000000000E+00  0.00000000000E+00  0.22395541942E+04  0.32779267639E+04  0.23935749165E+04 0.  0.
        4    1    3    3  502    0 -0.87289524195E+03  0.17010349068E+03  0.22989430732E+02  0.88961307757E+03  0.12699999809E+01 0.  1.
       -4    1    3    3    0  502  0.87289524195E+03 -0.17010349068E+03  0.22165647635E+04  0.23883136864E+04  0.12699999809E+01 0. -1.
</event>
<event>
 5   0  0.1393026E-05  0.2339209E+04  0.7818609E-02  0.8462620E-01
       -1   -1    0    0    0  501  0.00000000000E+00  0.00000000000E+00  0.11594398544E+04  0.11594398545E+04  0.50400001928E-02 0.  1.
        1   -1    0    0  501    0  0.00000000000E+00  0.00000000000E+00 -0.11798583413E+04  0.11798583413E+04  0.50400001928E-02 0. -1.
    10030    2    1    2    0    0  0.00000000000E+00  0.00000000000E+00 -0.20418486822E+02  0.23392981957E+04  0.23392090830E+04 0.  0.
        4    1    3    3  502    0 -0.83156356047E+03  0.20635165782E+03  0.78599582215E+03  0.11626994483E+04  0.12699999809E+01 0.  1.
       -4    1    3    3    0  502  0.83156356047E+03 -0.20635165782E+03 -0.80641430898E+03  0.11765987474E+04  0.12699999809E+01 0. -1.
</event>
<event>
 5   0  0.1401596E-05  0.2409639E+04  0.7818609E-02  0.8435904E-01
        1   -1    0    0  501    0  0.00000000000E+00  0.00000000000E+00  0.14744257431E+04  0.14744257431E+04  0.50400001928E-02 0. -1.
       -1   -1    0    0    0  501  0.00000000000E+00  0.00000000000E+00 -0.98451234302E+03  0.98451234303E+03  0.50400001928E-02 0.  1.
    10030    2    1    2    0    0  0.00000000000E+00  0.00000000000E+00  0.48991340011E+03  0.24589380862E+04  0.24096392618E+04 0.  0.
        2    1    3    3  502    0 -0.85287302332E+03 -0.24016773979E+02 -0.62310618316E+03  0.10565181091E+04  0.25500000920E-02 0.  1.
       -2    1    3    3    0  502  0.85287302332E+03  0.24016773979E+02  0.11130195833E+04  0.14024199771E+04  0.25500000920E-02 0. -1.
</event>
<event>
 5   0  0.1401596E-05  0.2043642E+04  0.7818609E-02  0.8586484E-01
       -1   -1    0    0    0  501  0.00000000000E+00  0.00000000000E+00  0.61623426936E+03  0.61623426938E+03  0.50400001928E-02 0.  1.
        1   -1    0    0  501    0  0.00000000000E+00  0.00000000000E+00 -0.16943526842E+04  0.16943526842E+04  0.50400001928E-02 0. -1.
    10030    2    1    2    0    0  0.00000000000E+00  0.00000000000E+00 -0.10781184149E+04  0.23105869536E+04  0.20436420317E+04 0.  0.
        2    1    3    3  502    0  0.18692560442E+03 -0.22749230806E+03 -0.16453510338E+04  0.16714885451E+04  0.25500000920E-02 0. -1.
       -2    1    3    3    0  502 -0.18692560442E+03  0.22749230806E+03  0.56723261894E+03  0.63909840855E+03  0.25500000920E-02 0.  1.
</event>
<event>
 5   0  0.3310037E-05  0.2377752E+04  0.7818609E-02  0.8447880E-01
        2   -1    0    0  501    0  0.00000000000E+00  0.00000000000E+00  0.18764107553E+04  0.18764107553E+04  0.25500000920E-02 0. -1.
       -2   -1    0    0    0  501  0.00000000000E+00  0.00000000000E+00 -0.75326053497E+03  0.75326053497E+03  0.25500000920E-02 0.  1.
    10030    2    1    2    0    0  0.00000000000E+00  0.00000000000E+00  0.11231502203E+04  0.26296712903E+04  0.23777520219E+04 0.  0.
        2    1    3    3  502    0  0.84196807727E+03 -0.10137400474E+03 -0.35991246362E+03  0.92126213070E+03  0.25500000920E-02 0.  1.
       -2    1    3    3    0  502 -0.84196807727E+03  0.10137400474E+03  0.14830626840E+04  0.17084091596E+04  0.25500000920E-02 0. -1.
</event>
<event>
 5   0  0.1407158E-05  0.2491507E+04  0.7818609E-02  0.8406018E-01
       -1   -1    0    0    0  501  0.00000000000E+00  0.00000000000E+00  0.65443482617E+03  0.65443482619E+03  0.50400001928E-02 0. -1.
        1   -1    0    0  501    0  0.00000000000E+00  0.00000000000E+00 -0.23713614269E+04  0.23713614269E+04  0.50400001928E-02 0.  1.
    10030    2    1    2    0    0  0.00000000000E+00  0.00000000000E+00 -0.17169266007E+04  0.30257962531E+04  0.24915067756E+04 0.  0.
        1    1    3    3  502    0 -0.10099831076E+04 -0.49858318849E+03 -0.15048060731E+04  0.18796521995E+04  0.50400001928E-02 0.  1.
       -1    1    3    3    0  502  0.10099831076E+04  0.49858318849E+03 -0.21212052769E+03  0.11461440537E+04  0.50400001928E-02 0. -1.
</event>
<event>
 5   0  0.1401596E-05  0.2389529E+04  0.7818609E-02  0.8443434E-01
       -1   -1    0    0    0  501  0.00000000000E+00  0.00000000000E+00  0.81448255864E+03  0.81448255865E+03  0.50400001928E-02 0.  1.
        1   -1    0    0  501    0  0.00000000000E+00  0.00000000000E+00 -0.17526006058E+04  0.17526006058E+04  0.50400001928E-02 0. -1.
    10030    2    1    2    0    0  0.00000000000E+00  0.00000000000E+00 -0.93811804716E+03  0.25670831645E+04  0.23895293476E+04 0.  0.
        2    1    3    3  502    0  0.85324332999E+03  0.70950992180E+02  0.42616927595E+03  0.95638824503E+03  0.25500000920E-02 0.  1.
       -2    1    3    3    0  502 -0.85324332999E+03 -0.70950992180E+02 -0.13642873231E+04  0.16106949194E+04  0.25500000920E-02 0. -1.
</event>
<event>
 5   0  0.1506985E-05  0.2393570E+04  0.7818609E-02  0.8441915E-01
        1   -1    0    0  501    0  0.00000000000E+00  0.00000000000E+00  0.16637420644E+04  0.16637420644E+04  0.50400001928E-02 0.  1.
       -1   -1    0    0    0  501  0.00000000000E+00  0.00000000000E+00 -0.86088754124E+03  0.86088754125E+03  0.50400001928E-02 0. -1.
    10030    2    1    2    0    0  0.00000000000E+00  0.00000000000E+00  0.80285452315E+03  0.25246296056E+04  0.23935704001E+04 0.  0.
        3    1    3    3  502    0 -0.86494497404E+02  0.75912365274E+03  0.13730302680E+04  0.15712931443E+04  0.10100000352E+00 0.  1.
       -3    1    3    3    0  502  0.86494497404E+02 -0.75912365274E+03 -0.57017574489E+03  0.95333646133E+03  0.10100000352E+00 0. -1.
</event>
<event>
 5   0  0.1393026E-05  0.2443216E+04  0.7818609E-02  0.8423499E-01
       -1   -1    0    0    0  501  0.00000000000E+00  0.00000000000E+00  0.11052837889E+04  0.11052837889E+04  0.50400001928E-02 0. -1.
        1   -1    0    0  501    0  0.00000000000E+00  0.00000000000E+00 -0.13501749028E+04  0.13501749028E+04  0.50400001928E-02 0.  1.
    10030    2    1    2    0    0  0.00000000000E+00  0.00000000000E+00 -0.24489111389E+03  0.24554586917E+04  0.24432162674E+04 0.  0.
        4    1    3    3  502    0  0.11622435810E+04  0.32754226876E+03  0.63497028564E+02  0.12091846695E+04  0.12699999809E+01 0.  1.
       -4    1    3    3    0  502 -0.11622435810E+04 -0.32754226876E+03 -0.30838814246E+03  0.12462740223E+04  0.12699999809E+01 0. -1.
</event>
<event>
 5   0  0.3345974E-05  0.2428031E+04  0.7818609E-02  0.8429083E-01
       -2   -1    0    0    0  501  0.00000000000E+00  0.00000000000E+00  0.98343324161E+03  0.98343324161E+03  0.25500000920E-02 0. -1.
        2   -1    0    0  501    0  0.00000000000E+00  0.00000000000E+00 -0.14986622024E+04  0.14986622024E+04  0.25500000920E-02 0.  1.
    10030    2    1    2    0    0  0.00000000000E+00  0.00000000000E+00 -0.51522896074E+03  0.24820954440E+04  0.24280314889E+04 0.  0.
        4    1    3    3  502    0  0.32125573193E+03  0.77497898151E+03 -0.11546701194E+04  0.14272569372E+04  0.12699999809E+01 0.  1.
       -4    1    3    3    0  502 -0.32125573193E+03 -0.77497898151E+03  0.63944115870E+03  0.10548385068E+04  0.12699999809E+01 0. -1.
</event>
<event>
 5   0  0.3310037E-05  0.2413620E+04  0.7818609E-02  0.8434422E-01
       -2   -1    0    0    0  501  0.00000000000E+00  0.00000000000E+00  0.69934328912E+03  0.69934328912E+03  0.25500000920E-02 0.  1.
        2   -1    0    0  501    0  0.00000000000E+00  0.00000000000E+00 -0.20825106865E+04  0.20825106865E+04  0.25500000920E-02 0. -1.
    10030    2    1    2    0    0  0.00000000000E+00  0.00000000000E+00 -0.13831673974E+04  0.27818539756E+04  0.24136195832E+04 0.  0.
        2    1    3    3  502    0  0.40757525002E+03  0.67070163093E+03  0.36503112190E+03  0.86556685595E+03  0.25500000920E-02 0.  1.
       -2    1    3    3    0  502 -0.40757525002E+03 -0.67070163093E+03 -0.17481985193E+04  0.19162871197E+04  0.25500000920E-02 0. -1.
</event>
<event>
 5   0  0.3320780E-05  0.2391929E+04  0.7818609E-02  0.8442531E-01
        2   -1    0    0  501    0  0.00000000000E+00  0.00000000000E+00  0.13744297055E+04  0.13744297055E+04  0.25500000920E-02 0.  1.
       -2   -1    0    0    0  501  0.00000000000E+00  0.00000000000E+00 -0.10406724885E+04  0.10406724885E+04  0.25500000920E-02 0. -1.
    10030    2    1    2    0    0  0.00000000000E+00  0.00000000000E+00  0.33375721694E+03  0.24151021940E+04  0.23919290808E+04 0.  0.
        5    1    3    3  502    0  0.17805513201E+03 -0.28897762735E+02  0.13606059199E+04  0.13725193150E+04  0.46999998093E+01 0.  1.
       -5    1    3    3    0  502 -0.17805513201E+03  0.28897762735E+02 -0.10268487030E+04  0.10425828790E+04  0.46999998093E+01 0. -1.
</event>
<event>
 5   0  0.3347728E-05  0.2392120E+04  0.7818609E-02  0.8442460E-01
       -2   -1    0    0    0  501  0.00000000000E+00  0.00000000000E+00  0.24350455235E+04  0.24350455235E+04  0.25500000920E-02 0.  1.
        2   -1    0    0  501    0  0.00000000000E+00  0.00000000000E+00 -0.58748780190E+03  0.58748780190E+03  0.25500000920E-02 0. -1.
    10030    2    1    2    0    0  0.00000000000E+00  0.00000000000E+00  0.18475577216E+04  0.30225333254E+04  0.23921200155E+04 0.  0.
        3    1    3    3  502    0  0.36039194518E+03 -0.89960674699E+03  0.18095041134E+04  0.20526762531E+04  0.10100000352E+00 0.  1.
       -3    1    3    3    0  502 -0.36039194518E+03  0.89960674699E+03  0.38053608175E+02  0.96985707229E+03  0.10100000352E+00 0. -1.
</event>
<event>
 5   0  0.3215208E-05  0.2065014E+04  0.7818609E-02  0.8576813E-01
       -2   -1    0    0    0  501  0.00000000000E+00  0.00000000000E+00  0.76439912970E+03  0.76439912971E+03  0.25500000920E-02 0.  1.
        2   -1    0    0  501    0  0.00000000000E+00  0.00000000000E+00 -0.13946523319E+04  0.13946523319E+04  0.25500000920E-02 0. -1.
    10030    2    1    2    0    0  0.00000000000E+00  0.00000000000E+00 -0.63025320224E+03  0.21590514617E+04  0.20650143135E+04 0.  0.
        1    1    3    3  502    0 -0.78493973049E+03  0.36876362918E+03  0.27070522494E+03  0.90851434416E+03  0.50400001928E-02 0.  1.
       -1    1    3    3    0  502  0.78493973049E+03 -0.36876362918E+03 -0.90095842718E+03  0.12505371175E+04  0.50400001928E-02 0. -1.
</event>
<event>
 5   0  0.1506985E-05  0.2454522E+04  0.7818609E-02  0.8419369E-01
       -1   -1    0    0    0  501  0.00000000000E+00  0.00000000000E+00  0.10984854910E+04  0.10984854911E+04  0.50400001928E-02 0.  1.
        1   -1    0    0  501    0  0.00000000000E+00  0.00000000000E+00 -0.13711331155E+04  0.13711331155E+04  0.50400001928E-02 0. -1.
    10030    2    1    2    0    0  0.00000000000E+00  0.00000000000E+00 -0.27264762446E+03  0.24696186066E+04  0.24545222213E+04 0.  0.
        3    1    3    3  502    0 -0.53630350387E+03  0.21036246051E+03  0.95399050015E+03  0.11144378393E+04  0.10100000352E+00 0.  1.
       -3    1    3    3    0  502  0.53630350387E+03 -0.21036246051E+03 -0.12266381246E+04  0.13551807673E+04  0.10100000352E+00 0. -1.
</event>
<event>
 5   0  0.1506985E-05  0.2350382E+04  0.7818609E-02  0.8458317E-01
        1   -1    0    0  501    0  0.00000000000E+00  0.00000000000E+00  0.11436423972E+04  0.11436423972E+04  0.50400001928E-02 0. -1.
       -1   -1    0    0    0  501  0.00000000000E+00  0.00000000000E+00 -0.12076103310E+04  0.12076103310E+04  0.50400001928E-02 0.  1.
    10030    2    1    2    0    0  0.00000000000E+00  0.00000000000E+00 -0.63967933871E+02  0.23512527282E+04  0.23503824147E+04 0.  0.
        3    1    3    3  502    0  0.30427460800E+03 -0.84550076855E+03 -0.78964131843E+03  0.11962391102E+04  0.10100000352E+00 0.  1.
       -3    1    3    3    0  502 -0.30427460800E+03  0.84550076855E+03  0.72567338456E+03  0.11550136181E+04  0.10100000352E+00 0. -1.
</event>
<event>
 5   0  0.3320780E-05  0.2303964E+04  0.7818609E-02  0.8476360E-01
       -2   -1    0    0    0  501  0.00000000000E+00  0.00000000000E+00  0.89826605035E+03  0.89826605035E+03  0.25500000920E-02 0.  1.
        2   -1    0    0  501    0  0.00000000000E+00  0.00000000000E+00 -0.14773603298E+04  0.14773603298E+04  0.25500000920E-02 0. -1.
    10030    2    1    2    0    0  0.00000000000E+00  0.00000000000E+00 -0.57909427950E+03  0.23756263802E+04  0.23039640869E+04 0.  0.
        5    1    3    3  502    0  0.51891223545E+03  0.27138636844E+03 -0.13124313586E+04  0.14371564390E+04  0.46999998093E+01 0. -1.
       -5    1    3    3    0  502 -0.51891223545E+03 -0.27138636844E+03  0.73333707907E+03  0.93846994124E+03  0.46999998093E+01 0.  1.
</event>
<event>
 5   0  0.1393026E-05  0.2390133E+04  0.7818609E-02  0.8443207E-01
        1   -1    0    0  501    0  0.00000000000E+00  0.00000000000E+00  0.13895898300E+04  0.13895898300E+04  0.50400001928E-02 0.  1.
       -1   -1    0    0    0  501  0.00000000000E+00  0.00000000000E+00 -0.10277738094E+04  0.10277738094E+04  0.50400001928E-02 0. -1.
    10030    2    1    2    0    0  0.00000000000E+00  0.00000000000E+00  0.36181602066E+03  0.24173636394E+04  0.23901330784E+04 0.  0.
        4    1    3    3  502    0 -0.10737343298E+03  0.11014564277E+04  0.63709790332E+03  0.12769614980E+04  0.12699999809E+01 0.  1.
       -4    1    3    3    0  502  0.10737343298E+03 -0.11014564277E+04 -0.27528188267E+03  0.11404021414E+04  0.12699999809E+01 0. -1.
</event>
<event>
 5   0  0.3215208E-05  0.2388918E+04  0.7818609E-02  0.8443664E-01
        2   -1    0    0  501    0  0.00000000000E+00  0.00000000000E+00  0.21524730817E+04  0.21524730817E+04  0.25500000920E-02 0.  1.
       -2   -1    0    0    0  501  0.00000000000E+00  0.00000000000E+00 -0.66283385812E+03  0.66283385813E+03  0.25500000920E-02 0. -1.
    10030    2    1    2    0    0  0.00000000000E+00  0.00000000000E+00  0.14896392235E+04  0.28153069398E+04  0.23889177778E+04 0.  0.
        1    1    3    3  502    0 -0.10461377030E+04 -0.50611477150E+03  0.10700813719E+04  0.15797564364E+04  0.50400001928E-02 0.  1.
       -1    1    3    3    0  502  0.10461377030E+04  0.50611477150E+03  0.41955785163E+03  0.12355505034E+04  0.50400001928E-02 0. -1.
</event>
<event>
 5   0  0.3347728E-05  0.2414937E+04  0.7818609E-02  0.8433932E-01
       -2   -1    0    0    0  501  0.00000000000E+00  0.00000000000E+00  0.56434066870E+03  0.56434066871E+03  0.25500000920E-02 0.  1.
        2   -1    0    0  501    0  0.00000000000E+00  0.00000000000E+00 -0.25835112366E+04  0.25835112366E+04  0.25500000920E-02 0. -1.
    10030    2    1    2    0    0  0.00000000000E+00  0.00000000000E+00 -0.20191705679E+04  0.31478519053E+04  0.24149372322E+04 0.  0.
        3    1    3    3  502    0  0.12008083405E+04 -0.30604050628E+01 -0.84454848732E+03  0.14680640975E+04  0.10100000352E+00 0.  1.
       -3    1    3    3    0  502 -0.12008083405E+04  0.30604050628E+01 -0.11746220806E+04  0.16797878078E+04  0.10100000352E+00 0. -1.
</event>
<event>
 5   0  0.1407158E-05  0.2379181E+04  0.7818609E-02  0.8447339E-01
        1   -1    0    0  501    0  0.00000000000E+00  0.00000000000E+00  0.14634886162E+04  0.14634886162E+04  0.50400001928E-02 0. -1.
       -1   -1    0    0    0  501  0.00000000000E+00  0.00000000000E+00 -0.96695327789E+03  0.96695327791E+03  0.50400001928E-02 0.  1.
    10030    2    1    2    0    0  0.00000000000E+00  0.00000000000E+00  0.49653533826E+03  0.24304418941E+04  0.23791806275E+04 0.  0.
        1    1    3    3  502    0  0.11087292162E+04 -0.13950166278E+03  0.66495808462E+03  0.13003501233E+04  0.50400001928E-02 0. -1.
       -1    1    3    3    0  502 -0.11087292162E+04  0.13950166278E+03 -0.16842274635E+03  0.11300917708E+04  0.50400001928E-02 0.  1.
</event>
<event>
 5   0  0.3347728E-05  0.2387908E+04  0.7818609E-02  0.8444044E-01
        2   -1    0    0  501    0  0.00000000000E+00  0.00000000000E+00  0.16641881806E+04  0.16641881806E+04  0.25500000920E-02 0.  1.
       -2   -1    0    0    0  501  0.00000000000E+00  0.00000000000E+00 -0.85658969923E+03  0.85658969923E+03  0.25500000920E-02 0. -1.
    10030    2    1    2    0    0  0.00000000000E+00  0.00000000000E+00  0.80759848135E+03  0.25207778798E+04  0.23879082504E+04 0.  0.
        3    1    3    3  502    0 -0.80161687147E+02  0.18092427146E+03 -0.83915758084E+03  0.86217454368E+03  0.10100000352E+00 0. -1.
       -3    1    3    3    0  502  0.80161687147E+02 -0.18092427146E+03  0.16467560622E+04  0.16586033361E+04  0.10100000352E+00 0.  1.
</event>
<event>
 5   0  0.3215208E-05  0.2426801E+04  0.7818609E-02  0.8429537E-01
       -2   -1    0    0    0  501  0.00000000000E+00  0.00000000000E+00  0.78084700566E+03  0.78084700566E+03  0.25500000920E-02 0. -1.
        2   -1    0    0  501    0  0.00000000000E+00  0.00000000000E+00 -0.18855695532E+04  0.18855695532E+04  0.25500000920E-02 0.  1.
    10030    2    1    2    0    0  0.00000000000E+00  0.00000000000E+00 -0.11047225475E+04  0.26664165588E+04  0.24268014666E+04 0.  0.
        1    1    3    3  502    0  0.88666401957E+03  0.32261160965E+03  0.28591817691E+03  0.98590087645E+03  0.50400001928E-02 0. -1.
       -1    1    3    3    0  502 -0.88666401957E+03 -0.32261160965E+03 -0.13906407244E+04  0.16805156824E+04  0.50400001928E-02 0.  1.
</event>
<event>
 5   0  0.1401596E-05  0.2372104E+04  0.7818609E-02  0.8450022E-01
        1   -1    0    0  501    0  0.00000000000E+00  0.00000000000E+00  0.25695257621E+04  0.25695257621E+04  0.50400001928E-02 0.  1.
       -1   -1    0    0    0  501  0.00000000000E+00  0.00000000000E+00 -0.54746280286E+03  0.54746280288E+03  0.50400001928E-02 0. -1.
    10030    2    1    2    0    0  0.00000000000E+00  0.00000000000E+00  0.20220629592E+04  0.31169885650E+04  0.23721043618E+04 0.  0.
        2    1    3    3  502    0  0.88110083971E+03 -0.42910398538E+03  0.18888221243E+04  0.21279374843E+04  0.25500000920E-02 0.  1.
       -2    1    3    3    0  502 -0.88110083971E+03  0.42910398538E+03  0.13324083494E+03  0.98905108064E+03  0.25500000920E-02 0. -1.
</event>
<event>
 5   0  0.3345974E-05  0.2454590E+04  0.7818609E-02  0.8419344E-01
       -2   -1    0    0    0  501  0.00000000000E+00  0.00000000000E+00  0.88994535176E+03  0.88994535176E+03  0.25500000920E-02 0. -1.
        2   -1    0    0  501    0  0.00000000000E+00  0.00000000000E+00 -0.16925235575E+04  0.16925235575E+04  0.25500000920E-02 0.  1.
    10030    2    1    2    0    0  0.00000000000E+00  0.00000000000E+00 -0.80257820574E+03  0.25824689093E+04  0.24545903713E+04 0.  0.
        4    1    3    3  502    0  0.36717857658E+02 -0.98493749150E+03 -0.11706896737E+04  0.15303483225E+04  0.12699999809E+01 0.  1.
       -4    1    3    3    0  502 -0.36717857658E+02  0.98493749150E+03  0.36811146799E+03  0.10521205867E+04  0.12699999809E+01 0. -1.
</event>
<event>
 5   0  0.3310037E-05  0.2407612E+04  0.7818609E-02  0.8436659E-01
       -2   -1    0    0    0  501  0.00000000000E+00  0.00000000000E+00  0.77981752244E+03  0.77981752245E+03  0.25500000920E-02 0. -1.
        2   -1    0    0  501    0  0.00000000000E+00  0.00000000000E+00 -0.18583172298E+04  0.18583172298E+04  0.25500000920E-02 0.  1.
    10030    2    1    2    0    0  0.00000000000E+00  0.00000000000E+00 -0.10784997074E+04  0.26381347523E+04  0.24076115451E+04 0.  0.
        2    1    3    3  502    0 -0.40188636114E+02 -0.83518185353E+03 -0.14881980123E+04  0.17070082539E+04  0.25500000920E-02 0.  1.
       -2    1    3    3    0  502  0.40188636114E+02  0.83518185353E+03  0.40969830493E+03  0.93112649839E+03  0.25500000920E-02 0. -1.
</event>
<event>
 5   0  0.1506985E-05  0.2462611E+04  0.7818609E-02  0.8416428E-01
       -1   -1    0    0    0  501  0.00000000000E+00  0.00000000000E+00  0.85095165255E+03  0.85095165256E+03  0.50400001928E-02 0. -1.
        1   -1    0    0  501    0  0.00000000000E+00  0.00000000000E+00 -0.17816681191E+04  0.17816681191E+04  0.50400001928E-02 0.  1.
    10030    2    1    2    0    0  0.00000000000E+00  0.00000000000E+00 -0.93071646652E+03  0.26326197716E+04  0.24626111591E+04 0.  0.
        3    1    3    3  502    0 -0.89196784634E+03  0.76150119885E+03 -0.64473036316E+02  0.11745839678E+04  0.10100000352E+00 0.  1.
       -3    1    3    3    0  502  0.89196784634E+03 -0.76150119885E+03 -0.86624343021E+03  0.14580358039E+04  0.10100000352E+00 0. -1.
</event>
<event>
 5   0  0.1393026E-05  0.2412536E+04  0.7818609E-02  0.8434825E-01
       -1   -1    0    0    0  501  0.00000000000E+00  0.00000000000E+00  0.91514469524E+03  0.91514469526E+03  0.50400001928E-02 0.  1.
        1   -1    0    0  501    0  0.00000000000E+00  0.00000000000E+00 -0.15900027296E+04  0.15900027297E+04  0.50400001928E-02 0. -1.
    10030    2    1    2    0    0  0.00000000000E+00  0.00000000000E+00 -0.67485803441E+03  0.25051474249E+04  0.24125360627E+04 0.  0.
        4    1    3    3  502    0 -0.88944097726E+03  0.15873702215E+03  0.49248774636E+03  0.10290036382E+04  0.12699999809E+01 0.  1.
       -4    1    3    3    0  502  0.88944097726E+03 -0.15873702215E+03 -0.11673457808E+04  0.14761437867E+04  0.12699999809E+01 0. -1.
</event>
<event>
 5   0  0.1434943E-05  0.2430442E+04  0.7818609E-02  0.8428194E-01
       -1   -1    0    0    0  501  0.00000000000E+00  0.00000000000E+00  0.14241022365E+04  0.14241022365E+04  0.50400001928E-02 0.  1.
        1   -1    0    0  501    0  0.00000000000E+00  0.00000000000E+00 -0.10369779551E+04  0.10369779551E+04  0.50400001928E-02 0. -1.
    10030    2    1    2    0    0  0.00000000000E+00  0.00000000000E+00  0.38712428140E+03  0.24610801916E+04  0.24304424495E+04 0.  0.
        5    1    3    3  502    0 -0.66969299704E+03 -0.58831852979E+03 -0.64276269772E+03  0.10989874332E+04  0.46999998093E+01 0. -1.
       -5    1    3    3    0  502  0.66969299704E+03  0.58831852979E+03  0.10298869791E+04  0.13620927584E+04  0.46999998093E+01 0.  1.
</event>
<event>
 5   0  0.1393026E-05  0.2403043E+04  0.7818609E-02  0.8438365E-01
       -1   -1    0    0    0  501  0.00000000000E+00  0.00000000000E+00  0.13903272566E+04  0.13903272566E+04  0.50400001928E-02 0. -1.
        1   -1    0    0  501    0  0.00000000000E+00  0.00000000000E+00 -0.10383558978E+04  0.10383558978E+04  0.50400001928E-02 0.  1.
    10030    2    1    2    0    0  0.00000000000E+00  0.00000000000E+00  0.35197135883E+03  0.24286831544E+04  0.24030434925E+04 0.  0.
        4    1    3    3  502    0 -0.47470675325E+03 -0.67026308047E+03  0.10622996383E+04  0.13427886033E+04  0.12699999809E+01 0. -1.
       -4    1    3    3    0  502  0.47470675325E+03  0.67026308047E+03 -0.71032827946E+03  0.10858945511E+04  0.12699999809E+01 0.  1.
</event>
<event>
 5   0  0.1407158E-05  0.2406460E+04  0.7818609E-02  0.8437089E-01
        1   -1    0    0  501    0  0.00000000000E+00  0.00000000000E+00  0.10106764122E+04  0.10106764122E+04  0.50400001928E-02 0. -1.
       -1   -1    0    0    0  501  0.00000000000E+00  0.00000000000E+00 -0.14324690391E+04  0.14324690391E+04  0.50400001928E-02 0.  1.
    10030    2    1    2    0    0  0.00000000000E+00  0.00000000000E+00 -0.42179262687E+03  0.24431454513E+04  0.24064601962E+04 0.  0.
        1    1    3    3  502    0 -0.63754438950E+03 -0.94295905115E+03  0.18508554295E+03  0.11532091220E+04  0.50400001928E-02 0. -1.
       -1    1    3    3    0  502  0.63754438950E+03  0.94295905115E+03 -0.60687816982E+03  0.12899363293E+04  0.50400001928E-02 0.  1.
</event>
<event>
 5   0  0.3320780E-05  0.2402816E+04  0.7818609E-02  0.8438450E-01
       -2   -1    0    0    0  501  0.00000000000E+00  0.00000000000E+00  0.94642995225E+03  0.94642995226E+03  0.25500000920E-02 0. -1.
        2   -1    0    0  501    0  0.00000000000E+00  0.00000000000E+00 -0.15250794770E+04  0.15250794770E+04  0.25500000920E-02 0.  1.
    10030    2    1    2    0    0  0.00000000000E+00  0.00000000000E+00 -0.57864952479E+03  0.24715094293E+04  0.24028157621E+04 0.  0.
        5    1    3    3  502    0  0.12370898622E+03 -0.63714330953E+03 -0.13292190536E+04  0.14792230706E+04  0.46999998093E+01 0.  1.
       -5    1    3    3    0  502 -0.12370898622E+03  0.63714330953E+03  0.75056952879E+03  0.99228635872E+03  0.46999998093E+01 0. -1.
</event>
<event>
 5   0  0.1393026E-05  0.2387387E+04  0.7818609E-02  0.8444241E-01
       -1   -1    0    0    0  501  0.00000000000E+00  0.00000000000E+00  0.94832080138E+03  0.94832080139E+03  0.50400001928E-02 0. -1.
        1   -1    0    0  501    0  0.00000000000E+00  0.00000000000E+00 -0.15025550698E+04  0.15025550698E+04  0.50400001928E-02 0.  1.
    10030    2    1    2    0    0  0.00000000000E+00  0.00000000000E+00 -0.55423426839E+03  0.24508758712E+04  0.23873870469E+04 0.  0.
        4    1    3    3  502    0 -0.25978659539E+03 -0.23492478475E+03 -0.14486144867E+04  0.14903570960E+04  0.12699999809E+01 0.  1.
       -4    1    3    3    0  502  0.25978659539E+03  0.23492478475E+03  0.89438021831E+03  0.96051877516E+03  0.12699999809E+01 0. -1.
</event>
<event>
 5   0  0.3320780E-05  0.2377127E+04  0.7818609E-02  0.8448117E-01
       -2   -1    0    0    0  501  0.00000000000E+00  0.00000000000E+00  0.11660654840E+04  0.11660654840E+04  0.25500000920E-02 0. -1.
        2   -1    0    0  501    0  0.00000000000E+00  0.00000000000E+00 -0.12114952029E+04  0.12114952029E+04  0.25500000920E-02 0.  1.
    10030    2    1    2    0    0  0.00000000000E+00  0.00000000000E+00 -0.45429718892E+02  0.23775606870E+04  0.23771266186E+04 0.  0.
        5    1    3    3  502    0  0.18006377712E+03 -0.37237866923E+03  0.10917470205E+04  0.11674855390E+04  0.46999998093E+01 0. -1.
       -5    1    3    3    0  502 -0.18006377712E+03  0.37237866923E+03 -0.11371767394E+04  0.12100751480E+04  0.46999998093E+01 0.  1.
</event>
<event>
 5   0  0.3347728E-05  0.2362324E+04  0.7818609E-02  0.8453745E-01
        2   -1    0    0  501    0  0.00000000000E+00  0.00000000000E+00  0.24347910430E+04  0.24347910430E+04  0.25500000920E-02 0. -1.
       -2   -1    0    0    0  501  0.00000000000E+00  0.00000000000E+00 -0.57300362297E+03  0.57300362298E+03  0.25500000920E-02 0.  1.
    10030    2    1    2    0    0  0.00000000000E+00  0.00000000000E+00  0.18617874200E+04  0.30077946660E+04  0.23623243544E+04 0.  0.
        3    1    3    3  502    0  0.87306238258E+02  0.97095565138E+03  0.81762411203E+02  0.97829563951E+03  0.10100000352E+00 0.  1.
       -3    1    3    3    0  502 -0.87306238258E+02 -0.97095565138E+03  0.17800250088E+04  0.20294990265E+04  0.10100000352E+00 0. -1.
</event>
<event>
 5   0  0.3347728E-05  0.2403995E+04  0.7818609E-02  0.8438009E-01
       -2   -1    0    0    0  501  0.00000000000E+00  0.00000000000E+00  0.32401433889E+04  0.32401433889E+04  0.25500000920E-02 0. -1.
        2   -1    0    0  501    0  0.00000000000E+00  0.00000000000E+00 -0.44590564671E+03  0.44590564672E+03  0.25500000920E-02 0.  1.
    10030    2    1    2    0    0  0.00000000000E+00  0.00000000000E+00  0.27942377422E+04  0.36860490356E+04  0.24039952024E+04 0.  0.
        3    1    3    3  502    0 -0.12279124360E+03  0.39260404830E+02 -0.43527511026E+03  0.45396420641E+03  0.10100000352E+00 0.  1.
       -3    1    3    3    0  502  0.12279124360E+03 -0.39260404830E+02  0.32295128524E+04  0.32320848292E+04  0.10100000352E+00 0. -1.
</event>
<event>
 5   0  0.1434943E-05  0.2325030E+04  0.7818609E-02  0.8468117E-01
       -1   -1    0    0    0  501  0.00000000000E+00  0.00000000000E+00  0.80849755141E+03  0.80849755143E+03  0.50400001928E-02 0. -1.
        1   -1    0    0  501    0  0.00000000000E+00  0.00000000000E+00 -0.16715463381E+04  0.16715463381E+04  0.50400001928E-02 0.  1.
    10030    2    1    2    0    0  0.00000000000E+00  0.00000000000E+00 -0.86304878673E+03  0.24800438896E+04  0.23250299968E+04 0.  0.
        5    1    3    3  502    0  0.50182829278E+03  0.17980324806E+03  0.67043490530E+03  0.85654299116E+03  0.46999998093E+01 0. -1.
       -5    1    3    3    0  502 -0.50182829278E+03 -0.17980324806E+03 -0.15334836920E+04  0.16235008984E+04  0.46999998093E+01 0.  1.
</event>
<event>
 5   0  0.3320780E-05  0.2410510E+04  0.7818609E-02  0.8435579E-01
        2   -1    0    0  501    0  0.00000000000E+00  0.00000000000E+00  0.18467351017E+04  0.18467351017E+04  0.25500000920E-02 0.  1.
       -2   -1    0    0    0  501  0.00000000000E+00  0.00000000000E+00 -0.78659903520E+03  0.78659903520E+03  0.25500000920E-02 0. -1.
    10030    2    1    2    0    0  0.00000000000E+00  0.00000000000E+00  0.10601360665E+04  0.26333341369E+04  0.24105103603E+04 0.  0.
        5    1    3    3  502    0  0.54672857312E+03  0.91781267513E+03 -0.79475133845E+02  0.10712752336E+04  0.46999998093E+01 0.  1.
       -5    1    3    3    0  502 -0.54672857312E+03 -0.91781267513E+03  0.11396112003E+04  0.15620589032E+04  0.46999998093E+01 0. -1.
</event>
<event>
 5   0  0.3347728E-05  0.2410123E+04  0.7818609E-02  0.8435723E-01
       -2   -1    0    0    0  501  0.00000000000E+00  0.00000000000E+00  0.12303030850E+04  0.12303030850E+04  0.25500000920E-02 0.  1.
        2   -1    0    0  501    0  0.00000000000E+00  0.00000000000E+00 -0.11803375695E+04  0.11803375695E+04  0.25500000920E-02 0. -1.
    10030    2    1    2    0    0  0.00000000000E+00  0.00000000000E+00  0.49965515562E+02  0.24106406545E+04  0.24101227795E+04 0.  0.
        3    1    3    3  502    0  0.73359180015E+03  0.17580762483E+03  0.96492278185E+03  0.12248025291E+04  0.10100000352E+00 0.  1.
       -3    1    3    3    0  502 -0.73359180015E+03 -0.17580762483E+03 -0.91495726629E+03  0.11858381253E+04  0.10100000352E+00 0. -1.
</event>
<event>
 5   0  0.1506985E-05  0.2393389E+04  0.7818609E-02  0.8441983E-01
        1   -1    0    0  501    0  0.00000000000E+00  0.00000000000E+00  0.64555730261E+03  0.64555730263E+03  0.50400001928E-02 0. -1.
       -1   -1    0    0    0  501  0.00000000000E+00  0.00000000000E+00 -0.22183582884E+04  0.22183582884E+04  0.50400001928E-02 0.  1.
    10030    2    1    2    0    0  0.00000000000E+00  0.00000000000E+00 -0.15728009858E+04  0.28639155910E+04  0.23933887214E+04 0.  0.
        3    1    3    3  502    0 -0.90943718935E+03  0.18881124835E+03 -0.16892955638E+04  0.19278083932E+04  0.10100000352E+00 0.  1.
       -3    1    3    3    0  502  0.90943718935E+03 -0.18881124835E+03  0.11649457803E+03  0.93610719780E+03  0.10100000352E+00 0. -1.
</event>
<event>
 5   0  0.1506985E-05  0.2377122E+04  0.7818609E-02  0.8448119E-01
        1   -1    0    0  501    0  0.00000000000E+00  0.00000000000E+00  0.16983989378E+04  0.16983989378E+04  0.50400001928E-02 0.  1.
       -1   -1    0    0    0  501  0.00000000000E+00  0.00000000000E+00 -0.83177000506E+03  0.83177000507E+03  0.50400001928E-02 0. -1.
    10030    2    1    2    0    0  0.00000000000E+00  0.00000000000E+00  0.86662893278E+03  0.25301689429E+04  0.23771220357E+04 0.  0.
        3    1    3    3  502    0  0.63375482520E+03  0.61433087901E+03 -0.41394376554E+03  0.97488309997E+03  0.10100000352E+00 0.  1.
       -3    1    3    3    0  502 -0.63375482520E+03 -0.61433087901E+03  0.12805726983E+04  0.15552858429E+04  0.10100000352E+00 0. -1.
</event>
<event>
 5   0  0.1393026E-05  0.2388385E+04  0.7818609E-02  0.8443865E-01
       -1   -1    0    0    0  501  0.00000000000E+00  0.00000000000E+00  0.80277640388E+03  0.80277640390E+03  0.50400001928E-02 0. -1.
        1   -1    0    0  501    0  0.00000000000E+00  0.00000000000E+00 -0.17764539546E+04  0.17764539546E+04  0.50400001928E-02 0.  1.
    10030    2    1    2    0    0  0.00000000000E+00  0.00000000000E+00 -0.97367755070E+03  0.25792303585E+04  0.23883846569E+04 0.  0.
        4    1    3    3  502    0 -0.11058507425E+02  0.11699800806E+04 -0.22874801902E+03  0.11921841085E+04  0.12699999809E+01 0. -1.
       -4    1    3    3    0  502  0.11058507425E+02 -0.11699800806E+04 -0.74492953168E+03  0.13870462500E+04  0.12699999809E+01 0.  1.
</event>
<event>
 5   0  0.3215208E-05  0.2332477E+04  0.7818609E-02  0.8465225E-01
       -2   -1    0    0    0  501  0.00000000000E+00  0.00000000000E+00  0.56371700476E+03  0.56371700477E+03  0.25500000920E-02 0. -1.
        2   -1    0    0  501    0  0.00000000000E+00  0.00000000000E+00 -0.24127573009E+04  0.24127573009E+04  0.25500000920E-02 0.  1.
    10030    2    1    2    0    0  0.00000000000E+00  0.00000000000E+00 -0.18490402962E+04  0.29764743057E+04  0.23324770686E+04 0.  0.
        1    1    3    3  502    0 -0.38707930016E+03  0.27853654127E+03  0.43361214823E+03  0.64454052204E+03  0.50400001928E-02 0. -1.
       -1    1    3    3    0  502  0.38707930016E+03 -0.27853654127E+03 -0.22826524444E+04  0.23319337837E+04  0.50400001928E-02 0.  1.
</event>
<event>
 5   0  0.3320780E-05  0.2509780E+04  0.7818609E-02  0.8399510E-01
        2   -1    0    0  501    0  0.00000000000E+00  0.00000000000E+00  0.25576083787E+04  0.25576083787E+04  0.25500000920E-02 0. -1.
       -2   -1    0    0    0  501  0.00000000000E+00  0.00000000000E+00 -0.61571145159E+03  0.61571145160E+03  0.25500000920E-02 0.  1.
    10030    2    1    2    0    0  0.00000000000E+00  0.00000000000E+00  0.19418969271E+04  0.31733198303E+04  0.25097798847E+04 0.  0.
        5    1    3    3  502    0  0.10401904325E+04  0.16782115275E+03  0.10915696790E+03  0.10592909934E+04  0.46999998093E+01 0.  1.
       -5    1    3    3    0  502 -0.10401904325E+04 -0.16782115275E+03  0.18327399592E+04  0.21140288369E+04  0.46999998093E+01 0. -1.
</event>
<event>
 5   0  0.3310037E-05  0.2389898E+04  0.7818609E-02  0.8443295E-01
       -2   -1    0    0    0  501  0.00000000000E+00  0.00000000000E+00  0.11391978375E+04  0.11391978375E+04  0.25500000920E-02 0. -1.
        2   -1    0    0  501    0  0.00000000000E+00  0.00000000000E+00 -0.12534281231E+04  0.12534281231E+04  0.25500000920E-02 0.  1.
    10030    2    1    2    0    0  0.00000000000E+00  0.00000000000E+00 -0.11423028558E+03  0.23926259606E+04  0.23898975771E+04 0.  0.
        2    1    3    3  502    0  0.71171469166E+03  0.92895244880E+03  0.18484683624E+03  0.11847610761E+04  0.25500000920E-02 0. -1.
       -2    1    3    3    0  502 -0.71171469166E+03 -0.92895244880E+03 -0.29907712182E+03  0.12078648845E+04  0.25500000920E-02 0.  1.
</event>
<event>
 5   0  0.3347728E-05  0.2411729E+04  0.7818609E-02  0.8435126E-01
        2   -1    0    0  501    0  0.00000000000E+00  0.00000000000E+00  0.18894190430E+04  0.18894190430E+04  0.25500000920E-02 0. -1.
       -2   -1    0    0    0  501  0.00000000000E+00  0.00000000000E+00 -0.76960635065E+03  0.76960635065E+03  0.25500000920E-02 0.  1.
    10030    2    1    2    0    0  0.00000000000E+00  0.00000000000E+00  0.11198126923E+04  0.26590253936E+04  0.24117287530E+04 0.  0.
        3    1    3    3  502    0 -0.10724928908E+04 -0.48154319477E+03  0.85571584616E+03  0.14540888793E+04  0.10100000352E+00 0. -1.
       -3    1    3    3    0  502  0.10724928908E+04  0.48154319477E+03  0.26409684618E+03  0.12049365144E+04  0.10100000352E+00 0.  1.
</event>
<event>
 5   0  0.1401596E-05  0.2349470E+04  0.7818609E-02  0.8458667E-01
       -1   -1    0    0    0  501  0.00000000000E+00  0.00000000000E+00  0.20073714920E+04  0.20073714920E+04  0.50400001928E-02 0. -1.
        1   -1    0    0  501    0  0.00000000000E+00  0.00000000000E+00 -0.68746704894E+03  0.68746704896E+03  0.50400001928E-02 0.  1.
    10030    2    1    2    0    0  0.00000000000E+00  0.00000000000E+00  0.13199044431E+04  0.26948385410E+04  0.23494695195E+04 0.  0.
        2    1    3    3  502    0 -0.11271556318E+04 -0.30095365747E+03  0.50206238487E+03  0.12700864382E+04  0.25500000920E-02 0.  1.
       -2    1    3    3    0  502  0.11271556318E+04  0.30095365747E+03  0.81784205821E+03  0.14247521028E+04  0.25500000920E-02 0. -1.
</event>
<event>
 5   0  0.1407158E-05  0.2379121E+04  0.7818609E-02  0.8447362E-01
       -1   -1    0    0    0  501  0.00000000000E+00  0.00000000000E+00  0.13465343088E+04  0.13465343088E+04  0.50400001928E-02 0. -1.
        1   -1    0    0  501    0  0.00000000000E+00  0.00000000000E+00 -0.10508857712E+04  0.10508857712E+04  0.50400001928E-02 0.  1.
    10030    2    1    2    0    0  0.00000000000E+00  0.00000000000E+00  0.29564853760E+03  0.23974200799E+04  0.23791206321E+04 0.  0.
        1    1    3    3  502    0  0.49425316109E+03 -0.10677085301E+04  0.32457595546E+03  0.12205069616E+04  0.50400001928E-02 0. -1.
       -1    1    3    3    0  502 -0.49425316109E+03  0.10677085301E+04 -0.28927417863E+02  0.11769131183E+04  0.50400001928E-02 0.  1.
</event>
<event>
 5   0  0.3347728E-05  0.2377896E+04  0.7818609E-02  0.8447825E-01
       -2   -1    0    0    0  501  0.00000000000E+00  0.00000000000E+00  0.10899706300E+04  0.10899706300E+04  0.25500000920E-02 0. -1.
        2   -1    0    0  501    0  0.00000000000E+00  0.00000000000E+00 -0.12969137200E+04  0.12969137200E+04  0.25500000920E-02 0.  1.
    10030    2    1    2    0    0  0.00000000000E+00  0.00000000000E+00 -0.20694309001E+03  0.23868843499E+04  0.23778964354E+04 0.  0.
        3    1    3    3  502    0 -0.48681955349E+03  0.73822823416E+02  0.98281796669E+03  0.10992607756E+04  0.10100000352E+00 0. -1.
       -3    1    3    3    0  502  0.48681955349E+03 -0.73822823416E+02 -0.11897610567E+04  0.12876235743E+04  0.10100000352E+00 0.  1.
</event>
<event>
 5   0  0.3320780E-05  0.2438831E+04  0.7818609E-02  0.8425107E-01
       -2   -1    0    0    0  501  0.00000000000E+00  0.00000000000E+00  0.18648826807E+04  0.18648826807E+04  0.25500000920E-02 0.  1.
        2   -1    0    0  501    0  0.00000000000E+00  0.00000000000E+00 -0.79735507244E+03  0.79735507244E+03  0.25500000920E-02 0. -1.
    10030    2    1    2    0    0  0.00000000000E+00  0.00000000000E+00  0.10675276083E+04  0.26622377532E+04  0.24388305927E+04 0.  0.
        5    1    3    3  502    0 -0.60287580797E+00 -0.11091258992E+04  0.10869292731E+04  0.15529320521E+04  0.46999998093E+01 0.  1.
       -5    1    3    3    0  502  0.60287580797E+00  0.11091258992E+04 -0.19401664875E+02  0.11093057010E+04  0.46999998093E+01 0. -1.
</event>
<event>
 5   0  0.1506985E-05  0.2472132E+04  0.7818609E-02  0.8412982E-01
        1   -1    0    0  501    0  0.00000000000E+00  0.00000000000E+00  0.16816988282E+04  0.16816988282E+04  0.50400001928E-02 0.  1.
       -1   -1    0    0    0  501  0.00000000000E+00  0.00000000000E+00 -0.90852100549E+03  0.90852100550E+03  0.50400001928E-02 0. -1.
    10030    2    1    2    0    0  0.00000000000E+00  0.00000000000E+00  0.77317782269E+03  0.25902198337E+04  0.24721316392E+04 0.  0.
        3    1    3    3  502    0 -0.77561780092E+03 -0.58747823844E+03 -0.41215452386E+03  0.10566858641E+04  0.10100000352E+00 0. -1.
       -3    1    3    3    0  502  0.77561780092E+03  0.58747823844E+03  0.11853323466E+04  0.15335339695E+04  0.10100000352E+00 0.  1.
</event>
<event>
 5   0  0.1401596E-05  0.2381110E+04  0.7818609E-02  0.8446610E-01
       -1   -1    0    0    0  501  0.00000000000E+00  0.00000000000E+00  0.14169898141E+04  0.14169898141E+04  0.50400001928E-02 0.  1.
        1   -1    0    0  501    0  0.00000000000E+00  0.00000000000E+00 -0.10003040369E+04  0.10003040370E+04  0.50400001928E-02 0. -1.
    10030    2    1    2    0    0  0.00000000000E+00  0.00000000000E+00  0.41668577713E+03  0.24172938510E+04  0.23811095156E+04 0.  0.
        2    1    3    3  502    0  0.96214249425E+03 -0.32424010245E+03  0.83953942090E+03  0.13174506680E+04  0.25500000920E-02 0.  1.
       -2    1    3    3    0  502 -0.96214249425E+03  0.32424010245E+03 -0.42285364377E+03  0.10998431831E+04  0.25500000920E-02 0. -1.
</event>
<event>
 5   0  0.1401596E-05  0.2403554E+04  0.7818609E-02  0.8438174E-01
       -1   -1    0    0    0  501  0.00000000000E+00  0.00000000000E+00  0.89506670904E+03  0.89506670905E+03  0.50400001928E-02 0. -1.
        1   -1    0    0  501    0  0.00000000000E+00  0.00000000000E+00 -0.16135874290E+04  0.16135874290E+04  0.50400001928E-02 0.  1.
    10030    2    1    2    0    0  0.00000000000E+00  0.00000000000E+00 -0.71852071998E+03  0.25086541381E+04  0.24035543596E+04 0.  0.
        2    1    3    3  502    0 -0.27738288933E+03  0.19384359106E+03 -0.15628325175E+04  0.15990503691E+04  0.25500000920E-02 0.  1.
       -2    1    3    3    0  502  0.27738288933E+03 -0.19384359106E+03  0.84431179754E+03  0.90960376899E+03  0.25500000920E-02 0. -1.
</event>
<event>
 5   0  0.3345974E-05  0.2389007E+04  0.7818609E-02  0.8443631E-01
        2   -1    0    0  501    0  0.00000000000E+00  0.00000000000E+00  0.15398941008E+04  0.15398941008E+04  0.25500000920E-02 0.  1.
       -2   -1    0    0    0  501  0.00000000000E+00  0.00000000000E+00 -0.92658210992E+03  0.92658210993E+03  0.25500000920E-02 0. -1.
    10030    2    1    2    0    0  0.00000000000E+00  0.00000000000E+00  0.61331199083E+03  0.24664762107E+04  0.23890067601E+04 0.  0.
        4    1    3    3  502    0 -0.45571117163E+03 -0.13437681490E+02 -0.83322223723E+03  0.94979690078E+03  0.12699999809E+01 0. -1.
       -4    1    3    3    0  502  0.45571117163E+03  0.13437681490E+02  0.14465342281E+04  0.15166793099E+04  0.12699999809E+01 0.  1.
</event>
<event>
 5   0  0.1434943E-05  0.2396803E+04  0.7818609E-02  0.8440701E-01
        1   -1    0    0  501    0  0.00000000000E+00  0.00000000000E+00  0.13206300632E+04  0.13206300632E+04  0.50400001928E-02 0. -1.
       -1   -1    0    0    0  501  0.00000000000E+00  0.00000000000E+00 -0.10874859064E+04  0.10874859064E+04  0.50400001928E-02 0.  1.
    10030    2    1    2    0    0  0.00000000000E+00  0.00000000000E+00  0.23314415682E+03  0.24081159696E+04  0.23968033556E+04 0.  0.
        5    1    3    3  502    0 -0.32663275888E+03  0.42973396261E+03  0.11915680017E+04  0.13081347906E+04  0.46999998093E+01 0. -1.
       -5    1    3    3    0  502  0.32663275888E+03 -0.42973396261E+03 -0.95842384484E+03  0.10999811790E+04  0.46999998093E+01 0.  1.
</event>
<event>
 5   0  0.3320780E-05  0.2365227E+04  0.7818609E-02  0.8452638E-01
        2   -1    0    0  501    0  0.00000000000E+00  0.00000000000E+00  0.94683057231E+03  0.94683057231E+03  0.25500000920E-02 0. -1.
       -2   -1    0    0    0  501  0.00000000000E+00  0.00000000000E+00 -0.14771117150E+04  0.14771117150E+04  0.25500000920E-02 0.  1.
    10030    2    1    2    0    0  0.00000000000E+00  0.00000000000E+00 -0.53028114268E+03  0.24239422873E+04  0.23652268648E+04 0.  0.
        5    1    3    3  502    0  0.29594567149E+03  0.10823328869E+04  0.11766136095E+03  0.11282263090E+04  0.46999998093E+01 0.  1.
       -5    1    3    3    0  502 -0.29594567149E+03 -0.10823328869E+04 -0.64794250363E+03  0.12957159783E+04  0.46999998093E+01 0. -1.
</event>
<event>
 5   0  0.1401596E-05  0.2416325E+04  0.7818609E-02  0.8433417E-01
       -1   -1    0    0    0  501  0.00000000000E+00  0.00000000000E+00  0.14130353553E+04  0.14130353553E+04  0.50400001928E-02 0.  1.
        1   -1    0    0  501    0  0.00000000000E+00  0.00000000000E+00 -0.10329937589E+04  0.10329937589E+04  0.50400001928E-02 0. -1.
    10030    2    1    2    0    0  0.00000000000E+00  0.00000000000E+00  0.38004159640E+03  0.24460291143E+04  0.24163250636E+04 0.  0.
        2    1    3    3  502    0  0.77750481425E+03 -0.84049705571E+03 -0.20034606289E+03  0.11623629303E+04  0.25500000920E-02 0. -1.
       -2    1    3    3    0  502 -0.77750481425E+03  0.84049705571E+03  0.58038765929E+03  0.12836661840E+04  0.25500000920E-02 0.  1.
</event>
<event>
 5   0  0.3215208E-05  0.2388466E+04  0.7818609E-02  0.8443834E-01
       -2   -1    0    0    0  501  0.00000000000E+00  0.00000000000E+00  0.11285304435E+04  0.11285304435E+04  0.25500000920E-02 0.  1.
        2   -1    0    0  501    0  0.00000000000E+00  0.00000000000E+00 -0.12637606375E+04  0.12637606375E+04  0.25500000920E-02 0. -1.
    10030    2    1    2    0    0  0.00000000000E+00  0.00000000000E+00 -0.13523019406E+03  0.23922910810E+04  0.23884659116E+04 0.  0.
        1    1    3    3  502    0  0.70419493110E+03  0.47274642127E+03  0.77445285222E+03  0.11485455586E+04  0.50400001928E-02 0.  1.
       -1    1    3    3    0  502 -0.70419493110E+03 -0.47274642127E+03 -0.90968304628E+03  0.12437455224E+04  0.50400001928E-02 0. -1.
</event>
<event>
 5   0  0.1434943E-05  0.2249304E+04  0.7818609E-02  0.8498182E-01
        1   -1    0    0  501    0  0.00000000000E+00  0.00000000000E+00  0.16199824442E+04  0.16199824442E+04  0.50400001928E-02 0. -1.
       -1   -1    0    0    0  501  0.00000000000E+00  0.00000000000E+00 -0.78077523613E+03  0.78077523614E+03  0.50400001928E-02 0.  1.
    10030    2    1    2    0    0  0.00000000000E+00  0.00000000000E+00  0.83920720806E+03  0.24007576803E+04  0.22493040483E+04 0.  0.
        5    1    3    3  502    0  0.19447965077E+03 -0.92166189531E+03  0.10754165427E+04  0.14296243612E+04  0.46999998093E+01 0. -1.
       -5    1    3    3    0  502 -0.19447965077E+03  0.92166189531E+03 -0.23620933461E+03  0.97113331916E+03  0.46999998093E+01 0.  1.
</event>
<event>
 5   0  0.1401596E-05  0.2280149E+04  0.7818609E-02  0.8485789E-01
       -1   -1    0    0    0  501  0.00000000000E+00  0.00000000000E+00  0.61335654571E+03  0.61335654573E+03  0.50400001928E-02 0. -1.
        1   -1    0    0  501    0  0.00000000000E+00  0.00000000000E+00 -0.21191100624E+04  0.21191100624E+04  0.50400001928E-02 0.  1.
    10030    2    1    2    0    0  0.00000000000E+00  0.00000000000E+00 -0.15057535166E+04  0.27324666081E+04  0.22801491424E+04 0.  0.
        2    1    3    3  502    0  0.31489987499E+03 -0.14072045304E+03  0.54933273423E+03  0.64863751825E+03  0.25500000920E-02 0. -1.
       -2    1    3    3    0  502 -0.31489987499E+03  0.14072045304E+03 -0.20550862509E+04  0.20838290899E+04  0.25500000920E-02 0.  1.
</event>
<event>
 5   0  0.3310037E-05  0.2402154E+04  0.7818609E-02  0.8438698E-01
       -2   -1    0    0    0  501  0.00000000000E+00  0.00000000000E+00  0.12429916487E+04  0.12429916487E+04  0.25500000920E-02 0. -1.
        2   -1    0    0  501    0  0.00000000000E+00  0.00000000000E+00 -0.11605757498E+04  0.11605757498E+04  0.25500000920E-02 0.  1.
    10030    2    1    2    0    0  0.00000000000E+00  0.00000000000E+00  0.82415898901E+02  0.24035673984E+04  0.24021540039E+04 0.  0.
        2    1    3    3  502    0 -0.55831541458E+03 -0.68200517826E+03 -0.77520031419E+03  0.11737898843E+04  0.25500000920E-02 0.  1.
       -2    1    3    3    0  502  0.55831541458E+03  0.68200517826E+03  0.85761621309E+03  0.12297775141E+04  0.25500000920E-02 0. -1.
</event>
<event>
 5   0  0.3310037E-05  0.2436755E+04  0.7818609E-02  0.8425870E-01
        2   -1    0    0  501    0  0.00000000000E+00  0.00000000000E+00  0.26696639829E+04  0.26696639829E+04  0.25500000920E-02 0.  1.
       -2   -1    0    0    0  501  0.00000000000E+00  0.00000000000E+00 -0.55604151755E+03  0.55604151755E+03  0.25500000920E-02 0. -1.
    10030    2    1    2    0    0  0.00000000000E+00  0.00000000000E+00  0.21136224654E+04  0.32257055005E+04  0.24367552297E+04 0.  0.
        2    1    3    3  502    0  0.55703104027E+03  0.62593715117E+03  0.22277036449E+04  0.23800723575E+04  0.25500000920E-02 0.  1.
       -2    1    3    3    0  502 -0.55703104027E+03 -0.62593715117E+03 -0.11408117957E+03  0.84563314302E+03  0.25500000920E-02 0. -1.
</event>
<event>
 5   0  0.3345974E-05  0.2407074E+04  0.7818609E-02  0.8436860E-01
        2   -1    0    0  501    0  0.00000000000E+00  0.00000000000E+00  0.13867242788E+04  0.13867242788E+04  0.25500000920E-02 0.  1.
       -2   -1    0    0    0  501  0.00000000000E+00  0.00000000000E+00 -0.10445489012E+04  0.10445489012E+04  0.25500000920E-02 0. -1.
    10030    2    1    2    0    0  0.00000000000E+00  0.00000000000E+00  0.34217537763E+03  0.24312731800E+04  0.24070740094E+04 0.  0.
        4    1    3    3  502    0  0.87315642612E+02 -0.11436628797E+04 -0.19714693675E+03  0.11638115532E+04  0.12699999809E+01 0. -1.
       -4    1    3    3    0  502 -0.87315642612E+02  0.11436628797E+04  0.53932231438E+03  0.12674616268E+04  0.12699999809E+01 0.  1.
</event>
<event>
 5   0  0.3310037E-05  0.2321218E+04  0.7818609E-02  0.8469602E-01
        2   -1    0    0  501    0  0.00000000000E+00  0.00000000000E+00  0.18790953386E+04  0.18790953386E+04  0.25500000920E-02 0.  1.
       -2   -1    0    0    0  501  0.00000000000E+00  0.00000000000E+00 -0.71684110334E+03  0.71684110334E+03  0.25500000920E-02 0. -1.
    10030    2    1    2    0    0  0.00000000000E+00  0.00000000000E+00  0.11622542353E+04  0.25959364420E+04  0.23212175907E+04 0.  0.
        2    1    3    3  502    0 -0.40154232635E+03 -0.12705474816E+03  0.17906194652E+04  0.18394828670E+04  0.25500000920E-02 0.  1.
       -2    1    3    3    0  502  0.40154232635E+03  0.12705474816E+03 -0.62836522991E+03  0.75645357495E+03  0.25500000920E-02 0. -1.
</event>
<event>
 5   0  0.3310037E-05  0.2397673E+04  0.7818609E-02  0.8440375E-01
       -2   -1    0    0    0  501  0.00000000000E+00  0.00000000000E+00  0.86202787168E+03  0.86202787169E+03  0.25500000920E-02 0.  1.
        2   -1    0    0  501    0  0.00000000000E+00  0.00000000000E+00 -0.16672421408E+04  0.16672421408E+04  0.25500000920E-02 0. -1.
    10030    2    1    2    0    0  0.00000000000E+00  0.00000000000E+00 -0.80521426910E+03  0.25292700125E+04  0.23976732006E+04 0.  0.
        2    1    3    3  502    0 -0.12041207654E+03  0.75252105467E+03 -0.13788304170E+04  0.15754238556E+04  0.25500000920E-02 0. -1.
       -2    1    3    3    0  502  0.12041207654E+03 -0.75252105467E+03  0.57361614789E+03  0.95384615690E+03  0.25500000920E-02 0.  1.
</event>
<event>
 5   0  0.3347728E-05  0.2456078E+04  0.7818609E-02  0.8418802E-01
       -2   -1    0    0    0  501  0.00000000000E+00  0.00000000000E+00  0.73084181244E+03  0.73084181244E+03  0.25500000920E-02 0. -1.
        2   -1    0    0  501    0  0.00000000000E+00  0.00000000000E+00 -0.20634833784E+04  0.20634833784E+04  0.25500000920E-02 0.  1.
    10030    2    1    2    0    0  0.00000000000E+00  0.00000000000E+00 -0.13326415660E+04  0.27943251908E+04  0.24560781194E+04 0.  0.
        3    1    3    3  502    0  0.62560516594E+03  0.25238869393E+03 -0.18337983715E+04  0.19539443067E+04  0.10100000352E+00 0.  1.
       -3    1    3    3    0  502 -0.62560516594E+03 -0.25238869393E+03  0.50115680549E+03  0.84038088411E+03  0.10100000352E+00 0. -1.
</event>
<event>
 5   0  0.1393026E-05  0.2386965E+04  0.7818609E-02  0.8444400E-01
        1   -1    0    0  501    0  0.00000000000E+00  0.00000000000E+00  0.10978072633E+04  0.10978072633E+04  0.50400001928E-02 0. -1.
       -1   -1    0    0    0  501  0.00000000000E+00  0.00000000000E+00 -0.12974963676E+04  0.12974963676E+04  0.50400001928E-02 0.  1.
    10030    2    1    2    0    0  0.00000000000E+00  0.00000000000E+00 -0.19968910431E+03  0.23953036309E+04  0.23869653843E+04 0.  0.
        4    1    3    3  502    0 -0.73139127433E+03 -0.94307297572E+03 -0.90897700415E+02  0.11969059439E+04  0.12699999809E+01 0. -1.
       -4    1    3    3    0  502  0.73139127433E+03  0.94307297572E+03 -0.10879140390E+03  0.11983976870E+04  0.12699999809E+01 0.  1.
</event>
<event>
 5   0  0.1407158E-05  0.2408574E+04  0.7818609E-02  0.8436300E-01
        1   -1    0    0  501    0  0.00000000000E+00  0.00000000000E+00  0.10556198354E+04  0.10556198354E+04  0.50400001928E-02 0.  1.
       -1   -1    0    0    0  501  0.00000000000E+00  0.00000000000E+00 -0.13738917306E+04  0.13738917306E+04  0.50400001928E-02 0. -1.
    10030    2    1    2    0    0  0.00000000000E+00  0.00000000000E+00 -0.31827189525E+03  0.24295115660E+04  0.24085741529E+04 0.  0.
        1    1    3    3  502    0  0.60004405058E+03 -0.79145368803E+03 -0.84612581650E+03  0.13047531185E+04  0.50400001928E-02 0. -1.
       -1    1    3    3    0  502 -0.60004405058E+03  0.79145368803E+03  0.52785392125E+03  0.11247584475E+04  0.50400001928E-02 0.  1.
</event>
<event>
 5   0  0.1506985E-05  0.2329824E+04  0.7818609E-02  0.8466254E-01
        1   -1    0    0  501    0  0.00000000000E+00  0.00000000000E+00  0.73712516262E+03  0.73712516264E+03  0.50400001928E-02 0.  1.
       -1   -1    0    0    0  501  0.00000000000E+00  0.00000000000E+00 -0.18409630669E+04  0.18409630669E+04  0.50400001928E-02 0. -1.
    10030    2    1    2    0    0  0.00000000000E+00  0.00000000000E+00 -0.11038379043E+04  0.25780882295E+04  0.23298241995E+04 0.  0.
        3    1    3    3  502    0 -0.15773609790E+03 -0.11175652271E+04 -0.87107538244E+03  0.14256945836E+04  0.10100000352E+00 0. -1.
       -3    1    3    3    0  502  0.15773609790E+03  0.11175652271E+04 -0.23276252182E+03  0.11523936460E+04  0.10100000352E+00 0.  1.
</event>
<event>
 5   0  0.1401596E-05  0.2416877E+04  0.7818609E-02  0.8433212E-01
       -1   -1    0    0    0  501  0.00000000000E+00  0.00000000000E+00  0.15860711029E+04  0.15860711029E+04  0.50400001928E-02 0. -1.
        1   -1    0    0  501    0  0.00000000000E+00  0.00000000000E+00 -0.92071725396E+03  0.92071725398E+03  0.50400001928E-02 0.  1.
    10030    2    1    2    0    0  0.00000000000E+00  0.00000000000E+00  0.66535384895E+03  0.25067883569E+04  0.24168765219E+04 0.  0.
        2    1    3    3  502    0  0.23731589107E+03  0.10180499110E+04  0.96151423573E+03  0.14203007002E+04  0.25500000920E-02 0. -1.
       -2    1    3    3    0  502 -0.23731589107E+03 -0.10180499110E+04 -0.29616038678E+03  0.10864876567E+04  0.25500000920E-02 0.  1.
</event>
<event>
 5   0  0.1407158E-05  0.2370243E+04  0.7818609E-02  0.8450729E-01
        1   -1    0    0  501    0  0.00000000000E+00  0.00000000000E+00  0.16089421744E+04  0.16089421744E+04  0.50400001928E-02 0.  1.
       -1   -1    0    0    0  501  0.00000000000E+00  0.00000000000E+00 -0.87294152463E+03  0.87294152465E+03  0.50400001928E-02 0. -1.
    10030    2    1    2    0    0  0.00000000000E+00  0.00000000000E+00  0.73600064981E+03  0.24818836991E+04  0.23702425486E+04 0.  0.
        1    1    3    3  502    0 -0.17737755390E+03 -0.97478617452E+03 -0.31289047461E+03  0.10390242210E+04  0.50400001928E-02 0. -1.
       -1    1    3    3    0  502  0.17737755390E+03  0.97478617452E+03  0.10488911244E+04  0.14428594781E+04  0.50400001928E-02 0.  1.
</event>
<event>
 5   0  0.3345974E-05  0.2451915E+04  0.7818609E-02  0.8420319E-01
       -2   -1    0    0    0  501  0.00000000000E+00  0.00000000000E+00  0.10594810107E+04  0.10594810107E+04  0.25500000920E-02 0. -1.
        2   -1    0    0  501    0  0.00000000000E+00  0.00000000000E+00 -0.14185924256E+04  0.14185924256E+04  0.25500000920E-02 0.  1.
    10030    2    1    2    0    0  0.00000000000E+00  0.00000000000E+00 -0.35911141491E+03  0.24780734364E+04  0.24519149552E+04 0.  0.
        4    1    3    3  502    0  0.53466356876E+03  0.26487997023E+03  0.90282439433E+03  0.10821829930E+04  0.12699999809E+01 0. -1.
       -4    1    3    3    0  502 -0.53466356876E+03 -0.26487997023E+03 -0.12619358092E+04  0.13958904434E+04  0.12699999809E+01 0.  1.
</event>
<event>
 5   0  0.3345974E-05  0.2418551E+04  0.7818609E-02  0.8432591E-01
       -2   -1    0    0    0  501  0.00000000000E+00  0.00000000000E+00  0.10290028757E+04  0.10290028757E+04  0.25500000920E-02 0.  1.
        2   -1    0    0  501    0  0.00000000000E+00  0.00000000000E+00 -0.14211300703E+04  0.14211300703E+04  0.25500000920E-02 0. -1.
    10030    2    1    2    0    0  0.00000000000E+00  0.00000000000E+00 -0.39212719467E+03  0.24501329460E+04  0.24185507471E+04 0.  0.
        4    1    3    3  502    0  0.14964572447E+03  0.53340755006E+03 -0.12850083917E+04  0.13993447170E+04  0.12699999809E+01 0. -1.
       -4    1    3    3    0  502 -0.14964572447E+03 -0.53340755006E+03  0.89288119704E+03  0.10507882290E+04  0.12699999809E+01 0.  1.
</event>
<event>
 5   0  0.3310037E-05  0.2476770E+04  0.7818609E-02  0.8411308E-01
       -2   -1    0    0    0  501  0.00000000000E+00  0.00000000000E+00  0.70248722797E+03  0.70248722798E+03  0.25500000920E-02 0. -1.
        2   -1    0    0  501    0  0.00000000000E+00  0.00000000000E+00 -0.21830973252E+04  0.21830973252E+04  0.25500000920E-02 0.  1.
    10030    2    1    2    0    0  0.00000000000E+00  0.00000000000E+00 -0.14806100973E+04  0.28855845532E+04  0.24767704685E+04 0.  0.
        2    1    3    3  502    0  0.11448878571E+04 -0.20409346147E+03 -0.24440066393E+03  0.11883408732E+04  0.25500000920E-02 0. -1.
       -2    1    3    3    0  502 -0.11448878571E+04  0.20409346147E+03 -0.12362094333E+04  0.16972436800E+04  0.25500000920E-02 0.  1.
</event>
<event>
 5   0  0.1147362E-05  0.2356133E+04  0.7818609E-02  0.8456112E-01
       -3   -1    0    0    0  501  0.00000000000E+00  0.00000000000E+00  0.10067131084E+04  0.10067131135E+04  0.10100000352E+00 0. -1.
        3   -1    0    0  501    0  0.00000000000E+00  0.00000000000E+00 -0.13785864028E+04  0.13785864065E+04  0.10100000352E+00 0.  1.
    10030    2    1    2    0    0  0.00000000000E+00  0.00000000000E+00 -0.37187329439E+03  0.23852995200E+04  0.23561332842E+04 0.  0.
        4    1    3    3  502    0  0.71604897015E+03 -0.87673541658E+03 -0.51623955320E+03  0.12441446891E+04  0.12699999809E+01 0.  1.
       -4    1    3    3    0  502 -0.71604897015E+03  0.87673541658E+03  0.14436625881E+03  0.11411548308E+04  0.12699999809E+01 0. -1.
</event>
<event>
 5   0  0.1393026E-05  0.2444980E+04  0.7818609E-02  0.8422853E-01
        1   -1    0    0  501    0  0.00000000000E+00  0.00000000000E+00  0.12164129978E+04  0.12164129978E+04  0.50400001928E-02 0. -1.
       -1   -1    0    0    0  501  0.00000000000E+00  0.00000000000E+00 -0.12285971685E+04  0.12285971685E+04  0.50400001928E-02 0.  1.
    10030    2    1    2    0    0  0.00000000000E+00  0.00000000000E+00 -0.12184170700E+02  0.24450101663E+04  0.24449798075E+04 0.  0.
        4    1    3    3  502    0 -0.33070042619E+03 -0.11364660516E+04  0.29979092666E+03  0.12209807824E+04  0.12699999809E+01 0. -1.
       -4    1    3    3    0  502  0.33070042619E+03  0.11364660516E+04 -0.31197509736E+03  0.12240293839E+04  0.12699999809E+01 0.  1.
</event>
<event>
 5   0  0.1506985E-05  0.2405171E+04  0.7818609E-02  0.8437570E-01
        1   -1    0    0  501    0  0.00000000000E+00  0.00000000000E+00  0.13199504833E+04  0.13199504833E+04  0.50400001928E-02 0. -1.
       -1   -1    0    0    0  501  0.00000000000E+00  0.00000000000E+00 -0.10956557483E+04  0.10956557483E+04  0.50400001928E-02 0.  1.
    10030    2    1    2    0    0  0.00000000000E+00  0.00000000000E+00  0.22429473504E+03  0.24156062316E+04  0.24051705424E+04 0.  0.
        3    1    3    3  502    0 -0.87528899014E+03  0.77022727554E+03  0.40809597187E+03  0.12352826416E+04  0.10100000352E+00 0. -1.
       -3    1    3    3    0  502  0.87528899014E+03 -0.77022727554E+03 -0.18380123683E+03  0.11803235900E+04  0.10100000352E+00 0.  1.
</event>
<event>
 5   0  0.1393026E-05  0.2411085E+04  0.7818609E-02  0.8435365E-01
       -1   -1    0    0    0  501  0.00000000000E+00  0.00000000000E+00  0.82401754798E+03  0.82401754800E+03  0.50400001928E-02 0. -1.
        1   -1    0    0  501    0  0.00000000000E+00  0.00000000000E+00 -0.17637159869E+04  0.17637159869E+04  0.50400001928E-02 0.  1.
    10030    2    1    2    0    0  0.00000000000E+00  0.00000000000E+00 -0.93969843896E+03  0.25877335349E+04  0.24110851689E+04 0.  0.
        4    1    3    3  502    0 -0.69098052769E+03 -0.36682503691E+03  0.51458507488E+03  0.93638352695E+03  0.12699999809E+01 0. -1.
       -4    1    3    3    0  502  0.69098052769E+03  0.36682503691E+03 -0.14542835138E+04  0.16513500080E+04  0.12699999809E+01 0.  1.
</event>
<event>
 5   0  0.1393026E-05  0.2430895E+04  0.7818609E-02  0.8428027E-01
       -1   -1    0    0    0  501  0.00000000000E+00  0.00000000000E+00  0.13639511062E+04  0.13639511063E+04  0.50400001928E-02 0. -1.
        1   -1    0    0  501    0  0.00000000000E+00  0.00000000000E+00 -0.10831129233E+04  0.10831129233E+04  0.50400001928E-02 0.  1.
    10030    2    1    2    0    0  0.00000000000E+00  0.00000000000E+00  0.28083818293E+03  0.24470640296E+04  0.24308953659E+04 0.  0.
        4    1    3    3  502    0 -0.11633241995E+04 -0.34586182281E+03  0.20694849020E+03  0.12311672852E+04  0.12699999809E+01 0. -1.
       -4    1    3    3    0  502  0.11633241995E+04  0.34586182281E+03  0.73889692727E+02  0.12158967444E+04  0.12699999809E+01 0.  1.
</event>
<event>
 5   0  0.3215208E-05  0.2507727E+04  0.7818609E-02  0.8400238E-01
       -2   -1    0    0    0  501  0.00000000000E+00  0.00000000000E+00  0.12456964203E+04  0.12456964203E+04  0.25500000920E-02 0. -1.
        2   -1    0    0  501    0  0.00000000000E+00  0.00000000000E+00 -0.12620838721E+04  0.12620838721E+04  0.25500000920E-02 0.  1.
    10030    2    1    2    0    0  0.00000000000E+00  0.00000000000E+00 -0.16387451798E+02  0.25077802924E+04  0.25077267487E+04 0.  0.
        1    1    3    3  502    0  0.37075568622E+03  0.27778684946E+02 -0.12056924363E+04  0.12617153741E+04  0.50400001928E-02 0.  1.
       -1    1    3    3    0  502 -0.37075568622E+03 -0.27778684946E+02  0.11893049845E+04  0.12460649182E+04  0.50400001928E-02 0. -1.
</event>
<event>
 5   0  0.3310037E-05  0.2445700E+04  0.7818609E-02  0.8422590E-01
       -2   -1    0    0    0  501  0.00000000000E+00  0.00000000000E+00  0.85346455155E+03  0.85346455155E+03  0.25500000920E-02 0.  1.
        2   -1    0    0  501    0  0.00000000000E+00  0.00000000000E+00 -0.17521082777E+04  0.17521082777E+04  0.25500000920E-02 0. -1.
    10030    2    1    2    0    0  0.00000000000E+00  0.00000000000E+00 -0.89864372618E+03  0.26055728293E+04  0.24457001497E+04 0.  0.
        2    1    3    3  502    0 -0.11063139012E+04  0.26269671289E+02 -0.10036636686E+04  0.14939750009E+04  0.25500000920E-02 0. -1.
       -2    1    3    3    0  502  0.11063139012E+04 -0.26269671289E+02  0.10501994247E+03  0.11115978283E+04  0.25500000920E-02 0.  1.
</event>
<event>
 5   0  0.3347728E-05  0.2342374E+04  0.7818609E-02  0.8461398E-01
       -2   -1    0    0    0  501  0.00000000000E+00  0.00000000000E+00  0.72472222122E+03  0.72472222122E+03  0.25500000920E-02 0. -1.
        2   -1    0    0  501    0  0.00000000000E+00  0.00000000000E+00 -0.18926968877E+04  0.18926968877E+04  0.25500000920E-02 0.  1.
    10030    2    1    2    0    0  0.00000000000E+00  0.00000000000E+00 -0.11679746665E+04  0.26174191090E+04  0.23423744300E+04 0.  0.
        3    1    3    3  502    0  0.10400536308E+04  0.91158446458E+02  0.90445540042E+01  0.10440800886E+04  0.10100000352E+00 0. -1.
       -3    1    3    3    0  502 -0.10400536308E+04 -0.91158446458E+02 -0.11770192205E+04  0.15733390204E+04  0.10100000352E+00 0.  1.
</event>
<event>
 5   0  0.3320780E-05  0.2396786E+04  0.7818609E-02  0.8440708E-01
        2   -1    0    0  501    0  0.00000000000E+00  0.00000000000E+00  0.79781762465E+03  0.79781762466E+03  0.25500000920E-02 0.  1.
       -2   -1    0    0    0  501  0.00000000000E+00  0.00000000000E+00 -0.18000932092E+04  0.18000932092E+04  0.25500000920E-02 0. -1.
    10030    2    1    2    0    0  0.00000000000E+00  0.00000000000E+00 -0.10022755845E+04  0.25979108338E+04  0.23967862552E+04 0.  0.
        5    1    3    3  502    0 -0.82223230611E+03 -0.28927713722E+03  0.39029637845E+03  0.95503957005E+03  0.46999998093E+01 0.  1.
       -5    1    3    3    0  502  0.82223230611E+03  0.28927713722E+03 -0.13925719630E+04  0.16428712638E+04  0.46999998093E+01 0. -1.
</event>
<event>
 5   0  0.1434943E-05  0.2403077E+04  0.7818609E-02  0.8438352E-01
        1   -1    0    0  501    0  0.00000000000E+00  0.00000000000E+00  0.22084848931E+04  0.22084848931E+04  0.50400001928E-02 0. -1.
       -1   -1    0    0    0  501  0.00000000000E+00  0.00000000000E+00 -0.65370388508E+03  0.65370388510E+03  0.50400001928E-02 0.  1.
    10030    2    1    2    0    0  0.00000000000E+00  0.00000000000E+00  0.15547810080E+04  0.28621887782E+04  0.24030773227E+04 0.  0.
        5    1    3    3  502    0 -0.67495918146E+03 -0.20391328633E+03 -0.38137620538E+03  0.80163609263E+03  0.46999998093E+01 0.  1.
       -5    1    3    3    0  502  0.67495918146E+03  0.20391328633E+03  0.19361572134E+04  0.20605526855E+04  0.46999998093E+01 0. -1.
</event>
<event>
 5   0  0.1401596E-05  0.2154335E+04  0.7818609E-02  0.8537679E-01
        1   -1    0    0  501    0  0.00000000000E+00  0.00000000000E+00  0.11234018158E+04  0.11234018158E+04  0.50400001928E-02 0.  1.
       -1   -1    0    0    0  501  0.00000000000E+00  0.00000000000E+00 -0.10328356279E+04  0.10328356279E+04  0.50400001928E-02 0. -1.
    10030    2    1    2    0    0  0.00000000000E+00  0.00000000000E+00  0.90566187962E+02  0.21562374437E+04  0.21543346257E+04 0.  0.
        2    1    3    3  502    0  0.77673143739E+03  0.51042842758E+03 -0.49966131447E+03  0.10552299914E+04  0.25500000920E-02 0. -1.
       -2    1    3    3    0  502 -0.77673143739E+03 -0.51042842758E+03  0.59022750243E+03  0.11010074524E+04  0.25500000920E-02 0.  1.
</event>
<event>
 5   0  0.1434943E-05  0.2396607E+04  0.7818609E-02  0.8440775E-01
        1   -1    0    0  501    0  0.00000000000E+00  0.00000000000E+00  0.21984021122E+04  0.21984021122E+04  0.50400001928E-02 0. -1.
       -1   -1    0    0    0  501  0.00000000000E+00  0.00000000000E+00 -0.65317041138E+03  0.65317041140E+03  0.50400001928E-02 0.  1.
    10030    2    1    2    0    0  0.00000000000E+00  0.00000000000E+00  0.15452317008E+04  0.28515725236E+04  0.23966069449E+04 0.  0.
        5    1    3    3  502    0 -0.50983241004E+03  0.25363703312E+03 -0.48188601168E+03  0.74598729825E+03  0.46999998093E+01 0.  1.
       -5    1    3    3    0  502  0.50983241004E+03 -0.25363703312E+03  0.20271177125E+04  0.21055852254E+04  0.46999998093E+01 0. -1.
</event>
<event>
 5   0  0.3310037E-05  0.2504678E+04  0.7818609E-02  0.8401321E-01
       -2   -1    0    0    0  501  0.00000000000E+00  0.00000000000E+00  0.10297932978E+04  0.10297932978E+04  0.25500000920E-02 0.  1.
        2   -1    0    0  501    0  0.00000000000E+00  0.00000000000E+00 -0.15229789108E+04  0.15229789108E+04  0.25500000920E-02 0. -1.
    10030    2    1    2    0    0  0.00000000000E+00  0.00000000000E+00 -0.49318561294E+03  0.25527722086E+04  0.25046784026E+04 0.  0.
        2    1    3    3  502    0 -0.59500445595E+03  0.12062953027E+03  0.86978038043E+03  0.10607071680E+04  0.25500000920E-02 0.  1.
       -2    1    3    3    0  502  0.59500445595E+03 -0.12062953027E+03 -0.13629659934E+04  0.14920650406E+04  0.25500000920E-02 0. -1.
</event>
<event>
 5   0  0.3215208E-05  0.2037929E+04  0.7818609E-02  0.8589090E-01
       -2   -1    0    0    0  501  0.00000000000E+00  0.00000000000E+00  0.51622307347E+03  0.51622307347E+03  0.25500000920E-02 0.  1.
        2   -1    0    0  501    0  0.00000000000E+00  0.00000000000E+00 -0.20113174781E+04  0.20113174781E+04  0.25500000920E-02 0. -1.
    10030    2    1    2    0    0  0.00000000000E+00  0.00000000000E+00 -0.14950944046E+04  0.25275405516E+04  0.20379288410E+04 0.  0.
        1    1    3    3  502    0 -0.85003205643E+03 -0.76854267655E+02 -0.14378967398E+04  0.16721268222E+04  0.50400001928E-02 0. -1.
       -1    1    3    3    0  502  0.85003205643E+03  0.76854267655E+02 -0.57197664859E+02  0.85541372932E+03  0.50400001928E-02 0.  1.
</event>
<event>
 5   0  0.3215208E-05  0.2377054E+04  0.7818609E-02  0.8448144E-01
       -2   -1    0    0    0  501  0.00000000000E+00  0.00000000000E+00  0.10093468976E+04  0.10093468976E+04  0.25500000920E-02 0. -1.
        2   -1    0    0  501    0  0.00000000000E+00  0.00000000000E+00 -0.13995158159E+04  0.13995158159E+04  0.25500000920E-02 0.  1.
    10030    2    1    2    0    0  0.00000000000E+00  0.00000000000E+00 -0.39016891830E+03  0.24088627134E+04  0.23770544351E+04 0.  0.
        1    1    3    3  502    0 -0.10911959545E+04  0.12919857767E+03  0.26396283742E+03  0.11300784323E+04  0.50400001928E-02 0. -1.
       -1    1    3    3    0  502  0.10911959545E+04 -0.12919857767E+03 -0.65413175571E+03  0.12787842811E+04  0.50400001928E-02 0.  1.
</event>
<event>
 5   0  0.3347728E-05  0.2387176E+04  0.7818609E-02  0.8444320E-01
        2   -1    0    0  501    0  0.00000000000E+00  0.00000000000E+00  0.79974981334E+03  0.79974981334E+03  0.25500000920E-02 0.  1.
       -2   -1    0    0    0  501  0.00000000000E+00  0.00000000000E+00 -0.17813723060E+04  0.17813723060E+04  0.25500000920E-02 0. -1.
    10030    2    1    2    0    0  0.00000000000E+00  0.00000000000E+00 -0.98162249267E+03  0.25811221194E+04  0.23871758789E+04 0.  0.
        3    1    3    3  502    0  0.19829390257E+03 -0.10077610784E+04 -0.11482840804E+04  0.15406035189E+04  0.10100000352E+00 0.  1.
       -3    1    3    3    0  502 -0.19829390257E+03  0.10077610784E+04  0.16666158777E+03  0.10405186005E+04  0.10100000352E+00 0. -1.
</event>
<event>
 5   0  0.1393026E-05  0.2364927E+04  0.7818609E-02  0.8452752E-01
        1   -1    0    0  501    0  0.00000000000E+00  0.00000000000E+00  0.11416200001E+04  0.11416200001E+04  0.50400001928E-02 0.  1.
       -1   -1    0    0    0  501  0.00000000000E+00  0.00000000000E+00 -0.12247678915E+04  0.12247678915E+04  0.50400001928E-02 0. -1.
    10030    2    1    2    0    0  0.00000000000E+00  0.00000000000E+00 -0.83147891454E+02  0.23663878916E+04  0.23649266546E+04 0.  0.
        4    1    3    3  502    0 -0.91650712648E+03  0.48472227545E+03 -0.61049971008E+03  0.12031843193E+04  0.12699999809E+01 0. -1.
       -4    1    3    3    0  502  0.91650712648E+03 -0.48472227545E+03  0.52735181863E+03  0.11632035723E+04  0.12699999809E+01 0.  1.
</event>
<event>
 5   0  0.3347728E-05  0.2402999E+04  0.7818609E-02  0.8438382E-01
       -2   -1    0    0    0  501  0.00000000000E+00  0.00000000000E+00  0.66549064176E+03  0.66549064176E+03  0.25500000920E-02 0. -1.
        2   -1    0    0  501    0  0.00000000000E+00  0.00000000000E+00 -0.21692273418E+04  0.21692273418E+04  0.25500000920E-02 0.  1.
    10030    2    1    2    0    0  0.00000000000E+00  0.00000000000E+00 -0.15037367000E+04  0.28347179835E+04  0.24029985400E+04 0.  0.
        3    1    3    3  502    0 -0.83039301066E+03  0.68353492143E+03 -0.12008659143E+03  0.10822168639E+04  0.10100000352E+00 0. -1.
       -3    1    3    3    0  502  0.83039301066E+03 -0.68353492143E+03 -0.13836501086E+04  0.17525011196E+04  0.10100000352E+00 0.  1.
</event>
<event>
 5   0  0.1401596E-05  0.2377504E+04  0.7818609E-02  0.8447974E-01
        1   -1    0    0  501    0  0.00000000000E+00  0.00000000000E+00  0.20330025212E+04  0.20330025212E+04  0.50400001928E-02 0.  1.
       -1   -1    0    0    0  501  0.00000000000E+00  0.00000000000E+00 -0.69509575958E+03  0.69509575960E+03  0.50400001928E-02 0. -1.
    10030    2    1    2    0    0  0.00000000000E+00  0.00000000000E+00  0.13379067616E+04  0.27280982808E+04  0.23775040961E+04 0.  0.
        2    1    3    3  502    0 -0.44671746289E+03  0.48108369941E+03 -0.46821292089E+03  0.80636304279E+03  0.25500000920E-02 0. -1.
       -2    1    3    3    0  502  0.44671746289E+03 -0.48108369941E+03  0.18061196825E+04  0.19217352380E+04  0.25500000920E-02 0.  1.
</event>
<event>
 5   0  0.3320780E-05  0.2403813E+04  0.7818609E-02  0.8438078E-01
       -2   -1    0    0    0  501  0.00000000000E+00  0.00000000000E+00  0.55565880700E+03  0.55565880701E+03  0.25500000920E-02 0.  1.
        2   -1    0    0  501    0  0.00000000000E+00  0.00000000000E+00 -0.25997585240E+04  0.25997585240E+04  0.25500000920E-02 0. -1.
    10030    2    1    2    0    0  0.00000000000E+00  0.00000000000E+00 -0.20440997170E+04  0.31554173310E+04  0.24038125717E+04 0.  0.
        5    1    3    3  502    0  0.81085156280E+03  0.48459021865E+03 -0.46558216410E+02  0.94577888242E+03  0.46999998093E+01 0.  1.
       -5    1    3    3    0  502 -0.81085156280E+03 -0.48459021865E+03 -0.19975415006E+04  0.22096384486E+04  0.46999998093E+01 0. -1.
</event>
<event>
 5   0  0.3347728E-05  0.2655698E+04  0.7818609E-02  0.8349524E-01
       -2   -1    0    0    0  501  0.00000000000E+00  0.00000000000E+00  0.91801045669E+03  0.91801045669E+03  0.25500000920E-02 0. -1.
        2   -1    0    0  501    0  0.00000000000E+00  0.00000000000E+00 -0.19206565604E+04  0.19206565604E+04  0.25500000920E-02 0.  1.
    10030    2    1    2    0    0  0.00000000000E+00  0.00000000000E+00 -0.10026461037E+04  0.28386670171E+04  0.26556978790E+04 0.  0.
        3    1    3    3  502    0 -0.36440059058E+03  0.12767905951E+04 -0.51646905270E+03  0.14246832303E+04  0.10100000352E+00 0.  1.
       -3    1    3    3    0  502  0.36440059058E+03 -0.12767905951E+04 -0.48617705100E+03  0.14139837868E+04  0.10100000352E+00 0. -1.
</event>
<event>
 5   0  0.1401596E-05  0.2445349E+04  0.7818609E-02  0.8422718E-01
        1   -1    0    0  501    0  0.00000000000E+00  0.00000000000E+00  0.13544820485E+04  0.13544820485E+04  0.50400001928E-02 0. -1.
       -1   -1    0    0    0  501  0.00000000000E+00  0.00000000000E+00 -0.11036930071E+04  0.11036930071E+04  0.50400001928E-02 0.  1.
    10030    2    1    2    0    0  0.00000000000E+00  0.00000000000E+00  0.25078904138E+03  0.24581750555E+04  0.24453485356E+04 0.  0.
        2    1    3    3  502    0  0.64451692966E+03  0.74814605808E+03 -0.59936415411E+03  0.11551458722E+04  0.25500000920E-02 0.  1.
       -2    1    3    3    0  502 -0.64451692966E+03 -0.74814605808E+03  0.85015319549E+03  0.13030291833E+04  0.25500000920E-02 0. -1.
</event>
<event>
 5   0  0.1401596E-05  0.2352750E+04  0.7818609E-02  0.8457408E-01
        1   -1    0    0  501    0  0.00000000000E+00  0.00000000000E+00  0.18043157714E+04  0.18043157714E+04  0.50400001928E-02 0. -1.
       -1   -1    0    0    0  501  0.00000000000E+00  0.00000000000E+00 -0.76697082462E+03  0.76697082463E+03  0.50400001928E-02 0.  1.
    10030    2    1    2    0    0  0.00000000000E+00  0.00000000000E+00  0.10373449468E+04  0.25712865961E+04  0.23527495023E+04 0.  0.
        2    1    3    3  502    0  0.73264002889E+03  0.12115246441E+03  0.15157882443E+04  0.16879138998E+04  0.25500000920E-02 0. -1.
       -2    1    3    3    0  502 -0.73264002889E+03 -0.12115246441E+03 -0.47844329750E+03  0.88337269626E+03  0.25500000920E-02 0.  1.
</event>
<event>
 5   0  0.1434943E-05  0.2403935E+04  0.7818609E-02  0.8438032E-01
       -1   -1    0    0    0  501  0.00000000000E+00  0.00000000000E+00  0.81343233309E+03  0.81343233311E+03  0.50400001928E-02 0.  1.
        1   -1    0    0  501    0  0.00000000000E+00  0.00000000000E+00 -0.17760867772E+04  0.17760867772E+04  0.50400001928E-02 0. -1.
    10030    2    1    2    0    0  0.00000000000E+00  0.00000000000E+00 -0.96265444406E+03  0.25895191103E+04  0.24039354492E+04 0.  0.
        5    1    3    3  502    0  0.55750057544E+03  0.10421190096E+04 -0.24560643927E+03  0.12071302891E+04  0.46999998093E+01 0.  1.
       -5    1    3    3    0  502 -0.55750057544E+03 -0.10421190096E+04 -0.71704800479E+03  0.13823888212E+04  0.46999998093E+01 0. -1.
</event>
<event>
 5   0  0.3310037E-05  0.2388391E+04  0.7818609E-02  0.8443863E-01
        2   -1    0    0  501    0  0.00000000000E+00  0.00000000000E+00  0.14131208504E+04  0.14131208504E+04  0.25500000920E-02 0. -1.
       -2   -1    0    0    0  501  0.00000000000E+00  0.00000000000E+00 -0.10091867076E+04  0.10091867076E+04  0.25500000920E-02 0.  1.
    10030    2    1    2    0    0  0.00000000000E+00  0.00000000000E+00  0.40393414279E+03  0.24223075581E+04  0.23883909048E+04 0.  0.
        2    1    3    3  502    0 -0.79727551892E+03  0.86648236792E+03 -0.16354149560E-01  0.11774718456E+04  0.25500000920E-02 0.  1.
       -2    1    3    3    0  502  0.79727551892E+03 -0.86648236792E+03  0.40395049693E+03  0.12448357124E+04  0.25500000920E-02 0. -1.
</event>
<event>
 5   0  0.3310037E-05  0.2433236E+04  0.7818609E-02  0.8427164E-01
       -2   -1    0    0    0  501  0.00000000000E+00  0.00000000000E+00  0.73590554627E+03  0.73590554628E+03  0.25500000920E-02 0. -1.
        2   -1    0    0  501    0  0.00000000000E+00  0.00000000000E+00 -0.20113448146E+04  0.20113448146E+04  0.25500000920E-02 0.  1.
    10030    2    1    2    0    0  0.00000000000E+00  0.00000000000E+00 -0.12754392683E+04  0.27472503609E+04  0.24332363671E+04 0.  0.
        2    1    3    3  502    0  0.87490429630E+03  0.83424322761E+03 -0.79228233203E+03  0.14453825044E+04  0.25500000920E-02 0.  1.
       -2    1    3    3    0  502 -0.87490429630E+03 -0.83424322761E+03 -0.48315693629E+03  0.13018678564E+04  0.25500000920E-02 0. -1.
</event>
<event>
 5   0  0.1506985E-05  0.2401311E+04  0.7818609E-02  0.8439013E-01
       -1   -1    0    0    0  501  0.00000000000E+00  0.00000000000E+00  0.12264964777E+04  0.12264964778E+04  0.50400001928E-02 0.  1.
        1   -1    0    0  501    0  0.00000000000E+00  0.00000000000E+00 -0.11753587744E+04  0.11753587744E+04  0.50400001928E-02 0. -1.
    10030    2    1    2    0    0  0.00000000000E+00  0.00000000000E+00  0.51137703355E+02  0.24018552522E+04  0.24013108061E+04 0.  0.
        3    1    3    3  502    0 -0.80867674131E+03  0.54167757860E+03 -0.67758464505E+03  0.11859568426E+04  0.10100000352E+00 0. -1.
       -3    1    3    3    0  502  0.80867674131E+03 -0.54167757860E+03  0.72872234840E+03  0.12158984096E+04  0.10100000352E+00 0.  1.
</event>
<event>
 5   0  0.3345974E-05  0.2397103E+04  0.7818609E-02  0.8440589E-01
       -2   -1    0    0    0  501  0.00000000000E+00  0.00000000000E+00  0.16878916281E+04  0.16878916281E+04  0.25500000920E-02 0.  1.
        2   -1    0    0  501    0  0.00000000000E+00  0.00000000000E+00 -0.85107689896E+03  0.85107689896E+03  0.25500000920E-02 0. -1.
    10030    2    1    2    0    0  0.00000000000E+00  0.00000000000E+00  0.83681472918E+03  0.25389685271E+04  0.23971028953E+04 0.  0.
        4    1    3    3  502    0 -0.29009590414E+03  0.10725226427E+04 -0.57710617436E+02  0.11125612706E+04  0.12699999809E+01 0. -1.
       -4    1    3    3    0  502  0.29009590414E+03 -0.10725226427E+04  0.89452534662E+03  0.14264072565E+04  0.12699999809E+01 0.  1.
</event>
<event>
 5   0  0.1407158E-05  0.2411872E+04  0.7818609E-02  0.8435072E-01
       -1   -1    0    0    0  501  0.00000000000E+00  0.00000000000E+00  0.65732898668E+03  0.65732898670E+03  0.50400001928E-02 0.  1.
        1   -1    0    0  501    0  0.00000000000E+00  0.00000000000E+00 -0.22124106132E+04  0.22124106132E+04  0.50400001928E-02 0. -1.
    10030    2    1    2    0    0  0.00000000000E+00  0.00000000000E+00 -0.15550816265E+04  0.28697395999E+04  0.24118719921E+04 0.  0.
        1    1    3    3  502    0 -0.69110385857E+03 -0.47603121803E+03  0.25292535675E+03  0.87647104914E+03  0.50400001928E-02 0.  1.
       -1    1    3    3    0  502  0.69110385857E+03  0.47603121803E+03 -0.18080069833E+04  0.19932685508E+04  0.50400001928E-02 0. -1.
</event>
<event>
 5   0  0.3310037E-05  0.2435485E+04  0.7818609E-02  0.8426337E-01
        2   -1    0    0  501    0  0.00000000000E+00  0.00000000000E+00  0.21226976439E+04  0.21226976439E+04  0.25500000920E-02 0.  1.
       -2   -1    0    0    0  501  0.00000000000E+00  0.00000000000E+00 -0.69859065220E+03  0.69859065221E+03  0.25500000920E-02 0. -1.
    10030    2    1    2    0    0  0.00000000000E+00  0.00000000000E+00  0.14241069917E+04  0.28212882961E+04  0.24354849468E+04 0.  0.
        2    1    3    3  502    0 -0.94533738991E+03 -0.58232195224E+03  0.13269239596E+03  0.11181989576E+04  0.25500000920E-02 0. -1.
       -2    1    3    3    0  502  0.94533738991E+03  0.58232195224E+03  0.12914145957E+04  0.17030893385E+04  0.25500000920E-02 0.  1.
</event>
<event>
 5   0  0.1506985E-05  0.2378649E+04  0.7818609E-02  0.8447541E-01
        1   -1    0    0  501    0  0.00000000000E+00  0.00000000000E+00  0.18715125936E+04  0.18715125936E+04  0.50400001928E-02 0. -1.
       -1   -1    0    0    0  501  0.00000000000E+00  0.00000000000E+00 -0.75580191994E+03  0.75580191995E+03  0.50400001928E-02 0.  1.
    10030    2    1    2    0    0  0.00000000000E+00  0.00000000000E+00  0.11157106737E+04  0.26273145136E+04  0.23786490380E+04 0.  0.
        3    1    3    3  502    0  0.38460586973E+03 -0.23192173230E+03  0.17742466931E+04  0.18302078306E+04  0.10100000352E+00 0. -1.
       -3    1    3    3    0  502 -0.38460586973E+03  0.23192173230E+03 -0.65853601944E+03  0.79710668298E+03  0.10100000352E+00 0.  1.
</event>
<event>
 5   0  0.3215208E-05  0.2421373E+04  0.7818609E-02  0.8431545E-01
       -2   -1    0    0    0  501  0.00000000000E+00  0.00000000000E+00  0.85655583206E+03  0.85655583206E+03  0.25500000920E-02 0.  1.
        2   -1    0    0  501    0  0.00000000000E+00  0.00000000000E+00 -0.17112275073E+04  0.17112275073E+04  0.25500000920E-02 0. -1.
    10030    2    1    2    0    0  0.00000000000E+00  0.00000000000E+00 -0.85467167520E+03  0.25677833393E+04  0.24213730826E+04 0.  0.
        1    1    3    3  502    0  0.61890009475E+03  0.10390793653E+04 -0.36887880532E+03  0.12644345882E+04  0.50400001928E-02 0.  1.
       -1    1    3    3    0  502 -0.61890009475E+03 -0.10390793653E+04 -0.48579286988E+03  0.13033487512E+04  0.50400001928E-02 0. -1.
</event>
<event>
 5   0  0.3320780E-05  0.2384713E+04  0.7818609E-02  0.8445249E-01
       -2   -1    0    0    0  501  0.00000000000E+00  0.00000000000E+00  0.14719612549E+04  0.14719612550E+04  0.25500000920E-02 0.  1.
        2   -1    0    0  501    0  0.00000000000E+00  0.00000000000E+00 -0.96586411262E+03  0.96586411263E+03  0.25500000920E-02 0. -1.
    10030    2    1    2    0    0  0.00000000000E+00  0.00000000000E+00  0.50609714233E+03  0.24378253676E+04  0.23847134430E+04 0.  0.
        5    1    3    3  502    0  0.10970062807E+04 -0.54149798370E+02 -0.22133124895E+03  0.11204305388E+04  0.46999998093E+01 0. -1.
       -5    1    3    3    0  502 -0.10970062807E+04  0.54149798370E+02  0.72742839128E+03  0.13173948288E+04  0.46999998093E+01 0.  1.
</event>
<event>
 5   0  0.1407158E-05  0.2371031E+04  0.7818609E-02  0.8450430E-01
        1   -1    0    0  501    0  0.00000000000E+00  0.00000000000E+00  0.13405177177E+04  0.13405177177E+04  0.50400001928E-02 0.  1.
       -1   -1    0    0    0  501  0.00000000000E+00  0.00000000000E+00 -0.10484357356E+04  0.10484357356E+04  0.50400001928E-02 0. -1.
    10030    2    1    2    0    0  0.00000000000E+00  0.00000000000E+00  0.29208198215E+03  0.23889534533E+04  0.23710307290E+04 0.  0.
        1    1    3    3  502    0  0.25390024393E+03 -0.55448410613E+03  0.11703518587E+04  0.13197126320E+04  0.50400001928E-02 0.  1.
       -1    1    3    3    0  502 -0.25390024393E+03  0.55448410613E+03 -0.87826987657E+03  0.10692408213E+04  0.50400001928E-02 0. -1.
</event>
<event>
 5   0  0.1393026E-05  0.2428582E+04  0.7818609E-02  0.8428880E-01
        1   -1    0    0  501    0  0.00000000000E+00  0.00000000000E+00  0.19171832060E+04  0.19171832060E+04  0.50400001928E-02 0. -1.
       -1   -1    0    0    0  501  0.00000000000E+00  0.00000000000E+00 -0.76909864194E+03  0.76909864195E+03  0.50400001928E-02 0.  1.
    10030    2    1    2    0    0  0.00000000000E+00  0.00000000000E+00  0.11480845641E+04  0.26862818480E+04  0.24285823026E+04 0.  0.
        4    1    3    3  502    0  0.10069602854E+04 -0.53507029158E+03  0.10357455030E+04  0.15404673295E+04  0.12699999809E+01 0. -1.
       -4    1    3    3    0  502 -0.10069602854E+04  0.53507029158E+03  0.11233906103E+03  0.11458145185E+04  0.12699999809E+01 0.  1.
</event>
<event>
 5   0  0.1393026E-05  0.2424380E+04  0.7818609E-02  0.8430432E-01
        1   -1    0    0  501    0  0.00000000000E+00  0.00000000000E+00  0.27513744067E+04  0.27513744067E+04  0.50400001928E-02 0.  1.
       -1   -1    0    0    0  501  0.00000000000E+00  0.00000000000E+00 -0.53406190841E+03  0.53406190843E+03  0.50400001928E-02 0. -1.
    10030    2    1    2    0    0  0.00000000000E+00  0.00000000000E+00  0.22173124983E+04  0.32854363151E+04  0.24243797280E+04 0.  0.
        4    1    3    3  502    0 -0.37730442709E+03  0.10740119187E+04  0.16731969208E+04  0.20237217647E+04  0.12699999809E+01 0.  1.
       -4    1    3    3    0  502  0.37730442709E+03 -0.10740119187E+04  0.54411557741E+03  0.12617145504E+04  0.12699999809E+01 0. -1.
</event>
<event>
 5   0  0.3310037E-05  0.2396923E+04  0.7818609E-02  0.8440656E-01
       -2   -1    0    0    0  501  0.00000000000E+00  0.00000000000E+00  0.75221662075E+03  0.75221662075E+03  0.25500000920E-02 0. -1.
        2   -1    0    0  501    0  0.00000000000E+00  0.00000000000E+00 -0.19094366512E+04  0.19094366512E+04  0.25500000920E-02 0.  1.
    10030    2    1    2    0    0  0.00000000000E+00  0.00000000000E+00 -0.11572200305E+04  0.26616532720E+04  0.23969230153E+04 0.  0.
        2    1    3    3  502    0  0.34438681476E+03  0.65981702423E+03  0.46447004450E+03  0.87732160916E+03  0.25500000920E-02 0. -1.
       -2    1    3    3    0  502 -0.34438681476E+03 -0.65981702423E+03 -0.16216900750E+04  0.17843316628E+04  0.25500000920E-02 0.  1.
</event>
<event>
 5   0  0.3310037E-05  0.2169484E+04  0.7818609E-02  0.8531238E-01
        2   -1    0    0  501    0  0.00000000000E+00  0.00000000000E+00  0.25811457168E+04  0.25811457168E+04  0.25500000920E-02 0.  1.
       -2   -1    0    0    0  501  0.00000000000E+00  0.00000000000E+00 -0.45586923753E+03  0.45586923754E+03  0.25500000920E-02 0. -1.
    10030    2    1    2    0    0  0.00000000000E+00  0.00000000000E+00  0.21252764792E+04  0.30370149543E+04  0.21694837449E+04 0.  0.
        2    1    3    3  502    0 -0.53843031769E+03 -0.93176092114E+03  0.12534500734E+04  0.16520359281E+04  0.25500000920E-02 0. -1.
       -2    1    3    3    0  502  0.53843031769E+03  0.93176092114E+03  0.87182640584E+03  0.13849790262E+04  0.25500000920E-02 0.  1.
</event>
<event>
 5   0  0.3345974E-05  0.2408309E+04  0.7818609E-02  0.8436399E-01
        2   -1    0    0  501    0  0.00000000000E+00  0.00000000000E+00  0.20089966799E+04  0.20089966799E+04  0.25500000920E-02 0. -1.
       -2   -1    0    0    0  501  0.00000000000E+00  0.00000000000E+00 -0.72174755315E+03  0.72174755316E+03  0.25500000920E-02 0.  1.
    10030    2    1    2    0    0  0.00000000000E+00  0.00000000000E+00  0.12872491268E+04  0.27307442331E+04  0.24083093141E+04 0.  0.
        4    1    3    3  502    0  0.83988938050E+03 -0.79721144429E+03  0.10180237772E+04  0.15418606559E+04  0.12699999809E+01 0.  1.
       -4    1    3    3    0  502 -0.83988938050E+03  0.79721144429E+03  0.26922534959E+03  0.11888835772E+04  0.12699999809E+01 0. -1.
</event>
<event>
 5   0  0.3320780E-05  0.2407210E+04  0.7818609E-02  0.8436809E-01
       -2   -1    0    0    0  501  0.00000000000E+00  0.00000000000E+00  0.76430585761E+03  0.76430585761E+03  0.25500000920E-02 0. -1.
        2   -1    0    0  501    0  0.00000000000E+00  0.00000000000E+00 -0.18954003243E+04  0.18954003243E+04  0.25500000920E-02 0.  1.
    10030    2    1    2    0    0  0.00000000000E+00  0.00000000000E+00 -0.11310944667E+04  0.26597061819E+04  0.24072104772E+04 0.  0.
        5    1    3    3  502    0 -0.10042170234E+04 -0.54414402172E+02  0.16504480186E+03  0.10191538814E+04  0.46999998093E+01 0. -1.
       -5    1    3    3    0  502  0.10042170234E+04  0.54414402172E+02 -0.12961392685E+04  0.16405523005E+04  0.46999998093E+01 0.  1.
</event>
<event>
 5   0  0.3310037E-05  0.2425695E+04  0.7818609E-02  0.8429946E-01
       -2   -1    0    0    0  501  0.00000000000E+00  0.00000000000E+00  0.90862915447E+03  0.90862915447E+03  0.25500000920E-02 0.  1.
        2   -1    0    0  501    0  0.00000000000E+00  0.00000000000E+00 -0.16189209830E+04  0.16189209830E+04  0.25500000920E-02 0. -1.
    10030    2    1    2    0    0  0.00000000000E+00  0.00000000000E+00 -0.71029182855E+03  0.25275501375E+04  0.24256947903E+04 0.  0.
        2    1    3    3  502    0 -0.59942673744E+03  0.10173663739E+03 -0.14486579079E+04  0.15710736746E+04  0.25500000920E-02 0. -1.
       -2    1    3    3    0  502  0.59942673744E+03 -0.10173663739E+03  0.73836607934E+03  0.95647646289E+03  0.25500000920E-02 0.  1.
</event>
<event>
 5   0  0.3215208E-05  0.2401120E+04  0.7818609E-02  0.8439084E-01
       -2   -1    0    0    0  501  0.00000000000E+00  0.00000000000E+00  0.10225511662E+04  0.10225511662E+04  0.25500000920E-02 0. -1.
        2   -1    0    0  501    0  0.00000000000E+00  0.00000000000E+00 -0.14095571783E+04  0.14095571783E+04  0.25500000920E-02 0.  1.
    10030    2    1    2    0    0  0.00000000000E+00  0.00000000000E+00 -0.38700601205E+03  0.24321083445E+04  0.24011200191E+04 0.  0.
        1    1    3    3  502    0 -0.42276616285E+03  0.11046149646E+04  0.15162684622E+02  0.11828505212E+04  0.50400001928E-02 0.  1.
       -1    1    3    3    0  502  0.42276616285E+03 -0.11046149646E+04 -0.40216869667E+03  0.12492578233E+04  0.50400001928E-02 0. -1.
</event>
<event>
 5   0  0.3345974E-05  0.2426899E+04  0.7818609E-02  0.8429501E-01
        2   -1    0    0  501    0  0.00000000000E+00  0.00000000000E+00  0.24551603801E+04  0.24551603801E+04  0.25500000920E-02 0. -1.
       -2   -1    0    0    0  501  0.00000000000E+00  0.00000000000E+00 -0.59974055539E+03  0.59974055539E+03  0.25500000920E-02 0.  1.
    10030    2    1    2    0    0  0.00000000000E+00  0.00000000000E+00  0.18554198247E+04  0.30549009355E+04  0.24268986381E+04 0.  0.
        4    1    3    3  502    0 -0.67808389394E+03  0.48775550745E+03 -0.18025888244E+03  0.85451628415E+03  0.12699999809E+01 0.  1.
       -4    1    3    3    0  502  0.67808389394E+03 -0.48775550745E+03  0.20356787072E+04  0.22003846514E+04  0.12699999809E+01 0. -1.
</event>
<event>
 5   0  0.3345974E-05  0.2432761E+04  0.7818609E-02  0.8427339E-01
       -2   -1    0    0    0  501  0.00000000000E+00  0.00000000000E+00  0.11961933361E+04  0.11961933361E+04  0.25500000920E-02 0. -1.
        2   -1    0    0  501    0  0.00000000000E+00  0.00000000000E+00 -0.12369081289E+04  0.12369081289E+04  0.25500000920E-02 0.  1.
    10030    2    1    2    0    0  0.00000000000E+00  0.00000000000E+00 -0.40714792850E+02  0.24331014650E+04  0.24327607866E+04 0.  0.
        4    1    3    3  502    0 -0.22824364920E+02 -0.33313063027E+03  0.11494570646E+04  0.11969754069E+04  0.12699999809E+01 0. -1.
       -4    1    3    3    0  502  0.22824364920E+02  0.33313063027E+03 -0.11901718574E+04  0.12361260581E+04  0.12699999809E+01 0.  1.
</event>
<event>
 5   0  0.3320780E-05  0.2381254E+04  0.7818609E-02  0.8446555E-01
       -2   -1    0    0    0  501  0.00000000000E+00  0.00000000000E+00  0.72375347825E+03  0.72375347825E+03  0.25500000920E-02 0.  1.
        2   -1    0    0  501    0  0.00000000000E+00  0.00000000000E+00 -0.19586680063E+04  0.19586680063E+04  0.25500000920E-02 0. -1.
    10030    2    1    2    0    0  0.00000000000E+00  0.00000000000E+00 -0.12349145280E+04  0.26824214845E+04  0.23812541085E+04 0.  0.
        5    1    3    3  502    0 -0.17490229252E+03  0.36581679162E+01  0.70918632304E+03  0.73045980375E+03  0.46999998093E+01 0.  1.
       -5    1    3    3    0  502  0.17490229252E+03 -0.36581679162E+01 -0.19441008510E+04  0.19519616808E+04  0.46999998093E+01 0. -1.
</event>
<event>
 5   0  0.1393026E-05  0.2375843E+04  0.7818609E-02  0.8448603E-01
        1   -1    0    0  501    0  0.00000000000E+00  0.00000000000E+00  0.57616886206E+03  0.57616886208E+03  0.50400001928E-02 0.  1.
       -1   -1    0    0    0  501  0.00000000000E+00  0.00000000000E+00 -0.24492077168E+04  0.24492077168E+04  0.50400001928E-02 0. -1.
    10030    2    1    2    0    0  0.00000000000E+00  0.00000000000E+00 -0.18730388547E+04  0.30253765789E+04  0.23758427752E+04 0.  0.
        4    1    3    3  502    0 -0.84157039416E+03 -0.36277863092E+03  0.25970833458E+02  0.91680159275E+03  0.12699999809E+01 0. -1.
       -4    1    3    3    0  502  0.84157039416E+03  0.36277863092E+03 -0.18990096882E+04  0.21085749861E+04  0.12699999809E+01 0.  1.
</event>
<event>
 5   0  0.3320780E-05  0.2407961E+04  0.7818609E-02  0.8436529E-01
        2   -1    0    0  501    0  0.00000000000E+00  0.00000000000E+00  0.10391641924E+04  0.10391641924E+04  0.25500000920E-02 0.  1.
       -2   -1    0    0    0  501  0.00000000000E+00  0.00000000000E+00 -0.13949376471E+04  0.13949376471E+04  0.25500000920E-02 0. -1.
    10030    2    1    2    0    0  0.00000000000E+00  0.00000000000E+00 -0.35577345465E+03  0.24341018395E+04  0.24079611737E+04 0.  0.
        5    1    3    3  502    0  0.14288320436E+02 -0.66621324186E+03  0.83574672163E+03  0.10688961186E+04  0.46999998093E+01 0.  1.
       -5    1    3    3    0  502 -0.14288320436E+02  0.66621324186E+03 -0.11915201763E+04  0.13652057208E+04  0.46999998093E+01 0. -1.
</event>
<event>
 5   0  0.3347728E-05  0.2402064E+04  0.7818609E-02  0.8438731E-01
       -2   -1    0    0    0  501  0.00000000000E+00  0.00000000000E+00  0.11677605892E+04  0.11677605892E+04  0.25500000920E-02 0. -1.
        2   -1    0    0  501    0  0.00000000000E+00  0.00000000000E+00 -0.12352518783E+04  0.12352518783E+04  0.25500000920E-02 0.  1.
    10030    2    1    2    0    0  0.00000000000E+00  0.00000000000E+00 -0.67491289134E+02  0.24030124675E+04  0.24020644964E+04 0.  0.
        3    1    3    3  502    0 -0.46828764233E+03 -0.31691264895E+03 -0.10937635063E+04  0.12312780193E+04  0.10100000352E+00 0.  1.
       -3    1    3    3    0  502  0.46828764233E+03  0.31691264895E+03  0.10262722171E+04  0.11717344481E+04  0.10100000352E+00 0. -1.
</event>
<event>
 5   0  0.3320780E-05  0.2486768E+04  0.7818609E-02  0.8407715E-01
       -2   -1    0    0    0  501  0.00000000000E+00  0.00000000000E+00  0.10915938094E+04  0.10915938094E+04  0.25500000920E-02 0. -1.
        2   -1    0    0  501    0  0.00000000000E+00  0.00000000000E+00 -0.14162807033E+04  0.14162807033E+04  0.25500000920E-02 0.  1.
    10030    2    1    2    0    0  0.00000000000E+00  0.00000000000E+00 -0.32468689397E+03  0.25078745127E+04  0.24867675791E+04 0.  0.
        5    1    3    3  502    0 -0.28267843786E+02 -0.19676949478E+03  0.10754550837E+04  0.10936832412E+04  0.46999998093E+01 0. -1.
       -5    1    3    3    0  502  0.28267843786E+02  0.19676949478E+03 -0.14001419776E+04  0.14141912716E+04  0.46999998093E+01 0.  1.
</event>
<event>
 5   0  0.1407158E-05  0.2402681E+04  0.7818609E-02  0.8438501E-01
       -1   -1    0    0    0  501  0.00000000000E+00  0.00000000000E+00  0.57658301819E+03  0.57658301822E+03  0.50400001928E-02 0.  1.
        1   -1    0    0  501    0  0.00000000000E+00  0.00000000000E+00 -0.25030542362E+04  0.25030542362E+04  0.50400001928E-02 0. -1.
    10030    2    1    2    0    0  0.00000000000E+00  0.00000000000E+00 -0.19264712180E+04  0.30796372544E+04  0.24026806415E+04 0.  0.
        1    1    3    3  502    0  0.55560895262E+03  0.27784426213E+03  0.35473796607E+03  0.71535848833E+03  0.50400001928E-02 0.  1.
       -1    1    3    3    0  502 -0.55560895262E+03 -0.27784426213E+03 -0.22812091840E+04  0.23642787661E+04  0.50400001928E-02 0. -1.
</event>
<event>
 5   0  0.1434943E-05  0.2502444E+04  0.7818609E-02  0.8402115E-01
        1   -1    0    0  501    0  0.00000000000E+00  0.00000000000E+00  0.17324465998E+04  0.17324465998E+04  0.50400001928E-02 0.  1.
       -1   -1    0    0    0  501  0.00000000000E+00  0.00000000000E+00 -0.90366803976E+03  0.90366803977E+03  0.50400001928E-02 0. -1.
    10030    2    1    2    0    0  0.00000000000E+00  0.00000000000E+00  0.82877856001E+03  0.26361146395E+04  0.25024441035E+04 0.  0.
        5    1    3    3  502    0 -0.23502116997E+03 -0.10307096091E+04 -0.29064220785E+03  0.10963996678E+04  0.46999998093E+01 0. -1.
       -5    1    3    3    0  502  0.23502116997E+03  0.10307096091E+04  0.11194207679E+04  0.15397149717E+04  0.46999998093E+01 0.  1.
</event>
<event>
 5   0  0.1434943E-05  0.2409953E+04  0.7818609E-02  0.8435787E-01
       -1   -1    0    0    0  501  0.00000000000E+00  0.00000000000E+00  0.86150717129E+03  0.86150717131E+03  0.50400001928E-02 0. -1.
        1   -1    0    0  501    0  0.00000000000E+00  0.00000000000E+00 -0.16853821714E+04  0.16853821714E+04  0.50400001928E-02 0.  1.
    10030    2    1    2    0    0  0.00000000000E+00  0.00000000000E+00 -0.82387500009E+03  0.25468893427E+04  0.24099533830E+04 0.  0.
        5    1    3    3  502    0  0.11670280328E+04  0.26907957095E+03 -0.27178019470E+03  0.12281061880E+04  0.46999998093E+01 0. -1.
       -5    1    3    3    0  502 -0.11670280328E+04 -0.26907957095E+03 -0.55209480538E+03  0.13187831547E+04  0.46999998093E+01 0.  1.
</event>
<event>
 5   0  0.3215208E-05  0.2391483E+04  0.7818609E-02  0.8442699E-01
       -2   -1    0    0    0  501  0.00000000000E+00  0.00000000000E+00  0.10502917263E+04  0.10502917263E+04  0.25500000920E-02 0.  1.
        2   -1    0    0  501    0  0.00000000000E+00  0.00000000000E+00 -0.13613337212E+04  0.13613337212E+04  0.25500000920E-02 0. -1.
    10030    2    1    2    0    0  0.00000000000E+00  0.00000000000E+00 -0.31104199489E+03  0.24116254475E+04  0.23914828405E+04 0.  0.
        1    1    3    3  502    0  0.11111532779E+04  0.21247690002E+03 -0.54606774328E+03  0.12561839118E+04  0.50400001928E-02 0. -1.
       -1    1    3    3    0  502 -0.11111532779E+04 -0.21247690002E+03  0.23502574839E+03  0.11554415357E+04  0.50400001928E-02 0.  1.
</event>
<event>
 5   0  0.3215208E-05  0.2399079E+04  0.7818609E-02  0.8439848E-01
        2   -1    0    0  501    0  0.00000000000E+00  0.00000000000E+00  0.16364367609E+04  0.16364367609E+04  0.25500000920E-02 0.  1.
       -2   -1    0    0    0  501  0.00000000000E+00  0.00000000000E+00 -0.87928545791E+03  0.87928545792E+03  0.25500000920E-02 0. -1.
    10030    2    1    2    0    0  0.00000000000E+00  0.00000000000E+00  0.75715130298E+03  0.25157222188E+04  0.23990790288E+04 0.  0.
        1    1    3    3  502    0 -0.15863713107E+03  0.59645852206E+03 -0.70000865525E+03  0.93324199720E+03  0.50400001928E-02 0. -1.
       -1    1    3    3    0  502  0.15863713107E+03 -0.59645852206E+03  0.14571599582E+04  0.15824802216E+04  0.50400001928E-02 0.  1.
</event>
<event>
 5   0  0.1393026E-05  0.2423103E+04  0.7818609E-02  0.8430905E-01
       -1   -1    0    0    0  501  0.00000000000E+00  0.00000000000E+00  0.12820995603E+04  0.12820995603E+04  0.50400001928E-02 0.  1.
        1   -1    0    0  501    0  0.00000000000E+00  0.00000000000E+00 -0.11448851869E+04  0.11448851870E+04  0.50400001928E-02 0. -1.
    10030    2    1    2    0    0  0.00000000000E+00  0.00000000000E+00  0.13721437337E+03  0.24269847473E+04  0.24231028000E+04 0.  0.
        4    1    3    3  502    0 -0.99235509858E+03 -0.12544274981E+03 -0.61611852516E+03  0.11747800539E+04  0.12699999809E+01 0. -1.
       -4    1    3    3    0  502  0.99235509858E+03  0.12544274981E+03  0.75333289853E+03  0.12522046934E+04  0.12699999809E+01 0.  1.
</event>
<event>
 5   0  0.3310037E-05  0.2479373E+04  0.7818609E-02  0.8410371E-01
       -2   -1    0    0    0  501  0.00000000000E+00  0.00000000000E+00  0.98581471619E+03  0.98581471619E+03  0.25500000920E-02 0.  1.
        2   -1    0    0  501    0  0.00000000000E+00  0.00000000000E+00 -0.15589367001E+04  0.15589367001E+04  0.25500000920E-02 0. -1.
    10030    2    1    2    0    0  0.00000000000E+00  0.00000000000E+00 -0.57312198395E+03  0.25447514163E+04  0.24793730987E+04 0.  0.
        2    1    3    3  502    0 -0.15327490729E+03 -0.12291472440E+04 -0.23497029801E+03  0.12607565926E+04  0.25500000920E-02 0.  1.
       -2    1    3    3    0  502  0.15327490729E+03  0.12291472440E+04 -0.33815168594E+03  0.12839948238E+04  0.25500000920E-02 0. -1.
</event>
<event>
 5   0  0.1147362E-05  0.2399112E+04  0.7818609E-02  0.8439836E-01
        3   -1    0    0  501    0  0.00000000000E+00  0.00000000000E+00  0.83795351388E+03  0.83795351996E+03  0.10100000352E+00 0. -1.
       -3   -1    0    0    0  501  0.00000000000E+00  0.00000000000E+00 -0.17172008296E+04  0.17172008326E+04  0.10100000352E+00 0.  1.
    10030    2    1    2    0    0  0.00000000000E+00  0.00000000000E+00 -0.87924731572E+03  0.25551543525E+04  0.23991119030E+04 0.  0.
        3    1    3    3  502    0 -0.26983090755E+03 -0.10348241868E+04 -0.10183488203E+04  0.14767207408E+04  0.10100000352E+00 0. -1.
       -3    1    3    3    0  502  0.26983090755E+03  0.10348241868E+04  0.13910150453E+03  0.10784336118E+04  0.10100000352E+00 0.  1.
</event>
<event>
 5   0  0.3320780E-05  0.2490388E+04  0.7818609E-02  0.8406418E-01
       -2   -1    0    0    0  501  0.00000000000E+00  0.00000000000E+00  0.76061409760E+03  0.76061409761E+03  0.25500000920E-02 0.  1.
        2   -1    0    0  501    0  0.00000000000E+00  0.00000000000E+00 -0.20384944821E+04  0.20384944821E+04  0.25500000920E-02 0. -1.
    10030    2    1    2    0    0  0.00000000000E+00  0.00000000000E+00 -0.12778803845E+04  0.27991085797E+04  0.24903876333E+04 0.  0.
        5    1    3    3  502    0 -0.98127445171E+03 -0.16644899366E+03  0.20206863847E+03  0.10156075235E+04  0.46999998093E+01 0.  1.
       -5    1    3    3    0  502  0.98127445171E+03  0.16644899366E+03 -0.14799490230E+04  0.17835010563E+04  0.46999998093E+01 0. -1.
</event>
<event>
 5   0  0.3320780E-05  0.2406030E+04  0.7818609E-02  0.8437249E-01
       -2   -1    0    0    0  501  0.00000000000E+00  0.00000000000E+00  0.65909835735E+03  0.65909835735E+03  0.25500000920E-02 0. -1.
        2   -1    0    0  501    0  0.00000000000E+00  0.00000000000E+00 -0.21957957076E+04  0.21957957076E+04  0.25500000920E-02 0.  1.
    10030    2    1    2    0    0  0.00000000000E+00  0.00000000000E+00 -0.15366973502E+04  0.28548940649E+04  0.24060302109E+04 0.  0.
        5    1    3    3  502    0  0.57638225406E+03 -0.11158618967E+03 -0.20142656617E+04  0.20980839417E+04  0.46999998093E+01 0.  1.
       -5    1    3    3    0  502 -0.57638225406E+03  0.11158618967E+03  0.47756831147E+03  0.75681012324E+03  0.46999998093E+01 0. -1.
</event>
<event>
 5   0  0.1407158E-05  0.2382549E+04  0.7818609E-02  0.8446066E-01
        1   -1    0    0  501    0  0.00000000000E+00  0.00000000000E+00  0.13791237805E+04  0.13791237805E+04  0.50400001928E-02 0.  1.
       -1   -1    0    0    0  501  0.00000000000E+00  0.00000000000E+00 -0.10290117183E+04  0.10290117183E+04  0.50400001928E-02 0. -1.
    10030    2    1    2    0    0  0.00000000000E+00  0.00000000000E+00  0.35011206214E+03  0.24081354988E+04  0.23825486616E+04 0.  0.
        1    1    3    3  502    0 -0.67327007636E+03 -0.87873949812E+03 -0.26973681340E+03  0.11394005660E+04  0.50400001928E-02 0. -1.
       -1    1    3    3    0  502  0.67327007636E+03  0.87873949812E+03  0.61984887554E+03  0.12687349328E+04  0.50400001928E-02 0.  1.
</event>
<event>
 5   0  0.1393026E-05  0.2399753E+04  0.7818609E-02  0.8439596E-01
       -1   -1    0    0    0  501  0.00000000000E+00  0.00000000000E+00  0.10130496029E+04  0.10130496029E+04  0.50400001928E-02 0.  1.
        1   -1    0    0  501    0  0.00000000000E+00  0.00000000000E+00 -0.14211576934E+04  0.14211576934E+04  0.50400001928E-02 0. -1.
    10030    2    1    2    0    0  0.00000000000E+00  0.00000000000E+00 -0.40810809048E+03  0.24342072963E+04  0.23997526847E+04 0.  0.
        4    1    3    3  502    0 -0.75134077684E+03 -0.83953929180E+03  0.21462188865E+03  0.11469103511E+04  0.12699999809E+01 0. -1.
       -4    1    3    3    0  502  0.75134077684E+03  0.83953929180E+03 -0.62272997913E+03  0.12872969452E+04  0.12699999809E+01 0.  1.
</event>
<event>
 5   0  0.3347728E-05  0.2393168E+04  0.7818609E-02  0.8442066E-01
        2   -1    0    0  501    0  0.00000000000E+00  0.00000000000E+00  0.12349795017E+04  0.12349795017E+04  0.25500000920E-02 0. -1.
       -2   -1    0    0    0  501  0.00000000000E+00  0.00000000000E+00 -0.11593824123E+04  0.11593824123E+04  0.25500000920E-02 0.  1.
    10030    2    1    2    0    0  0.00000000000E+00  0.00000000000E+00  0.75597089420E+02  0.23943619141E+04  0.23931682046E+04 0.  0.
        3    1    3    3  502    0 -0.38404436815E+03  0.90834434551E+03 -0.64020751864E+03  0.11757742997E+04  0.10100000352E+00 0.  1.
       -3    1    3    3    0  502  0.38404436815E+03 -0.90834434551E+03  0.71580460806E+03  0.12185876144E+04  0.10100000352E+00 0. -1.
</event>
<event>
 5   0  0.3215208E-05  0.2408149E+04  0.7818609E-02  0.8436459E-01
       -2   -1    0    0    0  501  0.00000000000E+00  0.00000000000E+00  0.11413326173E+04  0.11413326173E+04  0.25500000920E-02 0.  1.
        2   -1    0    0  501    0  0.00000000000E+00  0.00000000000E+00 -0.12702651306E+04  0.12702651306E+04  0.25500000920E-02 0. -1.
    10030    2    1    2    0    0  0.00000000000E+00  0.00000000000E+00 -0.12893251337E+03  0.24115977479E+04  0.24081486882E+04 0.  0.
        1    1    3    3  502    0 -0.10157714678E+04  0.40417034371E+03 -0.56981727189E+03  0.12328167199E+04  0.50400001928E-02 0. -1.
       -1    1    3    3    0  502  0.10157714678E+04 -0.40417034371E+03  0.44088475852E+03  0.11787810280E+04  0.50400001928E-02 0.  1.
</event>
<event>
 5   0  0.3320780E-05  0.2364341E+04  0.7818609E-02  0.8452976E-01
       -2   -1    0    0    0  501  0.00000000000E+00  0.00000000000E+00  0.10973299632E+04  0.10973299632E+04  0.25500000920E-02 0.  1.
        2   -1    0    0  501    0  0.00000000000E+00  0.00000000000E+00 -0.12735705289E+04  0.12735705289E+04  0.25500000920E-02 0. -1.
    10030    2    1    2    0    0  0.00000000000E+00  0.00000000000E+00 -0.17624056571E+03  0.23709004922E+04  0.23643410090E+04 0.  0.
        5    1    3    3  502    0  0.46617644653E+03 -0.45465928432E+03 -0.10775031353E+04  0.12589958859E+04  0.46999998093E+01 0. -1.
       -5    1    3    3    0  502 -0.46617644653E+03  0.45465928432E+03  0.90126256959E+03  0.11119046063E+04  0.46999998093E+01 0.  1.
</event>
<event>
 5   0  0.1147362E-05  0.2363126E+04  0.7818609E-02  0.8453439E-01
       -4   -1    0    0    0  501  0.00000000000E+00  0.00000000000E+00  0.20860664339E+04  0.20860668205E+04  0.12699999809E+01 0. -1.
        4   -1    0    0  501    0  0.00000000000E+00  0.00000000000E+00 -0.66924487264E+03  0.66924607766E+03  0.12699999809E+01 0.  1.
    10030    2    1    2    0    0  0.00000000000E+00  0.00000000000E+00  0.14168215613E+04  0.27553128981E+04  0.23631262832E+04 0.  0.
        4    1    3    3  502    0  0.28743409283E+03  0.14371778026E+03  0.20341327985E+04  0.20593617974E+04  0.12699999809E+01 0. -1.
       -4    1    3    3    0  502 -0.28743409283E+03 -0.14371778026E+03 -0.61731123721E+03  0.69595110070E+03  0.12699999809E+01 0.  1.
</event>
<event>
 5   0  0.3347728E-05  0.2392632E+04  0.7818609E-02  0.8442267E-01
       -2   -1    0    0    0  501  0.00000000000E+00  0.00000000000E+00  0.96192885494E+03  0.96192885494E+03  0.25500000920E-02 0. -1.
        2   -1    0    0  501    0  0.00000000000E+00  0.00000000000E+00 -0.14878147550E+04  0.14878147550E+04  0.25500000920E-02 0.  1.
    10030    2    1    2    0    0  0.00000000000E+00  0.00000000000E+00 -0.52588590001E+03  0.24497436099E+04  0.23926319764E+04 0.  0.
        3    1    3    3  502    0  0.91535716360E+02  0.57580725676E+03 -0.13325018356E+04  0.14544737661E+04  0.10100000352E+00 0.  1.
       -3    1    3    3    0  502 -0.91535716360E+02 -0.57580725676E+03  0.80661593554E+03  0.99526984380E+03  0.10100000352E+00 0. -1.
</event>
<event>
 5   0  0.3345974E-05  0.2388363E+04  0.7818609E-02  0.8443873E-01
       -2   -1    0    0    0  501  0.00000000000E+00  0.00000000000E+00  0.15112661102E+04  0.15112661102E+04  0.25500000920E-02 0.  1.
        2   -1    0    0  501    0  0.00000000000E+00  0.00000000000E+00 -0.94362603381E+03  0.94362603382E+03  0.25500000920E-02 0. -1.
    10030    2    1    2    0    0  0.00000000000E+00  0.00000000000E+00  0.56764007644E+03  0.24548921441E+04  0.23883634947E+04 0.  0.
        4    1    3    3  502    0 -0.80435085336E+03  0.56905233433E+03 -0.40971012329E+03  0.10670824019E+04  0.12699999809E+01 0. -1.
       -4    1    3    3    0  502  0.80435085336E+03 -0.56905233433E+03  0.97735019973E+03  0.13878097421E+04  0.12699999809E+01 0.  1.
</event>
<event>
 5   0  0.1147362E-05  0.2390752E+04  0.7818609E-02  0.8442974E-01
       -3   -1    0    0    0  501  0.00000000000E+00  0.00000000000E+00  0.19688613842E+04  0.19688613868E+04  0.10100000352E+00 0.  1.
        3   -1    0    0  501    0  0.00000000000E+00  0.00000000000E+00 -0.72576176410E+03  0.72576177112E+03  0.10100000352E+00 0. -1.
    10030    2    1    2    0    0  0.00000000000E+00  0.00000000000E+00  0.12430996201E+04  0.26946231579E+04  0.23907524543E+04 0.  0.
        4    1    3    3  502    0 -0.38590229068E+03  0.13031747344E+03 -0.64513468237E+03  0.76295713715E+03  0.12699999809E+01 0. -1.
       -4    1    3    3    0  502  0.38590229068E+03 -0.13031747344E+03  0.18882343025E+04  0.19316660208E+04  0.12699999809E+01 0.  1.
</event>
<event>
 5   0  0.3347728E-05  0.2398054E+04  0.7818609E-02  0.8440232E-01
       -2   -1    0    0    0  501  0.00000000000E+00  0.00000000000E+00  0.64225678232E+03  0.64225678232E+03  0.25500000920E-02 0.  1.
        2   -1    0    0  501    0  0.00000000000E+00  0.00000000000E+00 -0.22384599154E+04  0.22384599154E+04  0.25500000920E-02 0. -1.
    10030    2    1    2    0    0  0.00000000000E+00  0.00000000000E+00 -0.15962031331E+04  0.28807166977E+04  0.23980542635E+04 0.  0.
        3    1    3    3  502    0  0.68736857751E+03 -0.92494682337E+03 -0.11959093882E+04  0.16607833882E+04  0.10100000352E+00 0. -1.
       -3    1    3    3    0  502 -0.68736857751E+03  0.92494682337E+03 -0.40029374490E+03  0.12199333096E+04  0.10100000352E+00 0.  1.
</event>
<event>
 5   0  0.3345974E-05  0.2411900E+04  0.7818609E-02  0.8435062E-01
        2   -1    0    0  501    0  0.00000000000E+00  0.00000000000E+00  0.15151687897E+04  0.15151687897E+04  0.25500000920E-02 0.  1.
       -2   -1    0    0    0  501  0.00000000000E+00  0.00000000000E+00 -0.95983732265E+03  0.95983732265E+03  0.25500000920E-02 0. -1.
    10030    2    1    2    0    0  0.00000000000E+00  0.00000000000E+00  0.55533146701E+03  0.24750061123E+04  0.24119001260E+04 0.  0.
        4    1    3    3  502    0 -0.89662237906E+02 -0.86869330570E+03 -0.57574690045E+03  0.10460179169E+04  0.12699999809E+01 0. -1.
       -4    1    3    3    0  502  0.89662237906E+02  0.86869330570E+03  0.11310783675E+04  0.14289881954E+04  0.12699999809E+01 0.  1.
</event>
<event>
 5   0  0.3215208E-05  0.2344860E+04  0.7818609E-02  0.8460440E-01
       -2   -1    0    0    0  501  0.00000000000E+00  0.00000000000E+00  0.14483893917E+04  0.14483893917E+04  0.25500000920E-02 0. -1.
        2   -1    0    0  501    0  0.00000000000E+00  0.00000000000E+00 -0.94904900121E+03  0.94904900121E+03  0.25500000920E-02 0.  1.
    10030    2    1    2    0    0  0.00000000000E+00  0.00000000000E+00  0.49934039053E+03  0.23974383929E+04  0.23448603418E+04 0.  0.
        1    1    3    3  502    0  0.11420220973E+04  0.25053310634E+03  0.16047181522E+03  0.11801408864E+04  0.50400001928E-02 0. -1.
       -1    1    3    3    0  502 -0.11420220973E+04 -0.25053310634E+03  0.33886857531E+03  0.12172975066E+04  0.50400001928E-02 0.  1.
</event>
<event>
 5   0  0.1393026E-05  0.2393657E+04  0.7818609E-02  0.8441882E-01
        1   -1    0    0  501    0  0.00000000000E+00  0.00000000000E+00  0.12316797727E+04  0.12316797728E+04  0.50400001928E-02 0. -1.
       -1   -1    0    0    0  501  0.00000000000E+00  0.00000000000E+00 -0.11629636353E+04  0.11629636353E+04  0.50400001928E-02 0.  1.
    10030    2    1    2    0    0  0.00000000000E+00  0.00000000000E+00  0.68716137486E+02  0.23946434080E+04  0.23936572737E+04 0.  0.
        4    1    3    3  502    0  0.55327382005E+03 -0.26532733655E+03  0.10623448591E+04  0.12268205769E+04  0.12699999809E+01 0. -1.
       -4    1    3    3    0  502 -0.55327382005E+03  0.26532733655E+03 -0.99362872161E+03  0.11678228311E+04  0.12699999809E+01 0.  1.
</event>
<event>
 5   0  0.3347728E-05  0.2373137E+04  0.7818609E-02  0.8449630E-01
        2   -1    0    0  501    0  0.00000000000E+00  0.00000000000E+00  0.17274911282E+04  0.17274911282E+04  0.25500000920E-02 0. -1.
       -2   -1    0    0    0  501  0.00000000000E+00  0.00000000000E+00 -0.81502257049E+03  0.81502257049E+03  0.25500000920E-02 0.  1.
    10030    2    1    2    0    0  0.00000000000E+00  0.00000000000E+00  0.91246855774E+03  0.25425136987E+04  0.23731365404E+04 0.  0.
        3    1    3    3  502    0 -0.27153244267E+03  0.98827796233E+03 -0.18437228532E+03  0.10413531332E+04  0.10100000352E+00 0.  1.
       -3    1    3    3    0  502  0.27153244267E+03 -0.98827796233E+03  0.10968408431E+04  0.15011605655E+04  0.10100000352E+00 0. -1.
</event>
<event>
 5   0  0.3320780E-05  0.2400038E+04  0.7818609E-02  0.8439489E-01
       -2   -1    0    0    0  501  0.00000000000E+00  0.00000000000E+00  0.92866601477E+03  0.92866601478E+03  0.25500000920E-02 0. -1.
        2   -1    0    0  501    0  0.00000000000E+00  0.00000000000E+00 -0.15506604384E+04  0.15506604384E+04  0.25500000920E-02 0.  1.
    10030    2    1    2    0    0  0.00000000000E+00  0.00000000000E+00 -0.62199442361E+03  0.24793264532E+04  0.24000380410E+04 0.  0.
        5    1    3    3  502    0 -0.86652233587E+02 -0.85685547671E+03 -0.11742556892E+04  0.14562308990E+04  0.46999998093E+01 0.  1.
       -5    1    3    3    0  502  0.86652233587E+02  0.85685547671E+03  0.55226126557E+03  0.10230955542E+04  0.46999998093E+01 0. -1.
</event>
<event>
 5   0  0.1506985E-05  0.2428206E+04  0.7818609E-02  0.8429018E-01
       -1   -1    0    0    0  501  0.00000000000E+00  0.00000000000E+00  0.13913853968E+04  0.13913853968E+04  0.50400001928E-02 0.  1.
        1   -1    0    0  501    0  0.00000000000E+00  0.00000000000E+00 -0.10594093187E+04  0.10594093187E+04  0.50400001928E-02 0. -1.
    10030    2    1    2    0    0  0.00000000000E+00  0.00000000000E+00  0.33197607813E+03  0.24507947155E+04  0.24282064618E+04 0.  0.
        3    1    3    3  502    0  0.54049559634E+03  0.23604802166E+03  0.12370821651E+04  0.13704840209E+04  0.10100000352E+00 0.  1.
       -3    1    3    3    0  502 -0.54049559634E+03 -0.23604802166E+03 -0.90510608692E+03  0.10803106947E+04  0.10100000352E+00 0. -1.
</event>
<event>
 5   0  0.1393026E-05  0.2413658E+04  0.7818609E-02  0.8434408E-01
       -1   -1    0    0    0  501  0.00000000000E+00  0.00000000000E+00  0.84854660524E+03  0.84854660525E+03  0.50400001928E-02 0. -1.
        1   -1    0    0  501    0  0.00000000000E+00  0.00000000000E+00 -0.17163896236E+04  0.17163896236E+04  0.50400001928E-02 0.  1.
    10030    2    1    2    0    0  0.00000000000E+00  0.00000000000E+00 -0.86784301839E+03  0.25649362289E+04  0.24136582927E+04 0.  0.
        4    1    3    3  502    0  0.32864571543E+03  0.86414770540E+03 -0.12582152960E+04  0.15613669034E+04  0.12699999809E+01 0.  1.
       -4    1    3    3    0  502 -0.32864571543E+03 -0.86414770540E+03  0.39037227763E+03  0.10035693255E+04  0.12699999809E+01 0. -1.
</event>
<event>
 5   0  0.3345974E-05  0.2398300E+04  0.7818609E-02  0.8440140E-01
        2   -1    0    0  501    0  0.00000000000E+00  0.00000000000E+00  0.16721539659E+04  0.16721539659E+04  0.25500000920E-02 0. -1.
       -2   -1    0    0    0  501  0.00000000000E+00  0.00000000000E+00 -0.85994487027E+03  0.85994487027E+03  0.25500000920E-02 0.  1.
    10030    2    1    2    0    0  0.00000000000E+00  0.00000000000E+00  0.81220909560E+03  0.25320988361E+04  0.23982995853E+04 0.  0.
        4    1    3    3  502    0  0.88346126309E+03  0.49542529793E+03 -0.27158432213E+03  0.10486704373E+04  0.12699999809E+01 0. -1.
       -4    1    3    3    0  502 -0.88346126309E+03 -0.49542529793E+03  0.10837934177E+04  0.14834283988E+04  0.12699999809E+01 0.  1.
</event>
<event>
 5   0  0.1506985E-05  0.2353085E+04  0.7818609E-02  0.8457280E-01
       -1   -1    0    0    0  501  0.00000000000E+00  0.00000000000E+00  0.77138132982E+03  0.77138132984E+03  0.50400001928E-02 0.  1.
        1   -1    0    0  501    0  0.00000000000E+00  0.00000000000E+00 -0.17945113814E+04  0.17945113814E+04  0.50400001928E-02 0. -1.
    10030    2    1    2    0    0  0.00000000000E+00  0.00000000000E+00 -0.10231300516E+04  0.25658927112E+04  0.23530852732E+04 0.  0.
        3    1    3    3  502    0  0.10303261844E+04  0.33697357795E+03 -0.10102293484E+04  0.14817849321E+04  0.10100000352E+00 0. -1.
       -3    1    3    3    0  502 -0.10303261844E+04 -0.33697357795E+03 -0.12900703220E+02  0.10841077792E+04  0.10100000352E+00 0.  1.
</event>
<event>
 5   0  0.3320780E-05  0.2410968E+04  0.7818609E-02  0.8435409E-01
       -2   -1    0    0    0  501  0.00000000000E+00  0.00000000000E+00  0.13810617971E+04  0.13810617971E+04  0.25500000920E-02 0.  1.
        2   -1    0    0  501    0  0.00000000000E+00  0.00000000000E+00 -0.10522278044E+04  0.10522278044E+04  0.25500000920E-02 0. -1.
    10030    2    1    2    0    0  0.00000000000E+00  0.00000000000E+00  0.32883399266E+03  0.24332896015E+04  0.24109679571E+04 0.  0.
        5    1    3    3  502    0 -0.47590856819E+03 -0.10746829264E+04  0.43473470458E+03  0.12531754509E+04  0.46999998093E+01 0.  1.
       -5    1    3    3    0  502  0.47590856819E+03  0.10746829264E+04 -0.10590071192E+03  0.11801141505E+04  0.46999998093E+01 0. -1.
</event>
<event>
 5   0  0.3310037E-05  0.2395778E+04  0.7818609E-02  0.8441086E-01
       -2   -1    0    0    0  501  0.00000000000E+00  0.00000000000E+00  0.14433752448E+04  0.14433752448E+04  0.25500000920E-02 0. -1.
        2   -1    0    0  501    0  0.00000000000E+00  0.00000000000E+00 -0.99415477889E+03  0.99415477889E+03  0.25500000920E-02 0.  1.
    10030    2    1    2    0    0  0.00000000000E+00  0.00000000000E+00  0.44922046588E+03  0.24375300237E+04  0.23957782847E+04 0.  0.
        2    1    3    3  502    0 -0.85052956726E+03 -0.50419486690E+03 -0.46343344018E+03  0.10919631688E+04  0.25500000920E-02 0.  1.
       -2    1    3    3    0  502  0.85052956726E+03  0.50419486690E+03  0.91265390606E+03  0.13455668548E+04  0.25500000920E-02 0. -1.
</event>
<event>
 5   0  0.3320780E-05  0.2391588E+04  0.7818609E-02  0.8442660E-01
        2   -1    0    0  501    0  0.00000000000E+00  0.00000000000E+00  0.89284072978E+03  0.89284072979E+03  0.25500000920E-02 0.  1.
       -2   -1    0    0    0  501  0.00000000000E+00  0.00000000000E+00 -0.16015430844E+04  0.16015430844E+04  0.25500000920E-02 0. -1.
    10030    2    1    2    0    0  0.00000000000E+00  0.00000000000E+00 -0.70870235459E+03  0.24943838142E+04  0.23915876703E+04 0.  0.
        5    1    3    3  502    0  0.56040180146E+03 -0.61715002918E+03 -0.12485079931E+04  0.15012390337E+04  0.46999998093E+01 0. -1.
       -5    1    3    3    0  502 -0.56040180146E+03  0.61715002918E+03  0.53980563848E+03  0.99314478045E+03  0.46999998093E+01 0.  1.
</event>
<event>
 5   0  0.1434943E-05  0.2359807E+04  0.7818609E-02  0.8454707E-01
        1   -1    0    0  501    0  0.00000000000E+00  0.00000000000E+00  0.63484858570E+03  0.63484858572E+03  0.50400001928E-02 0. -1.
       -1   -1    0    0    0  501  0.00000000000E+00  0.00000000000E+00 -0.21929193376E+04  0.21929193377E+04  0.50400001928E-02 0.  1.
    10030    2    1    2    0    0  0.00000000000E+00  0.00000000000E+00 -0.15580707519E+04  0.28277679234E+04  0.23598065515E+04 0.  0.
        5    1    3    3  502    0  0.29653787069E+03  0.11121900571E+03  0.58295052434E+03  0.66344387842E+03  0.46999998093E+01 0. -1.
       -5    1    3    3    0  502 -0.29653787069E+03 -0.11121900571E+03 -0.21410212763E+04  0.21643240449E+04  0.46999998093E+01 0.  1.
</event>
<event>
 5   0  0.1393026E-05  0.2404242E+04  0.7818609E-02  0.8437917E-01
        1   -1    0    0  501    0  0.00000000000E+00  0.00000000000E+00  0.14606380567E+04  0.14606380567E+04  0.50400001928E-02 0.  1.
       -1   -1    0    0    0  501  0.00000000000E+00  0.00000000000E+00 -0.98935886897E+03  0.98935886898E+03  0.50400001928E-02 0. -1.
    10030    2    1    2    0    0  0.00000000000E+00  0.00000000000E+00  0.47127918776E+03  0.24499969257E+04  0.24042422638E+04 0.  0.
        4    1    3    3  502    0 -0.17197618557E+02  0.56071805941E+03 -0.84779341127E+03  0.10165902721E+04  0.12699999809E+01 0. -1.
       -4    1    3    3    0  502  0.17197618557E+02 -0.56071805941E+03  0.13190725990E+04  0.14334066536E+04  0.12699999809E+01 0.  1.
</event>
<event>
 5   0  0.3347728E-05  0.2403120E+04  0.7818609E-02  0.8438336E-01
       -2   -1    0    0    0  501  0.00000000000E+00  0.00000000000E+00  0.94004401793E+03  0.94004401793E+03  0.25500000920E-02 0. -1.
        2   -1    0    0  501    0  0.00000000000E+00  0.00000000000E+00 -0.15358284965E+04  0.15358284965E+04  0.25500000920E-02 0.  1.
    10030    2    1    2    0    0  0.00000000000E+00  0.00000000000E+00 -0.59578447859E+03  0.24758725144E+04  0.24031199643E+04 0.  0.
        3    1    3    3  502    0 -0.81770217296E+03 -0.79928921600E+03  0.82397986618E+02  0.11464246739E+04  0.10100000352E+00 0. -1.
       -3    1    3    3    0  502  0.81770217296E+03  0.79928921600E+03 -0.67818246521E+03  0.13294478406E+04  0.10100000352E+00 0.  1.
</event>
<event>
 5   0  0.1401596E-05  0.2412902E+04  0.7818609E-02  0.8434689E-01
       -1   -1    0    0    0  501  0.00000000000E+00  0.00000000000E+00  0.10726432948E+04  0.10726432948E+04  0.50400001928E-02 0. -1.
        1   -1    0    0  501    0  0.00000000000E+00  0.00000000000E+00 -0.13569508583E+04  0.13569508583E+04  0.50400001928E-02 0.  1.
    10030    2    1    2    0    0  0.00000000000E+00  0.00000000000E+00 -0.28430756347E+03  0.24295941531E+04  0.24129021858E+04 0.  0.
        2    1    3    3  502    0 -0.10596827162E+04 -0.32760681081E+03  0.33575634623E+03  0.11588727305E+04  0.25500000920E-02 0. -1.
       -2    1    3    3    0  502  0.10596827162E+04  0.32760681081E+03 -0.62006390970E+03  0.12707214225E+04  0.25500000920E-02 0.  1.
</event>
<event>
 5   0  0.3345974E-05  0.2586694E+04  0.7818609E-02  0.8372735E-01
        2   -1    0    0  501    0  0.00000000000E+00  0.00000000000E+00  0.72473178720E+03  0.72473178720E+03  0.25500000920E-02 0.  1.
       -2   -1    0    0    0  501  0.00000000000E+00  0.00000000000E+00 -0.23080896544E+04  0.23080896544E+04  0.25500000920E-02 0. -1.
    10030    2    1    2    0    0  0.00000000000E+00  0.00000000000E+00 -0.15833578672E+04  0.30328214416E+04  0.25866935963E+04 0.  0.
        4    1    3    3  502    0  0.10093364680E+04  0.31004566978E+03 -0.16673940993E+04  0.19735990267E+04  0.12699999809E+01 0. -1.
       -4    1    3    3    0  502 -0.10093364680E+04 -0.31004566978E+03  0.84036232074E+02  0.10592224149E+04  0.12699999809E+01 0.  1.
</event>
<event>
 5   0  0.1393026E-05  0.2388419E+04  0.7818609E-02  0.8443852E-01
       -1   -1    0    0    0  501  0.00000000000E+00  0.00000000000E+00  0.11343640321E+04  0.11343640321E+04  0.50400001928E-02 0. -1.
        1   -1    0    0  501    0  0.00000000000E+00  0.00000000000E+00 -0.12572126682E+04  0.12572126682E+04  0.50400001928E-02 0.  1.
    10030    2    1    2    0    0  0.00000000000E+00  0.00000000000E+00 -0.12284863608E+03  0.23915767003E+04  0.23884194200E+04 0.  0.
        4    1    3    3  502    0  0.89385006154E+03  0.26021183423E+03 -0.81038170740E+03  0.12342602059E+04  0.12699999809E+01 0.  1.
       -4    1    3    3    0  502 -0.89385006154E+03 -0.26021183423E+03  0.68753307132E+03  0.11573164944E+04  0.12699999809E+01 0. -1.
</event>
<event>
 5   0  0.1407158E-05  0.2383117E+04  0.7818609E-02  0.8445851E-01
       -1   -1    0    0    0  501  0.00000000000E+00  0.00000000000E+00  0.95627520363E+03  0.95627520364E+03  0.50400001928E-02 0. -1.
        1   -1    0    0  501    0  0.00000000000E+00  0.00000000000E+00 -0.14847311759E+04  0.14847311759E+04  0.50400001928E-02 0.  1.
    10030    2    1    2    0    0  0.00000000000E+00  0.00000000000E+00 -0.52845597224E+03  0.24410063795E+04  0.23831169569E+04 0.  0.
        1    1    3    3  502    0 -0.37600749905E+03 -0.18441690450E+03  0.87840593820E+03  0.97313320070E+03  0.50400001928E-02 0. -1.
       -1    1    3    3    0  502  0.37600749905E+03  0.18441690450E+03 -0.14068619104E+04  0.14678731788E+04  0.50400001928E-02 0.  1.
</event>
<event>
 5   0  0.1434943E-05  0.2374577E+04  0.7818609E-02  0.8449083E-01
       -1   -1    0    0    0  501  0.00000000000E+00  0.00000000000E+00  0.94557088592E+03  0.94557088593E+03  0.50400001928E-02 0. -1.
        1   -1    0    0  501    0  0.00000000000E+00  0.00000000000E+00 -0.14907964426E+04  0.14907964426E+04  0.50400001928E-02 0.  1.
    10030    2    1    2    0    0  0.00000000000E+00  0.00000000000E+00 -0.54522555665E+03  0.24363673285E+04  0.23745767732E+04 0.  0.
        5    1    3    3  502    0 -0.78210742675E+03  0.85391758149E+03 -0.35595210329E+01  0.11579732394E+04  0.46999998093E+01 0. -1.
       -5    1    3    3    0  502  0.78210742675E+03 -0.85391758149E+03 -0.54166603561E+03  0.12783940891E+04  0.46999998093E+01 0.  1.
</event>
<event>
 5   0  0.1506985E-05  0.2398083E+04  0.7818609E-02  0.8440222E-01
        1   -1    0    0  501    0  0.00000000000E+00  0.00000000000E+00  0.17514611702E+04  0.17514611702E+04  0.50400001928E-02 0. -1.
       -1   -1    0    0    0  501  0.00000000000E+00  0.00000000000E+00 -0.82085768867E+03  0.82085768869E+03  0.50400001928E-02 0.  1.
    10030    2    1    2    0    0  0.00000000000E+00  0.00000000000E+00  0.93060348153E+03  0.25723188589E+04  0.23980828743E+04 0.  0.
        3    1    3    3  502    0  0.44307576930E+03  0.11134288065E+04  0.50901183932E+03  0.13019726984E+04  0.10100000352E+00 0. -1.
       -3    1    3    3    0  502 -0.44307576930E+03 -0.11134288065E+04  0.42159164221E+03  0.12703461605E+04  0.10100000352E+00 0.  1.
</event>
<event>
 5   0  0.3310037E-05  0.2386538E+04  0.7818609E-02  0.8444561E-01
        2   -1    0    0  501    0  0.00000000000E+00  0.00000000000E+00  0.16317380411E+04  0.16317380411E+04  0.25500000920E-02 0. -1.
       -2   -1    0    0    0  501  0.00000000000E+00  0.00000000000E+00 -0.87262232552E+03  0.87262232552E+03  0.25500000920E-02 0.  1.
    10030    2    1    2    0    0  0.00000000000E+00  0.00000000000E+00  0.75911571560E+03  0.25043603666E+04  0.23865381154E+04 0.  0.
        2    1    3    3  502    0 -0.11220360940E+03  0.17379558933E+03  0.16127775688E+04  0.16259907882E+04  0.25500000920E-02 0. -1.
       -2    1    3    3    0  502  0.11220360940E+03 -0.17379558933E+03 -0.85366185317E+03  0.87836957848E+03  0.25500000920E-02 0.  1.
</event>
<event>
 5   0  0.1393026E-05  0.2404919E+04  0.7818609E-02  0.8437664E-01
        1   -1    0    0  501    0  0.00000000000E+00  0.00000000000E+00  0.19774118129E+04  0.19774118129E+04  0.50400001928E-02 0.  1.
       -1   -1    0    0    0  501  0.00000000000E+00  0.00000000000E+00 -0.73121287004E+03  0.73121287005E+03  0.50400001928E-02 0. -1.
    10030    2    1    2    0    0  0.00000000000E+00  0.00000000000E+00  0.12461989429E+04  0.27086246830E+04  0.24049190980E+04 0.  0.
        4    1    3    3  502    0 -0.70491054922E+03  0.32273503932E+03  0.16583329548E+04  0.18306082568E+04  0.12699999809E+01 0.  1.
       -4    1    3    3    0  502  0.70491054922E+03 -0.32273503932E+03 -0.41213401190E+03  0.87801642619E+03  0.12699999809E+01 0. -1.
</event>
<event>
 5   0  0.3347728E-05  0.2222342E+04  0.7818609E-02  0.8509186E-01
       -2   -1    0    0    0  501  0.00000000000E+00  0.00000000000E+00  0.98333292437E+03  0.98333292437E+03  0.25500000920E-02 0. -1.
        2   -1    0    0  501    0  0.00000000000E+00  0.00000000000E+00 -0.12556282352E+04  0.12556282352E+04  0.25500000920E-02 0.  1.
    10030    2    1    2    0    0  0.00000000000E+00  0.00000000000E+00 -0.27229531086E+03  0.22389611596E+04  0.22223416339E+04 0.  0.
        3    1    3    3  502    0  0.22116601979E+02  0.49242236678E+03  0.86715698834E+03  0.99746187095E+03  0.10100000352E+00 0. -1.
       -3    1    3    3    0  502 -0.22116601979E+02 -0.49242236678E+03 -0.11394522992E+04  0.12414992887E+04  0.10100000352E+00 0.  1.
</event>
<event>
 5   0  0.3345974E-05  0.2401229E+04  0.7818609E-02  0.8439044E-01
       -2   -1    0    0    0  501  0.00000000000E+00  0.00000000000E+00  0.66287302511E+03  0.66287302512E+03  0.25500000920E-02 0. -1.
        2   -1    0    0  501    0  0.00000000000E+00  0.00000000000E+00 -0.21745871940E+04  0.21745871940E+04  0.25500000920E-02 0.  1.
    10030    2    1    2    0    0  0.00000000000E+00  0.00000000000E+00 -0.15117141689E+04  0.28374602191E+04  0.24012290117E+04 0.  0.
        4    1    3    3  502    0  0.20050761190E+03 -0.10919258624E+04 -0.21567983706E+03  0.11309397846E+04  0.12699999809E+01 0. -1.
       -4    1    3    3    0  502 -0.20050761190E+03  0.10919258624E+04 -0.12960343318E+04  0.17065204346E+04  0.12699999809E+01 0.  1.
</event>
<event>
 5   0  0.1407158E-05  0.2410819E+04  0.7818609E-02  0.8435464E-01
        1   -1    0    0  501    0  0.00000000000E+00  0.00000000000E+00  0.28121429046E+04  0.28121429046E+04  0.50400001928E-02 0.  1.
       -1   -1    0    0    0  501  0.00000000000E+00  0.00000000000E+00 -0.51669205520E+03  0.51669205523E+03  0.50400001928E-02 0. -1.
    10030    2    1    2    0    0  0.00000000000E+00  0.00000000000E+00  0.22954508494E+04  0.33288349598E+04  0.24108188625E+04 0.  0.
        1    1    3    3  502    0 -0.81705801286E+03 -0.42291601853E+03  0.72329968107E+02  0.92286151693E+03  0.50400001928E-02 0. -1.
       -1    1    3    3    0  502  0.81705801286E+03  0.42291601853E+03  0.22231208813E+04  0.24059734429E+04  0.50400001928E-02 0.  1.
</event>
<event>
 5   0  0.3320780E-05  0.2396111E+04  0.7818609E-02  0.8440961E-01
       -2   -1    0    0    0  501  0.00000000000E+00  0.00000000000E+00  0.10444446453E+04  0.10444446453E+04  0.25500000920E-02 0. -1.
        2   -1    0    0  501    0  0.00000000000E+00  0.00000000000E+00 -0.13742590705E+04  0.13742590705E+04  0.25500000920E-02 0.  1.
    10030    2    1    2    0    0  0.00000000000E+00  0.00000000000E+00 -0.32981442520E+03  0.24187037158E+04  0.23961114561E+04 0.  0.
        5    1    3    3  502    0 -0.53649272005E+02  0.11577646906E+04 -0.47111224275E+03  0.12511059741E+04  0.46999998093E+01 0.  1.
       -5    1    3    3    0  502  0.53649272005E+02 -0.11577646906E+04  0.14129781755E+03  0.11675977417E+04  0.46999998093E+01 0. -1.
</event>
<event>
 5   0  0.3215208E-05  0.2419840E+04  0.7818609E-02  0.8432113E-01
        2   -1    0    0  501    0  0.00000000000E+00  0.00000000000E+00  0.17990505787E+04  0.17990505787E+04  0.25500000920E-02 0.  1.
       -2   -1    0    0    0  501  0.00000000000E+00  0.00000000000E+00 -0.81371024640E+03  0.81371024641E+03  0.25500000920E-02 0. -1.
    10030    2    1    2    0    0  0.00000000000E+00  0.00000000000E+00  0.98534033233E+03  0.26127608251E+04  0.24198395730E+04 0.  0.
        1    1    3    3  502    0  0.36423361194E+03 -0.48001548892E+03  0.16255196276E+04  0.17336075258E+04  0.50400001928E-02 0.  1.
       -1    1    3    3    0  502 -0.36423361194E+03  0.48001548892E+03 -0.64017929527E+03  0.87915329937E+03  0.50400001928E-02 0. -1.
</event>
<event>
 5   0  0.3347728E-05  0.2375631E+04  0.7818609E-02  0.8448684E-01
       -2   -1    0    0    0  501  0.00000000000E+00  0.00000000000E+00  0.12829677744E+04  0.12829677744E+04  0.25500000920E-02 0. -1.
        2   -1    0    0  501    0  0.00000000000E+00  0.00000000000E+00 -0.10997198436E+04  0.10997198436E+04  0.25500000920E-02 0.  1.
    10030    2    1    2    0    0  0.00000000000E+00  0.00000000000E+00  0.18324793074E+03  0.23826876180E+04  0.23756305438E+04 0.  0.
        3    1    3    3  502    0 -0.17730585868E+03 -0.85328807246E+03 -0.71784677098E+03  0.11290889686E+04  0.10100000352E+00 0.  1.
       -3    1    3    3    0  502  0.17730585868E+03  0.85328807246E+03  0.90109470172E+03  0.12535986494E+04  0.10100000352E+00 0. -1.
</event>
<event>
 5   0  0.1407158E-05  0.2396198E+04  0.7818609E-02  0.8440928E-01
       -1   -1    0    0    0  501  0.00000000000E+00  0.00000000000E+00  0.12552435997E+04  0.12552435997E+04  0.50400001928E-02 0.  1.
        1   -1    0    0  501    0  0.00000000000E+00  0.00000000000E+00 -0.11435561559E+04  0.11435561559E+04  0.50400001928E-02 0. -1.
    10030    2    1    2    0    0  0.00000000000E+00  0.00000000000E+00  0.11168744385E+03  0.23987997556E+04  0.23961982770E+04 0.  0.
        1    1    3    3  502    0 -0.10518688061E+04 -0.79428681224E+02 -0.51284400112E+03  0.11729219369E+04  0.50400001928E-02 0. -1.
       -1    1    3    3    0  502  0.10518688061E+04  0.79428681224E+02  0.62453144497E+03  0.12258778187E+04  0.50400001928E-02 0.  1.
</event>
<event>
 5   0  0.1401596E-05  0.2365558E+04  0.7818609E-02  0.8452512E-01
        1   -1    0    0  501    0  0.00000000000E+00  0.00000000000E+00  0.17539334930E+04  0.17539334930E+04  0.50400001928E-02 0. -1.
       -1   -1    0    0    0  501  0.00000000000E+00  0.00000000000E+00 -0.79761649759E+03  0.79761649761E+03  0.50400001928E-02 0.  1.
    10030    2    1    2    0    0  0.00000000000E+00  0.00000000000E+00  0.95631699539E+03  0.25515499906E+04  0.23655581073E+04 0.  0.
        2    1    3    3  502    0 -0.10526763569E+03 -0.47976096296E+03  0.16387280828E+04  0.17107546832E+04  0.25500000920E-02 0. -1.
       -2    1    3    3    0  502  0.10526763569E+03  0.47976096296E+03 -0.68241108742E+03  0.84079530740E+03  0.25500000920E-02 0.  1.
</event>
<event>
 5   0  0.3215208E-05  0.2387992E+04  0.7818609E-02  0.8444013E-01
        2   -1    0    0  501    0  0.00000000000E+00  0.00000000000E+00  0.14885567445E+04  0.14885567445E+04  0.25500000920E-02 0. -1.
       -2   -1    0    0    0  501  0.00000000000E+00  0.00000000000E+00 -0.95772362977E+03  0.95772362977E+03  0.25500000920E-02 0.  1.
    10030    2    1    2    0    0  0.00000000000E+00  0.00000000000E+00  0.53083311472E+03  0.24462803743E+04  0.23879915983E+04 0.  0.
        1    1    3    3  502    0  0.31286303898E+03 -0.77110998991E+03 -0.61171461497E+03  0.10328062102E+04  0.50400001928E-02 0. -1.
       -1    1    3    3    0  502 -0.31286303898E+03  0.77110998991E+03  0.11425477297E+04  0.14134741640E+04  0.50400001928E-02 0.  1.
</event>
<event>
 5   0  0.3347728E-05  0.2395030E+04  0.7818609E-02  0.8441366E-01
        2   -1    0    0  501    0  0.00000000000E+00  0.00000000000E+00  0.10031887247E+04  0.10031887247E+04  0.25500000920E-02 0.  1.
       -2   -1    0    0    0  501  0.00000000000E+00  0.00000000000E+00 -0.14294842771E+04  0.14294842771E+04  0.25500000920E-02 0. -1.
    10030    2    1    2    0    0  0.00000000000E+00  0.00000000000E+00 -0.42629555238E+03  0.24326730019E+04  0.23950302787E+04 0.  0.
        3    1    3    3  502    0 -0.34610156288E+03 -0.74462258613E+02  0.94882164590E+03  0.10127158761E+04  0.10100000352E+00 0.  1.
       -3    1    3    3    0  502  0.34610156288E+03  0.74462258613E+02 -0.13751171983E+04  0.14199571258E+04  0.10100000352E+00 0. -1.
</event>
<event>
 5   0  0.1434943E-05  0.2510521E+04  0.7818609E-02  0.8399247E-01
       -1   -1    0    0    0  501  0.00000000000E+00  0.00000000000E+00  0.73453180589E+03  0.73453180591E+03  0.50400001928E-02 0.  1.
        1   -1    0    0  501    0  0.00000000000E+00  0.00000000000E+00 -0.21451476901E+04  0.21451476901E+04  0.50400001928E-02 0. -1.
    10030    2    1    2    0    0  0.00000000000E+00  0.00000000000E+00 -0.14106158842E+04  0.28796794961E+04  0.25105212262E+04 0.  0.
        5    1    3    3  502    0  0.47515208449E+03 -0.72442139373E+03  0.33661087395E+03  0.92945404918E+03  0.46999998093E+01 0.  1.
       -5    1    3    3    0  502 -0.47515208449E+03  0.72442139373E+03 -0.17472267582E+04  0.19502254469E+04  0.46999998093E+01 0. -1.
</event>
<event>
 5   0  0.3347728E-05  0.2438914E+04  0.7818609E-02  0.8425077E-01
       -2   -1    0    0    0  501  0.00000000000E+00  0.00000000000E+00  0.12803743953E+04  0.12803743954E+04  0.25500000920E-02 0.  1.
        2   -1    0    0  501    0  0.00000000000E+00  0.00000000000E+00 -0.11614380247E+04  0.11614380247E+04  0.25500000920E-02 0. -1.
    10030    2    1    2    0    0  0.00000000000E+00  0.00000000000E+00  0.11893637064E+03  0.24418124201E+04  0.24389141097E+04 0.  0.
        3    1    3    3  502    0 -0.13260919244E+03  0.11797392534E+04  0.33855668175E+03  0.12345001178E+04  0.10100000352E+00 0.  1.
       -3    1    3    3    0  502  0.13260919244E+03 -0.11797392534E+04 -0.21962031111E+03  0.12073123023E+04  0.10100000352E+00 0. -1.
</event>
<event>
 5   0  0.1393026E-05  0.2377524E+04  0.7818609E-02  0.8447967E-01
       -1   -1    0    0    0  501  0.00000000000E+00  0.00000000000E+00  0.90974129455E+03  0.90974129456E+03  0.50400001928E-02 0.  1.
        1   -1    0    0  501    0  0.00000000000E+00  0.00000000000E+00 -0.15533589650E+04  0.15533589650E+04  0.50400001928E-02 0. -1.
    10030    2    1    2    0    0  0.00000000000E+00  0.00000000000E+00 -0.64361767042E+03  0.24631002595E+04  0.23775237502E+04 0.  0.
        4    1    3    3  502    0 -0.23040738342E+03 -0.11323861487E+04 -0.32903512639E+02  0.11560580462E+04  0.12699999809E+01 0.  1.
       -4    1    3    3    0  502  0.23040738342E+03  0.11323861487E+04 -0.61071415778E+03  0.13070422134E+04  0.12699999809E+01 0. -1.
</event>
<event>
 5   0  0.1393026E-05  0.2371043E+04  0.7818609E-02  0.8450425E-01
       -1   -1    0    0    0  501  0.00000000000E+00  0.00000000000E+00  0.64381105200E+03  0.64381105202E+03  0.50400001928E-02 0.  1.
        1   -1    0    0  501    0  0.00000000000E+00  0.00000000000E+00 -0.21830329297E+04  0.21830329297E+04  0.50400001928E-02 0. -1.
    10030    2    1    2    0    0  0.00000000000E+00  0.00000000000E+00 -0.15392218777E+04  0.28268439818E+04  0.23710425784E+04 0.  0.
        4    1    3    3  502    0 -0.12886030446E+03 -0.99907087700E+03 -0.15148413932E+04  0.18192013783E+04  0.12699999809E+01 0. -1.
       -4    1    3    3    0  502  0.12886030446E+03  0.99907087700E+03 -0.24380484493E+02  0.10076426034E+04  0.12699999809E+01 0.  1.
</event>
<event>
 5   0  0.3347728E-05  0.2391574E+04  0.7818609E-02  0.8442665E-01
        2   -1    0    0  501    0  0.00000000000E+00  0.00000000000E+00  0.11115044555E+04  0.11115044555E+04  0.25500000920E-02 0. -1.
       -2   -1    0    0    0  501  0.00000000000E+00  0.00000000000E+00 -0.12864606996E+04  0.12864606996E+04  0.25500000920E-02 0.  1.
    10030    2    1    2    0    0  0.00000000000E+00  0.00000000000E+00 -0.17495624412E+03  0.23979651551E+04  0.23915742091E+04 0.  0.
        3    1    3    3  502    0  0.98831607182E+03 -0.31158218262E+03 -0.68577584902E+03  0.12426345559E+04  0.10100000352E+00 0.  1.
       -3    1    3    3    0  502 -0.98831607182E+03  0.31158218262E+03  0.51081960490E+03  0.11553305991E+04  0.10100000352E+00 0. -1.
</event>
<event>
 5   0  0.1506985E-05  0.2379317E+04  0.7818609E-02  0.8447288E-01
        1   -1    0    0  501    0  0.00000000000E+00  0.00000000000E+00  0.12487513939E+04  0.12487513939E+04  0.50400001928E-02 0.  1.
       -1   -1    0    0    0  501  0.00000000000E+00  0.00000000000E+00 -0.11333618802E+04  0.11333618802E+04  0.50400001928E-02 0. -1.
    10030    2    1    2    0    0  0.00000000000E+00  0.00000000000E+00  0.11538951366E+03  0.23821132741E+04  0.23793169001E+04 0.  0.
        3    1    3    3  502    0  0.99413503914E+03  0.57771248273E+03 -0.24800166697E+03  0.11762487091E+04  0.10100000352E+00 0.  1.
       -3    1    3    3    0  502 -0.99413503914E+03 -0.57771248273E+03  0.36339118062E+03  0.12058645650E+04  0.10100000352E+00 0. -1.
</event>
<event>
 5   0  0.1407158E-05  0.2429131E+04  0.7818609E-02  0.8428677E-01
       -1   -1    0    0    0  501  0.00000000000E+00  0.00000000000E+00  0.13195034639E+04  0.13195034639E+04  0.50400001928E-02 0.  1.
        1   -1    0    0  501    0  0.00000000000E+00  0.00000000000E+00 -0.11179733150E+04  0.11179733150E+04  0.50400001928E-02 0. -1.
    10030    2    1    2    0    0  0.00000000000E+00  0.00000000000E+00  0.20153014893E+03  0.24374767789E+04  0.24291312535E+04 0.  0.
        1    1    3    3  502    0  0.75154141337E+03  0.52765921620E+03  0.89843700004E+03  0.12846897631E+04  0.50400001928E-02 0.  1.
       -1    1    3    3    0  502 -0.75154141337E+03 -0.52765921620E+03 -0.69690685111E+03  0.11527870157E+04  0.50400001928E-02 0. -1.
</event>
<event>
 5   0  0.1393026E-05  0.2468994E+04  0.7818609E-02  0.8414116E-01
       -1   -1    0    0    0  501  0.00000000000E+00  0.00000000000E+00  0.79963672986E+03  0.79963672988E+03  0.50400001928E-02 0. -1.
        1   -1    0    0  501    0  0.00000000000E+00  0.00000000000E+00 -0.19058433608E+04  0.19058433608E+04  0.50400001928E-02 0.  1.
    10030    2    1    2    0    0  0.00000000000E+00  0.00000000000E+00 -0.11062066309E+04  0.27054800907E+04  0.24689936028E+04 0.  0.
        4    1    3    3  502    0 -0.11208558049E+04  0.10050141818E+03  0.30130398286E+01  0.11253572596E+04  0.12699999809E+01 0. -1.
       -4    1    3    3    0  502  0.11208558049E+04 -0.10050141818E+03 -0.11092196708E+04  0.15801228311E+04  0.12699999809E+01 0.  1.
</event>
<event>
 5   0  0.3310037E-05  0.2497567E+04  0.7818609E-02  0.8403853E-01
        2   -1    0    0  501    0  0.00000000000E+00  0.00000000000E+00  0.12815433492E+04  0.12815433492E+04  0.25500000920E-02 0. -1.
       -2   -1    0    0    0  501  0.00000000000E+00  0.00000000000E+00 -0.12168610528E+04  0.12168610528E+04  0.25500000920E-02 0.  1.
    10030    2    1    2    0    0  0.00000000000E+00  0.00000000000E+00  0.64682296339E+02  0.24984044020E+04  0.24975669674E+04 0.  0.
        2    1    3    3  502    0  0.32078627478E+02  0.15423667642E+02 -0.12163535148E+04  0.12168741927E+04  0.25500000920E-02 0.  1.
       -2    1    3    3    0  502 -0.32078627478E+02 -0.15423667642E+02  0.12810358111E+04  0.12815302093E+04  0.25500000920E-02 0. -1.
</event>
<event>
 5   0  0.3310037E-05  0.2391686E+04  0.7818609E-02  0.8442623E-01
       -2   -1    0    0    0  501  0.00000000000E+00  0.00000000000E+00  0.10732712167E+04  0.10732712167E+04  0.25500000920E-02 0. -1.
        2   -1    0    0  501    0  0.00000000000E+00  0.00000000000E+00 -0.13324134349E+04  0.13324134349E+04  0.25500000920E-02 0.  1.
    10030    2    1    2    0    0  0.00000000000E+00  0.00000000000E+00 -0.25914221812E+03  0.24056846516E+04  0.23916864246E+04 0.  0.
        2    1    3    3  502    0 -0.55441923042E+03  0.28003168495E+03 -0.11574339219E+04  0.13135645059E+04  0.25500000920E-02 0.  1.
       -2    1    3    3    0  502  0.55441923042E+03 -0.28003168495E+03  0.89829170374E+03  0.10921201457E+04  0.25500000920E-02 0. -1.
</event>
<event>
 5   0  0.3310037E-05  0.2387215E+04  0.7818609E-02  0.8444306E-01
       -2   -1    0    0    0  501  0.00000000000E+00  0.00000000000E+00  0.12547322366E+04  0.12547322366E+04  0.25500000920E-02 0.  1.
        2   -1    0    0  501    0  0.00000000000E+00  0.00000000000E+00 -0.11354602038E+04  0.11354602038E+04  0.25500000920E-02 0. -1.
    10030    2    1    2    0    0  0.00000000000E+00  0.00000000000E+00  0.11927203277E+03  0.23901924403E+04  0.23872147126E+04 0.  0.
        2    1    3    3  502    0 -0.58620019509E+03 -0.75314687787E+03 -0.65808281307E+03  0.11592816212E+04  0.25500000920E-02 0. -1.
       -2    1    3    3    0  502  0.58620019509E+03  0.75314687787E+03  0.77735484583E+03  0.12309108192E+04  0.25500000920E-02 0.  1.
</event>
<event>
 5   0  0.1401596E-05  0.2384427E+04  0.7818609E-02  0.8445357E-01
        1   -1    0    0  501    0  0.00000000000E+00  0.00000000000E+00  0.82903815042E+03  0.82903815044E+03  0.50400001928E-02 0.  1.
       -1   -1    0    0    0  501  0.00000000000E+00  0.00000000000E+00 -0.17144845631E+04  0.17144845631E+04  0.50400001928E-02 0. -1.
    10030    2    1    2    0    0  0.00000000000E+00  0.00000000000E+00 -0.88544641264E+03  0.25435227135E+04  0.23844270684E+04 0.  0.
        2    1    3    3  502    0  0.35393081752E+03  0.23487277333E+03 -0.16310260066E+04  0.16854311251E+04  0.25500000920E-02 0. -1.
       -2    1    3    3    0  502 -0.35393081752E+03 -0.23487277333E+03  0.74557959394E+03  0.85809158843E+03  0.25500000920E-02 0.  1.
</event>
<event>
 5   0  0.1393026E-05  0.2413464E+04  0.7818609E-02  0.8434480E-01
       -1   -1    0    0    0  501  0.00000000000E+00  0.00000000000E+00  0.90586840532E+03  0.90586840533E+03  0.50400001928E-02 0.  1.
        1   -1    0    0  501    0  0.00000000000E+00  0.00000000000E+00 -0.16075206941E+04  0.16075206941E+04  0.50400001928E-02 0. -1.
    10030    2    1    2    0    0  0.00000000000E+00  0.00000000000E+00 -0.70165228874E+03  0.25133890994E+04  0.24134640728E+04 0.  0.
        4    1    3    3  502    0  0.50766321019E+03  0.79547667546E+03  0.43244162855E+03  0.10380329721E+04  0.12699999809E+01 0.  1.
       -4    1    3    3    0  502 -0.50766321019E+03 -0.79547667546E+03 -0.11340939173E+04  0.14753561273E+04  0.12699999809E+01 0. -1.
</event>
<event>
 5   0  0.1506985E-05  0.2422789E+04  0.7818609E-02  0.8431021E-01
       -1   -1    0    0    0  501  0.00000000000E+00  0.00000000000E+00  0.98849856624E+03  0.98849856625E+03  0.50400001928E-02 0.  1.
        1   -1    0    0  501    0  0.00000000000E+00  0.00000000000E+00 -0.14845514194E+04  0.14845514194E+04  0.50400001928E-02 0. -1.
    10030    2    1    2    0    0  0.00000000000E+00  0.00000000000E+00 -0.49605285320E+03  0.24730499857E+04  0.24227892600E+04 0.  0.
        3    1    3    3  502    0 -0.54683172700E+03  0.92160287018E+03 -0.82463455436E+03  0.13521830299E+04  0.10100000352E+00 0. -1.
       -3    1    3    3    0  502  0.54683172700E+03 -0.92160287018E+03  0.32858170116E+03  0.11208669558E+04  0.10100000352E+00 0.  1.
</event>
<event>
 5   0  0.3320780E-05  0.2406212E+04  0.7818609E-02  0.8437182E-01
        2   -1    0    0  501    0  0.00000000000E+00  0.00000000000E+00  0.18120708982E+04  0.18120708982E+04  0.25500000920E-02 0. -1.
       -2   -1    0    0    0  501  0.00000000000E+00  0.00000000000E+00 -0.79878971555E+03  0.79878971555E+03  0.25500000920E-02 0.  1.
    10030    2    1    2    0    0  0.00000000000E+00  0.00000000000E+00  0.10132811827E+04  0.26108606138E+04  0.24062116261E+04 0.  0.
        5    1    3    3  502    0  0.62177935023E+03 -0.44554093095E+03 -0.50095303418E+03  0.91438083641E+03  0.46999998093E+01 0.  1.
       -5    1    3    3    0  502 -0.62177935023E+03  0.44554093095E+03  0.15142342169E+04  0.16964797774E+04  0.46999998093E+01 0. -1.
</event>
<event>
 5   0  0.1393026E-05  0.2466349E+04  0.7818609E-02  0.8415073E-01
       -1   -1    0    0    0  501  0.00000000000E+00  0.00000000000E+00  0.83223573062E+03  0.83223573063E+03  0.50400001928E-02 0. -1.
        1   -1    0    0  501    0  0.00000000000E+00  0.00000000000E+00 -0.18272705565E+04  0.18272705565E+04  0.50400001928E-02 0.  1.
    10030    2    1    2    0    0  0.00000000000E+00  0.00000000000E+00 -0.99503482588E+03  0.26595062871E+04  0.24663494048E+04 0.  0.
        4    1    3    3  502    0  0.12227957341E+04  0.91862201268E+02 -0.63832001468E+03  0.13824334072E+04  0.12699999809E+01 0.  1.
       -4    1    3    3    0  502 -0.12227957341E+04 -0.91862201268E+02 -0.35671481120E+03  0.12770728800E+04  0.12699999809E+01 0. -1.
</event>
<event>
 5   0  0.3320780E-05  0.2528597E+04  0.7818609E-02  0.8392868E-01
       -2   -1    0    0    0  501  0.00000000000E+00  0.00000000000E+00  0.87033264314E+03  0.87033264315E+03  0.25500000920E-02 0. -1.
        2   -1    0    0  501    0  0.00000000000E+00  0.00000000000E+00 -0.18365972689E+04  0.18365972689E+04  0.25500000920E-02 0.  1.
    10030    2    1    2    0    0  0.00000000000E+00  0.00000000000E+00 -0.96626462576E+03  0.27069299121E+04  0.25285968880E+04 0.  0.
        5    1    3    3  502    0  0.10196018033E+04 -0.16041831618E+03 -0.12647681055E+04  0.16324773580E+04  0.46999998093E+01 0.  1.
       -5    1    3    3    0  502 -0.10196018033E+04  0.16041831618E+03  0.29850347977E+03  0.10744525541E+04  0.46999998093E+01 0. -1.
</event>
<event>
 5   0  0.1393026E-05  0.2036004E+04  0.7818609E-02  0.8589970E-01
       -1   -1    0    0    0  501  0.00000000000E+00  0.00000000000E+00  0.11479691744E+04  0.11479691744E+04  0.50400001928E-02 0. -1.
        1   -1    0    0  501    0  0.00000000000E+00  0.00000000000E+00 -0.90274890485E+03  0.90274890487E+03  0.50400001928E-02 0.  1.
    10030    2    1    2    0    0  0.00000000000E+00  0.00000000000E+00  0.24522026950E+03  0.20507180792E+04  0.20360038458E+04 0.  0.
        4    1    3    3  502    0 -0.77382520671E+03 -0.36335722635E+03 -0.43409798476E+03  0.95878913102E+03  0.12699999809E+01 0.  1.
       -4    1    3    3    0  502  0.77382520671E+03  0.36335722635E+03  0.67931825426E+03  0.10919289482E+04  0.12699999809E+01 0. -1.
</event>
<event>
 5   0  0.1434943E-05  0.2425653E+04  0.7818609E-02  0.8429962E-01
        1   -1    0    0  501    0  0.00000000000E+00  0.00000000000E+00  0.12630608350E+04  0.12630608350E+04  0.50400001928E-02 0.  1.
       -1   -1    0    0    0  501  0.00000000000E+00  0.00000000000E+00 -0.11645897458E+04  0.11645897458E+04  0.50400001928E-02 0. -1.
    10030    2    1    2    0    0  0.00000000000E+00  0.00000000000E+00  0.98471089274E+02  0.24276505808E+04  0.24256526518E+04 0.  0.
        5    1    3    3  502    0 -0.48375418284E+02 -0.39632254084E+03  0.11953922788E+04  0.12603160428E+04  0.46999998093E+01 0.  1.
       -5    1    3    3    0  502  0.48375418284E+02  0.39632254084E+03 -0.10969211896E+04  0.11673345380E+04  0.46999998093E+01 0. -1.
</event>
<event>
 5   0  0.1506985E-05  0.2378890E+04  0.7818609E-02  0.8447449E-01
       -1   -1    0    0    0  501  0.00000000000E+00  0.00000000000E+00  0.16172868025E+04  0.16172868025E+04  0.50400001928E-02 0. -1.
        1   -1    0    0  501    0  0.00000000000E+00  0.00000000000E+00 -0.87478596394E+03  0.87478596396E+03  0.50400001928E-02 0.  1.
    10030    2    1    2    0    0  0.00000000000E+00  0.00000000000E+00  0.74250083859E+03  0.24920727665E+04  0.23788903250E+04 0.  0.
        3    1    3    3  502    0 -0.26803562851E+03 -0.11253296343E+04  0.66112847516E+03  0.13324041260E+04  0.10100000352E+00 0.  1.
       -3    1    3    3    0  502  0.26803562851E+03  0.11253296343E+04  0.81372363433E+02  0.11596686405E+04  0.10100000352E+00 0. -1.
</event>
<event>
 5   0  0.1407158E-05  0.2395672E+04  0.7818609E-02  0.8441125E-01
        1   -1    0    0  501    0  0.00000000000E+00  0.00000000000E+00  0.16811991168E+04  0.16811991168E+04  0.50400001928E-02 0.  1.
       -1   -1    0    0    0  501  0.00000000000E+00  0.00000000000E+00 -0.85344539814E+03  0.85344539815E+03  0.50400001928E-02 0. -1.
    10030    2    1    2    0    0  0.00000000000E+00  0.00000000000E+00  0.82775371867E+03  0.25346445150E+04  0.23956724731E+04 0.  0.
        1    1    3    3  502    0  0.44129581533E+03 -0.10166224402E+04  0.89471687573E+03  0.14243530006E+04  0.50400001928E-02 0.  1.
       -1    1    3    3    0  502 -0.44129581533E+03  0.10166224402E+04 -0.66963157058E+02  0.11102915144E+04  0.50400001928E-02 0. -1.
</event>
<event>
 5   0  0.3345974E-05  0.2380756E+04  0.7818609E-02  0.8446744E-01
       -2   -1    0    0    0  501  0.00000000000E+00  0.00000000000E+00  0.12438373650E+04  0.12438373650E+04  0.25500000920E-02 0. -1.
        2   -1    0    0  501    0  0.00000000000E+00  0.00000000000E+00 -0.11392160583E+04  0.11392160583E+04  0.25500000920E-02 0.  1.
    10030    2    1    2    0    0  0.00000000000E+00  0.00000000000E+00  0.10462130663E+03  0.23830534233E+04  0.23807557625E+04 0.  0.
        4    1    3    3  502    0  0.26478223573E+03  0.42746178197E+03  0.11323165924E+04  0.12389413568E+04  0.12699999809E+01 0. -1.
       -4    1    3    3    0  502 -0.26478223573E+03 -0.42746178197E+03 -0.10276952858E+04  0.11441120665E+04  0.12699999809E+01 0.  1.
</event>
<event>
 5   0  0.3310037E-05  0.2362359E+04  0.7818609E-02  0.8453732E-01
        2   -1    0    0  501    0  0.00000000000E+00  0.00000000000E+00  0.17091391100E+04  0.17091391100E+04  0.25500000920E-02 0.  1.
       -2   -1    0    0    0  501  0.00000000000E+00  0.00000000000E+00 -0.81630853097E+03  0.81630853097E+03  0.25500000920E-02 0. -1.
    10030    2    1    2    0    0  0.00000000000E+00  0.00000000000E+00  0.89283057899E+03  0.25254476409E+04  0.23623588517E+04 0.  0.
        2    1    3    3  502    0  0.60797298451E+03  0.46056083793E+03  0.14105874065E+04  0.16035910535E+04  0.25500000920E-02 0.  1.
       -2    1    3    3    0  502 -0.60797298451E+03 -0.46056083793E+03 -0.51775682756E+03  0.92185658744E+03  0.25500000920E-02 0. -1.
</event>
<event>
 5   0  0.1506985E-05  0.2217688E+04  0.7818609E-02  0.8511102E-01
        1   -1    0    0  501    0  0.00000000000E+00  0.00000000000E+00  0.23587200760E+04  0.23587200760E+04  0.50400001928E-02 0. -1.
       -1   -1    0    0    0  501  0.00000000000E+00  0.00000000000E+00 -0.52127222060E+03  0.52127222062E+03  0.50400001928E-02 0.  1.
    10030    2    1    2    0    0  0.00000000000E+00  0.00000000000E+00  0.18374478554E+04  0.28799922966E+04  0.22176882124E+04 0.  0.
        3    1    3    3  502    0 -0.64382260166E+03  0.53731532080E+03  0.18608645987E+04  0.20410860740E+04  0.10100000352E+00 0. -1.
       -3    1    3    3    0  502  0.64382260166E+03 -0.53731532080E+03 -0.23416743301E+02  0.83890622268E+03  0.10100000352E+00 0.  1.
</event>
<event>
 5   0  0.3347728E-05  0.2401117E+04  0.7818609E-02  0.8439086E-01
       -2   -1    0    0    0  501  0.00000000000E+00  0.00000000000E+00  0.12570630726E+04  0.12570630726E+04  0.25500000920E-02 0. -1.
        2   -1    0    0  501    0  0.00000000000E+00  0.00000000000E+00 -0.11465933136E+04  0.11465933136E+04  0.25500000920E-02 0.  1.
    10030    2    1    2    0    0  0.00000000000E+00  0.00000000000E+00  0.11046975903E+03  0.24036563862E+04  0.24011165018E+04 0.  0.
        3    1    3    3  502    0 -0.22474622414E+03 -0.23691048869E+03 -0.11012805032E+04  0.11486758472E+04  0.10100000352E+00 0.  1.
       -3    1    3    3    0  502  0.22474622414E+03  0.23691048869E+03  0.12117502623E+04  0.12549805390E+04  0.10100000352E+00 0. -1.
</event>
<event>
 5   0  0.1407158E-05  0.2399450E+04  0.7818609E-02  0.8439710E-01
        1   -1    0    0  501    0  0.00000000000E+00  0.00000000000E+00  0.20011638956E+04  0.20011638956E+04  0.50400001928E-02 0.  1.
       -1   -1    0    0    0  501  0.00000000000E+00  0.00000000000E+00 -0.71925119698E+03  0.71925119700E+03  0.50400001928E-02 0. -1.
    10030    2    1    2    0    0  0.00000000000E+00  0.00000000000E+00  0.12819126986E+04  0.27204150926E+04  0.23994495430E+04 0.  0.
        1    1    3    3  502    0  0.96890866556E+03 -0.65949048204E+02 -0.15769028926E+03  0.98386965931E+03  0.50400001928E-02 0.  1.
       -1    1    3    3    0  502 -0.96890866556E+03  0.65949048204E+02  0.14396029879E+04  0.17365454333E+04  0.50400001928E-02 0. -1.
</event>
<event>
 5   0  0.1393026E-05  0.2562836E+04  0.7818609E-02  0.8380936E-01
        1   -1    0    0  501    0  0.00000000000E+00  0.00000000000E+00  0.12031850259E+04  0.12031850259E+04  0.50400001928E-02 0.  1.
       -1   -1    0    0    0  501  0.00000000000E+00  0.00000000000E+00 -0.13647374271E+04  0.13647374271E+04  0.50400001928E-02 0. -1.
    10030    2    1    2    0    0  0.00000000000E+00  0.00000000000E+00 -0.16155240124E+03  0.25679224530E+04  0.25628356456E+04 0.  0.
        4    1    3    3  502    0  0.15278990439E+02  0.14873301249E+03  0.11944143833E+04  0.12037368020E+04  0.12699999809E+01 0.  1.
       -4    1    3    3    0  502 -0.15278990439E+02 -0.14873301249E+03 -0.13559667846E+04  0.13641856510E+04  0.12699999809E+01 0. -1.
</event>
<event>
 5   0  0.1434943E-05  0.2537133E+04  0.7818609E-02  0.8389875E-01
        1   -1    0    0  501    0  0.00000000000E+00  0.00000000000E+00  0.26124124357E+04  0.26124124357E+04  0.50400001928E-02 0.  1.
       -1   -1    0    0    0  501  0.00000000000E+00  0.00000000000E+00 -0.61600575853E+03  0.61600575855E+03  0.50400001928E-02 0. -1.
    10030    2    1    2    0    0  0.00000000000E+00  0.00000000000E+00  0.19964066771E+04  0.32284181942E+04  0.25371331097E+04 0.  0.
        5    1    3    3  502    0 -0.49485358989E+03  0.87244393314E+03  0.19864773790E+04  0.22253433352E+04  0.46999998093E+01 0.  1.
       -5    1    3    3    0  502  0.49485358989E+03 -0.87244393314E+03  0.99292980948E+01  0.10030748591E+04  0.46999998093E+01 0. -1.
</event>
<event>
 5   0  0.3347728E-05  0.2402593E+04  0.7818609E-02  0.8438534E-01
        2   -1    0    0  501    0  0.00000000000E+00  0.00000000000E+00  0.19887486418E+04  0.19887486418E+04  0.25500000920E-02 0. -1.
       -2   -1    0    0    0  501  0.00000000000E+00  0.00000000000E+00 -0.72563856035E+03  0.72563856035E+03  0.25500000920E-02 0.  1.
    10030    2    1    2    0    0  0.00000000000E+00  0.00000000000E+00  0.12631100815E+04  0.27143872022E+04  0.24025925175E+04 0.  0.
        3    1    3    3  502    0  0.98348281269E+02 -0.28279669121E+03 -0.68280821143E+03  0.74556918980E+03  0.10100000352E+00 0.  1.
       -3    1    3    3    0  502 -0.98348281269E+02  0.28279669121E+03  0.19459182929E+04  0.19688180124E+04  0.10100000352E+00 0. -1.
</event>
<event>
 5   0  0.1407158E-05  0.2384334E+04  0.7818609E-02  0.8445392E-01
       -1   -1    0    0    0  501  0.00000000000E+00  0.00000000000E+00  0.74545996792E+03  0.74545996794E+03  0.50400001928E-02 0. -1.
        1   -1    0    0  501    0  0.00000000000E+00  0.00000000000E+00 -0.19065576756E+04  0.19065576756E+04  0.50400001928E-02 0.  1.
    10030    2    1    2    0    0  0.00000000000E+00  0.00000000000E+00 -0.11610977077E+04  0.26520176436E+04  0.23843342247E+04 0.  0.
        1    1    3    3  502    0  0.92019458031E+03  0.75432332318E+03 -0.66304194043E+03  0.13621256757E+04  0.50400001928E-02 0. -1.
       -1    1    3    3    0  502 -0.92019458031E+03 -0.75432332318E+03 -0.49805576730E+03  0.12898919679E+04  0.50400001928E-02 0.  1.
</event>
<event>
 5   0  0.3215208E-05  0.2421414E+04  0.7818609E-02  0.8431530E-01
        2   -1    0    0  501    0  0.00000000000E+00  0.00000000000E+00  0.20838242315E+04  0.20838242315E+04  0.25500000920E-02 0.  1.
       -2   -1    0    0    0  501  0.00000000000E+00  0.00000000000E+00 -0.70342389973E+03  0.70342389973E+03  0.25500000920E-02 0. -1.
    10030    2    1    2    0    0  0.00000000000E+00  0.00000000000E+00  0.13804003318E+04  0.27872481313E+04  0.24214142705E+04 0.  0.
        1    1    3    3  502    0 -0.87966185921E+03  0.66572374267E+03  0.12643801191E+04  0.16779899206E+04  0.50400001928E-02 0.  1.
       -1    1    3    3    0  502  0.87966185921E+03 -0.66572374267E+03  0.11602021271E+03  0.11092582107E+04  0.50400001928E-02 0. -1.
</event>
<event>
 5   0  0.1393026E-05  0.2388045E+04  0.7818609E-02  0.8443993E-01
       -1   -1    0    0    0  501  0.00000000000E+00  0.00000000000E+00  0.64058645989E+03  0.64058645991E+03  0.50400001928E-02 0.  1.
        1   -1    0    0  501    0  0.00000000000E+00  0.00000000000E+00 -0.22256001930E+04  0.22256001930E+04  0.50400001928E-02 0. -1.
    10030    2    1    2    0    0  0.00000000000E+00  0.00000000000E+00 -0.15850137331E+04  0.28661866529E+04  0.23880446803E+04 0.  0.
        4    1    3    3  502    0  0.85527297395E+03  0.58169420363E+03 -0.15084555845E+04  0.18290160934E+04  0.12699999809E+01 0.  1.
       -4    1    3    3    0  502 -0.85527297395E+03 -0.58169420363E+03 -0.76558148579E+02  0.10371705595E+04  0.12699999809E+01 0. -1.
</event>
<event>
 5   0  0.1434943E-05  0.2411932E+04  0.7818609E-02  0.8435050E-01
        1   -1    0    0  501    0  0.00000000000E+00  0.00000000000E+00  0.97303141329E+03  0.97303141331E+03  0.50400001928E-02 0. -1.
       -1   -1    0    0    0  501  0.00000000000E+00  0.00000000000E+00 -0.14946633814E+04  0.14946633814E+04  0.50400001928E-02 0.  1.
    10030    2    1    2    0    0  0.00000000000E+00  0.00000000000E+00 -0.52163196814E+03  0.24676947948E+04  0.24119323560E+04 0.  0.
        5    1    3    3  502    0 -0.77222825142E+03 -0.64617635487E+01 -0.12084886403E+04  0.14341705305E+04  0.46999998093E+01 0.  1.
       -5    1    3    3    0  502  0.77222825142E+03  0.64617635487E+01  0.68685667220E+03  0.10335242643E+04  0.46999998093E+01 0. -1.
</event>
<event>
 5   0  0.1401596E-05  0.2427851E+04  0.7818609E-02  0.8429150E-01
        1   -1    0    0  501    0  0.00000000000E+00  0.00000000000E+00  0.18164239861E+04  0.18164239861E+04  0.50400001928E-02 0.  1.
       -1   -1    0    0    0  501  0.00000000000E+00  0.00000000000E+00 -0.81127249587E+03  0.81127249589E+03  0.50400001928E-02 0. -1.
    10030    2    1    2    0    0  0.00000000000E+00  0.00000000000E+00  0.10051514902E+04  0.26276964820E+04  0.24278507539E+04 0.  0.
        2    1    3    3  502    0 -0.90094176007E+03 -0.19998519635E+03  0.13561122727E+04  0.16403446680E+04  0.25500000920E-02 0.  1.
       -2    1    3    3    0  502  0.90094176007E+03  0.19998519635E+03 -0.35096078243E+03  0.98735181400E+03  0.25500000920E-02 0. -1.
</event>
<event>
 5   0  0.1401596E-05  0.2393943E+04  0.7818609E-02  0.8441775E-01
       -1   -1    0    0    0  501  0.00000000000E+00  0.00000000000E+00  0.13294646142E+04  0.13294646143E+04  0.50400001928E-02 0.  1.
        1   -1    0    0  501    0  0.00000000000E+00  0.00000000000E+00 -0.10776826306E+04  0.10776826306E+04  0.50400001928E-02 0. -1.
    10030    2    1    2    0    0  0.00000000000E+00  0.00000000000E+00  0.25178198365E+03  0.24071472449E+04  0.23939431261E+04 0.  0.
        2    1    3    3  502    0  0.96371597054E+03 -0.17763526795E+03  0.81702348921E+03  0.12758644686E+04  0.25500000920E-02 0.  1.
       -2    1    3    3    0  502 -0.96371597054E+03  0.17763526795E+03 -0.56524150556E+03  0.11312827763E+04  0.25500000920E-02 0. -1.
</event>
<event>
 5   0  0.1434943E-05  0.2387080E+04  0.7818609E-02  0.8444357E-01
       -1   -1    0    0    0  501  0.00000000000E+00  0.00000000000E+00  0.17975552919E+04  0.17975552919E+04  0.50400001928E-02 0.  1.
        1   -1    0    0  501    0  0.00000000000E+00  0.00000000000E+00 -0.79248601334E+03  0.79248601336E+03  0.50400001928E-02 0. -1.
    10030    2    1    2    0    0  0.00000000000E+00  0.00000000000E+00  0.10050692786E+04  0.25900413053E+04  0.23870797449E+04 0.  0.
        5    1    3    3  502    0  0.11377471217E+04  0.36060551273E+03  0.49902071307E+03  0.12936570685E+04  0.46999998093E+01 0.  1.
       -5    1    3    3    0  502 -0.11377471217E+04 -0.36060551273E+03  0.50604856552E+03  0.12963842368E+04  0.46999998093E+01 0. -1.
</event>
<event>
 5   0  0.3310037E-05  0.2380774E+04  0.7818609E-02  0.8446737E-01
       -2   -1    0    0    0  501  0.00000000000E+00  0.00000000000E+00  0.73647108228E+03  0.73647108228E+03  0.25500000920E-02 0. -1.
        2   -1    0    0  501    0  0.00000000000E+00  0.00000000000E+00 -0.19240691257E+04  0.19240691257E+04  0.25500000920E-02 0.  1.
    10030    2    1    2    0    0  0.00000000000E+00  0.00000000000E+00 -0.11875980435E+04  0.26605402080E+04  0.23807740518E+04 0.  0.
        2    1    3    3  502    0  0.79917505408E+03  0.86304564419E+03 -0.79831481833E+03  0.14215607972E+04  0.25500000920E-02 0. -1.
       -2    1    3    3    0  502 -0.79917505408E+03 -0.86304564419E+03 -0.38928322513E+03  0.12389794108E+04  0.25500000920E-02 0.  1.
</event>
<event>
 5   0  0.1407158E-05  0.2402213E+04  0.7818609E-02  0.8438675E-01
       -1   -1    0    0    0  501  0.00000000000E+00  0.00000000000E+00  0.11380430326E+04  0.11380430326E+04  0.50400001928E-02 0. -1.
        1   -1    0    0  501    0  0.00000000000E+00  0.00000000000E+00 -0.12676648324E+04  0.12676648324E+04  0.50400001928E-02 0.  1.
    10030    2    1    2    0    0  0.00000000000E+00  0.00000000000E+00 -0.12962179986E+03  0.24057078650E+04  0.24022132547E+04 0.  0.
        1    1    3    3  502    0  0.76987394644E+03 -0.98693379083E+02 -0.98277452599E+03  0.12523146751E+04  0.50400001928E-02 0.  1.
       -1    1    3    3    0  502 -0.76987394644E+03  0.98693379083E+02  0.85315272613E+03  0.11533931899E+04  0.50400001928E-02 0. -1.
</event>
<event>
 5   0  0.1407158E-05  0.2403807E+04  0.7818609E-02  0.8438080E-01
        1   -1    0    0  501    0  0.00000000000E+00  0.00000000000E+00  0.14799915589E+04  0.14799915589E+04  0.50400001928E-02 0. -1.
       -1   -1    0    0    0  501  0.00000000000E+00  0.00000000000E+00 -0.97606736834E+03  0.97606736835E+03  0.50400001928E-02 0.  1.
    10030    2    1    2    0    0  0.00000000000E+00  0.00000000000E+00  0.50392419053E+03  0.24560589272E+04  0.24038065363E+04 0.  0.
        1    1    3    3  502    0 -0.56764407560E+03  0.68953520570E+03  0.10737418782E+04  0.13966389002E+04  0.50400001928E-02 0. -1.
       -1    1    3    3    0  502  0.56764407560E+03 -0.68953520570E+03 -0.56981768768E+03  0.10594200270E+04  0.50400001928E-02 0.  1.
</event>
<event>
 5   0  0.1407158E-05  0.2404080E+04  0.7818609E-02  0.8437978E-01
       -1   -1    0    0    0  501  0.00000000000E+00  0.00000000000E+00  0.69465572748E+03  0.69465572749E+03  0.50400001928E-02 0. -1.
        1   -1    0    0  501    0  0.00000000000E+00  0.00000000000E+00 -0.20800239396E+04  0.20800239396E+04  0.50400001928E-02 0.  1.
    10030    2    1    2    0    0  0.00000000000E+00  0.00000000000E+00 -0.13853682121E+04  0.27746796671E+04  0.24040803173E+04 0.  0.
        1    1    3    3  502    0 -0.27415838537E+03 -0.77836129475E+03  0.31605694324E+03  0.88368609631E+03  0.50400001928E-02 0. -1.
       -1    1    3    3    0  502  0.27415838537E+03  0.77836129475E+03 -0.17014251554E+04  0.18909935708E+04  0.50400001928E-02 0.  1.
</event>
<event>
 5   0  0.3345974E-05  0.2406895E+04  0.7818609E-02  0.8436927E-01
        2   -1    0    0  501    0  0.00000000000E+00  0.00000000000E+00  0.14485725442E+04  0.14485725442E+04  0.25500000920E-02 0. -1.
       -2   -1    0    0    0  501  0.00000000000E+00  0.00000000000E+00 -0.99980215943E+03  0.99980215943E+03  0.25500000920E-02 0.  1.
    10030    2    1    2    0    0  0.00000000000E+00  0.00000000000E+00  0.44877038474E+03  0.24483747036E+04  0.24068950602E+04 0.  0.
        4    1    3    3  502    0  0.65232409932E+03 -0.15335412997E+03  0.12412323072E+04  0.14105684928E+04  0.12699999809E+01 0. -1.
       -4    1    3    3    0  502 -0.65232409932E+03  0.15335412997E+03 -0.79246192242E+03  0.10378062108E+04  0.12699999809E+01 0.  1.
</event>
<event>
 5   0  0.1506985E-05  0.2424296E+04  0.7818609E-02  0.8430463E-01
       -1   -1    0    0    0  501  0.00000000000E+00  0.00000000000E+00  0.10469751185E+04  0.10469751185E+04  0.50400001928E-02 0. -1.
        1   -1    0    0  501    0  0.00000000000E+00  0.00000000000E+00 -0.14033786732E+04  0.14033786732E+04  0.50400001928E-02 0.  1.
    10030    2    1    2    0    0  0.00000000000E+00  0.00000000000E+00 -0.35640355468E+03  0.24503537918E+04  0.24242958175E+04 0.  0.
        3    1    3    3  502    0  0.11973520388E+04  0.53964829688E+02 -0.36108427255E+03  0.12517771246E+04  0.10100000352E+00 0.  1.
       -3    1    3    3    0  502 -0.11973520388E+04 -0.53964829688E+02  0.46807178630E+01  0.11985766671E+04  0.10100000352E+00 0. -1.
</event>
<event>
 5   0  0.3345974E-05  0.2390838E+04  0.7818609E-02  0.8442942E-01
       -2   -1    0    0    0  501  0.00000000000E+00  0.00000000000E+00  0.15932218351E+04  0.15932218351E+04  0.25500000920E-02 0. -1.
        2   -1    0    0  501    0  0.00000000000E+00  0.00000000000E+00 -0.89694165188E+03  0.89694165188E+03  0.25500000920E-02 0.  1.
    10030    2    1    2    0    0  0.00000000000E+00  0.00000000000E+00  0.69628018320E+03  0.24901634870E+04  0.23908383672E+04 0.  0.
        4    1    3    3  502    0  0.16604128203E+03 -0.11282385883E+04  0.72154982060E+03  0.13494916731E+04  0.12699999809E+01 0. -1.
       -4    1    3    3    0  502 -0.16604128203E+03  0.11282385883E+04 -0.25269637409E+02  0.11406718138E+04  0.12699999809E+01 0.  1.
</event>
<event>
 5   0  0.3347728E-05  0.2390720E+04  0.7818609E-02  0.8442986E-01
        2   -1    0    0  501    0  0.00000000000E+00  0.00000000000E+00  0.15254569429E+04  0.15254569429E+04  0.25500000920E-02 0. -1.
       -2   -1    0    0    0  501  0.00000000000E+00  0.00000000000E+00 -0.93669371725E+03  0.93669371725E+03  0.25500000920E-02 0.  1.
    10030    2    1    2    0    0  0.00000000000E+00  0.00000000000E+00  0.58876322565E+03  0.24621506602E+04  0.23907203386E+04 0.  0.
        3    1    3    3  502    0  0.50423618509E+03 -0.48030135064E+03 -0.70621400470E+03  0.99180731416E+03  0.10100000352E+00 0.  1.
       -3    1    3    3    0  502 -0.50423618509E+03  0.48030135064E+03  0.12949772303E+04  0.14703433460E+04  0.10100000352E+00 0. -1.
</event>
<event>
 5   0  0.3215208E-05  0.2278354E+04  0.7818609E-02  0.8486505E-01
        2   -1    0    0  501    0  0.00000000000E+00  0.00000000000E+00  0.14290918638E+04  0.14290918638E+04  0.25500000920E-02 0.  1.
       -2   -1    0    0    0  501  0.00000000000E+00  0.00000000000E+00 -0.90807654158E+03  0.90807654158E+03  0.25500000920E-02 0. -1.
    10030    2    1    2    0    0  0.00000000000E+00  0.00000000000E+00  0.52101532218E+03  0.23371684053E+04  0.22783544915E+04 0.  0.
        1    1    3    3  502    0  0.24325327491E+03  0.98774852362E+03 -0.26547150424E+03  0.10513298347E+04  0.50400001928E-02 0. -1.
       -1    1    3    3    0  502 -0.24325327491E+03 -0.98774852362E+03  0.78648682642E+03  0.12858385707E+04  0.50400001928E-02 0.  1.
</event>
<event>
 5   0  0.3345974E-05  0.2401040E+04  0.7818609E-02  0.8439114E-01
       -2   -1    0    0    0  501  0.00000000000E+00  0.00000000000E+00  0.75810846909E+03  0.75810846909E+03  0.25500000920E-02 0. -1.
        2   -1    0    0  501    0  0.00000000000E+00  0.00000000000E+00 -0.19011109641E+04  0.19011109641E+04  0.25500000920E-02 0.  1.
    10030    2    1    2    0    0  0.00000000000E+00  0.00000000000E+00 -0.11430024950E+04  0.26592194331E+04  0.24010400434E+04 0.  0.
        4    1    3    3  502    0 -0.12040354620E+03 -0.51930737853E+03 -0.17628379006E+04  0.18416775625E+04  0.12699999809E+01 0.  1.
       -4    1    3    3    0  502  0.12040354620E+03  0.51930737853E+03  0.61983540565E+03  0.81754187068E+03  0.12699999809E+01 0. -1.
</event>
<event>
 5   0  0.1506985E-05  0.2398800E+04  0.7818609E-02  0.8439953E-01
       -1   -1    0    0    0  501  0.00000000000E+00  0.00000000000E+00  0.14835128213E+04  0.14835128213E+04  0.50400001928E-02 0.  1.
        1   -1    0    0  501    0  0.00000000000E+00  0.00000000000E+00 -0.96969860862E+03  0.96969860863E+03  0.50400001928E-02 0. -1.
    10030    2    1    2    0    0  0.00000000000E+00  0.00000000000E+00  0.51381421271E+03  0.24532114300E+04  0.23987999656E+04 0.  0.
        3    1    3    3  502    0  0.72023228654E+03  0.38694031525E+03 -0.64055338798E+03  0.10386366098E+04  0.10100000352E+00 0. -1.
       -3    1    3    3    0  502 -0.72023228654E+03 -0.38694031525E+03  0.11543676007E+04  0.14145748202E+04  0.10100000352E+00 0.  1.
</event>
<event>
 5   0  0.3347728E-05  0.2417066E+04  0.7818609E-02  0.8433142E-01
       -2   -1    0    0    0  501  0.00000000000E+00  0.00000000000E+00  0.15319180541E+04  0.15319180541E+04  0.25500000920E-02 0.  1.
        2   -1    0    0  501    0  0.00000000000E+00  0.00000000000E+00 -0.95341374785E+03  0.95341374785E+03  0.25500000920E-02 0. -1.
    10030    2    1    2    0    0  0.00000000000E+00  0.00000000000E+00  0.57850430624E+03  0.24853318019E+04  0.24170657694E+04 0.  0.
        3    1    3    3  502    0 -0.61172709893E+03 -0.79392321387E+03  0.98362299880E+03  0.14042928210E+04  0.10100000352E+00 0.  1.
       -3    1    3    3    0  502  0.61172709893E+03  0.79392321387E+03 -0.40511869256E+03  0.10810389810E+04  0.10100000352E+00 0. -1.
</event>
<event>
 5   0  0.1407158E-05  0.2402312E+04  0.7818609E-02  0.8438639E-01
        1   -1    0    0  501    0  0.00000000000E+00  0.00000000000E+00  0.91671041803E+03  0.91671041805E+03  0.50400001928E-02 0. -1.
       -1   -1    0    0    0  501  0.00000000000E+00  0.00000000000E+00 -0.15738617649E+04  0.15738617649E+04  0.50400001928E-02 0.  1.
    10030    2    1    2    0    0  0.00000000000E+00  0.00000000000E+00 -0.65715134689E+03  0.24905721830E+04  0.24023117837E+04 0.  0.
        1    1    3    3  502    0 -0.33546500151E+03  0.75095305435E+02 -0.15217723618E+04  0.15601176857E+04  0.50400001928E-02 0.  1.
       -1    1    3    3    0  502  0.33546500151E+03 -0.75095305435E+02  0.86462101488E+03  0.93045449729E+03  0.50400001928E-02 0. -1.
</event>
<event>
 5   0  0.3345974E-05  0.2401747E+04  0.7818609E-02  0.8438850E-01
        2   -1    0    0  501    0  0.00000000000E+00  0.00000000000E+00  0.18515312687E+04  0.18515312688E+04  0.25500000920E-02 0.  1.
       -2   -1    0    0    0  501  0.00000000000E+00  0.00000000000E+00 -0.77886725822E+03  0.77886725823E+03  0.25500000920E-02 0. -1.
    10030    2    1    2    0    0  0.00000000000E+00  0.00000000000E+00  0.10726640105E+04  0.26303985270E+04  0.24017469332E+04 0.  0.
        4    1    3    3  502    0  0.20344829050E+03 -0.25711737484E+03 -0.72889671387E+03  0.79924500858E+03  0.12699999809E+01 0. -1.
       -4    1    3    3    0  502 -0.20344829050E+03  0.25711737484E+03  0.18015607244E+04  0.18311535184E+04  0.12699999809E+01 0.  1.
</event>
<event>
 5   0  0.3310037E-05  0.2333992E+04  0.7818609E-02  0.8464638E-01
        2   -1    0    0  501    0  0.00000000000E+00  0.00000000000E+00  0.12496600654E+04  0.12496600654E+04  0.25500000920E-02 0. -1.
       -2   -1    0    0    0  501  0.00000000000E+00  0.00000000000E+00 -0.10897998263E+04  0.10897998263E+04  0.25500000920E-02 0.  1.
    10030    2    1    2    0    0  0.00000000000E+00  0.00000000000E+00  0.15986023903E+03  0.23394598917E+04  0.23339917071E+04 0.  0.
        2    1    3    3  502    0 -0.82909271014E+03  0.73737364857E+02  0.89979963623E+03  0.12257533628E+04  0.25500000920E-02 0. -1.
       -2    1    3    3    0  502  0.82909271014E+03 -0.73737364857E+02 -0.73993939720E+03  0.11137065289E+04  0.25500000920E-02 0.  1.
</event>
<event>
 5   0  0.3215208E-05  0.2347988E+04  0.7818609E-02  0.8459237E-01
       -2   -1    0    0    0  501  0.00000000000E+00  0.00000000000E+00  0.15790841755E+04  0.15790841755E+04  0.25500000920E-02 0.  1.
        2   -1    0    0  501    0  0.00000000000E+00  0.00000000000E+00 -0.87282370599E+03  0.87282370600E+03  0.25500000920E-02 0. -1.
    10030    2    1    2    0    0  0.00000000000E+00  0.00000000000E+00  0.70626046953E+03  0.24519078815E+04  0.23479881619E+04 0.  0.
        1    1    3    3  502    0 -0.63592623880E+02 -0.93896100772E+03 -0.37976578061E+03  0.10148467096E+04  0.50400001928E-02 0. -1.
       -1    1    3    3    0  502  0.63592623880E+02  0.93896100772E+03  0.10860262501E+04  0.14370611719E+04  0.50400001928E-02 0.  1.
</event>
<event>
 5   0  0.3347728E-05  0.2410558E+04  0.7818609E-02  0.8435561E-01
       -2   -1    0    0    0  501  0.00000000000E+00  0.00000000000E+00  0.69924977715E+03  0.69924977716E+03  0.25500000920E-02 0. -1.
        2   -1    0    0  501    0  0.00000000000E+00  0.00000000000E+00 -0.20775086413E+04  0.20775086413E+04  0.25500000920E-02 0.  1.
    10030    2    1    2    0    0  0.00000000000E+00  0.00000000000E+00 -0.13782588641E+04  0.27767584184E+04  0.24105579889E+04 0.  0.
        3    1    3    3  502    0  0.45809548735E+03  0.83739001520E+03 -0.15368826292E+04  0.18091660341E+04  0.10100000352E+00 0.  1.
       -3    1    3    3    0  502 -0.45809548735E+03 -0.83739001520E+03  0.15862376505E+03  0.96759238428E+03  0.10100000352E+00 0. -1.
</event>
<event>
 5   0  0.3310037E-05  0.2406486E+04  0.7818609E-02  0.8437079E-01
       -2   -1    0    0    0  501  0.00000000000E+00  0.00000000000E+00  0.18140016273E+04  0.18140016274E+04  0.25500000920E-02 0.  1.
        2   -1    0    0  501    0  0.00000000000E+00  0.00000000000E+00 -0.79812164474E+03  0.79812164475E+03  0.25500000920E-02 0. -1.
    10030    2    1    2    0    0  0.00000000000E+00  0.00000000000E+00  0.10158799826E+04  0.26121232721E+04  0.24064862039E+04 0.  0.
        2    1    3    3  502    0 -0.68463188023E+03 -0.92916157814E+03  0.13867608682E+03  0.11624513352E+04  0.25500000920E-02 0.  1.
       -2    1    3    3    0  502  0.68463188023E+03  0.92916157814E+03  0.87720389579E+03  0.14496719369E+04  0.25500000920E-02 0. -1.
</event>
<event>
 5   0  0.1401596E-05  0.2415934E+04  0.7818609E-02  0.8433562E-01
        1   -1    0    0  501    0  0.00000000000E+00  0.00000000000E+00  0.14849796865E+04  0.14849796865E+04  0.50400001928E-02 0.  1.
       -1   -1    0    0    0  501  0.00000000000E+00  0.00000000000E+00 -0.98262916707E+03  0.98262916708E+03  0.50400001928E-02 0. -1.
    10030    2    1    2    0    0  0.00000000000E+00  0.00000000000E+00  0.50235051940E+03  0.24676088536E+04  0.24159340657E+04 0.  0.
        2    1    3    3  502    0  0.22865516911E+03 -0.20037111880E+03 -0.94291235426E+03  0.99071463068E+03  0.25500000920E-02 0. -1.
       -2    1    3    3    0  502 -0.22865516911E+03  0.20037111880E+03  0.14452628737E+04  0.14768942229E+04  0.25500000920E-02 0.  1.
</event>
<event>
 5   0  0.1401596E-05  0.2379915E+04  0.7818609E-02  0.8447061E-01
       -1   -1    0    0    0  501  0.00000000000E+00  0.00000000000E+00  0.10976410591E+04  0.10976410591E+04  0.50400001928E-02 0. -1.
        1   -1    0    0  501    0  0.00000000000E+00  0.00000000000E+00 -0.12900386111E+04  0.12900386111E+04  0.50400001928E-02 0.  1.
    10030    2    1    2    0    0  0.00000000000E+00  0.00000000000E+00 -0.19239755197E+03  0.23876796702E+04  0.23799154165E+04 0.  0.
        2    1    3    3  502    0  0.27663200138E+02  0.25555197203E+02 -0.12894405628E+04  0.12899904208E+04  0.25500000920E-02 0.  1.
       -2    1    3    3    0  502 -0.27663200138E+02 -0.25555197203E+02  0.10970430108E+04  0.10976892494E+04  0.25500000920E-02 0. -1.
</event>
<event>
 5   0  0.1393026E-05  0.2378125E+04  0.7818609E-02  0.8447739E-01
        1   -1    0    0  501    0  0.00000000000E+00  0.00000000000E+00  0.14918118114E+04  0.14918118114E+04  0.50400001928E-02 0. -1.
       -1   -1    0    0    0  501  0.00000000000E+00  0.00000000000E+00 -0.94775353877E+03  0.94775353878E+03  0.50400001928E-02 0.  1.
    10030    2    1    2    0    0  0.00000000000E+00  0.00000000000E+00  0.54405827264E+03  0.24395653502E+04  0.23781252477E+04 0.  0.
        4    1    3    3  502    0 -0.74729263672E+03 -0.53162963369E+03 -0.50435416996E+03  0.10466379957E+04  0.12699999809E+01 0.  1.
       -4    1    3    3    0  502  0.74729263672E+03  0.53162963369E+03  0.10484124426E+04  0.13929273545E+04  0.12699999809E+01 0. -1.
</event>
<event>
 5   0  0.1434943E-05  0.2550330E+04  0.7818609E-02  0.8385271E-01
        1   -1    0    0  501    0  0.00000000000E+00  0.00000000000E+00  0.24629537025E+04  0.24629537025E+04  0.50400001928E-02 0.  1.
       -1   -1    0    0    0  501  0.00000000000E+00  0.00000000000E+00 -0.66020141877E+03  0.66020141879E+03  0.50400001928E-02 0. -1.
    10030    2    1    2    0    0  0.00000000000E+00  0.00000000000E+00  0.18027522837E+04  0.31231551213E+04  0.25503298052E+04 0.  0.
        5    1    3    3  502    0 -0.20892156687E+03  0.91415627417E+03 -0.15682542763E+03  0.95076086344E+03  0.46999998093E+01 0. -1.
       -5    1    3    3    0  502  0.20892156687E+03 -0.91415627417E+03  0.19595777113E+04  0.21723942578E+04  0.46999998093E+01 0.  1.
</event>
<event>
 5   0  0.1434943E-05  0.2388460E+04  0.7818609E-02  0.8443836E-01
       -1   -1    0    0    0  501  0.00000000000E+00  0.00000000000E+00  0.16009578700E+04  0.16009578700E+04  0.50400001928E-02 0. -1.
        1   -1    0    0  501    0  0.00000000000E+00  0.00000000000E+00 -0.89083279625E+03  0.89083279626E+03  0.50400001928E-02 0.  1.
    10030    2    1    2    0    0  0.00000000000E+00  0.00000000000E+00  0.71012507370E+03  0.24917906662E+04  0.23884604045E+04 0.  0.
        5    1    3    3  502    0  0.65243763676E+03  0.99744992795E+03  0.27711431427E+03  0.12236811929E+04  0.46999998093E+01 0.  1.
       -5    1    3    3    0  502 -0.65243763676E+03 -0.99744992795E+03  0.43301075943E+03  0.12681094734E+04  0.46999998093E+01 0. -1.
</event>
<event>
 5   0  0.3347728E-05  0.2388520E+04  0.7818609E-02  0.8443814E-01
       -2   -1    0    0    0  501  0.00000000000E+00  0.00000000000E+00  0.11843352459E+04  0.11843352459E+04  0.25500000920E-02 0.  1.
        2   -1    0    0  501    0  0.00000000000E+00  0.00000000000E+00 -0.12042683845E+04  0.12042683845E+04  0.25500000920E-02 0. -1.
    10030    2    1    2    0    0  0.00000000000E+00  0.00000000000E+00 -0.19933138537E+02  0.23886036304E+04  0.23885204569E+04 0.  0.
        3    1    3    3  502    0 -0.96473767581E+03 -0.18282494670E+01  0.69400066667E+03  0.11884271375E+04  0.10100000352E+00 0.  1.
       -3    1    3    3    0  502  0.96473767581E+03  0.18282494670E+01 -0.71393380521E+03  0.12001764929E+04  0.10100000352E+00 0. -1.
</event>
<event>
 5   0  0.3347728E-05  0.2416759E+04  0.7818609E-02  0.8433256E-01
        2   -1    0    0  501    0  0.00000000000E+00  0.00000000000E+00  0.25328300797E+04  0.25328300797E+04  0.25500000920E-02 0.  1.
       -2   -1    0    0    0  501  0.00000000000E+00  0.00000000000E+00 -0.57650189080E+03  0.57650189081E+03  0.25500000920E-02 0. -1.
    10030    2    1    2    0    0  0.00000000000E+00  0.00000000000E+00  0.19563281889E+04  0.31093319706E+04  0.24167592599E+04 0.  0.
        3    1    3    3  502    0 -0.17904643398E+03  0.14789200486E+02  0.25155516250E+04  0.25219588288E+04  0.10100000352E+00 0.  1.
       -3    1    3    3    0  502  0.17904643398E+03 -0.14789200486E+02 -0.55922343607E+03  0.58737314173E+03  0.10100000352E+00 0. -1.
</event>
<event>
 5   0  0.1434943E-05  0.2407774E+04  0.7818609E-02  0.8436599E-01
       -1   -1    0    0    0  501  0.00000000000E+00  0.00000000000E+00  0.10797842664E+04  0.10797842665E+04  0.50400001928E-02 0. -1.
        1   -1    0    0  501    0  0.00000000000E+00  0.00000000000E+00 -0.13422527167E+04  0.13422527167E+04  0.50400001928E-02 0.  1.
    10030    2    1    2    0    0  0.00000000000E+00  0.00000000000E+00 -0.26246845025E+03  0.24220369832E+04  0.24077735484E+04 0.  0.
        5    1    3    3  502    0 -0.82550750594E+03  0.40715000084E+03 -0.91177382268E+03  0.12956030871E+04  0.46999998093E+01 0.  1.
       -5    1    3    3    0  502  0.82550750594E+03 -0.40715000084E+03  0.64930537243E+03  0.11264338961E+04  0.46999998093E+01 0. -1.
</event>
<event>
 5   0  0.3215208E-05  0.2400595E+04  0.7818609E-02  0.8439281E-01
        2   -1    0    0  501    0  0.00000000000E+00  0.00000000000E+00  0.21072858316E+04  0.21072858316E+04  0.25500000920E-02 0. -1.
       -2   -1    0    0    0  501  0.00000000000E+00  0.00000000000E+00 -0.68368238104E+03  0.68368238105E+03  0.25500000920E-02 0.  1.
    10030    2    1    2    0    0  0.00000000000E+00  0.00000000000E+00  0.14236034505E+04  0.27909682126E+04  0.24005950886E+04 0.  0.
        1    1    3    3  502    0 -0.94863687432E+03  0.14624942946E+03  0.15497024061E+04  0.18228763980E+04  0.50400001928E-02 0. -1.
       -1    1    3    3    0  502  0.94863687432E+03 -0.14624942946E+03 -0.12609895555E+03  0.96809181463E+03  0.50400001928E-02 0.  1.
</event>
<event>
 5   0  0.1401596E-05  0.2380877E+04  0.7818609E-02  0.8446698E-01
        1   -1    0    0  501    0  0.00000000000E+00  0.00000000000E+00  0.24198449213E+04  0.24198449213E+04  0.50400001928E-02 0.  1.
       -1   -1    0    0    0  501  0.00000000000E+00  0.00000000000E+00 -0.58563416506E+03  0.58563416508E+03  0.50400001928E-02 0. -1.
    10030    2    1    2    0    0  0.00000000000E+00  0.00000000000E+00  0.18342107563E+04  0.30054790864E+04  0.23808770318E+04 0.  0.
        2    1    3    3  502    0  0.62104409062E+03 -0.14475240322E+03  0.21860532883E+04  0.22771644648E+04  0.25500000920E-02 0.  1.
       -2    1    3    3    0  502 -0.62104409062E+03  0.14475240322E+03 -0.35184253198E+03  0.72831462160E+03  0.25500000920E-02 0. -1.
</event>
<event>
 5   0  0.3347728E-05  0.2292129E+04  0.7818609E-02  0.8481031E-01
        2   -1    0    0  501    0  0.00000000000E+00  0.00000000000E+00  0.10990117100E+04  0.10990117100E+04  0.25500000920E-02 0.  1.
       -2   -1    0    0    0  501  0.00000000000E+00  0.00000000000E+00 -0.11951316931E+04  0.11951316931E+04  0.25500000920E-02 0. -1.
    10030    2    1    2    0    0  0.00000000000E+00  0.00000000000E+00 -0.96119983143E+02  0.22941434031E+04  0.22921289019E+04 0.  0.
        3    1    3    3  502    0 -0.61195843811E+03 -0.95947581184E+03  0.87620029379E+02  0.11413869822E+04  0.10100000352E+00 0. -1.
       -3    1    3    3    0  502  0.61195843811E+03  0.95947581184E+03 -0.18374001252E+03  0.11527564209E+04  0.10100000352E+00 0.  1.
</event>
<event>
 5   0  0.3345974E-05  0.2418756E+04  0.7818609E-02  0.8432515E-01
        2   -1    0    0  501    0  0.00000000000E+00  0.00000000000E+00  0.16074398570E+04  0.16074398570E+04  0.25500000920E-02 0. -1.
       -2   -1    0    0    0  501  0.00000000000E+00  0.00000000000E+00 -0.90989098442E+03  0.90989098442E+03  0.25500000920E-02 0.  1.
    10030    2    1    2    0    0  0.00000000000E+00  0.00000000000E+00  0.69754887257E+03  0.25173308414E+04  0.24187559066E+04 0.  0.
        4    1    3    3  502    0 -0.58041678454E+03 -0.74853750921E+03 -0.43380185000E+03  0.10418146210E+04  0.12699999809E+01 0. -1.
       -4    1    3    3    0  502  0.58041678454E+03  0.74853750921E+03  0.11313507226E+04  0.14755162205E+04  0.12699999809E+01 0.  1.
</event>
<event>
 5   0  0.3320780E-05  0.2481818E+04  0.7818609E-02  0.8409492E-01
       -2   -1    0    0    0  501  0.00000000000E+00  0.00000000000E+00  0.12699189612E+04  0.12699189612E+04  0.25500000920E-02 0. -1.
        2   -1    0    0  501    0  0.00000000000E+00  0.00000000000E+00 -0.12125616360E+04  0.12125616360E+04  0.25500000920E-02 0.  1.
    10030    2    1    2    0    0  0.00000000000E+00  0.00000000000E+00  0.57357325200E+02  0.24824805972E+04  0.24818178928E+04 0.  0.
        5    1    3    3  502    0 -0.49421815753E+03  0.52269990820E+03  0.10400698861E+04  0.12646083344E+04  0.46999998093E+01 0. -1.
       -5    1    3    3    0  502  0.49421815753E+03 -0.52269990820E+03 -0.98271256095E+03  0.12178722629E+04  0.46999998093E+01 0.  1.
</event>
<event>
 5   0  0.1407158E-05  0.2425460E+04  0.7818609E-02  0.8430033E-01
       -1   -1    0    0    0  501  0.00000000000E+00  0.00000000000E+00  0.19831936067E+04  0.19831936067E+04  0.50400001928E-02 0. -1.
        1   -1    0    0  501    0  0.00000000000E+00  0.00000000000E+00 -0.74158884722E+03  0.74158884723E+03  0.50400001928E-02 0.  1.
    10030    2    1    2    0    0  0.00000000000E+00  0.00000000000E+00  0.12416047595E+04  0.27247824539E+04  0.24254601713E+04 0.  0.
        1    1    3    3  502    0  0.13490379572E+03 -0.36535786189E+03  0.19110255458E+04  0.19503087032E+04  0.50400001928E-02 0. -1.
       -1    1    3    3    0  502 -0.13490379572E+03  0.36535786189E+03 -0.66942078630E+03  0.77447375068E+03  0.50400001928E-02 0.  1.
</event>
<event>
 5   0  0.1506985E-05  0.2406846E+04  0.7818609E-02  0.8436945E-01
        1   -1    0    0  501    0  0.00000000000E+00  0.00000000000E+00  0.13691409400E+04  0.13691409400E+04  0.50400001928E-02 0. -1.
       -1   -1    0    0    0  501  0.00000000000E+00  0.00000000000E+00 -0.10577632282E+04  0.10577632282E+04  0.50400001928E-02 0.  1.
    10030    2    1    2    0    0  0.00000000000E+00  0.00000000000E+00  0.31137771181E+03  0.24269041681E+04  0.24068460196E+04 0.  0.
        3    1    3    3  502    0  0.23179456004E+02 -0.41018622552E+02  0.13682106010E+04  0.13690215752E+04  0.10100000352E+00 0. -1.
       -3    1    3    3    0  502 -0.23179456004E+02  0.41018622552E+02 -0.10568328892E+04  0.10578825929E+04  0.10100000352E+00 0.  1.
</event>
<event>
 5   0  0.1393026E-05  0.2403780E+04  0.7818609E-02  0.8438090E-01
        1   -1    0    0  501    0  0.00000000000E+00  0.00000000000E+00  0.18529571248E+04  0.18529571248E+04  0.50400001928E-02 0. -1.
       -1   -1    0    0    0  501  0.00000000000E+00  0.00000000000E+00 -0.77958604901E+03  0.77958604903E+03  0.50400001928E-02 0.  1.
    10030    2    1    2    0    0  0.00000000000E+00  0.00000000000E+00  0.10733710758E+04  0.26325431738E+04  0.24037799599E+04 0.  0.
        4    1    3    3  502    0 -0.15522776367E+03 -0.11718061819E+04  0.29847067622E+03  0.12191438570E+04  0.12699999809E+01 0.  1.
       -4    1    3    3    0  502  0.15522776367E+03  0.11718061819E+04  0.77490039957E+03  0.14133993168E+04  0.12699999809E+01 0. -1.
</event>
<event>
 5   0  0.1434943E-05  0.2399601E+04  0.7818609E-02  0.8439653E-01
        1   -1    0    0  501    0  0.00000000000E+00  0.00000000000E+00  0.14984674518E+04  0.14984674518E+04  0.50400001928E-02 0. -1.
       -1   -1    0    0    0  501  0.00000000000E+00  0.00000000000E+00 -0.96066194754E+03  0.96066194755E+03  0.50400001928E-02 0.  1.
    10030    2    1    2    0    0  0.00000000000E+00  0.00000000000E+00  0.53780550421E+03  0.24591293993E+04  0.23996005172E+04 0.  0.
        5    1    3    3  502    0  0.26487011666E+03  0.56522878070E+03 -0.78114218445E+03  0.99992247477E+03  0.46999998093E+01 0.  1.
       -5    1    3    3    0  502 -0.26487011666E+03 -0.56522878070E+03  0.13189476887E+04  0.14592069245E+04  0.46999998093E+01 0. -1.
</event>
<event>
 5   0  0.3347728E-05  0.2412412E+04  0.7818609E-02  0.8434871E-01
        2   -1    0    0  501    0  0.00000000000E+00  0.00000000000E+00  0.10033086920E+04  0.10033086920E+04  0.25500000920E-02 0.  1.
       -2   -1    0    0    0  501  0.00000000000E+00  0.00000000000E+00 -0.14501351558E+04  0.14501351558E+04  0.25500000920E-02 0. -1.
    10030    2    1    2    0    0  0.00000000000E+00  0.00000000000E+00 -0.44682646386E+03  0.24534438478E+04  0.24124122421E+04 0.  0.
        3    1    3    3  502    0 -0.11062557211E+03  0.10650558196E+04  0.34132537339E+03  0.11238705160E+04  0.10100000352E+00 0. -1.
       -3    1    3    3    0  502  0.11062557211E+03 -0.10650558196E+04 -0.78815183725E+03  0.13295733318E+04  0.10100000352E+00 0.  1.
</event>
<event>
 5   0  0.1401596E-05  0.2408586E+04  0.7818609E-02  0.8436296E-01
        1   -1    0    0  501    0  0.00000000000E+00  0.00000000000E+00  0.18564606185E+04  0.18564606185E+04  0.50400001928E-02 0. -1.
       -1   -1    0    0    0  501  0.00000000000E+00  0.00000000000E+00 -0.78122917529E+03  0.78122917531E+03  0.50400001928E-02 0.  1.
    10030    2    1    2    0    0  0.00000000000E+00  0.00000000000E+00  0.10752314432E+04  0.26376897938E+04  0.24085856414E+04 0.  0.
        2    1    3    3  502    0 -0.77554034719E+02 -0.11151442713E+04  0.10282976110E+04  0.15188671275E+04  0.25500000920E-02 0. -1.
       -2    1    3    3    0  502  0.77554034719E+02  0.11151442713E+04  0.46933832176E+02  0.11188226663E+04  0.25500000920E-02 0.  1.
</event>
<event>
 5   0  0.1393026E-05  0.2386242E+04  0.7818609E-02  0.8444672E-01
       -1   -1    0    0    0  501  0.00000000000E+00  0.00000000000E+00  0.94466685253E+03  0.94466685254E+03  0.50400001928E-02 0. -1.
        1   -1    0    0  501    0  0.00000000000E+00  0.00000000000E+00 -0.15069198872E+04  0.15069198873E+04  0.50400001928E-02 0.  1.
    10030    2    1    2    0    0  0.00000000000E+00  0.00000000000E+00 -0.56225303472E+03  0.24515867398E+04  0.23862416197E+04 0.  0.
        4    1    3    3  502    0 -0.63202753321E+02  0.30685706195E+02  0.94253905544E+03  0.94515484685E+03  0.12699999809E+01 0. -1.
       -4    1    3    3    0  502  0.63202753321E+02 -0.30685706195E+02 -0.15047920902E+04  0.15064318929E+04  0.12699999809E+01 0.  1.
</event>
<event>
 5   0  0.1506985E-05  0.2393486E+04  0.7818609E-02  0.8441946E-01
        1   -1    0    0  501    0  0.00000000000E+00  0.00000000000E+00  0.21914260847E+04  0.21914260847E+04  0.50400001928E-02 0. -1.
       -1   -1    0    0    0  501  0.00000000000E+00  0.00000000000E+00 -0.65354439824E+03  0.65354439826E+03  0.50400001928E-02 0.  1.
    10030    2    1    2    0    0  0.00000000000E+00  0.00000000000E+00  0.15378816864E+04  0.28449704829E+04  0.23934863625E+04 0.  0.
        3    1    3    3  502    0  0.64211023589E+01  0.56435819462E+03  0.20232994669E+04  0.21005432976E+04  0.10100000352E+00 0. -1.
       -3    1    3    3    0  502 -0.64211023589E+01 -0.56435819462E+03 -0.48541778047E+03  0.74442718528E+03  0.10100000352E+00 0.  1.
</event>
<event>
 5   0  0.1393026E-05  0.2438431E+04  0.7818609E-02  0.8425254E-01
        1   -1    0    0  501    0  0.00000000000E+00  0.00000000000E+00  0.11227069318E+04  0.11227069318E+04  0.50400001928E-02 0.  1.
       -1   -1    0    0    0  501  0.00000000000E+00  0.00000000000E+00 -0.13240200603E+04  0.13240200604E+04  0.50400001928E-02 0. -1.
    10030    2    1    2    0    0  0.00000000000E+00  0.00000000000E+00 -0.20131312852E+03  0.24467269922E+04  0.24384310527E+04 0.  0.
        4    1    3    3  502    0 -0.19542839223E+02  0.11949879331E+04  0.14121706812E+03  0.12034624864E+04  0.12699999809E+01 0.  1.
       -4    1    3    3    0  502  0.19542839223E+02 -0.11949879331E+04 -0.34253019664E+03  0.12432645058E+04  0.12699999809E+01 0. -1.
</event>
<event>
 5   0  0.3310037E-05  0.2457962E+04  0.7818609E-02  0.8418117E-01
        2   -1    0    0  501    0  0.00000000000E+00  0.00000000000E+00  0.11308460334E+04  0.11308460334E+04  0.25500000920E-02 0. -1.
       -2   -1    0    0    0  501  0.00000000000E+00  0.00000000000E+00 -0.13356323744E+04  0.13356323744E+04  0.25500000920E-02 0.  1.
    10030    2    1    2    0    0  0.00000000000E+00  0.00000000000E+00 -0.20478634101E+03  0.24664784078E+04  0.24579622232E+04 0.  0.
        2    1    3    3  502    0 -0.29654836776E+02  0.12094750378E+04 -0.31920959265E+03  0.12512410002E+04  0.25500000920E-02 0.  1.
       -2    1    3    3    0  502  0.29654836776E+02 -0.12094750378E+04  0.11442325164E+03  0.12152374077E+04  0.25500000920E-02 0. -1.
</event>
<event>
 5   0  0.3320780E-05  0.2469164E+04  0.7818609E-02  0.8414054E-01
        2   -1    0    0  501    0  0.00000000000E+00  0.00000000000E+00  0.17436225354E+04  0.17436225354E+04  0.25500000920E-02 0. -1.
       -2   -1    0    0    0  501  0.00000000000E+00  0.00000000000E+00 -0.87415255916E+03  0.87415255917E+03  0.25500000920E-02 0.  1.
    10030    2    1    2    0    0  0.00000000000E+00  0.00000000000E+00  0.86946997625E+03  0.26177750946E+04  0.24691635033E+04 0.  0.
        5    1    3    3  502    0  0.55395487114E+03  0.17708311622E+03  0.15892906179E+04  0.16923626052E+04  0.46999998093E+01 0. -1.
       -5    1    3    3    0  502 -0.55395487114E+03 -0.17708311622E+03 -0.71982064167E+03  0.92541248937E+03  0.46999998093E+01 0.  1.
</event>
<event>
 5   0  0.3347728E-05  0.2378262E+04  0.7818609E-02  0.8447687E-01
        2   -1    0    0  501    0  0.00000000000E+00  0.00000000000E+00  0.21198615550E+04  0.21198615550E+04  0.25500000920E-02 0.  1.
       -2   -1    0    0    0  501  0.00000000000E+00  0.00000000000E+00 -0.66703998559E+03  0.66703998559E+03  0.25500000920E-02 0. -1.
    10030    2    1    2    0    0  0.00000000000E+00  0.00000000000E+00  0.14528215694E+04  0.27869015406E+04  0.23782619041E+04 0.  0.
        3    1    3    3  502    0  0.48443983363E+03 -0.10760085432E+04  0.89845765383E+03  0.14831394079E+04  0.10100000352E+00 0. -1.
       -3    1    3    3    0  502 -0.48443983363E+03  0.10760085432E+04  0.55436391562E+03  0.13037621327E+04  0.10100000352E+00 0.  1.
</event>
<event>
 5   0  0.3320780E-05  0.2382479E+04  0.7818609E-02  0.8446093E-01
        2   -1    0    0  501    0  0.00000000000E+00  0.00000000000E+00  0.14250156577E+04  0.14250156577E+04  0.25500000920E-02 0. -1.
       -2   -1    0    0    0  501  0.00000000000E+00  0.00000000000E+00 -0.99581434299E+03  0.99581434300E+03  0.25500000920E-02 0.  1.
    10030    2    1    2    0    0  0.00000000000E+00  0.00000000000E+00  0.42920131470E+03  0.24208300007E+04  0.23824785673E+04 0.  0.
        5    1    3    3  502    0  0.10444461517E+04 -0.55392840969E+03  0.66220899062E+02  0.11841079952E+04  0.46999998093E+01 0.  1.
       -5    1    3    3    0  502 -0.10444461517E+04  0.55392840969E+03  0.36298041564E+03  0.12367220055E+04  0.46999998093E+01 0. -1.
</event>
<event>
 5   0  0.1393026E-05  0.2379762E+04  0.7818609E-02  0.8447119E-01
       -1   -1    0    0    0  501  0.00000000000E+00  0.00000000000E+00  0.80533839123E+03  0.80533839125E+03  0.50400001928E-02 0. -1.
        1   -1    0    0  501    0  0.00000000000E+00  0.00000000000E+00 -0.17580403476E+04  0.17580403476E+04  0.50400001928E-02 0.  1.
    10030    2    1    2    0    0  0.00000000000E+00  0.00000000000E+00 -0.95270195640E+03  0.25633787389E+04  0.23797624968E+04 0.  0.
        4    1    3    3  502    0 -0.64792414645E+03 -0.91282571060E+02 -0.15468511868E+04  0.16795500631E+04  0.12699999809E+01 0.  1.
       -4    1    3    3    0  502  0.64792414645E+03  0.91282571060E+02  0.59414923040E+03  0.88382867583E+03  0.12699999809E+01 0. -1.
</event>
<event>
 5   0  0.1434943E-05  0.2406971E+04  0.7818609E-02  0.8436898E-01
       -1   -1    0    0    0  501  0.00000000000E+00  0.00000000000E+00  0.10892710600E+04  0.10892710601E+04  0.50400001928E-02 0.  1.
        1   -1    0    0  501    0  0.00000000000E+00  0.00000000000E+00 -0.13296762504E+04  0.13296762504E+04  0.50400001928E-02 0. -1.
    10030    2    1    2    0    0  0.00000000000E+00  0.00000000000E+00 -0.24040519034E+03  0.24189473104E+04  0.24069714238E+04 0.  0.
        5    1    3    3  502    0  0.10761741164E+04 -0.44370456884E+03  0.18681913991E+03  0.11789605397E+04  0.46999998093E+01 0.  1.
       -5    1    3    3    0  502 -0.10761741164E+04  0.44370456884E+03 -0.42722433025E+03  0.12399867707E+04  0.46999998093E+01 0. -1.
</event>
<event>
 5   0  0.1506985E-05  0.2408999E+04  0.7818609E-02  0.8436142E-01
        1   -1    0    0  501    0  0.00000000000E+00  0.00000000000E+00  0.14712550959E+04  0.14712550959E+04  0.50400001928E-02 0. -1.
       -1   -1    0    0    0  501  0.00000000000E+00  0.00000000000E+00 -0.98610986287E+03  0.98610986288E+03  0.50400001928E-02 0.  1.
    10030    2    1    2    0    0  0.00000000000E+00  0.00000000000E+00  0.48514523307E+03  0.24573649588E+04  0.24089990958E+04 0.  0.
        3    1    3    3  502    0  0.78944701151E+03  0.89982712652E+03  0.10608145464E+03  0.12017357142E+04  0.10100000352E+00 0.  1.
       -3    1    3    3    0  502 -0.78944701151E+03 -0.89982712652E+03  0.37906377843E+03  0.12556292446E+04  0.10100000352E+00 0. -1.
</event>
<event>
 5   0  0.1434943E-05  0.2152398E+04  0.7818609E-02  0.8538507E-01
       -1   -1    0    0    0  501  0.00000000000E+00  0.00000000000E+00  0.13038924721E+04  0.13038924721E+04  0.50400001928E-02 0. -1.
        1   -1    0    0  501    0  0.00000000000E+00  0.00000000000E+00 -0.88826644975E+03  0.88826644976E+03  0.50400001928E-02 0.  1.
    10030    2    1    2    0    0  0.00000000000E+00  0.00000000000E+00  0.41562602237E+03  0.21921589219E+04  0.21523976743E+04 0.  0.
        5    1    3    3  502    0  0.31556017085E+02  0.10402565554E+04 -0.71204659382E+02  0.10431786409E+04  0.46999998093E+01 0.  1.
       -5    1    3    3    0  502 -0.31556017085E+02 -0.10402565554E+04  0.48683068175E+03  0.11489802810E+04  0.46999998093E+01 0. -1.
</event>
<event>
 5   0  0.3310037E-05  0.2407519E+04  0.7818609E-02  0.8436694E-01
        2   -1    0    0  501    0  0.00000000000E+00  0.00000000000E+00  0.20767072988E+04  0.20767072988E+04  0.25500000920E-02 0.  1.
       -2   -1    0    0    0  501  0.00000000000E+00  0.00000000000E+00 -0.69775668147E+03  0.69775668148E+03  0.25500000920E-02 0. -1.
    10030    2    1    2    0    0  0.00000000000E+00  0.00000000000E+00  0.13789506174E+04  0.27744639803E+04  0.24075185509E+04 0.  0.
        2    1    3    3  502    0  0.30786709189E+03 -0.27695583281E+03  0.19920371556E+04  0.20346249553E+04  0.25500000920E-02 0.  1.
       -2    1    3    3    0  502 -0.30786709189E+03  0.27695583281E+03 -0.61308653820E+03  0.73983902501E+03  0.25500000920E-02 0. -1.
</event>
<event>
 5   0  0.3347728E-05  0.2040681E+04  0.7818609E-02  0.8587834E-01
       -2   -1    0    0    0  501  0.00000000000E+00  0.00000000000E+00  0.10927507608E+04  0.10927507608E+04  0.25500000920E-02 0. -1.
        2   -1    0    0  501    0  0.00000000000E+00  0.00000000000E+00 -0.95272870969E+03  0.95272870969E+03  0.25500000920E-02 0.  1.
    10030    2    1    2    0    0  0.00000000000E+00  0.00000000000E+00  0.14002205115E+03  0.20454794705E+04  0.20406812807E+04 0.  0.
        3    1    3    3  502    0  0.86014511874E+03 -0.54885168392E+03  0.67318458195E+02  0.10225554172E+04  0.10100000352E+00 0. -1.
       -3    1    3    3    0  502 -0.86014511874E+03  0.54885168392E+03  0.72703592954E+02  0.10229240533E+04  0.10100000352E+00 0.  1.
</event>
<event>
 5   0  0.3347728E-05  0.2399251E+04  0.7818609E-02  0.8439784E-01
       -2   -1    0    0    0  501  0.00000000000E+00  0.00000000000E+00  0.75368977296E+03  0.75368977296E+03  0.25500000920E-02 0. -1.
        2   -1    0    0  501    0  0.00000000000E+00  0.00000000000E+00 -0.19094081898E+04  0.19094081898E+04  0.25500000920E-02 0.  1.
    10030    2    1    2    0    0  0.00000000000E+00  0.00000000000E+00 -0.11557184168E+04  0.26630979628E+04  0.23992510707E+04 0.  0.
        3    1    3    3  502    0 -0.57255159779E+03  0.62343667179E+03  0.36568938135E+03  0.92207231262E+03  0.10100000352E+00 0. -1.
       -3    1    3    3    0  502  0.57255159779E+03 -0.62343667179E+03 -0.15214077982E+04  0.17410256501E+04  0.10100000352E+00 0.  1.
</event>
<event>
 5   0  0.1401596E-05  0.2390090E+04  0.7818609E-02  0.8443223E-01
       -1   -1    0    0    0  501  0.00000000000E+00  0.00000000000E+00  0.12578337026E+04  0.12578337027E+04  0.50400001928E-02 0. -1.
        1   -1    0    0  501    0  0.00000000000E+00  0.00000000000E+00 -0.11353909407E+04  0.11353909407E+04  0.50400001928E-02 0.  1.
    10030    2    1    2    0    0  0.00000000000E+00  0.00000000000E+00  0.12244276192E+03  0.23932246434E+04  0.23900903673E+04 0.  0.
        2    1    3    3  502    0  0.10378640003E+04 -0.54931477790E+03 -0.16093570285E+03  0.11852462650E+04  0.25500000920E-02 0.  1.
       -2    1    3    3    0  502 -0.10378640003E+04  0.54931477790E+03  0.28337846478E+03  0.12079783784E+04  0.25500000920E-02 0. -1.
</event>
<event>
 5   0  0.3345974E-05  0.2391876E+04  0.7818609E-02  0.8442551E-01
       -2   -1    0    0    0  501  0.00000000000E+00  0.00000000000E+00  0.61497746629E+03  0.61497746630E+03  0.25500000920E-02 0. -1.
        2   -1    0    0  501    0  0.00000000000E+00  0.00000000000E+00 -0.23257237639E+04  0.23257237639E+04  0.25500000920E-02 0.  1.
    10030    2    1    2    0    0  0.00000000000E+00  0.00000000000E+00 -0.17107462976E+04  0.29407012302E+04  0.23918760065E+04 0.  0.
        4    1    3    3  502    0 -0.82150231881E+03  0.80749179745E+03 -0.46011370461E+03  0.12404093263E+04  0.12699999809E+01 0. -1.
       -4    1    3    3    0  502  0.82150231881E+03 -0.80749179745E+03 -0.12506325930E+04  0.17002919038E+04  0.12699999809E+01 0.  1.
</event>
<event>
 5   0  0.3347728E-05  0.2413811E+04  0.7818609E-02  0.8434351E-01
       -2   -1    0    0    0  501  0.00000000000E+00  0.00000000000E+00  0.11933437886E+04  0.11933437886E+04  0.25500000920E-02 0.  1.
        2   -1    0    0  501    0  0.00000000000E+00  0.00000000000E+00 -0.12206211963E+04  0.12206211963E+04  0.25500000920E-02 0. -1.
    10030    2    1    2    0    0  0.00000000000E+00  0.00000000000E+00 -0.27277407767E+02  0.24139649849E+04  0.24138108649E+04 0.  0.
        3    1    3    3  502    0 -0.38289325181E+02  0.10900459723E+03 -0.12150782353E+04  0.12205585618E+04  0.10100000352E+00 0. -1.
       -3    1    3    3    0  502  0.38289325181E+02 -0.10900459723E+03  0.11878008275E+04  0.11934064231E+04  0.10100000352E+00 0.  1.
</event>
<event>
 5   0  0.3347728E-05  0.2395734E+04  0.7818609E-02  0.8441102E-01
        2   -1    0    0  501    0  0.00000000000E+00  0.00000000000E+00  0.59427776432E+03  0.59427776432E+03  0.25500000920E-02 0. -1.
       -2   -1    0    0    0  501  0.00000000000E+00  0.00000000000E+00 -0.24145031475E+04  0.24145031475E+04  0.25500000920E-02 0.  1.
    10030    2    1    2    0    0  0.00000000000E+00  0.00000000000E+00 -0.18202253832E+04  0.30087809119E+04  0.23957341526E+04 0.  0.
        3    1    3    3  502    0 -0.11662801147E+04 -0.11740192020E+03 -0.12200227315E+04  0.16918770619E+04  0.10100000352E+00 0. -1.
       -3    1    3    3    0  502  0.11662801147E+04  0.11740192020E+03 -0.60020265172E+03  0.13169038500E+04  0.10100000352E+00 0.  1.
</event>
<event>
 5   0  0.3347728E-05  0.2460222E+04  0.7818609E-02  0.8417295E-01
        2   -1    0    0  501    0  0.00000000000E+00  0.00000000000E+00  0.17966666780E+04  0.17966666780E+04  0.25500000920E-02 0.  1.
       -2   -1    0    0    0  501  0.00000000000E+00  0.00000000000E+00 -0.84221114184E+03  0.84221114185E+03  0.25500000920E-02 0. -1.
    10030    2    1    2    0    0  0.00000000000E+00  0.00000000000E+00  0.95445553611E+03  0.26388778198E+04  0.24602216927E+04 0.  0.
        3    1    3    3  502    0  0.73822391820E+02 -0.15390144316E+03 -0.82944682078E+03  0.84682786825E+03  0.10100000352E+00 0. -1.
       -3    1    3    3    0  502 -0.73822391820E+02  0.15390144316E+03  0.17839023569E+04  0.17920499516E+04  0.10100000352E+00 0.  1.
</event>
<event>
 5   0  0.3320780E-05  0.2394786E+04  0.7818609E-02  0.8441458E-01
       -2   -1    0    0    0  501  0.00000000000E+00  0.00000000000E+00  0.87694615845E+03  0.87694615845E+03  0.25500000920E-02 0.  1.
        2   -1    0    0  501    0  0.00000000000E+00  0.00000000000E+00 -0.16349356497E+04  0.16349356497E+04  0.25500000920E-02 0. -1.
    10030    2    1    2    0    0  0.00000000000E+00  0.00000000000E+00 -0.75798949121E+03  0.25118818081E+04  0.23947864517E+04 0.  0.
        5    1    3    3  502    0 -0.49804810624E+02 -0.84654655777E+03 -0.12656728756E+04  0.15235063215E+04  0.46999998093E+01 0. -1.
       -5    1    3    3    0  502  0.49804810624E+02  0.84654655777E+03  0.50768338443E+03  0.98837548657E+03  0.46999998093E+01 0.  1.
</event>
<event>
 5   0  0.1506985E-05  0.1937118E+04  0.7818609E-02  0.8636598E-01
        1   -1    0    0  501    0  0.00000000000E+00  0.00000000000E+00  0.19632784424E+04  0.19632784424E+04  0.50400001928E-02 0. -1.
       -1   -1    0    0    0  501  0.00000000000E+00  0.00000000000E+00 -0.47782668771E+03  0.47782668774E+03  0.50400001928E-02 0.  1.
    10030    2    1    2    0    0  0.00000000000E+00  0.00000000000E+00  0.14854517547E+04  0.24411051302E+04  0.19371183084E+04 0.  0.
        3    1    3    3  502    0  0.15245656243E+03 -0.47239470731E+03  0.17907986588E+04  0.18583217185E+04  0.10100000352E+00 0. -1.
       -3    1    3    3    0  502 -0.15245656243E+03  0.47239470731E+03 -0.30534690406E+03  0.58278341169E+03  0.10100000352E+00 0.  1.
</event>
<event>
 5   0  0.1401596E-05  0.2344844E+04  0.7818609E-02  0.8460447E-01
       -1   -1    0    0    0  501  0.00000000000E+00  0.00000000000E+00  0.72605299847E+03  0.72605299849E+03  0.50400001928E-02 0.  1.
        1   -1    0    0  501    0  0.00000000000E+00  0.00000000000E+00 -0.18932128310E+04  0.18932128310E+04  0.50400001928E-02 0. -1.
    10030    2    1    2    0    0  0.00000000000E+00  0.00000000000E+00 -0.11671598325E+04  0.26192658295E+04  0.23448435792E+04 0.  0.
        2    1    3    3  502    0 -0.34394159197E+03 -0.82711756904E+03  0.26135255954E+03  0.93312617158E+03  0.25500000920E-02 0.  1.
       -2    1    3    3    0  502  0.34394159197E+03  0.82711756904E+03 -0.14285123921E+04  0.16861396579E+04  0.25500000920E-02 0. -1.
</event>
<event>
 5   0  0.1393026E-05  0.2382397E+04  0.7818609E-02  0.8446123E-01
       -1   -1    0    0    0  501  0.00000000000E+00  0.00000000000E+00  0.11934474478E+04  0.11934474478E+04  0.50400001928E-02 0. -1.
        1   -1    0    0  501    0  0.00000000000E+00  0.00000000000E+00 -0.11889538966E+04  0.11889538966E+04  0.50400001928E-02 0.  1.
    10030    2    1    2    0    0  0.00000000000E+00  0.00000000000E+00  0.44935511950E+01  0.23824013445E+04  0.23823971067E+04 0.  0.
        4    1    3    3  502    0  0.89267164382E+03  0.33745428567E+03  0.71513956561E+03  0.11925452905E+04  0.12699999809E+01 0. -1.
       -4    1    3    3    0  502 -0.89267164382E+03 -0.33745428567E+03 -0.71064601441E+03  0.11898560540E+04  0.12699999809E+01 0.  1.
</event>
<event>
 5   0  0.3347728E-05  0.2364423E+04  0.7818609E-02  0.8452944E-01
        2   -1    0    0  501    0  0.00000000000E+00  0.00000000000E+00  0.14676714934E+04  0.14676714934E+04  0.25500000920E-02 0.  1.
       -2   -1    0    0    0  501  0.00000000000E+00  0.00000000000E+00 -0.95227297262E+03  0.95227297263E+03  0.25500000920E-02 0. -1.
    10030    2    1    2    0    0  0.00000000000E+00  0.00000000000E+00  0.51539852076E+03  0.24199444660E+04  0.23644228859E+04 0.  0.
        3    1    3    3  502    0 -0.85913520538E+03  0.61732094847E+03  0.79775016233E+03  0.13249919948E+04  0.10100000352E+00 0.  1.
       -3    1    3    3    0  502  0.85913520538E+03 -0.61732094847E+03 -0.28235164157E+03  0.10949524712E+04  0.10100000352E+00 0. -1.
</event>
<event>
 5   0  0.3347728E-05  0.2431703E+04  0.7818609E-02  0.8427729E-01
        2   -1    0    0  501    0  0.00000000000E+00  0.00000000000E+00  0.12398762814E+04  0.12398762815E+04  0.25500000920E-02 0. -1.
       -2   -1    0    0    0  501  0.00000000000E+00  0.00000000000E+00 -0.11922923770E+04  0.11922923770E+04  0.25500000920E-02 0.  1.
    10030    2    1    2    0    0  0.00000000000E+00  0.00000000000E+00  0.47583904417E+02  0.24321686585E+04  0.24317031388E+04 0.  0.
        3    1    3    3  502    0  0.42420430456E+03 -0.32528269091E+03 -0.10684504863E+04  0.11947152685E+04  0.10100000352E+00 0.  1.
       -3    1    3    3    0  502 -0.42420430456E+03  0.32528269091E+03  0.11160343907E+04  0.12374533900E+04  0.10100000352E+00 0. -1.
</event>
<event>
 5   0  0.3215208E-05  0.2257296E+04  0.7818609E-02  0.8494951E-01
        2   -1    0    0  501    0  0.00000000000E+00  0.00000000000E+00  0.12900871403E+04  0.12900871403E+04  0.25500000920E-02 0.  1.
       -2   -1    0    0    0  501  0.00000000000E+00  0.00000000000E+00 -0.98741136436E+03  0.98741136436E+03  0.25500000920E-02 0. -1.
    10030    2    1    2    0    0  0.00000000000E+00  0.00000000000E+00  0.30267577595E+03  0.22774985047E+04  0.22572963504E+04 0.  0.
        1    1    3    3  502    0  0.21537509836E+03 -0.71915172107E+03  0.10016622893E+04  0.12517559557E+04  0.50400001928E-02 0.  1.
       -1    1    3    3    0  502 -0.21537509836E+03  0.71915172107E+03 -0.69898651331E+03  0.10257425490E+04  0.50400001928E-02 0. -1.
</event>
<event>
 5   0  0.1407158E-05  0.2675424E+04  0.7818609E-02  0.8343023E-01
        1   -1    0    0  501    0  0.00000000000E+00  0.00000000000E+00  0.15919631258E+04  0.15919631258E+04  0.50400001928E-02 0.  1.
       -1   -1    0    0    0  501  0.00000000000E+00  0.00000000000E+00 -0.11240671038E+04  0.11240671038E+04  0.50400001928E-02 0. -1.
    10030    2    1    2    0    0  0.00000000000E+00  0.00000000000E+00  0.46789602200E+03  0.27160302295E+04  0.26754239889E+04 0.  0.
        1    1    3    3  502    0 -0.13123425337E+04  0.27492052963E+02 -0.27791920192E+02  0.13129246473E+04  0.50400001928E-02 0. -1.
       -1    1    3    3    0  502  0.13123425337E+04 -0.27492052963E+02  0.49568794219E+03  0.14031055822E+04  0.50400001928E-02 0.  1.
</event>
<event>
 5   0  0.3310037E-05  0.2247541E+04  0.7818609E-02  0.8498897E-01
       -2   -1    0    0    0  501  0.00000000000E+00  0.00000000000E+00  0.15181680695E+04  0.15181680695E+04  0.25500000920E-02 0.  1.
        2   -1    0    0  501    0  0.00000000000E+00  0.00000000000E+00 -0.83183142697E+03  0.83183142697E+03  0.25500000920E-02 0. -1.
    10030    2    1    2    0    0  0.00000000000E+00  0.00000000000E+00  0.68633664250E+03  0.23499994964E+04  0.22475407997E+04 0.  0.
        2    1    3    3  502    0  0.31727924323E+03 -0.68696476690E+03  0.12118700621E+04  0.14287112222E+04  0.25500000920E-02 0.  1.
       -2    1    3    3    0  502 -0.31727924323E+03  0.68696476690E+03 -0.52553341956E+03  0.92128827423E+03  0.25500000920E-02 0. -1.
</event>
<event>
 5   0  0.3347728E-05  0.2406666E+04  0.7818609E-02  0.8437012E-01
       -2   -1    0    0    0  501  0.00000000000E+00  0.00000000000E+00  0.11588619782E+04  0.11588619783E+04  0.25500000920E-02 0.  1.
        2   -1    0    0  501    0  0.00000000000E+00  0.00000000000E+00 -0.12495102297E+04  0.12495102297E+04  0.25500000920E-02 0. -1.
    10030    2    1    2    0    0  0.00000000000E+00  0.00000000000E+00 -0.90648251475E+02  0.24083722080E+04  0.24066656574E+04 0.  0.
        3    1    3    3  502    0  0.43723533452E+03 -0.16857345353E+03 -0.11544503058E+04  0.12459322878E+04  0.10100000352E+00 0. -1.
       -3    1    3    3    0  502 -0.43723533452E+03  0.16857345353E+03  0.10638020543E+04  0.11624399202E+04  0.10100000352E+00 0.  1.
</event>
<event>
 5   0  0.1407158E-05  0.2413202E+04  0.7818609E-02  0.8434577E-01
        1   -1    0    0  501    0  0.00000000000E+00  0.00000000000E+00  0.15018331823E+04  0.15018331824E+04  0.50400001928E-02 0.  1.
       -1   -1    0    0    0  501  0.00000000000E+00  0.00000000000E+00 -0.96940582651E+03  0.96940582653E+03  0.50400001928E-02 0. -1.
    10030    2    1    2    0    0  0.00000000000E+00  0.00000000000E+00  0.53242735583E+03  0.24712390089E+04  0.24132018875E+04 0.  0.
        1    1    3    3  502    0 -0.46869090302E+03  0.10823891942E+04  0.52658891170E+03  0.12917172339E+04  0.50400001928E-02 0.  1.
       -1    1    3    3    0  502  0.46869090302E+03 -0.10823891942E+04  0.58384441266E+01  0.11795217750E+04  0.50400001928E-02 0. -1.
</event>
<event>
 5   0  0.3345974E-05  0.2575750E+04  0.7818609E-02  0.8376485E-01
        2   -1    0    0  501    0  0.00000000000E+00  0.00000000000E+00  0.11746242509E+04  0.11746242509E+04  0.25500000920E-02 0.  1.
       -2   -1    0    0    0  501  0.00000000000E+00  0.00000000000E+00 -0.14120442452E+04  0.14120442452E+04  0.25500000920E-02 0. -1.
    10030    2    1    2    0    0  0.00000000000E+00  0.00000000000E+00 -0.23741999427E+03  0.25866684961E+04  0.25757495327E+04 0.  0.
        4    1    3    3  502    0  0.75988493653E+03  0.65267445300E+03 -0.93159226246E+03  0.13679454721E+04  0.12699999809E+01 0. -1.
       -4    1    3    3    0  502 -0.75988493653E+03 -0.65267445300E+03  0.69417226819E+03  0.12187230240E+04  0.12699999809E+01 0.  1.
</event>
<event>
 5   0  0.1147362E-05  0.2384111E+04  0.7818609E-02  0.8445476E-01
       -3   -1    0    0    0  501  0.00000000000E+00  0.00000000000E+00  0.12862461367E+04  0.12862461407E+04  0.10100000352E+00 0.  1.
        3   -1    0    0  501    0  0.00000000000E+00  0.00000000000E+00 -0.11047627291E+04  0.11047627338E+04  0.10100000352E+00 0. -1.
    10030    2    1    2    0    0  0.00000000000E+00  0.00000000000E+00  0.18148340755E+03  0.23910088744E+04  0.23841114089E+04 0.  0.
        2    1    3    3  502    0  0.69695743135E+03  0.80026059558E+03  0.63529522052E+03  0.12368373778E+04  0.25500000920E-02 0.  1.
       -2    1    3    3    0  502 -0.69695743135E+03 -0.80026059558E+03 -0.45381181296E+03  0.11541714966E+04  0.25500000920E-02 0. -1.
</event>
<event>
 5   0  0.3320780E-05  0.2411718E+04  0.7818609E-02  0.8435130E-01
        2   -1    0    0  501    0  0.00000000000E+00  0.00000000000E+00  0.23098331584E+04  0.23098331584E+04  0.25500000920E-02 0. -1.
       -2   -1    0    0    0  501  0.00000000000E+00  0.00000000000E+00 -0.62952408445E+03  0.62952408445E+03  0.25500000920E-02 0.  1.
    10030    2    1    2    0    0  0.00000000000E+00  0.00000000000E+00  0.16803090739E+04  0.29393572428E+04  0.24117177316E+04 0.  0.
        5    1    3    3  502    0 -0.14408877646E+03 -0.10217523590E+04  0.79675769812E+02  0.10349443352E+04  0.46999998093E+01 0.  1.
       -5    1    3    3    0  502  0.14408877646E+03  0.10217523590E+04  0.16006333041E+04  0.19044129077E+04  0.46999998093E+01 0. -1.
</event>
<event>
 5   0  0.3345974E-05  0.2404307E+04  0.7818609E-02  0.8437893E-01
        2   -1    0    0  501    0  0.00000000000E+00  0.00000000000E+00  0.16619024882E+04  0.16619024882E+04  0.25500000920E-02 0. -1.
       -2   -1    0    0    0  501  0.00000000000E+00  0.00000000000E+00 -0.86958932370E+03  0.86958932370E+03  0.25500000920E-02 0.  1.
    10030    2    1    2    0    0  0.00000000000E+00  0.00000000000E+00  0.79231316450E+03  0.25314918119E+04  0.24043066866E+04 0.  0.
        4    1    3    3  502    0  0.84017786562E+03  0.85873357536E+03  0.44142937943E+03  0.12799155086E+04  0.12699999809E+01 0. -1.
       -4    1    3    3    0  502 -0.84017786562E+03 -0.85873357536E+03  0.35088378506E+03  0.12515763033E+04  0.12699999809E+01 0.  1.
</event>
<event>
 5   0  0.3347728E-05  0.2399222E+04  0.7818609E-02  0.8439795E-01
        2   -1    0    0  501    0  0.00000000000E+00  0.00000000000E+00  0.93596068181E+03  0.93596068182E+03  0.25500000920E-02 0.  1.
       -2   -1    0    0    0  501  0.00000000000E+00  0.00000000000E+00 -0.15375285791E+04  0.15375285791E+04  0.25500000920E-02 0. -1.
    10030    2    1    2    0    0  0.00000000000E+00  0.00000000000E+00 -0.60156789726E+03  0.24734892609E+04  0.23992217881E+04 0.  0.
        3    1    3    3  502    0 -0.48674748895E+03 -0.46895007046E+03  0.72096925639E+03  0.98824792711E+03  0.10100000352E+00 0.  1.
       -3    1    3    3    0  502  0.48674748895E+03  0.46895007046E+03 -0.13225371536E+04  0.14852413338E+04  0.10100000352E+00 0. -1.
</event>
<event>
 5   0  0.3347728E-05  0.2392815E+04  0.7818609E-02  0.8442199E-01
        2   -1    0    0  501    0  0.00000000000E+00  0.00000000000E+00  0.13843425017E+04  0.13843425017E+04  0.25500000920E-02 0.  1.
       -2   -1    0    0    0  501  0.00000000000E+00  0.00000000000E+00 -0.10339857078E+04  0.10339857078E+04  0.25500000920E-02 0. -1.
    10030    2    1    2    0    0  0.00000000000E+00  0.00000000000E+00  0.35035679393E+03  0.24183282096E+04  0.23928145449E+04 0.  0.
        3    1    3    3  502    0 -0.20903279107E+03 -0.66311574213E+03  0.11591990683E+04  0.13517247077E+04  0.10100000352E+00 0.  1.
       -3    1    3    3    0  502  0.20903279107E+03  0.66311574213E+03 -0.80884227438E+03  0.10666035019E+04  0.10100000352E+00 0. -1.
</event>
<event>
 5   0  0.3345974E-05  0.2344377E+04  0.7818609E-02  0.8460626E-01
       -2   -1    0    0    0  501  0.00000000000E+00  0.00000000000E+00  0.10124324569E+04  0.10124324569E+04  0.25500000920E-02 0. -1.
        2   -1    0    0  501    0  0.00000000000E+00  0.00000000000E+00 -0.13571536225E+04  0.13571536225E+04  0.25500000920E-02 0.  1.
    10030    2    1    2    0    0  0.00000000000E+00  0.00000000000E+00 -0.34472116567E+03  0.23695860794E+04  0.23443774239E+04 0.  0.
        4    1    3    3  502    0 -0.39798176463E+03  0.74665488028E+03 -0.99234327614E+03  0.13040819705E+04  0.12699999809E+01 0.  1.
       -4    1    3    3    0  502  0.39798176463E+03 -0.74665488028E+03  0.64762211047E+03  0.10655041089E+04  0.12699999809E+01 0. -1.
</event>
<event>
 5   0  0.3347728E-05  0.2034437E+04  0.7818609E-02  0.8590687E-01
       -2   -1    0    0    0  501  0.00000000000E+00  0.00000000000E+00  0.10577738840E+04  0.10577738840E+04  0.25500000920E-02 0. -1.
        2   -1    0    0  501    0  0.00000000000E+00  0.00000000000E+00 -0.97821815319E+03  0.97821815320E+03  0.25500000920E-02 0.  1.
    10030    2    1    2    0    0  0.00000000000E+00  0.00000000000E+00  0.79555730841E+02  0.20359920372E+04  0.20344371363E+04 0.  0.
        3    1    3    3  502    0 -0.10559816633E+03  0.96632419568E+03  0.33967368158E+03  0.10297143507E+04  0.10100000352E+00 0.  1.
       -3    1    3    3    0  502  0.10559816633E+03 -0.96632419568E+03 -0.26011795074E+03  0.10062776865E+04  0.10100000352E+00 0. -1.
</event>
<event>
 5   0  0.1434943E-05  0.2446603E+04  0.7818609E-02  0.8422259E-01
        1   -1    0    0  501    0  0.00000000000E+00  0.00000000000E+00  0.15796730537E+04  0.15796730537E+04  0.50400001928E-02 0.  1.
       -1   -1    0    0    0  501  0.00000000000E+00  0.00000000000E+00 -0.94732681393E+03  0.94732681394E+03  0.50400001928E-02 0. -1.
    10030    2    1    2    0    0  0.00000000000E+00  0.00000000000E+00  0.63234623977E+03  0.25269998677E+04  0.24466030663E+04 0.  0.
        5    1    3    3  502    0 -0.74583729909E+03  0.93592192544E+03  0.54426146625E+02  0.11980014285E+04  0.46999998093E+01 0. -1.
       -5    1    3    3    0  502  0.74583729909E+03 -0.93592192544E+03  0.57792009314E+03  0.13289984392E+04  0.46999998093E+01 0.  1.
</event>
<event>
 5   0  0.3215208E-05  0.2393037E+04  0.7818609E-02  0.8442115E-01
       -2   -1    0    0    0  501  0.00000000000E+00  0.00000000000E+00  0.14091147487E+04  0.14091147487E+04  0.25500000920E-02 0.  1.
        2   -1    0    0  501    0  0.00000000000E+00  0.00000000000E+00 -0.10159972748E+04  0.10159972748E+04  0.25500000920E-02 0. -1.
    10030    2    1    2    0    0  0.00000000000E+00  0.00000000000E+00  0.39311747385E+03  0.24251120235E+04  0.23930371870E+04 0.  0.
        1    1    3    3  502    0 -0.23091327561E+03  0.10522331397E+04  0.72425027857E+03  0.12980962935E+04  0.50400001928E-02 0.  1.
       -1    1    3    3    0  502  0.23091327561E+03 -0.10522331397E+04 -0.33113280472E+03  0.11270157300E+04  0.50400001928E-02 0. -1.
</event>
<event>
 5   0  0.1506985E-05  0.2171856E+04  0.7818609E-02  0.8530234E-01
       -1   -1    0    0    0  501  0.00000000000E+00  0.00000000000E+00  0.14237569792E+04  0.14237569792E+04  0.50400001928E-02 0. -1.
        1   -1    0    0  501    0  0.00000000000E+00  0.00000000000E+00 -0.82825892123E+03  0.82825892125E+03  0.50400001928E-02 0.  1.
    10030    2    1    2    0    0  0.00000000000E+00  0.00000000000E+00  0.59549805794E+03  0.22520159004E+04  0.21718558145E+04 0.  0.
        3    1    3    3  502    0  0.40303471641E+03  0.62454329190E+03 -0.52314477354E+03  0.90893991571E+03  0.10100000352E+00 0.  1.
       -3    1    3    3    0  502 -0.40303471641E+03 -0.62454329190E+03  0.11186428315E+04  0.13430759847E+04  0.10100000352E+00 0. -1.
</event>
<event>
 5   0  0.3345974E-05  0.1963059E+04  0.7818609E-02  0.8624089E-01
       -2   -1    0    0    0  501  0.00000000000E+00  0.00000000000E+00  0.13454612483E+04  0.13454612483E+04  0.25500000920E-02 0. -1.
        2   -1    0    0  501    0  0.00000000000E+00  0.00000000000E+00 -0.71603674721E+03  0.71603674722E+03  0.25500000920E-02 0.  1.
    10030    2    1    2    0    0  0.00000000000E+00  0.00000000000E+00  0.62942450106E+03  0.20614979955E+04  0.19630585276E+04 0.  0.
        4    1    3    3  502    0 -0.73372432664E+03  0.41130874177E+03  0.84591570795E+03  0.11929380816E+04  0.12699999809E+01 0.  1.
       -4    1    3    3    0  502  0.73372432664E+03 -0.41130874177E+03 -0.21649120688E+03  0.86855991395E+03  0.12699999809E+01 0. -1.
</event>
<event>
 5   0  0.3345974E-05  0.2302302E+04  0.7818609E-02  0.8477014E-01
       -2   -1    0    0    0  501  0.00000000000E+00  0.00000000000E+00  0.10768770507E+04  0.10768770507E+04  0.25500000920E-02 0.  1.
        2   -1    0    0  501    0  0.00000000000E+00  0.00000000000E+00 -0.12305482631E+04  0.12305482631E+04  0.25500000920E-02 0. -1.
    10030    2    1    2    0    0  0.00000000000E+00  0.00000000000E+00 -0.15367121242E+03  0.23074253139E+04  0.23023024861E+04 0.  0.
        4    1    3    3  502    0  0.11486716255E+03 -0.14030922238E+03 -0.12161440113E+04  0.12295889607E+04  0.12699999809E+01 0. -1.
       -4    1    3    3    0  502 -0.11486716255E+03  0.14030922238E+03  0.10624727989E+04  0.10778363532E+04  0.12699999809E+01 0.  1.
</event>
<event>
 5   0  0.1147362E-05  0.2399471E+04  0.7818609E-02  0.8439702E-01
        3   -1    0    0  501    0  0.00000000000E+00  0.00000000000E+00  0.10741303150E+04  0.10741303197E+04  0.10100000352E+00 0.  1.
       -3   -1    0    0    0  501  0.00000000000E+00  0.00000000000E+00 -0.13400283432E+04  0.13400283470E+04  0.10100000352E+00 0. -1.
    10030    2    1    2    0    0  0.00000000000E+00  0.00000000000E+00 -0.26589802826E+03  0.24141586668E+04  0.23994708389E+04 0.  0.
        5    1    3    3  502    0  0.80447700981E+03 -0.84290459797E+03  0.15458271470E+03  0.11754102800E+04  0.46999998093E+01 0. -1.
       -5    1    3    3    0  502 -0.80447700981E+03  0.84290459797E+03 -0.42048074296E+03  0.12387483868E+04  0.46999998093E+01 0.  1.
</event>
<event>
 5   0  0.3345974E-05  0.2344501E+04  0.7818609E-02  0.8460579E-01
        2   -1    0    0  501    0  0.00000000000E+00  0.00000000000E+00  0.16023360121E+04  0.16023360121E+04  0.25500000920E-02 0. -1.
       -2   -1    0    0    0  501  0.00000000000E+00  0.00000000000E+00 -0.85760499933E+03  0.85760499933E+03  0.25500000920E-02 0.  1.
    10030    2    1    2    0    0  0.00000000000E+00  0.00000000000E+00  0.74473101279E+03  0.24599410115E+04  0.23445011193E+04 0.  0.
        4    1    3    3  502    0  0.18144507892E+03  0.82742575680E+03  0.12225816330E+04  0.14873678637E+04  0.12699999809E+01 0. -1.
       -4    1    3    3    0  502 -0.18144507892E+03 -0.82742575680E+03 -0.47785062018E+03  0.97257314778E+03  0.12699999809E+01 0.  1.
</event>
<event>
 5   0  0.3215208E-05  0.2409242E+04  0.7818609E-02  0.8436052E-01
        2   -1    0    0  501    0  0.00000000000E+00  0.00000000000E+00  0.84067324002E+03  0.84067324002E+03  0.25500000920E-02 0.  1.
       -2   -1    0    0    0  501  0.00000000000E+00  0.00000000000E+00 -0.17261303738E+04  0.17261303738E+04  0.25500000920E-02 0. -1.
    10030    2    1    2    0    0  0.00000000000E+00  0.00000000000E+00 -0.88545713376E+03  0.25668036138E+04  0.24092418841E+04 0.  0.
        1    1    3    3  502    0 -0.39674324010E+02  0.10444384926E+04 -0.10808000385E+04  0.15035140638E+04  0.50400001928E-02 0. -1.
       -1    1    3    3    0  502  0.39674324010E+02 -0.10444384926E+04  0.19534290472E+03  0.10632895500E+04  0.50400001928E-02 0.  1.
</event>
<event>
 5   0  0.1393026E-05  0.2421793E+04  0.7818609E-02  0.8431389E-01
       -1   -1    0    0    0  501  0.00000000000E+00  0.00000000000E+00  0.67643958097E+03  0.67643958099E+03  0.50400001928E-02 0. -1.
        1   -1    0    0  501    0  0.00000000000E+00  0.00000000000E+00 -0.21676301007E+04  0.21676301007E+04  0.50400001928E-02 0.  1.
    10030    2    1    2    0    0  0.00000000000E+00  0.00000000000E+00 -0.14911905197E+04  0.28440696817E+04  0.24217933826E+04 0.  0.
        4    1    3    3  502    0 -0.59071449531E+03 -0.73475547738E+03 -0.16380045482E+04  0.18899390835E+04  0.12699999809E+01 0.  1.
       -4    1    3    3    0  502  0.59071449531E+03  0.73475547738E+03  0.14681402850E+03  0.95413059817E+03  0.12699999809E+01 0. -1.
</event>
<event>
 5   0  0.1434943E-05  0.2326105E+04  0.7818609E-02  0.8467699E-01
       -1   -1    0    0    0  501  0.00000000000E+00  0.00000000000E+00  0.15840523390E+04  0.15840523390E+04  0.50400001928E-02 0.  1.
        1   -1    0    0  501    0  0.00000000000E+00  0.00000000000E+00 -0.85394376684E+03  0.85394376686E+03  0.50400001928E-02 0. -1.
    10030    2    1    2    0    0  0.00000000000E+00  0.00000000000E+00  0.73010857218E+03  0.24379961059E+04  0.23261054329E+04 0.  0.
        5    1    3    3  502    0  0.95609931043E+02  0.45531768039E+03  0.14822614086E+04  0.15535689307E+04  0.46999998093E+01 0.  1.
       -5    1    3    3    0  502 -0.95609931043E+02 -0.45531768039E+03 -0.75215283639E+03  0.88442717522E+03  0.46999998093E+01 0. -1.
</event>
<event>
 5   0  0.3345974E-05  0.2407885E+04  0.7818609E-02  0.8436557E-01
       -2   -1    0    0    0  501  0.00000000000E+00  0.00000000000E+00  0.76272950543E+03  0.76272950543E+03  0.25500000920E-02 0. -1.
        2   -1    0    0  501    0  0.00000000000E+00  0.00000000000E+00 -0.19003825489E+04  0.19003825489E+04  0.25500000920E-02 0.  1.
    10030    2    1    2    0    0  0.00000000000E+00  0.00000000000E+00 -0.11376530434E+04  0.26631120543E+04  0.24078852478E+04 0.  0.
        4    1    3    3  502    0  0.73124767950E+03 -0.43003172176E+02 -0.16255616845E+04  0.17829820091E+04  0.12699999809E+01 0.  1.
       -4    1    3    3    0  502 -0.73124767950E+03  0.43003172176E+02  0.48790864108E+03  0.88013004523E+03  0.12699999809E+01 0. -1.
</event>
<event>
 5   0  0.3215208E-05  0.2411467E+04  0.7818609E-02  0.8435223E-01
       -2   -1    0    0    0  501  0.00000000000E+00  0.00000000000E+00  0.16994784279E+04  0.16994784279E+04  0.25500000920E-02 0. -1.
        2   -1    0    0  501    0  0.00000000000E+00  0.00000000000E+00 -0.85543465046E+03  0.85543465047E+03  0.25500000920E-02 0.  1.
    10030    2    1    2    0    0  0.00000000000E+00  0.00000000000E+00  0.84404377740E+03  0.25549130783E+04  0.24114665537E+04 0.  0.
        1    1    3    3  502    0 -0.11008699448E+04 -0.15601041125E+02  0.94282616759E+03  0.14495099897E+04  0.50400001928E-02 0. -1.
       -1    1    3    3    0  502  0.11008699448E+04  0.15601041125E+02 -0.98782390187E+02  0.11054030887E+04  0.50400001928E-02 0.  1.
</event>
<event>
 5   0  0.3310037E-05  0.2415694E+04  0.7818609E-02  0.8433651E-01
       -2   -1    0    0    0  501  0.00000000000E+00  0.00000000000E+00  0.73019572101E+03  0.73019572102E+03  0.25500000920E-02 0.  1.
        2   -1    0    0  501    0  0.00000000000E+00  0.00000000000E+00 -0.19979504630E+04  0.19979504630E+04  0.25500000920E-02 0. -1.
    10030    2    1    2    0    0  0.00000000000E+00  0.00000000000E+00 -0.12677547420E+04  0.27281461840E+04  0.24156944169E+04 0.  0.
        2    1    3    3  502    0 -0.53368525369E+03  0.10388207971E+04 -0.28592574209E+03  0.12023818564E+04  0.25500000920E-02 0.  1.
       -2    1    3    3    0  502  0.53368525369E+03 -0.10388207971E+04 -0.98182899993E+03  0.15257643277E+04  0.25500000920E-02 0. -1.
</event>
<event>
 5   0  0.3320780E-05  0.2410745E+04  0.7818609E-02  0.8435492E-01
       -2   -1    0    0    0  501  0.00000000000E+00  0.00000000000E+00  0.12150194843E+04  0.12150194843E+04  0.25500000920E-02 0.  1.
        2   -1    0    0  501    0  0.00000000000E+00  0.00000000000E+00 -0.11958023544E+04  0.11958023544E+04  0.25500000920E-02 0. -1.
    10030    2    1    2    0    0  0.00000000000E+00  0.00000000000E+00  0.19217129894E+02  0.24108218388E+04  0.24107452458E+04 0.  0.
        5    1    3    3  502    0  0.11668226366E+04 -0.28090125764E+03 -0.10228997727E+03  0.12045189543E+04  0.46999998093E+01 0. -1.
       -5    1    3    3    0  502 -0.11668226366E+04  0.28090125764E+03  0.12150710716E+03  0.12063028844E+04  0.46999998093E+01 0.  1.
</event>
<event>
 5   0  0.3310037E-05  0.2343377E+04  0.7818609E-02  0.8461012E-01
        2   -1    0    0  501    0  0.00000000000E+00  0.00000000000E+00  0.13411217823E+04  0.13411217823E+04  0.25500000920E-02 0. -1.
       -2   -1    0    0    0  501  0.00000000000E+00  0.00000000000E+00 -0.10236607683E+04  0.10236607683E+04  0.25500000920E-02 0.  1.
    10030    2    1    2    0    0  0.00000000000E+00  0.00000000000E+00  0.31746101408E+03  0.23647825506E+04  0.23433768404E+04 0.  0.
        2    1    3    3  502    0  0.10728077292E+03 -0.13383712670E+03  0.13283832875E+04  0.13394116989E+04  0.25500000920E-02 0. -1.
       -2    1    3    3    0  502 -0.10728077292E+03  0.13383712670E+03 -0.10109222734E+04  0.10253708517E+04  0.25500000920E-02 0.  1.
</event>
<event>
 5   0  0.1506985E-05  0.2414630E+04  0.7818609E-02  0.8434047E-01
       -1   -1    0    0    0  501  0.00000000000E+00  0.00000000000E+00  0.12965920086E+04  0.12965920086E+04  0.50400001928E-02 0. -1.
        1   -1    0    0  501    0  0.00000000000E+00  0.00000000000E+00 -0.11241852178E+04  0.11241852178E+04  0.50400001928E-02 0.  1.
    10030    2    1    2    0    0  0.00000000000E+00  0.00000000000E+00  0.17240679083E+03  0.24207772265E+04  0.24146300501E+04 0.  0.
        3    1    3    3  502    0 -0.14996711558E+02  0.99189689500E+03 -0.60368013252E+03  0.11612553829E+04  0.10100000352E+00 0.  1.
       -3    1    3    3    0  502  0.14996711558E+02 -0.99189689500E+03  0.77608692334E+03  0.12595218436E+04  0.10100000352E+00 0. -1.
</event>
<event>
 5   0  0.3215208E-05  0.2412060E+04  0.7818609E-02  0.8435002E-01
       -2   -1    0    0    0  501  0.00000000000E+00  0.00000000000E+00  0.12839878861E+04  0.12839878861E+04  0.25500000920E-02 0. -1.
        2   -1    0    0  501    0  0.00000000000E+00  0.00000000000E+00 -0.11328057591E+04  0.11328057591E+04  0.25500000920E-02 0.  1.
    10030    2    1    2    0    0  0.00000000000E+00  0.00000000000E+00  0.15118212699E+03  0.24167936452E+04  0.24120604238E+04 0.  0.
        1    1    3    3  502    0 -0.68515115189E+03 -0.96252927790E+03 -0.16698763465E+03  0.11932223522E+04  0.50400001928E-02 0.  1.
       -1    1    3    3    0  502  0.68515115189E+03  0.96252927790E+03  0.31816976164E+03  0.12235712930E+04  0.50400001928E-02 0. -1.
</event>
<event>
 5   0  0.1401596E-05  0.2380470E+04  0.7818609E-02  0.8446852E-01
       -1   -1    0    0    0  501  0.00000000000E+00  0.00000000000E+00  0.11766133156E+04  0.11766133156E+04  0.50400001928E-02 0. -1.
        1   -1    0    0  501    0  0.00000000000E+00  0.00000000000E+00 -0.12040142508E+04  0.12040142508E+04  0.50400001928E-02 0.  1.
    10030    2    1    2    0    0  0.00000000000E+00  0.00000000000E+00 -0.27400935228E+02  0.23806275664E+04  0.23804698693E+04 0.  0.
        2    1    3    3  502    0  0.95626905323E+03  0.60998129984E+03 -0.37446181999E+03  0.11944661330E+04  0.25500000920E-02 0.  1.
       -2    1    3    3    0  502 -0.95626905323E+03 -0.60998129984E+03  0.34706088476E+03  0.11861614334E+04  0.25500000920E-02 0. -1.
</event>
<event>
 5   0  0.1393026E-05  0.2433960E+04  0.7818609E-02  0.8426898E-01
       -1   -1    0    0    0  501  0.00000000000E+00  0.00000000000E+00  0.14134600781E+04  0.14134600781E+04  0.50400001928E-02 0.  1.
        1   -1    0    0  501    0  0.00000000000E+00  0.00000000000E+00 -0.10478122878E+04  0.10478122878E+04  0.50400001928E-02 0. -1.
    10030    2    1    2    0    0  0.00000000000E+00  0.00000000000E+00  0.36564779027E+03  0.24612723660E+04  0.24339604255E+04 0.  0.
        4    1    3    3  502    0 -0.10902319569E+04 -0.47874463891E+03  0.43711551839E+03  0.12684138672E+04  0.12699999809E+01 0.  1.
       -4    1    3    3    0  502  0.10902319569E+04  0.47874463891E+03 -0.71467728124E+02  0.11928584988E+04  0.12699999809E+01 0. -1.
</event>
<event>
 5   0  0.3347728E-05  0.2426061E+04  0.7818609E-02  0.8429811E-01
        2   -1    0    0  501    0  0.00000000000E+00  0.00000000000E+00  0.18655969138E+04  0.18655969138E+04  0.25500000920E-02 0.  1.
       -2   -1    0    0    0  501  0.00000000000E+00  0.00000000000E+00 -0.78872502361E+03  0.78872502362E+03  0.25500000920E-02 0. -1.
    10030    2    1    2    0    0  0.00000000000E+00  0.00000000000E+00  0.10768718901E+04  0.26543219374E+04  0.24260609802E+04 0.  0.
        3    1    3    3  502    0 -0.10276005360E+04  0.17651430003E+03  0.12167018061E+04  0.16023368731E+04  0.10100000352E+00 0.  1.
       -3    1    3    3    0  502  0.10276005360E+04 -0.17651430003E+03 -0.13982991599E+03  0.10519850642E+04  0.10100000352E+00 0. -1.
</event>
<event>
 5   0  0.3320780E-05  0.2362152E+04  0.7818609E-02  0.8453811E-01
       -2   -1    0    0    0  501  0.00000000000E+00  0.00000000000E+00  0.69626608755E+03  0.69626608755E+03  0.25500000920E-02 0.  1.
        2   -1    0    0  501    0  0.00000000000E+00  0.00000000000E+00 -0.20034589527E+04  0.20034589527E+04  0.25500000920E-02 0. -1.
    10030    2    1    2    0    0  0.00000000000E+00  0.00000000000E+00 -0.13071928651E+04  0.26997250402E+04  0.23621520074E+04 0.  0.
        5    1    3    3  502    0 -0.45110777302E+03  0.59546581190E+03 -0.16991182144E+04  0.18560987453E+04  0.46999998093E+01 0. -1.
       -5    1    3    3    0  502  0.45110777302E+03 -0.59546581190E+03  0.39192534926E+03  0.84362629488E+03  0.46999998093E+01 0.  1.
</event>
<event>
 5   0  0.1147362E-05  0.2384299E+04  0.7818609E-02  0.8445405E-01
        3   -1    0    0  501    0  0.00000000000E+00  0.00000000000E+00  0.11513220069E+04  0.11513220113E+04  0.10100000352E+00 0.  1.
       -3   -1    0    0    0  501  0.00000000000E+00  0.00000000000E+00 -0.12344244608E+04  0.12344244650E+04  0.10100000352E+00 0. -1.
    10030    2    1    2    0    0  0.00000000000E+00  0.00000000000E+00 -0.83102453937E+02  0.23857464763E+04  0.23842986875E+04 0.  0.
        5    1    3    3  502    0 -0.56876368039E+02  0.25614978129E+03  0.11220608980E+04  0.11523412604E+04  0.46999998093E+01 0.  1.
       -5    1    3    3    0  502  0.56876368039E+02 -0.25614978129E+03 -0.12051633519E+04  0.12334052159E+04  0.46999998093E+01 0. -1.
</event>
<event>
 5   0  0.3320780E-05  0.2394802E+04  0.7818609E-02  0.8441452E-01
       -2   -1    0    0    0  501  0.00000000000E+00  0.00000000000E+00  0.61187111083E+03  0.61187111083E+03  0.25500000920E-02 0.  1.
        2   -1    0    0  501    0  0.00000000000E+00  0.00000000000E+00 -0.23432538584E+04  0.23432538584E+04  0.25500000920E-02 0. -1.
    10030    2    1    2    0    0  0.00000000000E+00  0.00000000000E+00 -0.17313827476E+04  0.29551249693E+04  0.23948021558E+04 0.  0.
        5    1    3    3  502    0  0.15862362688E+03  0.93330634717E+03  0.39010664291E+02  0.94750520558E+03  0.46999998093E+01 0. -1.
       -5    1    3    3    0  502 -0.15862362688E+03 -0.93330634717E+03 -0.17703934119E+04  0.20076197637E+04  0.46999998093E+01 0.  1.
</event>
<event>
 5   0  0.3215208E-05  0.2390925E+04  0.7818609E-02  0.8442909E-01
       -2   -1    0    0    0  501  0.00000000000E+00  0.00000000000E+00  0.16109314539E+04  0.16109314539E+04  0.25500000920E-02 0. -1.
        2   -1    0    0  501    0  0.00000000000E+00  0.00000000000E+00 -0.88714575020E+03  0.88714575020E+03  0.25500000920E-02 0.  1.
    10030    2    1    2    0    0  0.00000000000E+00  0.00000000000E+00  0.72378570369E+03  0.24980772041E+04  0.23909253382E+04 0.  0.
        1    1    3    3  502    0 -0.10992370640E+04 -0.46345082995E+03  0.28081217377E+03  0.12255465196E+04  0.50400001928E-02 0. -1.
       -1    1    3    3    0  502  0.10992370640E+04  0.46345082995E+03  0.44297352991E+03  0.12725306845E+04  0.50400001928E-02 0.  1.
</event>
<event>
 5   0  0.1393026E-05  0.2396078E+04  0.7818609E-02  0.8440973E-01
        1   -1    0    0  501    0  0.00000000000E+00  0.00000000000E+00  0.21436108876E+04  0.21436108876E+04  0.50400001928E-02 0.  1.
       -1   -1    0    0    0  501  0.00000000000E+00  0.00000000000E+00 -0.66957002857E+03  0.66957002859E+03  0.50400001928E-02 0. -1.
    10030    2    1    2    0    0  0.00000000000E+00  0.00000000000E+00  0.14740408590E+04  0.28131809162E+04  0.23960781317E+04 0.  0.
        4    1    3    3  502    0  0.11131754770E+04 -0.19632461266E+03  0.27093541418E+03  0.11623728351E+04  0.12699999809E+01 0. -1.
       -4    1    3    3    0  502 -0.11131754770E+04  0.19632461266E+03  0.12031054449E+04  0.16508080811E+04  0.12699999809E+01 0.  1.
</event>
<event>
 5   0  0.1147362E-05  0.2129573E+04  0.7818609E-02  0.8548327E-01
       -3   -1    0    0    0  501  0.00000000000E+00  0.00000000000E+00  0.19423469595E+04  0.19423469622E+04  0.10100000352E+00 0. -1.
        3   -1    0    0  501    0  0.00000000000E+00  0.00000000000E+00 -0.58371162720E+03  0.58371163594E+03  0.10100000352E+00 0.  1.
    10030    2    1    2    0    0  0.00000000000E+00  0.00000000000E+00  0.13586353323E+04  0.25260585981E+04  0.21295732142E+04 0.  0.
        2    1    3    3  502    0 -0.65639694200E+03  0.67033061927E+03  0.82007161886E+02  0.94176709393E+03  0.25500000920E-02 0.  1.
       -2    1    3    3    0  502  0.65639694200E+03 -0.67033061927E+03  0.12766281705E+04  0.15842915042E+04  0.25500000920E-02 0. -1.
</event>
<event>
 5   0  0.3320780E-05  0.2397384E+04  0.7818609E-02  0.8440483E-01
        2   -1    0    0  501    0  0.00000000000E+00  0.00000000000E+00  0.13122142403E+04  0.13122142403E+04  0.25500000920E-02 0.  1.
       -2   -1    0    0    0  501  0.00000000000E+00  0.00000000000E+00 -0.10949911923E+04  0.10949911923E+04  0.25500000920E-02 0. -1.
    10030    2    1    2    0    0  0.00000000000E+00  0.00000000000E+00  0.21722304804E+03  0.24072054326E+04  0.23973844377E+04 0.  0.
        5    1    3    3  502    0 -0.86207945457E+02 -0.26593367296E+03 -0.10617914308E+04  0.10979870950E+04  0.46999998093E+01 0. -1.
       -5    1    3    3    0  502  0.86207945457E+02  0.26593367296E+03  0.12790144789E+04  0.13092183376E+04  0.46999998093E+01 0.  1.
</event>
<event>
 5   0  0.3310037E-05  0.2383240E+04  0.7818609E-02  0.8445805E-01
       -2   -1    0    0    0  501  0.00000000000E+00  0.00000000000E+00  0.15156307329E+04  0.15156307329E+04  0.25500000920E-02 0.  1.
        2   -1    0    0  501    0  0.00000000000E+00  0.00000000000E+00 -0.93687634422E+03  0.93687634422E+03  0.25500000920E-02 0. -1.
    10030    2    1    2    0    0  0.00000000000E+00  0.00000000000E+00  0.57875438872E+03  0.24525070772E+04  0.23832402986E+04 0.  0.
        2    1    3    3  502    0  0.98105532683E+03  0.58930113842E+03 -0.52255345802E+02  0.11456334524E+04  0.25500000920E-02 0. -1.
       -2    1    3    3    0  502 -0.98105532683E+03 -0.58930113842E+03  0.63100973452E+03  0.13068736248E+04  0.25500000920E-02 0.  1.
</event>
<event>
 5   0  0.3347728E-05  0.2401131E+04  0.7818609E-02  0.8439080E-01
        2   -1    0    0  501    0  0.00000000000E+00  0.00000000000E+00  0.11972001912E+04  0.11972001912E+04  0.25500000920E-02 0. -1.
       -2   -1    0    0    0  501  0.00000000000E+00  0.00000000000E+00 -0.12039400283E+04  0.12039400283E+04  0.25500000920E-02 0.  1.
    10030    2    1    2    0    0  0.00000000000E+00  0.00000000000E+00 -0.67398370566E+01  0.24011402195E+04  0.24011307603E+04 0.  0.
        3    1    3    3  502    0  0.10306002900E+04 -0.77316924054E+02  0.60756812907E+03  0.11988552482E+04  0.10100000352E+00 0. -1.
       -3    1    3    3    0  502 -0.10306002900E+04  0.77316924054E+02 -0.61430796612E+03  0.12022849712E+04  0.10100000352E+00 0.  1.
</event>
<event>
 5   0  0.1407158E-05  0.2410481E+04  0.7818609E-02  0.8435590E-01
        1   -1    0    0  501    0  0.00000000000E+00  0.00000000000E+00  0.16097402061E+04  0.16097402061E+04  0.50400001928E-02 0. -1.
       -1   -1    0    0    0  501  0.00000000000E+00  0.00000000000E+00 -0.90238448436E+03  0.90238448437E+03  0.50400001928E-02 0.  1.
    10030    2    1    2    0    0  0.00000000000E+00  0.00000000000E+00  0.70735572174E+03  0.25121246905E+04  0.24104809361E+04 0.  0.
        1    1    3    3  502    0  0.15631186395E+03  0.22944372047E+03  0.15759615427E+04  0.16002289223E+04  0.50400001928E-02 0. -1.
       -1    1    3    3    0  502 -0.15631186395E+03 -0.22944372047E+03 -0.86860582099E+03  0.91189576815E+03  0.50400001928E-02 0.  1.
</event>
<event>
 5   0  0.3347728E-05  0.2385348E+04  0.7818609E-02  0.8445009E-01
        2   -1    0    0  501    0  0.00000000000E+00  0.00000000000E+00  0.12995732628E+04  0.12995732628E+04  0.25500000920E-02 0.  1.
       -2   -1    0    0    0  501  0.00000000000E+00  0.00000000000E+00 -0.10945680374E+04  0.10945680374E+04  0.25500000920E-02 0. -1.
    10030    2    1    2    0    0  0.00000000000E+00  0.00000000000E+00  0.20500522546E+03  0.23941413002E+04  0.23853480716E+04 0.  0.
        3    1    3    3  502    0 -0.15282939774E+02  0.43772340126E+03 -0.10109271495E+04  0.11017300286E+04  0.10100000352E+00 0. -1.
       -3    1    3    3    0  502  0.15282939774E+02 -0.43772340126E+03  0.12159323749E+04  0.12924112715E+04  0.10100000352E+00 0.  1.
</event>
<event>
 5   0  0.3320780E-05  0.2421680E+04  0.7818609E-02  0.8431431E-01
        2   -1    0    0  501    0  0.00000000000E+00  0.00000000000E+00  0.17781209537E+04  0.17781209537E+04  0.25500000920E-02 0.  1.
       -2   -1    0    0    0  501  0.00000000000E+00  0.00000000000E+00 -0.82454125166E+03  0.82454125167E+03  0.25500000920E-02 0. -1.
    10030    2    1    2    0    0  0.00000000000E+00  0.00000000000E+00  0.95357970208E+03  0.26026622054E+04  0.24216804718E+04 0.  0.
        5    1    3    3  502    0  0.33396106104E+03 -0.93986040323E+03 -0.26098538843E+03  0.10310203833E+04  0.46999998093E+01 0. -1.
       -5    1    3    3    0  502 -0.33396106104E+03  0.93986040323E+03  0.12145650905E+04  0.15716418221E+04  0.46999998093E+01 0.  1.
</event>
<event>
 5   0  0.1407158E-05  0.2390520E+04  0.7818609E-02  0.8443061E-01
        1   -1    0    0  501    0  0.00000000000E+00  0.00000000000E+00  0.13066718520E+04  0.13066718520E+04  0.50400001928E-02 0.  1.
       -1   -1    0    0    0  501  0.00000000000E+00  0.00000000000E+00 -0.10933479632E+04  0.10933479632E+04  0.50400001928E-02 0. -1.
    10030    2    1    2    0    0  0.00000000000E+00  0.00000000000E+00  0.21332388874E+03  0.24000198152E+04  0.23905204521E+04 0.  0.
        1    1    3    3  502    0  0.97152815919E+03 -0.83909818245E+02 -0.58727146404E+03  0.11383301780E+04  0.50400001928E-02 0. -1.
       -1    1    3    3    0  502 -0.97152815919E+03  0.83909818245E+02  0.80059535277E+03  0.12616896372E+04  0.50400001928E-02 0.  1.
</event>
<event>
 5   0  0.1401596E-05  0.2361251E+04  0.7818609E-02  0.8454155E-01
        1   -1    0    0  501    0  0.00000000000E+00  0.00000000000E+00  0.14350128396E+04  0.14350128396E+04  0.50400001928E-02 0.  1.
       -1   -1    0    0    0  501  0.00000000000E+00  0.00000000000E+00 -0.97133394848E+03  0.97133394850E+03  0.50400001928E-02 0. -1.
    10030    2    1    2    0    0  0.00000000000E+00  0.00000000000E+00  0.46367889115E+03  0.24063467881E+04  0.23612510986E+04 0.  0.
        2    1    3    3  502    0  0.96104136984E+03 -0.53242530082E+03 -0.20861790772E+03  0.11183016797E+04  0.25500000920E-02 0. -1.
       -2    1    3    3    0  502 -0.96104136984E+03  0.53242530082E+03  0.67229679887E+03  0.12880451084E+04  0.25500000920E-02 0.  1.
</event>
<event>
 5   0  0.3345974E-05  0.2396415E+04  0.7818609E-02  0.8440847E-01
        2   -1    0    0  501    0  0.00000000000E+00  0.00000000000E+00  0.12668266198E+04  0.12668266199E+04  0.25500000920E-02 0. -1.
       -2   -1    0    0    0  501  0.00000000000E+00  0.00000000000E+00 -0.11333048795E+04  0.11333048795E+04  0.25500000920E-02 0.  1.
    10030    2    1    2    0    0  0.00000000000E+00  0.00000000000E+00  0.13352174034E+03  0.24001314994E+04  0.23964146467E+04 0.  0.
        4    1    3    3  502    0 -0.59018940419E+03 -0.10207220866E+04  0.28040385110E+03  0.12119509246E+04  0.12699999809E+01 0. -1.
       -4    1    3    3    0  502  0.59018940419E+03  0.10207220866E+04 -0.14688211076E+03  0.11881805748E+04  0.12699999809E+01 0.  1.
</event>
<event>
 5   0  0.3345974E-05  0.2393803E+04  0.7818609E-02  0.8441827E-01
        2   -1    0    0  501    0  0.00000000000E+00  0.00000000000E+00  0.23079942938E+04  0.23079942938E+04  0.25500000920E-02 0.  1.
       -2   -1    0    0    0  501  0.00000000000E+00  0.00000000000E+00 -0.62070034376E+03  0.62070034377E+03  0.25500000920E-02 0. -1.
    10030    2    1    2    0    0  0.00000000000E+00  0.00000000000E+00  0.16872939500E+04  0.29286946376E+04  0.23938027083E+04 0.  0.
        4    1    3    3  502    0  0.75141384094E+03  0.14913712010E+03  0.19687585622E+04  0.21125521367E+04  0.12699999809E+01 0.  1.
       -4    1    3    3    0  502 -0.75141384094E+03 -0.14913712010E+03 -0.28146461219E+03  0.81614250089E+03  0.12699999809E+01 0. -1.
</event>
<event>
 5   0  0.3310037E-05  0.2481039E+04  0.7818609E-02  0.8409772E-01
       -2   -1    0    0    0  501  0.00000000000E+00  0.00000000000E+00  0.20867751732E+04  0.20867751732E+04  0.25500000920E-02 0. -1.
        2   -1    0    0  501    0  0.00000000000E+00  0.00000000000E+00 -0.73744805463E+03  0.73744805463E+03  0.25500000920E-02 0.  1.
    10030    2    1    2    0    0  0.00000000000E+00  0.00000000000E+00  0.13493271186E+04  0.28242232279E+04  0.24810387276E+04 0.  0.
        2    1    3    3  502    0  0.38576805540E+03 -0.99413557871E+03  0.13961894721E+04  0.17568345350E+04  0.25500000920E-02 0. -1.
       -2    1    3    3    0  502 -0.38576805540E+03  0.99413557871E+03 -0.46862353495E+02  0.10673886928E+04  0.25500000920E-02 0.  1.
</event>
<event>
 5   0  0.3215208E-05  0.2406030E+04  0.7818609E-02  0.8437250E-01
        2   -1    0    0  501    0  0.00000000000E+00  0.00000000000E+00  0.62673603770E+03  0.62673603770E+03  0.25500000920E-02 0. -1.
       -2   -1    0    0    0  501  0.00000000000E+00  0.00000000000E+00 -0.23091777756E+04  0.23091777756E+04  0.25500000920E-02 0.  1.
    10030    2    1    2    0    0  0.00000000000E+00  0.00000000000E+00 -0.16824417379E+04  0.29359138133E+04  0.24060298663E+04 0.  0.
        1    1    3    3  502    0 -0.18273314232E+03  0.59257296151E+03 -0.20991316466E+04  0.21888096733E+04  0.50400001928E-02 0.  1.
       -1    1    3    3    0  502  0.18273314232E+03 -0.59257296151E+03  0.41668990870E+03  0.74710414003E+03  0.50400001928E-02 0. -1.
</event>
<event>
 5   0  0.3345974E-05  0.2372411E+04  0.7818609E-02  0.8449905E-01
       -2   -1    0    0    0  501  0.00000000000E+00  0.00000000000E+00  0.86891742289E+03  0.86891742290E+03  0.25500000920E-02 0. -1.
        2   -1    0    0  501    0  0.00000000000E+00  0.00000000000E+00 -0.16193518453E+04  0.16193518453E+04  0.25500000920E-02 0.  1.
    10030    2    1    2    0    0  0.00000000000E+00  0.00000000000E+00 -0.75043442238E+03  0.24882692682E+04  0.23724106155E+04 0.  0.
        4    1    3    3  502    0  0.10872809973E+03  0.10310958066E+04  0.22920810470E+03  0.10618466604E+04  0.12699999809E+01 0. -1.
       -4    1    3    3    0  502 -0.10872809973E+03 -0.10310958066E+04 -0.97964252707E+03  0.14264226077E+04  0.12699999809E+01 0.  1.
</event>
<event>
 5   0  0.3347728E-05  0.2401614E+04  0.7818609E-02  0.8438900E-01
       -2   -1    0    0    0  501  0.00000000000E+00  0.00000000000E+00  0.14453807035E+04  0.14453807035E+04  0.25500000920E-02 0.  1.
        2   -1    0    0  501    0  0.00000000000E+00  0.00000000000E+00 -0.99761763588E+03  0.99761763588E+03  0.25500000920E-02 0. -1.
    10030    2    1    2    0    0  0.00000000000E+00  0.00000000000E+00  0.44776306767E+03  0.24429983394E+04  0.24016138577E+04 0.  0.
        3    1    3    3  502    0 -0.34057305501E+03 -0.91907467953E+03  0.92955682318E+03  0.13508383212E+04  0.10100000352E+00 0.  1.
       -3    1    3    3    0  502  0.34057305501E+03  0.91907467953E+03 -0.48179375551E+03  0.10921600182E+04  0.10100000352E+00 0. -1.
</event>
<event>
 5   0  0.1407158E-05  0.2405835E+04  0.7818609E-02  0.8437322E-01
        1   -1    0    0  501    0  0.00000000000E+00  0.00000000000E+00  0.95604588141E+03  0.95604588143E+03  0.50400001928E-02 0. -1.
       -1   -1    0    0    0  501  0.00000000000E+00  0.00000000000E+00 -0.15135371558E+04  0.15135371558E+04  0.50400001928E-02 0.  1.
    10030    2    1    2    0    0  0.00000000000E+00  0.00000000000E+00 -0.55749127435E+03  0.24695830372E+04  0.24058353760E+04 0.  0.
        1    1    3    3  502    0  0.23098989431E+03 -0.79926777844E+02  0.93028596224E+03  0.96186100485E+03  0.50400001928E-02 0. -1.
       -1    1    3    3    0  502 -0.23098989431E+03  0.79926777844E+02 -0.14877772366E+04  0.15077220323E+04  0.50400001928E-02 0.  1.
</event>
<event>
 5   0  0.1506985E-05  0.2394501E+04  0.7818609E-02  0.8441565E-01
       -1   -1    0    0    0  501  0.00000000000E+00  0.00000000000E+00  0.78173244385E+03  0.78173244387E+03  0.50400001928E-02 0. -1.
        1   -1    0    0  501    0  0.00000000000E+00  0.00000000000E+00 -0.18336307559E+04  0.18336307559E+04  0.50400001928E-02 0.  1.
    10030    2    1    2    0    0  0.00000000000E+00  0.00000000000E+00 -0.10518983121E+04  0.26153631998E+04  0.23945009100E+04 0.  0.
        3    1    3    3  502    0 -0.51491348905E+03 -0.78049245495E+03  0.29075244327E+03  0.97920445614E+03  0.10100000352E+00 0. -1.
       -3    1    3    3    0  502  0.51491348905E+03  0.78049245495E+03 -0.13426507554E+04  0.16361587437E+04  0.10100000352E+00 0.  1.
</event>
<event>
 5   0  0.1393026E-05  0.2373422E+04  0.7818609E-02  0.8449522E-01
        1   -1    0    0  501    0  0.00000000000E+00  0.00000000000E+00  0.87545999788E+03  0.87545999789E+03  0.50400001928E-02 0. -1.
       -1   -1    0    0    0  501  0.00000000000E+00  0.00000000000E+00 -0.16086205025E+04  0.16086205025E+04  0.50400001928E-02 0.  1.
    10030    2    1    2    0    0  0.00000000000E+00  0.00000000000E+00 -0.73316050462E+03  0.24840805004E+04  0.23734219193E+04 0.  0.
        4    1    3    3  502    0 -0.75871122632E+01 -0.48403772608E+03  0.76741709906E+03  0.90734816988E+03  0.12699999809E+01 0. -1.
       -4    1    3    3    0  502  0.75871122632E+01  0.48403772608E+03 -0.15005776037E+04  0.15767323305E+04  0.12699999809E+01 0.  1.
</event>
<event>
 5   0  0.1407158E-05  0.2407845E+04  0.7818609E-02  0.8436572E-01
       -1   -1    0    0    0  501  0.00000000000E+00  0.00000000000E+00  0.14016219553E+04  0.14016219553E+04  0.50400001928E-02 0. -1.
        1   -1    0    0  501    0  0.00000000000E+00  0.00000000000E+00 -0.10341088897E+04  0.10341088898E+04  0.50400001928E-02 0.  1.
    10030    2    1    2    0    0  0.00000000000E+00  0.00000000000E+00  0.36751306555E+03  0.24357308451E+04  0.24078452808E+04 0.  0.
        1    1    3    3  502    0 -0.23961693528E+03  0.80776668280E+03  0.10536730358E+04  0.13491219944E+04  0.50400001928E-02 0. -1.
       -1    1    3    3    0  502  0.23961693528E+03 -0.80776668280E+03 -0.68615997021E+03  0.10866088506E+04  0.50400001928E-02 0.  1.
</event>
<event>
 5   0  0.3215208E-05  0.2400584E+04  0.7818609E-02  0.8439285E-01
       -2   -1    0    0    0  501  0.00000000000E+00  0.00000000000E+00  0.65222397568E+03  0.65222397568E+03  0.25500000920E-02 0. -1.
        2   -1    0    0  501    0  0.00000000000E+00  0.00000000000E+00 -0.22089051617E+04  0.22089051617E+04  0.25500000920E-02 0.  1.
    10030    2    1    2    0    0  0.00000000000E+00  0.00000000000E+00 -0.15566811860E+04  0.28611291374E+04  0.24005840177E+04 0.  0.
        1    1    3    3  502    0  0.19203799018E+03 -0.60497054497E+03 -0.19925239584E+04  0.20911766245E+04  0.50400001928E-02 0.  1.
       -1    1    3    3    0  502 -0.19203799018E+03  0.60497054497E+03  0.43584277234E+03  0.76995251294E+03  0.50400001928E-02 0. -1.
</event>
<event>
 5   0  0.3345974E-05  0.2450494E+04  0.7818609E-02  0.8420838E-01
        2   -1    0    0  501    0  0.00000000000E+00  0.00000000000E+00  0.11514344493E+04  0.11514344493E+04  0.25500000920E-02 0.  1.
       -2   -1    0    0    0  501  0.00000000000E+00  0.00000000000E+00 -0.13037911275E+04  0.13037911275E+04  0.25500000920E-02 0. -1.
    10030    2    1    2    0    0  0.00000000000E+00  0.00000000000E+00 -0.15235667827E+03  0.24552255768E+04  0.24504938432E+04 0.  0.
        4    1    3    3  502    0  0.11598813264E+04  0.15856811582E+03 -0.43848391623E+03  0.12500953150E+04  0.12699999809E+01 0. -1.
       -4    1    3    3    0  502 -0.11598813264E+04 -0.15856811582E+03  0.28612723796E+03  0.12051302618E+04  0.12699999809E+01 0.  1.
</event>
<event>
 5   0  0.3310037E-05  0.2432032E+04  0.7818609E-02  0.8427608E-01
       -2   -1    0    0    0  501  0.00000000000E+00  0.00000000000E+00  0.69170296156E+03  0.69170296156E+03  0.25500000920E-02 0.  1.
        2   -1    0    0  501    0  0.00000000000E+00  0.00000000000E+00 -0.21377604869E+04  0.21377604870E+04  0.25500000920E-02 0. -1.
    10030    2    1    2    0    0  0.00000000000E+00  0.00000000000E+00 -0.14460575254E+04  0.28294634485E+04  0.24320322859E+04 0.  0.
        2    1    3    3  502    0  0.17430272531E+02 -0.29575288015E+03  0.64907226659E+03  0.71349028569E+03  0.25500000920E-02 0.  1.
       -2    1    3    3    0  502 -0.17430272531E+02  0.29575288015E+03 -0.20951297920E+04  0.21159731628E+04  0.25500000920E-02 0. -1.
</event>
<event>
 5   0  0.1434943E-05  0.2341495E+04  0.7818609E-02  0.8461738E-01
       -1   -1    0    0    0  501  0.00000000000E+00  0.00000000000E+00  0.53261117643E+03  0.53261117645E+03  0.50400001928E-02 0.  1.
        1   -1    0    0  501    0  0.00000000000E+00  0.00000000000E+00 -0.25734519955E+04  0.25734519955E+04  0.50400001928E-02 0. -1.
    10030    2    1    2    0    0  0.00000000000E+00  0.00000000000E+00 -0.20408408191E+04  0.31060631720E+04  0.23414946465E+04 0.  0.
        5    1    3    3  502    0  0.76375321719E+03 -0.62928950345E+03 -0.19061994133E+03  0.10078106508E+04  0.46999998093E+01 0.  1.
       -5    1    3    3    0  502 -0.76375321719E+03  0.62928950345E+03 -0.18502208778E+04  0.20982525211E+04  0.46999998093E+01 0. -1.
</event>
<event>
 5   0  0.1506985E-05  0.2391194E+04  0.7818609E-02  0.8442808E-01
       -1   -1    0    0    0  501  0.00000000000E+00  0.00000000000E+00  0.12898434304E+04  0.12898434304E+04  0.50400001928E-02 0.  1.
        1   -1    0    0  501    0  0.00000000000E+00  0.00000000000E+00 -0.11082370899E+04  0.11082370899E+04  0.50400001928E-02 0. -1.
    10030    2    1    2    0    0  0.00000000000E+00  0.00000000000E+00  0.18160634048E+03  0.23980805203E+04  0.23911941199E+04 0.  0.
        3    1    3    3  502    0  0.67295907258E+03  0.97876179482E+03 -0.45985218798E+02  0.11886812924E+04  0.10100000352E+00 0. -1.
       -3    1    3    3    0  502 -0.67295907258E+03 -0.97876179482E+03  0.22759155928E+03  0.12093992279E+04  0.10100000352E+00 0.  1.
</event>
<event>
 5   0  0.3215208E-05  0.2392702E+04  0.7818609E-02  0.8442241E-01
       -2   -1    0    0    0  501  0.00000000000E+00  0.00000000000E+00  0.73222679591E+03  0.73222679591E+03  0.25500000920E-02 0. -1.
        2   -1    0    0  501    0  0.00000000000E+00  0.00000000000E+00 -0.19546618432E+04  0.19546618432E+04  0.25500000920E-02 0.  1.
    10030    2    1    2    0    0  0.00000000000E+00  0.00000000000E+00 -0.12224350473E+04  0.26868886391E+04  0.23927020529E+04 0.  0.
        1    1    3    3  502    0  0.10471944937E+04 -0.27320193254E+03 -0.38622110290E+02  0.10829345645E+04  0.50400001928E-02 0. -1.
       -1    1    3    3    0  502 -0.10471944937E+04  0.27320193254E+03 -0.11838129370E+04  0.16039540746E+04  0.50400001928E-02 0.  1.
</event>
<event>
 5   0  0.1393026E-05  0.2406086E+04  0.7818609E-02  0.8437229E-01
       -1   -1    0    0    0  501  0.00000000000E+00  0.00000000000E+00  0.16723291972E+04  0.16723291972E+04  0.50400001928E-02 0. -1.
        1   -1    0    0  501    0  0.00000000000E+00  0.00000000000E+00 -0.86544720257E+03  0.86544720258E+03  0.50400001928E-02 0.  1.
    10030    2    1    2    0    0  0.00000000000E+00  0.00000000000E+00  0.80688199460E+03  0.25377763998E+04  0.24060861377E+04 0.  0.
        4    1    3    3  502    0 -0.70455281354E+03 -0.17302977010E+03  0.14156415870E+04  0.15907157773E+04  0.12699999809E+01 0. -1.
       -4    1    3    3    0  502  0.70455281354E+03  0.17302977010E+03 -0.60875959239E+03  0.94706062247E+03  0.12699999809E+01 0.  1.
</event>
<event>
 5   0  0.1506985E-05  0.2414645E+04  0.7818609E-02  0.8434041E-01
        1   -1    0    0  501    0  0.00000000000E+00  0.00000000000E+00  0.14338930767E+04  0.14338930767E+04  0.50400001928E-02 0.  1.
       -1   -1    0    0    0  501  0.00000000000E+00  0.00000000000E+00 -0.10165524467E+04  0.10165524467E+04  0.50400001928E-02 0. -1.
    10030    2    1    2    0    0  0.00000000000E+00  0.00000000000E+00  0.41734062996E+03  0.24504455234E+04  0.24146449142E+04 0.  0.
        3    1    3    3  502    0 -0.32518516994E+03 -0.22834033556E+03  0.13656360258E+04  0.14222680720E+04  0.10100000352E+00 0.  1.
       -3    1    3    3    0  502  0.32518516994E+03  0.22834033556E+03 -0.94829539580E+03  0.10281774514E+04  0.10100000352E+00 0. -1.
</event>
<event>
 5   0  0.1407158E-05  0.2259441E+04  0.7818609E-02  0.8494087E-01
        1   -1    0    0  501    0  0.00000000000E+00  0.00000000000E+00  0.12680191885E+04  0.12680191885E+04  0.50400001928E-02 0.  1.
       -1   -1    0    0    0  501  0.00000000000E+00  0.00000000000E+00 -0.10065056075E+04  0.10065056075E+04  0.50400001928E-02 0. -1.
    10030    2    1    2    0    0  0.00000000000E+00  0.00000000000E+00  0.26151358095E+03  0.22745247960E+04  0.22594410138E+04 0.  0.
        1    1    3    3  502    0  0.75829738183E+03  0.52705887554E+03  0.78584098135E+03  0.12125807295E+04  0.50400001928E-02 0.  1.
       -1    1    3    3    0  502 -0.75829738183E+03 -0.52705887554E+03 -0.52432740040E+03  0.10619440665E+04  0.50400001928E-02 0. -1.
</event>
<event>
 5   0  0.1434943E-05  0.2441323E+04  0.7818609E-02  0.8424193E-01
       -1   -1    0    0    0  501  0.00000000000E+00  0.00000000000E+00  0.15019857335E+04  0.15019857335E+04  0.50400001928E-02 0.  1.
        1   -1    0    0  501    0  0.00000000000E+00  0.00000000000E+00 -0.99202961819E+03  0.99202961821E+03  0.50400001928E-02 0. -1.
    10030    2    1    2    0    0  0.00000000000E+00  0.00000000000E+00  0.50995611534E+03  0.24940153518E+04  0.24413228658E+04 0.  0.
        5    1    3    3  502    0  0.96271880978E+03 -0.49579389678E+03 -0.32052191804E+03  0.11293340891E+04  0.46999998093E+01 0. -1.
       -5    1    3    3    0  502 -0.96271880978E+03  0.49579389678E+03  0.83047803339E+03  0.13646812627E+04  0.46999998093E+01 0.  1.
</event>
<event>
 5   0  0.1506985E-05  0.2394978E+04  0.7818609E-02  0.8441386E-01
       -1   -1    0    0    0  501  0.00000000000E+00  0.00000000000E+00  0.13189213570E+04  0.13189213570E+04  0.50400001928E-02 0.  1.
        1   -1    0    0  501    0  0.00000000000E+00  0.00000000000E+00 -0.10872370310E+04  0.10872370310E+04  0.50400001928E-02 0. -1.
    10030    2    1    2    0    0  0.00000000000E+00  0.00000000000E+00  0.23168432597E+03  0.24061583880E+04  0.23949781964E+04 0.  0.
        3    1    3    3  502    0 -0.40537959086E+02  0.69536968688E+03  0.10944517881E+04  0.12973076174E+04  0.10100000352E+00 0.  1.
       -3    1    3    3    0  502  0.40537959086E+02 -0.69536968688E+03 -0.86276746209E+03  0.11088507706E+04  0.10100000352E+00 0. -1.
</event>
<event>
 5   0  0.3345974E-05  0.2397845E+04  0.7818609E-02  0.8440311E-01
        2   -1    0    0  501    0  0.00000000000E+00  0.00000000000E+00  0.73870471423E+03  0.73870471423E+03  0.25500000920E-02 0.  1.
       -2   -1    0    0    0  501  0.00000000000E+00  0.00000000000E+00 -0.19458591993E+04  0.19458591993E+04  0.25500000920E-02 0. -1.
    10030    2    1    2    0    0  0.00000000000E+00  0.00000000000E+00 -0.12071544851E+04  0.26845639136E+04  0.23978451691E+04 0.  0.
        4    1    3    3  502    0  0.84880923993E+03 -0.68066971649E+03 -0.39746241197E+02  0.10887468784E+04  0.12699999809E+01 0.  1.
       -4    1    3    3    0  502 -0.84880923993E+03  0.68066971649E+03 -0.11674082439E+04  0.15958170351E+04  0.12699999809E+01 0. -1.
</event>
<event>
 5   0  0.3215208E-05  0.2397522E+04  0.7818609E-02  0.8440432E-01
        2   -1    0    0  501    0  0.00000000000E+00  0.00000000000E+00  0.22907609828E+04  0.22907609828E+04  0.25500000920E-02 0.  1.
       -2   -1    0    0    0  501  0.00000000000E+00  0.00000000000E+00 -0.62731471932E+03  0.62731471933E+03  0.25500000920E-02 0. -1.
    10030    2    1    2    0    0  0.00000000000E+00  0.00000000000E+00  0.16634462635E+04  0.29180757022E+04  0.23975221233E+04 0.  0.
        1    1    3    3  502    0  0.86146956996E+03  0.40013674229E+03  0.17217950580E+04  0.19664225015E+04  0.50400001928E-02 0.  1.
       -1    1    3    3    0  502 -0.86146956996E+03 -0.40013674229E+03 -0.58348794520E+02  0.95165320067E+03  0.50400001928E-02 0. -1.
</event>
<event>
 5   0  0.1393026E-05  0.2426970E+04  0.7818609E-02  0.8429475E-01
       -1   -1    0    0    0  501  0.00000000000E+00  0.00000000000E+00  0.86276319550E+03  0.86276319552E+03  0.50400001928E-02 0.  1.
        1   -1    0    0  501    0  0.00000000000E+00  0.00000000000E+00 -0.17067790724E+04  0.17067790724E+04  0.50400001928E-02 0. -1.
    10030    2    1    2    0    0  0.00000000000E+00  0.00000000000E+00 -0.84401587691E+03  0.25695422679E+04  0.24269702648E+04 0.  0.
        4    1    3    3  502    0  0.41115803529E+03 -0.93957902006E+02  0.78266763457E+03  0.88907213230E+03  0.12699999809E+01 0.  1.
       -4    1    3    3    0  502 -0.41115803529E+03  0.93957902006E+02 -0.16266835115E+04  0.16804701356E+04  0.12699999809E+01 0. -1.
</event>
<event>
 5   0  0.3320780E-05  0.2364118E+04  0.7818609E-02  0.8453061E-01
        2   -1    0    0  501    0  0.00000000000E+00  0.00000000000E+00  0.18674715396E+04  0.18674715396E+04  0.25500000920E-02 0. -1.
       -2   -1    0    0    0  501  0.00000000000E+00  0.00000000000E+00 -0.74821153017E+03  0.74821153017E+03  0.25500000920E-02 0.  1.
    10030    2    1    2    0    0  0.00000000000E+00  0.00000000000E+00  0.11192600095E+04  0.26156830698E+04  0.23641182189E+04 0.  0.
        5    1    3    3  502    0 -0.19721733434E+03 -0.39007007295E+03 -0.65550409684E+03  0.78788136781E+03  0.46999998093E+01 0.  1.
       -5    1    3    3    0  502  0.19721733434E+03  0.39007007295E+03  0.17747641063E+04  0.18278017020E+04  0.46999998093E+01 0. -1.
</event>
<event>
 5   0  0.1393026E-05  0.2402408E+04  0.7818609E-02  0.8438603E-01
        1   -1    0    0  501    0  0.00000000000E+00  0.00000000000E+00  0.13209733571E+04  0.13209733571E+04  0.50400001928E-02 0. -1.
       -1   -1    0    0    0  501  0.00000000000E+00  0.00000000000E+00 -0.10922937558E+04  0.10922937558E+04  0.50400001928E-02 0.  1.
    10030    2    1    2    0    0  0.00000000000E+00  0.00000000000E+00  0.22867960131E+03  0.24132671130E+04  0.24024079168E+04 0.  0.
        4    1    3    3  502    0 -0.94684051489E+03  0.90063641082E+02 -0.62264596817E+03  0.11367972707E+04  0.12699999809E+01 0.  1.
       -4    1    3    3    0  502  0.94684051489E+03 -0.90063641082E+02  0.85132556948E+03  0.12764698423E+04  0.12699999809E+01 0. -1.
</event>
<event>
 5   0  0.1407158E-05  0.2418127E+04  0.7818609E-02  0.8432748E-01
       -1   -1    0    0    0  501  0.00000000000E+00  0.00000000000E+00  0.90884357847E+03  0.90884357848E+03  0.50400001928E-02 0. -1.
        1   -1    0    0  501    0  0.00000000000E+00  0.00000000000E+00 -0.16084556323E+04  0.16084556323E+04  0.50400001928E-02 0.  1.
    10030    2    1    2    0    0  0.00000000000E+00  0.00000000000E+00 -0.69961205381E+03  0.25172992108E+04  0.24181270212E+04 0.  0.
        1    1    3    3  502    0 -0.17974967041E+02  0.45307138791E+03  0.81698117413E+03  0.93437413325E+03  0.50400001928E-02 0. -1.
       -1    1    3    3    0  502  0.17974967041E+02 -0.45307138791E+03 -0.15165932279E+04  0.15829250775E+04  0.50400001928E-02 0.  1.
</event>
<event>
 5   0  0.1407158E-05  0.2542913E+04  0.7818609E-02  0.8387855E-01
        1   -1    0    0  501    0  0.00000000000E+00  0.00000000000E+00  0.10211950714E+04  0.10211950714E+04  0.50400001928E-02 0. -1.
       -1   -1    0    0    0  501  0.00000000000E+00  0.00000000000E+00 -0.15830486739E+04  0.15830486739E+04  0.50400001928E-02 0.  1.
    10030    2    1    2    0    0  0.00000000000E+00  0.00000000000E+00 -0.56185360250E+03  0.26042437452E+04  0.25429128994E+04 0.  0.
        1    1    3    3  502    0 -0.51933529145E+03 -0.89490406214E+03  0.47583988782E+03  0.11388529423E+04  0.50400001928E-02 0. -1.
       -1    1    3    3    0  502  0.51933529145E+03  0.89490406214E+03 -0.10376934903E+04  0.14653908029E+04  0.50400001928E-02 0.  1.
</event>
<event>
 5   0  0.1506985E-05  0.2407356E+04  0.7818609E-02  0.8436755E-01
       -1   -1    0    0    0  501  0.00000000000E+00  0.00000000000E+00  0.94662643975E+03  0.94662643977E+03  0.50400001928E-02 0. -1.
        1   -1    0    0  501    0  0.00000000000E+00  0.00000000000E+00 -0.15305306256E+04  0.15305306256E+04  0.50400001928E-02 0.  1.
    10030    2    1    2    0    0  0.00000000000E+00  0.00000000000E+00 -0.58390418580E+03  0.24771570653E+04  0.24073560244E+04 0.  0.
        3    1    3    3  502    0 -0.36075989034E+03  0.41438186031E+03 -0.13939766708E+04  0.14983427490E+04  0.10100000352E+00 0.  1.
       -3    1    3    3    0  502  0.36075989034E+03 -0.41438186031E+03  0.81007248500E+03  0.97881431630E+03  0.10100000352E+00 0. -1.
</event>
<event>
 5   0  0.3320780E-05  0.2372318E+04  0.7818609E-02  0.8449941E-01
        2   -1    0    0  501    0  0.00000000000E+00  0.00000000000E+00  0.19353147080E+04  0.19353147080E+04  0.25500000920E-02 0.  1.
       -2   -1    0    0    0  501  0.00000000000E+00  0.00000000000E+00 -0.72699953261E+03  0.72699953261E+03  0.25500000920E-02 0. -1.
    10030    2    1    2    0    0  0.00000000000E+00  0.00000000000E+00  0.12083151754E+04  0.26623142406E+04  0.23723177596E+04 0.  0.
        5    1    3    3  502    0 -0.83581170135E+03  0.82509275495E+03  0.79056984069E+03  0.14157619918E+04  0.46999998093E+01 0.  1.
       -5    1    3    3    0  502  0.83581170135E+03 -0.82509275495E+03  0.41774533470E+03  0.12465522488E+04  0.46999998093E+01 0. -1.
</event>
<event>
 5   0  0.3215208E-05  0.2403834E+04  0.7818609E-02  0.8438070E-01
       -2   -1    0    0    0  501  0.00000000000E+00  0.00000000000E+00  0.11780507120E+04  0.11780507120E+04  0.25500000920E-02 0.  1.
        2   -1    0    0  501    0  0.00000000000E+00  0.00000000000E+00 -0.12262663471E+04  0.12262663471E+04  0.25500000920E-02 0. -1.
    10030    2    1    2    0    0  0.00000000000E+00  0.00000000000E+00 -0.48215635067E+02  0.24043170591E+04  0.24038335577E+04 0.  0.
        1    1    3    3  502    0  0.61510739838E+02 -0.52460155061E+03 -0.11039608306E+04  0.12238136597E+04  0.50400001928E-02 0. -1.
       -1    1    3    3    0  502 -0.61510739838E+02  0.52460155061E+03  0.10557451956E+04  0.11805033994E+04  0.50400001928E-02 0.  1.
</event>
<event>
 5   0  0.1393026E-05  0.2398644E+04  0.7818609E-02  0.8440011E-01
        1   -1    0    0  501    0  0.00000000000E+00  0.00000000000E+00  0.80372707774E+03  0.80372707776E+03  0.50400001928E-02 0. -1.
       -1   -1    0    0    0  501  0.00000000000E+00  0.00000000000E+00 -0.17896286114E+04  0.17896286114E+04  0.50400001928E-02 0.  1.
    10030    2    1    2    0    0  0.00000000000E+00  0.00000000000E+00 -0.98590153363E+03  0.25933556891E+04  0.23986437619E+04 0.  0.
        4    1    3    3  502    0 -0.27686899957E+03  0.12265142767E+02  0.76863110708E+03  0.81706931672E+03  0.12699999809E+01 0. -1.
       -4    1    3    3    0  502  0.27686899957E+03 -0.12265142767E+02 -0.17545326407E+04  0.17762863724E+04  0.12699999809E+01 0.  1.
</event>
<event>
 5   0  0.1506985E-05  0.2390458E+04  0.7818609E-02  0.8443085E-01
       -1   -1    0    0    0  501  0.00000000000E+00  0.00000000000E+00  0.11849407904E+04  0.11849407904E+04  0.50400001928E-02 0. -1.
        1   -1    0    0  501    0  0.00000000000E+00  0.00000000000E+00 -0.12056064471E+04  0.12056064471E+04  0.50400001928E-02 0.  1.
    10030    2    1    2    0    0  0.00000000000E+00  0.00000000000E+00 -0.20665656709E+02  0.23905472376E+04  0.23904579113E+04 0.  0.
        3    1    3    3  502    0 -0.10344680930E+04 -0.58603677057E+03 -0.13284828039E+03  0.11963327329E+04  0.10100000352E+00 0.  1.
       -3    1    3    3    0  502  0.10344680930E+04  0.58603677057E+03  0.11218262368E+03  0.11942145047E+04  0.10100000352E+00 0. -1.
</event>
<event>
 5   0  0.3320780E-05  0.2366012E+04  0.7818609E-02  0.8452339E-01
       -2   -1    0    0    0  501  0.00000000000E+00  0.00000000000E+00  0.73246041096E+03  0.73246041096E+03  0.25500000920E-02 0.  1.
        2   -1    0    0  501    0  0.00000000000E+00  0.00000000000E+00 -0.19106881980E+04  0.19106881980E+04  0.25500000920E-02 0. -1.
    10030    2    1    2    0    0  0.00000000000E+00  0.00000000000E+00 -0.11782277871E+04  0.26431486090E+04  0.23660122255E+04 0.  0.
        5    1    3    3  502    0  0.54113826253E+03  0.10298213342E+04 -0.82902119739E+03  0.14285170056E+04  0.46999998093E+01 0.  1.
       -5    1    3    3    0  502 -0.54113826253E+03 -0.10298213342E+04 -0.34920658968E+03  0.12146316034E+04  0.46999998093E+01 0. -1.
</event>
<event>
 5   0  0.1506985E-05  0.2430178E+04  0.7818609E-02  0.8428291E-01
        1   -1    0    0  501    0  0.00000000000E+00  0.00000000000E+00  0.15945630982E+04  0.15945630982E+04  0.50400001928E-02 0.  1.
       -1   -1    0    0    0  501  0.00000000000E+00  0.00000000000E+00 -0.92592251380E+03  0.92592251382E+03  0.50400001928E-02 0. -1.
    10030    2    1    2    0    0  0.00000000000E+00  0.00000000000E+00  0.66864058442E+03  0.25204856121E+04  0.24301784892E+04 0.  0.
        3    1    3    3  502    0 -0.15979443516E+03  0.62770744772E+03  0.14005754428E+04  0.15431015788E+04  0.10100000352E+00 0.  1.
       -3    1    3    3    0  502  0.15979443516E+03 -0.62770744772E+03 -0.73193485833E+03  0.97738403326E+03  0.10100000352E+00 0. -1.
</event>
<event>
 5   0  0.1506985E-05  0.2414099E+04  0.7818609E-02  0.8434244E-01
       -1   -1    0    0    0  501  0.00000000000E+00  0.00000000000E+00  0.77935098060E+03  0.77935098062E+03  0.50400001928E-02 0. -1.
        1   -1    0    0  501    0  0.00000000000E+00  0.00000000000E+00 -0.18694636068E+04  0.18694636068E+04  0.50400001928E-02 0.  1.
    10030    2    1    2    0    0  0.00000000000E+00  0.00000000000E+00 -0.10901126262E+04  0.26488145875E+04  0.24140988341E+04 0.  0.
        3    1    3    3  502    0  0.97600734811E+03  0.43619203094E+02 -0.13228311261E+04  0.16444984575E+04  0.10100000352E+00 0.  1.
       -3    1    3    3    0  502 -0.97600734811E+03 -0.43619203094E+02  0.23271849987E+03  0.10043161299E+04  0.10100000352E+00 0. -1.
</event>
<event>
 5   0  0.3345974E-05  0.2106222E+04  0.7818609E-02  0.8558508E-01
       -2   -1    0    0    0  501  0.00000000000E+00  0.00000000000E+00  0.11048280275E+04  0.11048280275E+04  0.25500000920E-02 0.  1.
        2   -1    0    0  501    0  0.00000000000E+00  0.00000000000E+00 -0.10038146520E+04  0.10038146520E+04  0.25500000920E-02 0. -1.
    10030    2    1    2    0    0  0.00000000000E+00  0.00000000000E+00  0.10101337547E+03  0.21086426795E+04  0.21062217946E+04 0.  0.
        4    1    3    3  502    0 -0.53397480204E+03 -0.81015168631E+03  0.46032558229E+03  0.10739534900E+04  0.12699999809E+01 0.  1.
       -4    1    3    3    0  502  0.53397480204E+03  0.81015168631E+03 -0.35931220683E+03  0.10346891895E+04  0.12699999809E+01 0. -1.
</event>
<event>
 5   0  0.3310037E-05  0.2401915E+04  0.7818609E-02  0.8438787E-01
        2   -1    0    0  501    0  0.00000000000E+00  0.00000000000E+00  0.10989294053E+04  0.10989294053E+04  0.25500000920E-02 0.  1.
       -2   -1    0    0    0  501  0.00000000000E+00  0.00000000000E+00 -0.13124587453E+04  0.13124587453E+04  0.25500000920E-02 0. -1.
    10030    2    1    2    0    0  0.00000000000E+00  0.00000000000E+00 -0.21352934007E+03  0.24113881506E+04  0.24019154927E+04 0.  0.
        2    1    3    3  502    0  0.77206087122E+03 -0.64206298056E+03  0.55460241922E+03  0.11471297674E+04  0.25500000920E-02 0.  1.
       -2    1    3    3    0  502 -0.77206087122E+03  0.64206298056E+03 -0.76813175929E+03  0.12642583832E+04  0.25500000920E-02 0. -1.
</event>
<event>
 5   0  0.1401596E-05  0.2379511E+04  0.7818609E-02  0.8447214E-01
       -1   -1    0    0    0  501  0.00000000000E+00  0.00000000000E+00  0.12463981112E+04  0.12463981112E+04  0.50400001928E-02 0.  1.
        1   -1    0    0  501    0  0.00000000000E+00  0.00000000000E+00 -0.11356874763E+04  0.11356874763E+04  0.50400001928E-02 0. -1.
    10030    2    1    2    0    0  0.00000000000E+00  0.00000000000E+00  0.11071063487E+03  0.23820855875E+04  0.23795114838E+04 0.  0.
        2    1    3    3  502    0  0.10651538774E+04 -0.46465232756E+03  0.31070802135E+03  0.12029106545E+04  0.25500000920E-02 0.  1.
       -2    1    3    3    0  502 -0.10651538774E+04  0.46465232756E+03 -0.19999738648E+03  0.11791749330E+04  0.25500000920E-02 0. -1.
</event>
<event>
 5   0  0.3310037E-05  0.2350387E+04  0.7818609E-02  0.8458315E-01
       -2   -1    0    0    0  501  0.00000000000E+00  0.00000000000E+00  0.74497593722E+03  0.74497593722E+03  0.25500000920E-02 0. -1.
        2   -1    0    0  501    0  0.00000000000E+00  0.00000000000E+00 -0.18538579209E+04  0.18538579209E+04  0.25500000920E-02 0.  1.
    10030    2    1    2    0    0  0.00000000000E+00  0.00000000000E+00 -0.11088819837E+04  0.25988338581E+04  0.23503868125E+04 0.  0.
        2    1    3    3  502    0  0.24657234796E+03 -0.11337384103E+04 -0.34782256271E+03  0.12112560592E+04  0.25500000920E-02 0. -1.
       -2    1    3    3    0  502 -0.24657234796E+03  0.11337384103E+04 -0.76105942098E+03  0.13875777989E+04  0.25500000920E-02 0.  1.
</event>
<event>
 5   0  0.1401596E-05  0.2364329E+04  0.7818609E-02  0.8452980E-01
       -1   -1    0    0    0  501  0.00000000000E+00  0.00000000000E+00  0.80925187043E+03  0.80925187044E+03  0.50400001928E-02 0.  1.
        1   -1    0    0  501    0  0.00000000000E+00  0.00000000000E+00 -0.17269194983E+04  0.17269194983E+04  0.50400001928E-02 0. -1.
    10030    2    1    2    0    0  0.00000000000E+00  0.00000000000E+00 -0.91766762787E+03  0.25361713687E+04  0.23643289400E+04 0.  0.
        2    1    3    3  502    0  0.56952412927E+03  0.50536490804E+03  0.51119358988E+03  0.91709885533E+03  0.25500000920E-02 0.  1.
       -2    1    3    3    0  502 -0.56952412927E+03 -0.50536490804E+03 -0.14288612178E+04  0.16190725134E+04  0.25500000920E-02 0. -1.
</event>
<event>
 5   0  0.1147362E-05  0.2378009E+04  0.7818609E-02  0.8447783E-01
       -3   -1    0    0    0  501  0.00000000000E+00  0.00000000000E+00  0.80144617508E+03  0.80144618144E+03  0.10100000352E+00 0. -1.
        3   -1    0    0  501    0  0.00000000000E+00  0.00000000000E+00 -0.17639754442E+04  0.17639754471E+04  0.10100000352E+00 0.  1.
    10030    2    1    2    0    0  0.00000000000E+00  0.00000000000E+00 -0.96252926911E+03  0.25654216285E+04  0.23780087338E+04 0.  0.
        3    1    3    3  502    0 -0.44072501838E+03  0.82593742074E+03 -0.12720559555E+04  0.15794105005E+04  0.10100000352E+00 0.  1.
       -3    1    3    3    0  502  0.44072501838E+03 -0.82593742074E+03  0.30952668642E+03  0.98601112804E+03  0.10100000352E+00 0. -1.
</event>
<event>
 5   0  0.1407158E-05  0.2353153E+04  0.7818609E-02  0.8457253E-01
        1   -1    0    0  501    0  0.00000000000E+00  0.00000000000E+00  0.18125027625E+04  0.18125027625E+04  0.50400001928E-02 0.  1.
       -1   -1    0    0    0  501  0.00000000000E+00  0.00000000000E+00 -0.76376867876E+03  0.76376867877E+03  0.50400001928E-02 0. -1.
    10030    2    1    2    0    0  0.00000000000E+00  0.00000000000E+00  0.10487340838E+04  0.25762714413E+04  0.23531534928E+04 0.  0.
        1    1    3    3  502    0  0.41570515517E+03 -0.90491133019E+03  0.12104053042E+04  0.15674043167E+04  0.50400001928E-02 0.  1.
       -1    1    3    3    0  502 -0.41570515517E+03  0.90491133019E+03 -0.16167122045E+03  0.10088671246E+04  0.50400001928E-02 0. -1.
</event>
<event>
 5   0  0.3310037E-05  0.2411139E+04  0.7818609E-02  0.8435345E-01
        2   -1    0    0  501    0  0.00000000000E+00  0.00000000000E+00  0.12170735993E+04  0.12170735993E+04  0.25500000920E-02 0. -1.
       -2   -1    0    0    0  501  0.00000000000E+00  0.00000000000E+00 -0.11941740247E+04  0.11941740247E+04  0.25500000920E-02 0.  1.
    10030    2    1    2    0    0  0.00000000000E+00  0.00000000000E+00  0.22899574663E+02  0.24112476240E+04  0.24111388831E+04 0.  0.
        2    1    3    3  502    0 -0.95307210544E+03  0.10228563624E+03  0.74263862014E+03  0.12125678990E+04  0.25500000920E-02 0. -1.
       -2    1    3    3    0  502  0.95307210544E+03 -0.10228563624E+03 -0.71973904548E+03  0.11986797250E+04  0.25500000920E-02 0.  1.
</event>
<event>
 5   0  0.3345974E-05  0.2396975E+04  0.7818609E-02  0.8440637E-01
        2   -1    0    0  501    0  0.00000000000E+00  0.00000000000E+00  0.15560576684E+04  0.15560576684E+04  0.25500000920E-02 0.  1.
       -2   -1    0    0    0  501  0.00000000000E+00  0.00000000000E+00 -0.92308453013E+03  0.92308453013E+03  0.25500000920E-02 0. -1.
    10030    2    1    2    0    0  0.00000000000E+00  0.00000000000E+00  0.63297313827E+03  0.24791421985E+04  0.23969753955E+04 0.  0.
        4    1    3    3  502    0 -0.23135236864E+03  0.26680774866E+03  0.15010235957E+04  0.15420064011E+04  0.12699999809E+01 0.  1.
       -4    1    3    3    0  502  0.23135236864E+03 -0.26680774866E+03 -0.86805045746E+03  0.93713579743E+03  0.12699999809E+01 0. -1.
</event>
<event>
 5   0  0.3215208E-05  0.2393896E+04  0.7818609E-02  0.8441792E-01
        2   -1    0    0  501    0  0.00000000000E+00  0.00000000000E+00  0.14724807501E+04  0.14724807501E+04  0.25500000920E-02 0.  1.
       -2   -1    0    0    0  501  0.00000000000E+00  0.00000000000E+00 -0.97297370972E+03  0.97297370972E+03  0.25500000920E-02 0. -1.
    10030    2    1    2    0    0  0.00000000000E+00  0.00000000000E+00  0.49950704036E+03  0.24454544598E+04  0.23938964538E+04 0.  0.
        1    1    3    3  502    0  0.63534099453E+03  0.10130742777E+04  0.30290671104E+03  0.12335842683E+04  0.50400001928E-02 0.  1.
       -1    1    3    3    0  502 -0.63534099453E+03 -0.10130742777E+04  0.19660032931E+03  0.12118701915E+04  0.50400001928E-02 0. -1.
</event>
<event>
 5   0  0.3215208E-05  0.2355220E+04  0.7818609E-02  0.8456462E-01
       -2   -1    0    0    0  501  0.00000000000E+00  0.00000000000E+00  0.12782018971E+04  0.12782018971E+04  0.25500000920E-02 0. -1.
        2   -1    0    0  501    0  0.00000000000E+00  0.00000000000E+00 -0.10849340819E+04  0.10849340819E+04  0.25500000920E-02 0.  1.
    10030    2    1    2    0    0  0.00000000000E+00  0.00000000000E+00  0.19326781526E+03  0.23631359790E+04  0.23552195666E+04 0.  0.
        1    1    3    3  502    0 -0.95861194453E+03  0.68384242952E+03  0.82895804237E+02  0.11804444260E+04  0.50400001928E-02 0.  1.
       -1    1    3    3    0  502  0.95861194453E+03 -0.68384242952E+03  0.11037201103E+03  0.11826915530E+04  0.50400001928E-02 0. -1.
</event>
<event>
 5   0  0.1401596E-05  0.2460587E+04  0.7818609E-02  0.8417163E-01
        1   -1    0    0  501    0  0.00000000000E+00  0.00000000000E+00  0.12099111008E+04  0.12099111008E+04  0.50400001928E-02 0. -1.
       -1   -1    0    0    0  501  0.00000000000E+00  0.00000000000E+00 -0.12510191429E+04  0.12510191429E+04  0.50400001928E-02 0.  1.
    10030    2    1    2    0    0  0.00000000000E+00  0.00000000000E+00 -0.41108042089E+02  0.24609302436E+04  0.24605868798E+04 0.  0.
        2    1    3    3  502    0  0.69870346433E+03  0.99876294626E+03  0.14652615059E+03  0.12276741696E+04  0.25500000920E-02 0. -1.
       -2    1    3    3    0  502 -0.69870346433E+03 -0.99876294626E+03 -0.18763419268E+03  0.12332560740E+04  0.25500000920E-02 0.  1.
</event>
<event>
 5   0  0.1147362E-05  0.2430000E+04  0.7818609E-02  0.8428357E-01
        4   -1    0    0  501    0  0.00000000000E+00  0.00000000000E+00  0.75312956288E+03  0.75313063368E+03  0.12699999809E+01 0. -1.
       -4   -1    0    0    0  501  0.00000000000E+00  0.00000000000E+00 -0.19601189400E+04  0.19601193514E+04  0.12699999809E+01 0.  1.
    10030    2    1    2    0    0  0.00000000000E+00  0.00000000000E+00 -0.12069893771E+04  0.27132499851E+04  0.24300004373E+04 0.  0.
        4    1    3    3  502    0 -0.91885460994E+02 -0.57027332257E+03 -0.17970010449E+04  0.18875563485E+04  0.12699999809E+01 0.  1.
       -4    1    3    3    0  502  0.91885460994E+02  0.57027332257E+03  0.59001166785E+03  0.82569363658E+03  0.12699999809E+01 0. -1.
</event>
<event>
 5   0  0.3215208E-05  0.2424842E+04  0.7818609E-02  0.8430261E-01
        2   -1    0    0  501    0  0.00000000000E+00  0.00000000000E+00  0.12026251401E+04  0.12026251401E+04  0.25500000920E-02 0.  1.
       -2   -1    0    0    0  501  0.00000000000E+00  0.00000000000E+00 -0.12222966896E+04  0.12222966896E+04  0.25500000920E-02 0. -1.
    10030    2    1    2    0    0  0.00000000000E+00  0.00000000000E+00 -0.19671549505E+02  0.24249218298E+04  0.24248420383E+04 0.  0.
        1    1    3    3  502    0  0.11426908273E+04  0.81994479552E+02 -0.40671065640E+03  0.12156804594E+04  0.50400001928E-02 0. -1.
       -1    1    3    3    0  502 -0.11426908273E+04 -0.81994479552E+02  0.38703910689E+03  0.12092413703E+04  0.50400001928E-02 0.  1.
</event>
<event>
 5   0  0.3320780E-05  0.2393532E+04  0.7818609E-02  0.8441929E-01
       -2   -1    0    0    0  501  0.00000000000E+00  0.00000000000E+00  0.12221769355E+04  0.12221769355E+04  0.25500000920E-02 0.  1.
        2   -1    0    0  501    0  0.00000000000E+00  0.00000000000E+00 -0.11718831947E+04  0.11718831947E+04  0.25500000920E-02 0. -1.
    10030    2    1    2    0    0  0.00000000000E+00  0.00000000000E+00  0.50293740839E+02  0.23940601302E+04  0.23935317935E+04 0.  0.
        5    1    3    3  502    0 -0.11596984995E+04 -0.29460564149E+03  0.48248025218E+02  0.11975153676E+04  0.46999998093E+01 0. -1.
       -5    1    3    3    0  502  0.11596984995E+04  0.29460564149E+03  0.20457156209E+01  0.11965447625E+04  0.46999998093E+01 0.  1.
</event>
<event>
 5   0  0.3345974E-05  0.2415574E+04  0.7818609E-02  0.8433696E-01
       -2   -1    0    0    0  501  0.00000000000E+00  0.00000000000E+00  0.11706432663E+04  0.11706432663E+04  0.25500000920E-02 0.  1.
        2   -1    0    0  501    0  0.00000000000E+00  0.00000000000E+00 -0.12461095368E+04  0.12461095368E+04  0.25500000920E-02 0. -1.
    10030    2    1    2    0    0  0.00000000000E+00  0.00000000000E+00 -0.75466270550E+02  0.24167528031E+04  0.24155742492E+04 0.  0.
        4    1    3    3  502    0 -0.42438138299E+03  0.10887465945E+04  0.26783267457E+03  0.11988347091E+04  0.12699999809E+01 0.  1.
       -4    1    3    3    0  502  0.42438138299E+03 -0.10887465945E+04 -0.34329894512E+03  0.12179180941E+04  0.12699999809E+01 0. -1.
</event>
<event>
 5   0  0.1407158E-05  0.2408997E+04  0.7818609E-02  0.8436143E-01
       -1   -1    0    0    0  501  0.00000000000E+00  0.00000000000E+00  0.13759990195E+04  0.13759990196E+04  0.50400001928E-02 0. -1.
        1   -1    0    0  501    0  0.00000000000E+00  0.00000000000E+00 -0.10543730550E+04  0.10543730551E+04  0.50400001928E-02 0.  1.
    10030    2    1    2    0    0  0.00000000000E+00  0.00000000000E+00  0.32162596451E+03  0.24303720746E+04  0.24089967123E+04 0.  0.
        1    1    3    3  502    0 -0.11345436876E+04  0.17778961887E+03  0.52737945683E+03  0.12636960153E+04  0.50400001928E-02 0. -1.
       -1    1    3    3    0  502  0.11345436876E+04 -0.17778961887E+03 -0.20575349232E+03  0.11666760593E+04  0.50400001928E-02 0.  1.
</event>
<event>
 5   0  0.3347728E-05  0.2409845E+04  0.7818609E-02  0.8435827E-01
       -2   -1    0    0    0  501  0.00000000000E+00  0.00000000000E+00  0.83637415354E+03  0.83637415354E+03  0.25500000920E-02 0. -1.
        2   -1    0    0  501    0  0.00000000000E+00  0.00000000000E+00 -0.17358713685E+04  0.17358713685E+04  0.25500000920E-02 0.  1.
    10030    2    1    2    0    0  0.00000000000E+00  0.00000000000E+00 -0.89949721492E+03  0.25722455220E+04  0.24098447638E+04 0.  0.
        3    1    3    3  502    0  0.75251048934E+03 -0.94103106356E+03 -0.44426040441E+03  0.12842035728E+04  0.10100000352E+00 0. -1.
       -3    1    3    3    0  502 -0.75251048934E+03  0.94103106356E+03 -0.45523681050E+03  0.12880419492E+04  0.10100000352E+00 0.  1.
</event>
<event>
 5   0  0.3215208E-05  0.2347881E+04  0.7818609E-02  0.8459278E-01
       -2   -1    0    0    0  501  0.00000000000E+00  0.00000000000E+00  0.52857376105E+03  0.52857376105E+03  0.25500000920E-02 0. -1.
        2   -1    0    0  501    0  0.00000000000E+00  0.00000000000E+00 -0.26072744392E+04  0.26072744392E+04  0.25500000920E-02 0.  1.
    10030    2    1    2    0    0  0.00000000000E+00  0.00000000000E+00 -0.20787006782E+04  0.31358482003E+04  0.23478814761E+04 0.  0.
        1    1    3    3  502    0  0.98468720455E+03  0.17951866279E+03 -0.18586571344E+04  0.21110287029E+04  0.50400001928E-02 0.  1.
       -1    1    3    3    0  502 -0.98468720455E+03 -0.17951866279E+03 -0.22004354379E+03  0.10248194974E+04  0.50400001928E-02 0. -1.
</event>
<event>
 5   0  0.1393026E-05  0.2429765E+04  0.7818609E-02  0.8428443E-01
       -1   -1    0    0    0  501  0.00000000000E+00  0.00000000000E+00  0.11039521532E+04  0.11039521532E+04  0.50400001928E-02 0.  1.
        1   -1    0    0  501    0  0.00000000000E+00  0.00000000000E+00 -0.13369592993E+04  0.13369592994E+04  0.50400001928E-02 0. -1.
    10030    2    1    2    0    0  0.00000000000E+00  0.00000000000E+00 -0.23300714613E+03  0.24409114526E+04  0.24297646777E+04 0.  0.
        4    1    3    3  502    0  0.76926713910E+03 -0.49296216258E+03 -0.92089779284E+03  0.12972424534E+04  0.12699999809E+01 0. -1.
       -4    1    3    3    0  502 -0.76926713910E+03  0.49296216258E+03  0.68789064671E+03  0.11436689992E+04  0.12699999809E+01 0.  1.
</event>
<event>
 5   0  0.3347728E-05  0.2181482E+04  0.7818609E-02  0.8526175E-01
        2   -1    0    0  501    0  0.00000000000E+00  0.00000000000E+00  0.15052263525E+04  0.15052263525E+04  0.25500000920E-02 0.  1.
       -2   -1    0    0    0  501  0.00000000000E+00  0.00000000000E+00 -0.79039037353E+03  0.79039037354E+03  0.25500000920E-02 0. -1.
    10030    2    1    2    0    0  0.00000000000E+00  0.00000000000E+00  0.71483597900E+03  0.22956167261E+04  0.21814824492E+04 0.  0.
        3    1    3    3  502    0  0.43814604956E+03  0.99445564621E+03  0.45614786677E+03  0.11785520267E+04  0.10100000352E+00 0.  1.
       -3    1    3    3    0  502 -0.43814604956E+03 -0.99445564621E+03  0.25868811223E+03  0.11170646994E+04  0.10100000352E+00 0. -1.
</event>
<event>
 5   0  0.3215208E-05  0.2381743E+04  0.7818609E-02  0.8446371E-01
       -2   -1    0    0    0  501  0.00000000000E+00  0.00000000000E+00  0.26794323674E+04  0.26794323674E+04  0.25500000920E-02 0. -1.
        2   -1    0    0  501    0  0.00000000000E+00  0.00000000000E+00 -0.52928165218E+03  0.52928165219E+03  0.25500000920E-02 0.  1.
    10030    2    1    2    0    0  0.00000000000E+00  0.00000000000E+00  0.21501507152E+04  0.32087140196E+04  0.23817425472E+04 0.  0.
        1    1    3    3  502    0  0.60648635119E+03 -0.10133093322E+04  0.86831925815E+03  0.14658102984E+04  0.50400001928E-02 0.  1.
       -1    1    3    3    0  502 -0.60648635119E+03  0.10133093322E+04  0.12818314570E+04  0.17429037211E+04  0.50400001928E-02 0. -1.
</event>
<event>
 5   0  0.1401596E-05  0.2385328E+04  0.7818609E-02  0.8445017E-01
       -1   -1    0    0    0  501  0.00000000000E+00  0.00000000000E+00  0.66652419502E+03  0.66652419504E+03  0.50400001928E-02 0. -1.
        1   -1    0    0  501    0  0.00000000000E+00  0.00000000000E+00 -0.21341274304E+04  0.21341274304E+04  0.50400001928E-02 0.  1.
    10030    2    1    2    0    0  0.00000000000E+00  0.00000000000E+00 -0.14676032354E+04  0.28006516255E+04  0.23853281264E+04 0.  0.
        2    1    3    3  502    0  0.58804910035E+03 -0.10053309710E+04 -0.43226757929E+03  0.12423153246E+04  0.25500000920E-02 0.  1.
       -2    1    3    3    0  502 -0.58804910035E+03  0.10053309710E+04 -0.10353356561E+04  0.15583363008E+04  0.25500000920E-02 0. -1.
</event>
<event>
 5   0  0.3320780E-05  0.2240170E+04  0.7818609E-02  0.8501892E-01
       -2   -1    0    0    0  501  0.00000000000E+00  0.00000000000E+00  0.12795230055E+04  0.12795230055E+04  0.25500000920E-02 0. -1.
        2   -1    0    0  501    0  0.00000000000E+00  0.00000000000E+00 -0.98051378235E+03  0.98051378235E+03  0.25500000920E-02 0.  1.
    10030    2    1    2    0    0  0.00000000000E+00  0.00000000000E+00  0.29900922314E+03  0.22600367878E+04  0.22401695844E+04 0.  0.
        5    1    3    3  502    0 -0.21825868791E+03 -0.76690031247E+03 -0.64410693441E+03  0.10250213544E+04  0.46999998093E+01 0.  1.
       -5    1    3    3    0  502  0.21825868791E+03  0.76690031247E+03  0.94311615755E+03  0.12350154334E+04  0.46999998093E+01 0. -1.
</event>
<event>
 5   0  0.1407158E-05  0.2431815E+04  0.7818609E-02  0.8427688E-01
        1   -1    0    0  501    0  0.00000000000E+00  0.00000000000E+00  0.17940654913E+04  0.17940654913E+04  0.50400001928E-02 0.  1.
       -1   -1    0    0    0  501  0.00000000000E+00  0.00000000000E+00 -0.82406746347E+03  0.82406746349E+03  0.50400001928E-02 0. -1.
    10030    2    1    2    0    0  0.00000000000E+00  0.00000000000E+00  0.96999802779E+03  0.26181329548E+04  0.24318149590E+04 0.  0.
        1    1    3    3  502    0 -0.77357715698E+03 -0.60029491198E+03 -0.29110314892E+03  0.10215266235E+04  0.50400001928E-02 0. -1.
       -1    1    3    3    0  502  0.77357715698E+03  0.60029491198E+03  0.12611011767E+04  0.15966063313E+04  0.50400001928E-02 0.  1.
</event>
<event>
 5   0  0.3215208E-05  0.2412193E+04  0.7818609E-02  0.8434953E-01
        2   -1    0    0  501    0  0.00000000000E+00  0.00000000000E+00  0.18065046897E+04  0.18065046897E+04  0.25500000920E-02 0.  1.
       -2   -1    0    0    0  501  0.00000000000E+00  0.00000000000E+00 -0.80523958889E+03  0.80523958889E+03  0.25500000920E-02 0. -1.
    10030    2    1    2    0    0  0.00000000000E+00  0.00000000000E+00  0.10012651008E+04  0.26117442786E+04  0.24121932706E+04 0.  0.
        1    1    3    3  502    0 -0.16251089645E+03 -0.91417776654E+03 -0.33281211067E+03  0.98635423724E+03  0.50400001928E-02 0. -1.
       -1    1    3    3    0  502  0.16251089645E+03  0.91417776654E+03  0.13340772115E+04  0.16253900413E+04  0.50400001928E-02 0.  1.
</event>
<event>
 5   0  0.3310037E-05  0.2369384E+04  0.7818609E-02  0.8451056E-01
        2   -1    0    0  501    0  0.00000000000E+00  0.00000000000E+00  0.23148917155E+04  0.23148917155E+04  0.25500000920E-02 0. -1.
       -2   -1    0    0    0  501  0.00000000000E+00  0.00000000000E+00 -0.60628967653E+03  0.60628967654E+03  0.25500000920E-02 0.  1.
    10030    2    1    2    0    0  0.00000000000E+00  0.00000000000E+00  0.17086020389E+04  0.29211813920E+04  0.23693838434E+04 0.  0.
        2    1    3    3  502    0  0.12495212718E+03  0.92400578167E+03  0.17553169149E+04  0.19875958318E+04  0.25500000920E-02 0. -1.
       -2    1    3    3    0  502 -0.12495212718E+03 -0.92400578167E+03 -0.46714875984E+02  0.93358556024E+03  0.25500000920E-02 0.  1.
</event>
<event>
 5   0  0.1434943E-05  0.2418783E+04  0.7818609E-02  0.8432505E-01
       -1   -1    0    0    0  501  0.00000000000E+00  0.00000000000E+00  0.11725360375E+04  0.11725360376E+04  0.50400001928E-02 0. -1.
        1   -1    0    0  501    0  0.00000000000E+00  0.00000000000E+00 -0.12474057567E+04  0.12474057567E+04  0.50400001928E-02 0.  1.
    10030    2    1    2    0    0  0.00000000000E+00  0.00000000000E+00 -0.74869719100E+02  0.24199417942E+04  0.24187833331E+04 0.  0.
        5    1    3    3  502    0  0.84990426008E+03 -0.51449035076E+03  0.65251020424E+03  0.11886249320E+04  0.46999998093E+01 0. -1.
       -5    1    3    3    0  502 -0.84990426008E+03  0.51449035076E+03 -0.72737992334E+03  0.12313168622E+04  0.46999998093E+01 0.  1.
</event>
<event>
 5   0  0.1506985E-05  0.2387774E+04  0.7818609E-02  0.8444095E-01
        1   -1    0    0  501    0  0.00000000000E+00  0.00000000000E+00  0.13074373722E+04  0.13074373722E+04  0.50400001928E-02 0.  1.
       -1   -1    0    0    0  501  0.00000000000E+00  0.00000000000E+00 -0.10901987941E+04  0.10901987941E+04  0.50400001928E-02 0. -1.
    10030    2    1    2    0    0  0.00000000000E+00  0.00000000000E+00  0.21723857804E+03  0.23976361663E+04  0.23877744002E+04 0.  0.
        3    1    3    3  502    0 -0.44969032670E+02  0.81099100131E+03  0.98724060319E+03  0.12784258433E+04  0.10100000352E+00 0.  1.
       -3    1    3    3    0  502  0.44969032670E+02 -0.81099100131E+03 -0.77000202515E+03  0.11192103230E+04  0.10100000352E+00 0. -1.
</event>
<event>
 5   0  0.3347728E-05  0.2388985E+04  0.7818609E-02  0.8443639E-01
       -2   -1    0    0    0  501  0.00000000000E+00  0.00000000000E+00  0.86429881043E+03  0.86429881044E+03  0.25500000920E-02 0.  1.
        2   -1    0    0  501    0  0.00000000000E+00  0.00000000000E+00 -0.16508326191E+04  0.16508326191E+04  0.25500000920E-02 0. -1.
    10030    2    1    2    0    0  0.00000000000E+00  0.00000000000E+00 -0.78653380871E+03  0.25151314296E+04  0.23889852816E+04 0.  0.
        3    1    3    3  502    0  0.95675898883E+02 -0.11885183302E+04 -0.31820742477E+03  0.12340930574E+04  0.10100000352E+00 0. -1.
       -3    1    3    3    0  502 -0.95675898883E+02  0.11885183302E+04 -0.46832638394E+03  0.12810383722E+04  0.10100000352E+00 0.  1.
</event>
<event>
 5   0  0.3320780E-05  0.2383281E+04  0.7818609E-02  0.8445789E-01
        2   -1    0    0  501    0  0.00000000000E+00  0.00000000000E+00  0.72996029967E+03  0.72996029967E+03  0.25500000920E-02 0.  1.
       -2   -1    0    0    0  501  0.00000000000E+00  0.00000000000E+00 -0.19453214005E+04  0.19453214005E+04  0.25500000920E-02 0. -1.
    10030    2    1    2    0    0  0.00000000000E+00  0.00000000000E+00 -0.12153611008E+04  0.26752817001E+04  0.23832812612E+04 0.  0.
        5    1    3    3  502    0 -0.33402653619E+03  0.47380640817E+03 -0.17763525739E+04  0.18685600863E+04  0.46999998093E+01 0. -1.
       -5    1    3    3    0  502  0.33402653619E+03 -0.47380640817E+03  0.56099147312E+03  0.80672161383E+03  0.46999998093E+01 0.  1.
</event>
<event>
 5   0  0.1434943E-05  0.2390063E+04  0.7818609E-02  0.8443233E-01
        1   -1    0    0  501    0  0.00000000000E+00  0.00000000000E+00  0.13283686464E+04  0.13283686464E+04  0.50400001928E-02 0. -1.
       -1   -1    0    0    0  501  0.00000000000E+00  0.00000000000E+00 -0.10750779094E+04  0.10750779094E+04  0.50400001928E-02 0.  1.
    10030    2    1    2    0    0  0.00000000000E+00  0.00000000000E+00  0.25329073705E+03  0.24034465558E+04  0.23900625827E+04 0.  0.
        5    1    3    3  502    0 -0.36799828207E+03 -0.80095980078E+03  0.93808304152E+03  0.12872378261E+04  0.46999998093E+01 0. -1.
       -5    1    3    3    0  502  0.36799828207E+03  0.80095980078E+03 -0.68479230447E+03  0.11162087297E+04  0.46999998093E+01 0.  1.
</event>
<event>
 5   0  0.3215208E-05  0.2398065E+04  0.7818609E-02  0.8440228E-01
        2   -1    0    0  501    0  0.00000000000E+00  0.00000000000E+00  0.18526835692E+04  0.18526835692E+04  0.25500000920E-02 0. -1.
       -2   -1    0    0    0  501  0.00000000000E+00  0.00000000000E+00 -0.77599841681E+03  0.77599841681E+03  0.25500000920E-02 0.  1.
    10030    2    1    2    0    0  0.00000000000E+00  0.00000000000E+00  0.10766851524E+04  0.26286819860E+04  0.23980654841E+04 0.  0.
        1    1    3    3  502    0 -0.10499283837E+04 -0.43807914381E+03  0.12321969142E+03  0.11443102899E+04  0.50400001928E-02 0.  1.
       -1    1    3    3    0  502  0.10499283837E+04  0.43807914381E+03  0.95346546099E+03  0.14843716962E+04  0.50400001928E-02 0. -1.
</event>
<event>
 5   0  0.1407158E-05  0.2391009E+04  0.7818609E-02  0.8442877E-01
       -1   -1    0    0    0  501  0.00000000000E+00  0.00000000000E+00  0.71790592975E+03  0.71790592977E+03  0.50400001928E-02 0.  1.
        1   -1    0    0  501    0  0.00000000000E+00  0.00000000000E+00 -0.19908340386E+04  0.19908340386E+04  0.50400001928E-02 0. -1.
    10030    2    1    2    0    0  0.00000000000E+00  0.00000000000E+00 -0.12729281088E+04  0.27087399684E+04  0.23910094617E+04 0.  0.
        1    1    3    3  502    0  0.51484374004E+02  0.39452228661E+03  0.64070199163E+03  0.75418665959E+03  0.50400001928E-02 0.  1.
       -1    1    3    3    0  502 -0.51484374004E+02 -0.39452228661E+03 -0.19136301005E+04  0.19545533088E+04  0.50400001928E-02 0. -1.
</event>
<event>
 5   0  0.3347728E-05  0.2426120E+04  0.7818609E-02  0.8429789E-01
        2   -1    0    0  501    0  0.00000000000E+00  0.00000000000E+00  0.15237915945E+04  0.15237915945E+04  0.25500000920E-02 0.  1.
       -2   -1    0    0    0  501  0.00000000000E+00  0.00000000000E+00 -0.96569283752E+03  0.96569283753E+03  0.25500000920E-02 0. -1.
    10030    2    1    2    0    0  0.00000000000E+00  0.00000000000E+00  0.55809875694E+03  0.24894844320E+04  0.24261200536E+04 0.  0.
        3    1    3    3  502    0  0.64708864307E+03  0.26075551511E+03  0.12973372915E+04  0.14730245106E+04  0.10100000352E+00 0.  1.
       -3    1    3    3    0  502 -0.64708864307E+03 -0.26075551511E+03 -0.73923853456E+03  0.10164599214E+04  0.10100000352E+00 0. -1.
</event>
<event>
 5   0  0.3345974E-05  0.2339602E+04  0.7818609E-02  0.8462468E-01
        2   -1    0    0  501    0  0.00000000000E+00  0.00000000000E+00  0.13026691132E+04  0.13026691132E+04  0.25500000920E-02 0. -1.
       -2   -1    0    0    0  501  0.00000000000E+00  0.00000000000E+00 -0.10504846342E+04  0.10504846342E+04  0.25500000920E-02 0.  1.
    10030    2    1    2    0    0  0.00000000000E+00  0.00000000000E+00  0.25218447896E+03  0.23531537474E+04  0.23396015788E+04 0.  0.
        4    1    3    3  502    0  0.21024182921E+03 -0.73389872390E+03  0.10175803966E+04  0.12721165199E+04  0.12699999809E+01 0. -1.
       -4    1    3    3    0  502 -0.21024182921E+03  0.73389872390E+03 -0.76539591764E+03  0.10810372275E+04  0.12699999809E+01 0.  1.
</event>
<event>
 5   0  0.3310037E-05  0.2413349E+04  0.7818609E-02  0.8434523E-01
        2   -1    0    0  501    0  0.00000000000E+00  0.00000000000E+00  0.17044806513E+04  0.17044806513E+04  0.25500000920E-02 0.  1.
       -2   -1    0    0    0  501  0.00000000000E+00  0.00000000000E+00 -0.85425609100E+03  0.85425609100E+03  0.25500000920E-02 0. -1.
    10030    2    1    2    0    0  0.00000000000E+00  0.00000000000E+00  0.85022456030E+03  0.25587367423E+04  0.24133486929E+04 0.  0.
        2    1    3    3  502    0 -0.17005780584E+03 -0.16883069918E+02 -0.84136076299E+03  0.85854098847E+03  0.25500000920E-02 0. -1.
       -2    1    3    3    0  502  0.17005780584E+03  0.16883069918E+02  0.16915853233E+04  0.17001957538E+04  0.25500000920E-02 0.  1.
</event>
<event>
 5   0  0.3310037E-05  0.2418920E+04  0.7818609E-02  0.8432454E-01
       -2   -1    0    0    0  501  0.00000000000E+00  0.00000000000E+00  0.58037929594E+03  0.58037929594E+03  0.25500000920E-02 0. -1.
        2   -1    0    0  501    0  0.00000000000E+00  0.00000000000E+00 -0.25204095234E+04  0.25204095234E+04  0.25500000920E-02 0.  1.
    10030    2    1    2    0    0  0.00000000000E+00  0.00000000000E+00 -0.19400302275E+04  0.31007888193E+04  0.24189200108E+04 0.  0.
        2    1    3    3  502    0  0.10686737755E+04 -0.35258947912E+03 -0.40190429369E+03  0.11949518989E+04  0.25500000920E-02 0. -1.
       -2    1    3    3    0  502 -0.10686737755E+04  0.35258947912E+03 -0.15381259338E+04  0.19058369205E+04  0.25500000920E-02 0.  1.
</event>
<event>
 5   0  0.3215208E-05  0.2393690E+04  0.7818609E-02  0.8441870E-01
        2   -1    0    0  501    0  0.00000000000E+00  0.00000000000E+00  0.20651589700E+04  0.20651589700E+04  0.25500000920E-02 0. -1.
       -2   -1    0    0    0  501  0.00000000000E+00  0.00000000000E+00 -0.69362107800E+03  0.69362107800E+03  0.25500000920E-02 0.  1.
    10030    2    1    2    0    0  0.00000000000E+00  0.00000000000E+00  0.13715378920E+04  0.27587800480E+04  0.23936898638E+04 0.  0.
        1    1    3    3  502    0 -0.53499349682E+03 -0.76932368140E+02 -0.54495026203E+03  0.76753333414E+03  0.50400001928E-02 0.  1.
       -1    1    3    3    0  502  0.53499349682E+03  0.76932368140E+02  0.19164881540E+04  0.19912467138E+04  0.50400001928E-02 0. -1.
</event>
<event>
 5   0  0.1434943E-05  0.2345694E+04  0.7818609E-02  0.8460119E-01
       -1   -1    0    0    0  501  0.00000000000E+00  0.00000000000E+00  0.98036178368E+03  0.98036178369E+03  0.50400001928E-02 0. -1.
        1   -1    0    0  501    0  0.00000000000E+00  0.00000000000E+00 -0.14031250460E+04  0.14031250460E+04  0.50400001928E-02 0.  1.
    10030    2    1    2    0    0  0.00000000000E+00  0.00000000000E+00 -0.42276326227E+03  0.23834868297E+04  0.23456940745E+04 0.  0.
        5    1    3    3  502    0 -0.60120326710E+03 -0.43870111676E+03  0.70966844250E+03  0.10283751390E+04  0.46999998093E+01 0. -1.
       -5    1    3    3    0  502  0.60120326710E+03  0.43870111676E+03 -0.11324317048E+04  0.13551116907E+04  0.46999998093E+01 0.  1.
</event>
<event>
 5   0  0.1407158E-05  0.2406095E+04  0.7818609E-02  0.8437225E-01
       -1   -1    0    0    0  501  0.00000000000E+00  0.00000000000E+00  0.14392357554E+04  0.14392357554E+04  0.50400001928E-02 0.  1.
        1   -1    0    0  501    0  0.00000000000E+00  0.00000000000E+00 -0.10056192164E+04  0.10056192164E+04  0.50400001928E-02 0. -1.
    10030    2    1    2    0    0  0.00000000000E+00  0.00000000000E+00  0.43361653899E+03  0.24448549719E+04  0.24060948715E+04 0.  0.
        1    1    3    3  502    0  0.21156756617E+03 -0.11081716690E+04 -0.20767470992E+03  0.11471416949E+04  0.50400001928E-02 0. -1.
       -1    1    3    3    0  502 -0.21156756617E+03  0.11081716690E+04  0.64129124892E+03  0.12977132769E+04  0.50400001928E-02 0.  1.
</event>
<event>
 5   0  0.3215208E-05  0.2312515E+04  0.7818609E-02  0.8473003E-01
       -2   -1    0    0    0  501  0.00000000000E+00  0.00000000000E+00  0.11365426683E+04  0.11365426683E+04  0.25500000920E-02 0. -1.
        2   -1    0    0  501    0  0.00000000000E+00  0.00000000000E+00 -0.11763144933E+04  0.11763144933E+04  0.25500000920E-02 0.  1.
    10030    2    1    2    0    0  0.00000000000E+00  0.00000000000E+00 -0.39771824952E+02  0.23128571616E+04  0.23125151788E+04 0.  0.
        1    1    3    3  502    0 -0.57204378374E+03  0.98585930315E+03 -0.21428275259E+03  0.11597714233E+04  0.50400001928E-02 0.  1.
       -1    1    3    3    0  502  0.57204378374E+03 -0.98585930315E+03  0.17451092764E+03  0.11530857384E+04  0.50400001928E-02 0. -1.
</event>
<event>
 5   0  0.1401596E-05  0.2323544E+04  0.7818609E-02  0.8468695E-01
       -1   -1    0    0    0  501  0.00000000000E+00  0.00000000000E+00  0.58425290971E+03  0.58425290973E+03  0.50400001928E-02 0. -1.
        1   -1    0    0  501    0  0.00000000000E+00  0.00000000000E+00 -0.23101540534E+04  0.23101540534E+04  0.50400001928E-02 0.  1.
    10030    2    1    2    0    0  0.00000000000E+00  0.00000000000E+00 -0.17259011437E+04  0.28944069632E+04  0.23235440410E+04 0.  0.
        2    1    3    3  502    0  0.39672952518E+03 -0.26871919235E+03  0.45542456756E+03  0.66107174893E+03  0.25500000920E-02 0. -1.
       -2    1    3    3    0  502 -0.39672952518E+03  0.26871919235E+03 -0.21813257113E+04  0.22333352142E+04  0.25500000920E-02 0.  1.
</event>
<event>
 5   0  0.1506985E-05  0.2404308E+04  0.7818609E-02  0.8437893E-01
       -1   -1    0    0    0  501  0.00000000000E+00  0.00000000000E+00  0.11626667795E+04  0.11626667795E+04  0.50400001928E-02 0.  1.
        1   -1    0    0  501    0  0.00000000000E+00  0.00000000000E+00 -0.12429820906E+04  0.12429820906E+04  0.50400001928E-02 0. -1.
    10030    2    1    2    0    0  0.00000000000E+00  0.00000000000E+00 -0.80315311126E+02  0.24056488701E+04  0.24043077875E+04 0.  0.
        3    1    3    3  502    0 -0.57260904460E+03 -0.95665216121E+03  0.40965900483E+03  0.11878067966E+04  0.10100000352E+00 0.  1.
       -3    1    3    3    0  502  0.57260904460E+03  0.95665216121E+03 -0.48997431596E+03  0.12178420735E+04  0.10100000352E+00 0. -1.
</event>
<event>
 5   0  0.1393026E-05  0.2398304E+04  0.7818609E-02  0.8440139E-01
       -1   -1    0    0    0  501  0.00000000000E+00  0.00000000000E+00  0.14728788545E+04  0.14728788545E+04  0.50400001928E-02 0. -1.
        1   -1    0    0  501    0  0.00000000000E+00  0.00000000000E+00 -0.97629623921E+03  0.97629623922E+03  0.50400001928E-02 0.  1.
    10030    2    1    2    0    0  0.00000000000E+00  0.00000000000E+00  0.49658261533E+03  0.24491750938E+04  0.23983044732E+04 0.  0.
        4    1    3    3  502    0  0.11920583409E+04 -0.12286401424E+03  0.29240265504E+03  0.12335313453E+04  0.12699999809E+01 0. -1.
       -4    1    3    3    0  502 -0.11920583409E+04  0.12286401424E+03  0.20417996029E+03  0.12156437485E+04  0.12699999809E+01 0.  1.
</event>
<event>
 5   0  0.3215208E-05  0.2418083E+04  0.7818609E-02  0.8432765E-01
        2   -1    0    0  501    0  0.00000000000E+00  0.00000000000E+00  0.15766009372E+04  0.15766009372E+04  0.25500000920E-02 0.  1.
       -2   -1    0    0    0  501  0.00000000000E+00  0.00000000000E+00 -0.92717245356E+03  0.92717245357E+03  0.25500000920E-02 0. -1.
    10030    2    1    2    0    0  0.00000000000E+00  0.00000000000E+00  0.64942848368E+03  0.25037733908E+04  0.24180826779E+04 0.  0.
        1    1    3    3  502    0 -0.21151201926E+03  0.40447960134E+03 -0.83453181486E+03  0.95120157287E+03  0.50400001928E-02 0. -1.
       -1    1    3    3    0  502  0.21151201926E+03 -0.40447960134E+03  0.14839602985E+04  0.15525718179E+04  0.50400001928E-02 0.  1.
</event>
<event>
 5   0  0.1401596E-05  0.2372311E+04  0.7818609E-02  0.8449943E-01
        1   -1    0    0  501    0  0.00000000000E+00  0.00000000000E+00  0.20942077707E+04  0.20942077707E+04  0.50400001928E-02 0.  1.
       -1   -1    0    0    0  501  0.00000000000E+00  0.00000000000E+00 -0.67183648064E+03  0.67183648066E+03  0.50400001928E-02 0. -1.
    10030    2    1    2    0    0  0.00000000000E+00  0.00000000000E+00  0.14223712901E+04  0.27660442514E+04  0.23723112599E+04 0.  0.
        2    1    3    3  502    0  0.10419561633E+04  0.22381877005E+03  0.10398748506E+03  0.10707851723E+04  0.25500000920E-02 0. -1.
       -2    1    3    3    0  502 -0.10419561633E+04 -0.22381877005E+03  0.13183838050E+04  0.16952590791E+04  0.25500000920E-02 0.  1.
</event>
<event>
 5   0  0.1434943E-05  0.2401868E+04  0.7818609E-02  0.8438805E-01
       -1   -1    0    0    0  501  0.00000000000E+00  0.00000000000E+00  0.62648213948E+03  0.62648213950E+03  0.50400001928E-02 0.  1.
        1   -1    0    0  501    0  0.00000000000E+00  0.00000000000E+00 -0.23021281713E+04  0.23021281713E+04  0.50400001928E-02 0. -1.
    10030    2    1    2    0    0  0.00000000000E+00  0.00000000000E+00 -0.16756460318E+04  0.29286103108E+04  0.24018677583E+04 0.  0.
        5    1    3    3  502    0  0.47148449139E+02  0.32444476354E+03  0.57084822018E+03  0.65831387751E+03  0.46999998093E+01 0.  1.
       -5    1    3    3    0  502 -0.47148449139E+02 -0.32444476354E+03 -0.22464942519E+04  0.22702964333E+04  0.46999998093E+01 0. -1.
</event>
<event>
 5   0  0.1434943E-05  0.2434415E+04  0.7818609E-02  0.8426730E-01
        1   -1    0    0  501    0  0.00000000000E+00  0.00000000000E+00  0.15204031013E+04  0.15204031013E+04  0.50400001928E-02 0.  1.
       -1   -1    0    0    0  501  0.00000000000E+00  0.00000000000E+00 -0.97447463945E+03  0.97447463946E+03  0.50400001928E-02 0. -1.
    10030    2    1    2    0    0  0.00000000000E+00  0.00000000000E+00  0.54592846184E+03  0.24948777408E+04  0.24344151363E+04 0.  0.
        5    1    3    3  502    0  0.11698268487E+04  0.27347779620E+03  0.47349522479E+03  0.12913190074E+04  0.46999998093E+01 0.  1.
       -5    1    3    3    0  502 -0.11698268487E+04 -0.27347779620E+03  0.72433237058E+02  0.12035587334E+04  0.46999998093E+01 0. -1.
</event>
<event>
 5   0  0.3215208E-05  0.2407772E+04  0.7818609E-02  0.8436600E-01
        2   -1    0    0  501    0  0.00000000000E+00  0.00000000000E+00  0.15447455998E+04  0.15447455998E+04  0.25500000920E-02 0.  1.
       -2   -1    0    0    0  501  0.00000000000E+00  0.00000000000E+00 -0.93823945434E+03  0.93823945435E+03  0.25500000920E-02 0. -1.
    10030    2    1    2    0    0  0.00000000000E+00  0.00000000000E+00  0.60650614544E+03  0.24829850541E+04  0.24077718070E+04 0.  0.
        1    1    3    3  502    0  0.37933416252E+03 -0.51133868327E+03 -0.75041735014E+03  0.98411780559E+03  0.50400001928E-02 0. -1.
       -1    1    3    3    0  502 -0.37933416252E+03  0.51133868327E+03  0.13569234956E+04  0.14988672485E+04  0.50400001928E-02 0.  1.
</event>
<event>
 5   0  0.1434943E-05  0.2342457E+04  0.7818609E-02  0.8461366E-01
       -1   -1    0    0    0  501  0.00000000000E+00  0.00000000000E+00  0.17582519111E+04  0.17582519111E+04  0.50400001928E-02 0.  1.
        1   -1    0    0  501    0  0.00000000000E+00  0.00000000000E+00 -0.78019334529E+03  0.78019334531E+03  0.50400001928E-02 0. -1.
    10030    2    1    2    0    0  0.00000000000E+00  0.00000000000E+00  0.97805856582E+03  0.25384452564E+04  0.23424572060E+04 0.  0.
        5    1    3    3  502    0 -0.29457402436E+03  0.28677353742E+03  0.16774829976E+04  0.17271317885E+04  0.46999998093E+01 0.  1.
       -5    1    3    3    0  502  0.29457402436E+03 -0.28677353742E+03 -0.69942443174E+03  0.81131346797E+03  0.46999998093E+01 0. -1.
</event>
<event>
 5   0  0.3310037E-05  0.2367879E+04  0.7818609E-02  0.8451628E-01
       -2   -1    0    0    0  501  0.00000000000E+00  0.00000000000E+00  0.65643724307E+03  0.65643724307E+03  0.25500000920E-02 0. -1.
        2   -1    0    0  501    0  0.00000000000E+00  0.00000000000E+00 -0.21353346944E+04  0.21353346944E+04  0.25500000920E-02 0.  1.
    10030    2    1    2    0    0  0.00000000000E+00  0.00000000000E+00 -0.14788974513E+04  0.27917719375E+04  0.23678794056E+04 0.  0.
        2    1    3    3  502    0 -0.62631196064E+03  0.90887853378E+03 -0.23455046951E+03  0.11284240267E+04  0.25500000920E-02 0. -1.
       -2    1    3    3    0  502  0.62631196064E+03 -0.90887853378E+03 -0.12443469818E+04  0.16633479108E+04  0.25500000920E-02 0.  1.
</event>
<event>
 5   0  0.1401596E-05  0.2342707E+04  0.7818609E-02  0.8461270E-01
       -1   -1    0    0    0  501  0.00000000000E+00  0.00000000000E+00  0.11650488968E+04  0.11650488968E+04  0.50400001928E-02 0.  1.
        1   -1    0    0  501    0  0.00000000000E+00  0.00000000000E+00 -0.11776925575E+04  0.11776925575E+04  0.50400001928E-02 0. -1.
    10030    2    1    2    0    0  0.00000000000E+00  0.00000000000E+00 -0.12643660713E+02  0.23427414543E+04  0.23427073354E+04 0.  0.
        2    1    3    3  502    0  0.45989115562E+03  0.90004301493E+03 -0.59835419450E+03  0.11745658968E+04  0.25500000920E-02 0. -1.
       -2    1    3    3    0  502 -0.45989115562E+03 -0.90004301493E+03  0.58571053378E+03  0.11681755575E+04  0.25500000920E-02 0.  1.
</event>
<event>
 5   0  0.3320780E-05  0.2394493E+04  0.7818609E-02  0.8441568E-01
        2   -1    0    0  501    0  0.00000000000E+00  0.00000000000E+00  0.10014035524E+04  0.10014035524E+04  0.25500000920E-02 0.  1.
       -2   -1    0    0    0  501  0.00000000000E+00  0.00000000000E+00 -0.14313904321E+04  0.14313904321E+04  0.25500000920E-02 0. -1.
    10030    2    1    2    0    0  0.00000000000E+00  0.00000000000E+00 -0.42998687972E+03  0.24327939845E+04  0.23944932354E+04 0.  0.
        5    1    3    3  502    0  0.19516909805E+03  0.61968713499E+03  0.80671314783E+03  0.10358143246E+04  0.46999998093E+01 0.  1.
       -5    1    3    3    0  502 -0.19516909805E+03 -0.61968713499E+03 -0.12367000275E+04  0.13969796599E+04  0.46999998093E+01 0. -1.
</event>
<event>
 5   0  0.3345974E-05  0.2390522E+04  0.7818609E-02  0.8443060E-01
        2   -1    0    0  501    0  0.00000000000E+00  0.00000000000E+00  0.10569098726E+04  0.10569098726E+04  0.25500000920E-02 0.  1.
       -2   -1    0    0    0  501  0.00000000000E+00  0.00000000000E+00 -0.13517226921E+04  0.13517226921E+04  0.25500000920E-02 0. -1.
    10030    2    1    2    0    0  0.00000000000E+00  0.00000000000E+00 -0.29481281954E+03  0.24086325647E+04  0.23905221675E+04 0.  0.
        4    1    3    3  502    0 -0.61186013013E+02  0.98330017110E+03  0.53449584842E+03  0.11208525236E+04  0.12699999809E+01 0.  1.
       -4    1    3    3    0  502  0.61186013013E+02 -0.98330017110E+03 -0.82930866795E+03  0.12877800411E+04  0.12699999809E+01 0. -1.
</event>
<event>
 5   0  0.3345974E-05  0.2377377E+04  0.7818609E-02  0.8448022E-01
        2   -1    0    0  501    0  0.00000000000E+00  0.00000000000E+00  0.13781667710E+04  0.13781667710E+04  0.25500000920E-02 0. -1.
       -2   -1    0    0    0  501  0.00000000000E+00  0.00000000000E+00 -0.10252605294E+04  0.10252605294E+04  0.25500000920E-02 0.  1.
    10030    2    1    2    0    0  0.00000000000E+00  0.00000000000E+00  0.35290624153E+03  0.24034273004E+04  0.23773766998E+04 0.  0.
        4    1    3    3  502    0  0.75799418630E+03  0.14536498915E+03  0.10904015037E+04  0.13359128784E+04  0.12699999809E+01 0. -1.
       -4    1    3    3    0  502 -0.75799418630E+03 -0.14536498915E+03 -0.73749526216E+03  0.10675144220E+04  0.12699999809E+01 0.  1.
</event>
<event>
 5   0  0.1434943E-05  0.2401634E+04  0.7818609E-02  0.8438892E-01
        1   -1    0    0  501    0  0.00000000000E+00  0.00000000000E+00  0.99422957891E+03  0.99422957892E+03  0.50400001928E-02 0.  1.
       -1   -1    0    0    0  501  0.00000000000E+00  0.00000000000E+00 -0.14503299258E+04  0.14503299258E+04  0.50400001928E-02 0. -1.
    10030    2    1    2    0    0  0.00000000000E+00  0.00000000000E+00 -0.45610034688E+03  0.24445595047E+04  0.24016335369E+04 0.  0.
        5    1    3    3  502    0 -0.86335540758E+03 -0.25578566034E+03  0.58058619761E+03  0.10714062193E+04  0.46999998093E+01 0. -1.
       -5    1    3    3    0  502  0.86335540758E+03  0.25578566034E+03 -0.10366865445E+04  0.13731532855E+04  0.46999998093E+01 0.  1.
</event>
<event>
 5   0  0.1147362E-05  0.2421030E+04  0.7818609E-02  0.8431672E-01
       -3   -1    0    0    0  501  0.00000000000E+00  0.00000000000E+00  0.82455264067E+03  0.82455264685E+03  0.10100000352E+00 0.  1.
        3   -1    0    0  501    0  0.00000000000E+00  0.00000000000E+00 -0.17771419911E+04  0.17771419940E+04  0.10100000352E+00 0. -1.
    10030    2    1    2    0    0  0.00000000000E+00  0.00000000000E+00 -0.95258935044E+03  0.26016946408E+04  0.24210304694E+04 0.  0.
        4    1    3    3  502    0  0.93385001206E+03  0.73358715617E+03 -0.22399950466E+03  0.12084714940E+04  0.12699999809E+01 0.  1.
       -4    1    3    3    0  502 -0.93385001206E+03 -0.73358715617E+03 -0.72858984578E+03  0.13932231469E+04  0.12699999809E+01 0. -1.
</event>
<event>
 5   0  0.1434943E-05  0.2398896E+04  0.7818609E-02  0.8439917E-01
        1   -1    0    0  501    0  0.00000000000E+00  0.00000000000E+00  0.11247130374E+04  0.11247130374E+04  0.50400001928E-02 0.  1.
       -1   -1    0    0    0  501  0.00000000000E+00  0.00000000000E+00 -0.12791487976E+04  0.12791487976E+04  0.50400001928E-02 0. -1.
    10030    2    1    2    0    0  0.00000000000E+00  0.00000000000E+00 -0.15443576023E+03  0.24038618350E+04  0.23988958539E+04 0.  0.
        5    1    3    3  502    0  0.72461704549E+02 -0.14100932112E+03 -0.12685940811E+04  0.12784707114E+04  0.46999998093E+01 0. -1.
       -5    1    3    3    0  502 -0.72461704549E+02  0.14100932112E+03  0.11141583208E+04  0.11253911236E+04  0.46999998093E+01 0.  1.
</event>
<event>
 5   0  0.3345974E-05  0.2371522E+04  0.7818609E-02  0.8450243E-01
       -2   -1    0    0    0  501  0.00000000000E+00  0.00000000000E+00  0.59898261278E+03  0.59898261278E+03  0.25500000920E-02 0.  1.
        2   -1    0    0  501    0  0.00000000000E+00  0.00000000000E+00 -0.23473624467E+04  0.23473624467E+04  0.25500000920E-02 0. -1.
    10030    2    1    2    0    0  0.00000000000E+00  0.00000000000E+00 -0.17483798339E+04  0.29463450595E+04  0.23715221200E+04 0.  0.
        4    1    3    3  502    0  0.10127221365E+04  0.65398389661E+02 -0.11222698294E+03  0.10210188949E+04  0.12699999809E+01 0.  1.
       -4    1    3    3    0  502 -0.10127221365E+04 -0.65398389661E+02 -0.16361528510E+04  0.19253261645E+04  0.12699999809E+01 0. -1.
</event>
<event>
 5   0  0.3320780E-05  0.1979046E+04  0.7818609E-02  0.8616480E-01
       -2   -1    0    0    0  501  0.00000000000E+00  0.00000000000E+00  0.12757539356E+04  0.12757539356E+04  0.25500000920E-02 0.  1.
        2   -1    0    0  501    0  0.00000000000E+00  0.00000000000E+00 -0.76751172313E+03  0.76751172314E+03  0.25500000920E-02 0. -1.
    10030    2    1    2    0    0  0.00000000000E+00  0.00000000000E+00  0.50824221243E+03  0.20432656587E+04  0.19790463374E+04 0.  0.
        5    1    3    3  502    0  0.75254133277E+03  0.63852003716E+03  0.32790851244E+03  0.10399867201E+04  0.46999998093E+01 0. -1.
       -5    1    3    3    0  502 -0.75254133277E+03 -0.63852003716E+03  0.18033369999E+03  0.10032789386E+04  0.46999998093E+01 0.  1.
</event>
<event>
 5   0  0.1506985E-05  0.2378656E+04  0.7818609E-02  0.8447538E-01
        1   -1    0    0  501    0  0.00000000000E+00  0.00000000000E+00  0.17115833245E+04  0.17115833245E+04  0.50400001928E-02 0. -1.
       -1   -1    0    0    0  501  0.00000000000E+00  0.00000000000E+00 -0.82642857386E+03  0.82642857387E+03  0.50400001928E-02 0.  1.
    10030    2    1    2    0    0  0.00000000000E+00  0.00000000000E+00  0.88515475067E+03  0.25380118984E+04  0.23786562307E+04 0.  0.
        3    1    3    3  502    0  0.40938465502E+03  0.10295984040E+04  0.90377642294E+03  0.14298533149E+04  0.10100000352E+00 0. -1.
       -3    1    3    3    0  502 -0.40938465502E+03 -0.10295984040E+04 -0.18621672268E+02  0.11081585835E+04  0.10100000352E+00 0.  1.
</event>
<event>
 5   0  0.3345974E-05  0.2393452E+04  0.7818609E-02  0.8441959E-01
       -2   -1    0    0    0  501  0.00000000000E+00  0.00000000000E+00  0.93993694921E+03  0.93993694921E+03  0.25500000920E-02 0. -1.
        2   -1    0    0  501    0  0.00000000000E+00  0.00000000000E+00 -0.15236687483E+04  0.15236687483E+04  0.25500000920E-02 0.  1.
    10030    2    1    2    0    0  0.00000000000E+00  0.00000000000E+00 -0.58373179910E+03  0.24636056975E+04  0.23934515286E+04 0.  0.
        4    1    3    3  502    0  0.37068300787E+03 -0.40032371578E+03 -0.13882080922E+04  0.14915724220E+04  0.12699999809E+01 0.  1.
       -4    1    3    3    0  502 -0.37068300787E+03  0.40032371578E+03  0.80447629311E+03  0.97203327557E+03  0.12699999809E+01 0. -1.
</event>
<event>
 5   0  0.3215208E-05  0.2407787E+04  0.7818609E-02  0.8436594E-01
       -2   -1    0    0    0  501  0.00000000000E+00  0.00000000000E+00  0.15153740648E+04  0.15153740648E+04  0.25500000920E-02 0. -1.
        2   -1    0    0  501    0  0.00000000000E+00  0.00000000000E+00 -0.95643699137E+03  0.95643699138E+03  0.25500000920E-02 0.  1.
    10030    2    1    2    0    0  0.00000000000E+00  0.00000000000E+00  0.55893707345E+03  0.24718110562E+04  0.24077872093E+04 0.  0.
        1    1    3    3  502    0  0.85034177737E+03 -0.70724017921E+03  0.76760117397E+03  0.13462842834E+04  0.50400001928E-02 0. -1.
       -1    1    3    3    0  502 -0.85034177737E+03  0.70724017921E+03 -0.20866410052E+03  0.11255267728E+04  0.50400001928E-02 0.  1.
</event>
<event>
 5   0  0.1506985E-05  0.2397776E+04  0.7818609E-02  0.8440337E-01
       -1   -1    0    0    0  501  0.00000000000E+00  0.00000000000E+00  0.78621685028E+03  0.78621685030E+03  0.50400001928E-02 0. -1.
        1   -1    0    0  501    0  0.00000000000E+00  0.00000000000E+00 -0.18281623043E+04  0.18281623043E+04  0.50400001928E-02 0.  1.
    10030    2    1    2    0    0  0.00000000000E+00  0.00000000000E+00 -0.10419454540E+04  0.26143791546E+04  0.23977756431E+04 0.  0.
        3    1    3    3  502    0  0.69146182092E+03 -0.36393218541E+03  0.47043273936E+03  0.91207075264E+03  0.10100000352E+00 0. -1.
       -3    1    3    3    0  502 -0.69146182092E+03  0.36393218541E+03 -0.15123781934E+04  0.17023084019E+04  0.10100000352E+00 0.  1.
</event>
<event>
 5   0  0.3347728E-05  0.2510190E+04  0.7818609E-02  0.8399364E-01
        2   -1    0    0  501    0  0.00000000000E+00  0.00000000000E+00  0.14508977070E+04  0.14508977070E+04  0.25500000920E-02 0.  1.
       -2   -1    0    0    0  501  0.00000000000E+00  0.00000000000E+00 -0.10857164327E+04  0.10857164327E+04  0.25500000920E-02 0. -1.
    10030    2    1    2    0    0  0.00000000000E+00  0.00000000000E+00  0.36518127434E+03  0.25366141397E+04  0.25101900189E+04 0.  0.
        3    1    3    3  502    0 -0.55057457820E+03  0.88247645143E+03 -0.52720381995E+03  0.11661221769E+04  0.10100000352E+00 0. -1.
       -3    1    3    3    0  502  0.55057457820E+03 -0.88247645143E+03  0.89238509429E+03  0.13704919628E+04  0.10100000352E+00 0.  1.
</event>
<event>
 5   0  0.1506985E-05  0.2458003E+04  0.7818609E-02  0.8418102E-01
        1   -1    0    0  501    0  0.00000000000E+00  0.00000000000E+00  0.22901238937E+04  0.22901238937E+04  0.50400001928E-02 0.  1.
       -1   -1    0    0    0  501  0.00000000000E+00  0.00000000000E+00 -0.65954692850E+03  0.65954692852E+03  0.50400001928E-02 0. -1.
    10030    2    1    2    0    0  0.00000000000E+00  0.00000000000E+00  0.16305769652E+04  0.29496708223E+04  0.24580025875E+04 0.  0.
        3    1    3    3  502    0  0.92184974730E+03 -0.26548694354E+03 -0.10659037673E+03  0.96522111063E+03  0.10100000352E+00 0. -1.
       -3    1    3    3    0  502 -0.92184974730E+03  0.26548694354E+03  0.17371673420E+04  0.19844497116E+04  0.10100000352E+00 0.  1.
</event>
<event>
 5   0  0.1434943E-05  0.2384669E+04  0.7818609E-02  0.8445266E-01
        1   -1    0    0  501    0  0.00000000000E+00  0.00000000000E+00  0.13484551879E+04  0.13484551879E+04  0.50400001928E-02 0.  1.
       -1   -1    0    0    0  501  0.00000000000E+00  0.00000000000E+00 -0.10542889570E+04  0.10542889570E+04  0.50400001928E-02 0. -1.
    10030    2    1    2    0    0  0.00000000000E+00  0.00000000000E+00  0.29416623094E+03  0.24027441449E+04  0.23846688773E+04 0.  0.
        5    1    3    3  502    0  0.12249363525E+03 -0.38532491142E+02  0.13414582938E+04  0.13475985632E+04  0.46999998093E+01 0.  1.
       -5    1    3    3    0  502 -0.12249363525E+03  0.38532491142E+02 -0.10472920629E+04  0.10551455817E+04  0.46999998093E+01 0. -1.
</event>
<event>
 5   0  0.1407158E-05  0.2376979E+04  0.7818609E-02  0.8448173E-01
        1   -1    0    0  501    0  0.00000000000E+00  0.00000000000E+00  0.14950629883E+04  0.14950629883E+04  0.50400001928E-02 0.  1.
       -1   -1    0    0    0  501  0.00000000000E+00  0.00000000000E+00 -0.94478090585E+03  0.94478090587E+03  0.50400001928E-02 0. -1.
    10030    2    1    2    0    0  0.00000000000E+00  0.00000000000E+00  0.55028208240E+03  0.24398438941E+04  0.23769787247E+04 0.  0.
        1    1    3    3  502    0  0.73334407555E+03 -0.89809516600E+03  0.54307825863E+03  0.12803524731E+04  0.50400001928E-02 0.  1.
       -1    1    3    3    0  502 -0.73334407555E+03  0.89809516600E+03  0.72038237701E+01  0.11594914210E+04  0.50400001928E-02 0. -1.
</event>
<event>
 5   0  0.1407158E-05  0.2339459E+04  0.7818609E-02  0.8462523E-01
       -1   -1    0    0    0  501  0.00000000000E+00  0.00000000000E+00  0.14416988751E+04  0.14416988751E+04  0.50400001928E-02 0.  1.
        1   -1    0    0  501    0  0.00000000000E+00  0.00000000000E+00 -0.94906606128E+03  0.94906606129E+03  0.50400001928E-02 0. -1.
    10030    2    1    2    0    0  0.00000000000E+00  0.00000000000E+00  0.49263281382E+03  0.23907649364E+04  0.23394593161E+04 0.  0.
        1    1    3    3  502    0  0.13863154380E+03  0.26703562902E+03 -0.90884521515E+03  0.95735383074E+03  0.50400001928E-02 0. -1.
       -1    1    3    3    0  502 -0.13863154380E+03 -0.26703562902E+03  0.14014780290E+04  0.14334111057E+04  0.50400001928E-02 0.  1.
</event>
<event>
 5   0  0.3347728E-05  0.2408527E+04  0.7818609E-02  0.8436318E-01
       -2   -1    0    0    0  501  0.00000000000E+00  0.00000000000E+00  0.76383706160E+03  0.76383706161E+03  0.25500000920E-02 0. -1.
        2   -1    0    0  501    0  0.00000000000E+00  0.00000000000E+00 -0.18986380162E+04  0.18986380162E+04  0.25500000920E-02 0.  1.
    10030    2    1    2    0    0  0.00000000000E+00  0.00000000000E+00 -0.11348009546E+04  0.26624750778E+04  0.24085265897E+04 0.  0.
        3    1    3    3  502    0  0.30493123953E+03 -0.20949843287E+03  0.69946026567E+03  0.79127575956E+03  0.10100000352E+00 0. -1.
       -3    1    3    3    0  502 -0.30493123953E+03  0.20949843287E+03 -0.18342612203E+04  0.18711993183E+04  0.10100000352E+00 0.  1.
</event>
<event>
 5   0  0.1407158E-05  0.2528763E+04  0.7818609E-02  0.8392810E-01
        1   -1    0    0  501    0  0.00000000000E+00  0.00000000000E+00  0.12394619451E+04  0.12394619451E+04  0.50400001928E-02 0.  1.
       -1   -1    0    0    0  501  0.00000000000E+00  0.00000000000E+00 -0.12898021397E+04  0.12898021397E+04  0.50400001928E-02 0. -1.
    10030    2    1    2    0    0  0.00000000000E+00  0.00000000000E+00 -0.50340194610E+02  0.25292640848E+04  0.25287630722E+04 0.  0.
        1    1    3    3  502    0 -0.37364956590E+03 -0.12020788593E+04  0.93399105972E+02  0.12622721478E+04  0.50400001928E-02 0.  1.
       -1    1    3    3    0  502  0.37364956590E+03  0.12020788593E+04 -0.14373930058E+03  0.12669919370E+04  0.50400001928E-02 0. -1.
</event>
<event>
 5   0  0.1401596E-05  0.2415054E+04  0.7818609E-02  0.8433889E-01
        1   -1    0    0  501    0  0.00000000000E+00  0.00000000000E+00  0.26685936190E+04  0.26685936190E+04  0.50400001928E-02 0.  1.
       -1   -1    0    0    0  501  0.00000000000E+00  0.00000000000E+00 -0.54640090463E+03  0.54640090465E+03  0.50400001928E-02 0. -1.
    10030    2    1    2    0    0  0.00000000000E+00  0.00000000000E+00  0.21221927144E+04  0.32149945236E+04  0.24150544239E+04 0.  0.
        2    1    3    3  502    0  0.36523642253E+03 -0.22552579191E+03  0.25635967067E+04  0.25992859792E+04  0.25500000920E-02 0.  1.
       -2    1    3    3    0  502 -0.36523642253E+03  0.22552579191E+03 -0.44140399237E+03  0.61570854440E+03  0.25500000920E-02 0. -1.
</event>
<event>
 5   0  0.1434943E-05  0.2408442E+04  0.7818609E-02  0.8436350E-01
        1   -1    0    0  501    0  0.00000000000E+00  0.00000000000E+00  0.22925055787E+04  0.22925055787E+04  0.50400001928E-02 0. -1.
       -1   -1    0    0    0  501  0.00000000000E+00  0.00000000000E+00 -0.63256052686E+03  0.63256052688E+03  0.50400001928E-02 0.  1.
    10030    2    1    2    0    0  0.00000000000E+00  0.00000000000E+00  0.16599450519E+04  0.29250661056E+04  0.24084422656E+04 0.  0.
        5    1    3    3  502    0  0.45548758629E+03  0.57076937488E+01  0.21838191807E+04  0.22308271612E+04  0.46999998093E+01 0. -1.
       -5    1    3    3    0  502 -0.45548758629E+03 -0.57076937488E+01 -0.52387412887E+03  0.69423894440E+03  0.46999998093E+01 0.  1.
</event>
<event>
 5   0  0.3345974E-05  0.2408699E+04  0.7818609E-02  0.8436254E-01
        2   -1    0    0  501    0  0.00000000000E+00  0.00000000000E+00  0.14156559985E+04  0.14156559985E+04  0.25500000920E-02 0.  1.
       -2   -1    0    0    0  501  0.00000000000E+00  0.00000000000E+00 -0.10245830589E+04  0.10245830589E+04  0.25500000920E-02 0. -1.
    10030    2    1    2    0    0  0.00000000000E+00  0.00000000000E+00  0.39107293968E+03  0.24402390574E+04  0.24086985310E+04 0.  0.
        4    1    3    3  502    0  0.18975538185E+03 -0.24260505217E+03  0.13750808900E+04  0.14091534279E+04  0.12699999809E+01 0.  1.
       -4    1    3    3    0  502 -0.18975538185E+03  0.24260505217E+03 -0.98400795033E+03  0.10310856296E+04  0.12699999809E+01 0. -1.
</event>
<event>
 5   0  0.3347728E-05  0.2421381E+04  0.7818609E-02  0.8431542E-01
        2   -1    0    0  501    0  0.00000000000E+00  0.00000000000E+00  0.15242071364E+04  0.15242071364E+04  0.25500000920E-02 0. -1.
       -2   -1    0    0    0  501  0.00000000000E+00  0.00000000000E+00 -0.96166183937E+03  0.96166183938E+03  0.25500000920E-02 0.  1.
    10030    2    1    2    0    0  0.00000000000E+00  0.00000000000E+00  0.56254529698E+03  0.24858689757E+04  0.24213812904E+04 0.  0.
        3    1    3    3  502    0 -0.69619431969E+02 -0.44041920641E+03  0.14368414247E+04  0.15044365166E+04  0.10100000352E+00 0. -1.
       -3    1    3    3    0  502  0.69619431969E+02  0.44041920641E+03 -0.87429612770E+03  0.98143245911E+03  0.10100000352E+00 0.  1.
</event>
<event>
 5   0  0.1393026E-05  0.2401310E+04  0.7818609E-02  0.8439013E-01
        1   -1    0    0  501    0  0.00000000000E+00  0.00000000000E+00  0.11588390306E+04  0.11588390306E+04  0.50400001928E-02 0.  1.
       -1   -1    0    0    0  501  0.00000000000E+00  0.00000000000E+00 -0.12439802611E+04  0.12439802611E+04  0.50400001928E-02 0. -1.
    10030    2    1    2    0    0  0.00000000000E+00  0.00000000000E+00 -0.85141230537E+02  0.24028192917E+04  0.24013103755E+04 0.  0.
        4    1    3    3  502    0 -0.13672483685E+03 -0.11898955572E+04 -0.12644541328E+03  0.12043816561E+04  0.12699999809E+01 0.  1.
       -4    1    3    3    0  502  0.13672483685E+03  0.11898955572E+04  0.41304182747E+02  0.11984376356E+04  0.12699999809E+01 0. -1.
</event>
<event>
 5   0  0.1401596E-05  0.2328420E+04  0.7818609E-02  0.8466799E-01
       -1   -1    0    0    0  501  0.00000000000E+00  0.00000000000E+00  0.69780073174E+03  0.69780073176E+03  0.50400001928E-02 0. -1.
        1   -1    0    0  501    0  0.00000000000E+00  0.00000000000E+00 -0.19423675490E+04  0.19423675490E+04  0.50400001928E-02 0.  1.
    10030    2    1    2    0    0  0.00000000000E+00  0.00000000000E+00 -0.12445668173E+04  0.26401682808E+04  0.23284204921E+04 0.  0.
        2    1    3    3  502    0 -0.10906008650E+04 -0.36410775708E+03 -0.82951147521E+03  0.14177707830E+04  0.25500000920E-02 0. -1.
       -2    1    3    3    0  502  0.10906008650E+04  0.36410775708E+03 -0.41505534207E+03  0.12223974978E+04  0.25500000920E-02 0.  1.
</event>
<event>
 5   0  0.1393026E-05  0.2383902E+04  0.7818609E-02  0.8445555E-01
        1   -1    0    0  501    0  0.00000000000E+00  0.00000000000E+00  0.17530983723E+04  0.17530983723E+04  0.50400001928E-02 0.  1.
       -1   -1    0    0    0  501  0.00000000000E+00  0.00000000000E+00 -0.81042057998E+03  0.81042058000E+03  0.50400001928E-02 0. -1.
    10030    2    1    2    0    0  0.00000000000E+00  0.00000000000E+00  0.94267779229E+03  0.25635189523E+04  0.23839018433E+04 0.  0.
        4    1    3    3  502    0  0.11654784012E+04 -0.49932351818E+02  0.20812673346E+03  0.11849689842E+04  0.12699999809E+01 0.  1.
       -4    1    3    3    0  502 -0.11654784012E+04  0.49932351818E+02  0.73455105883E+03  0.13785499680E+04  0.12699999809E+01 0. -1.
</event>
<event>
 5   0  0.1407158E-05  0.2415654E+04  0.7818609E-02  0.8433666E-01
        1   -1    0    0  501    0  0.00000000000E+00  0.00000000000E+00  0.88602217734E+03  0.88602217736E+03  0.50400001928E-02 0.  1.
       -1   -1    0    0    0  501  0.00000000000E+00  0.00000000000E+00 -0.16465117460E+04  0.16465117460E+04  0.50400001928E-02 0. -1.
    10030    2    1    2    0    0  0.00000000000E+00  0.00000000000E+00 -0.76048956863E+03  0.25325339233E+04  0.24156538843E+04 0.  0.
        1    1    3    3  502    0  0.55694218586E+03 -0.53510069270E+03  0.59330227894E+03  0.97392245274E+03  0.50400001928E-02 0.  1.
       -1    1    3    3    0  502 -0.55694218586E+03  0.53510069270E+03 -0.13537918476E+04  0.15586114706E+04  0.50400001928E-02 0. -1.
</event>
<event>
 5   0  0.1147362E-05  0.2362703E+04  0.7818609E-02  0.8453601E-01
       -3   -1    0    0    0  501  0.00000000000E+00  0.00000000000E+00  0.10981060376E+04  0.10981060423E+04  0.10100000352E+00 0. -1.
        3   -1    0    0  501    0  0.00000000000E+00  0.00000000000E+00 -0.12709072990E+04  0.12709073030E+04  0.10100000352E+00 0.  1.
    10030    2    1    2    0    0  0.00000000000E+00  0.00000000000E+00 -0.17280126136E+03  0.23690133453E+04  0.23627026800E+04 0.  0.
        5    1    3    3  502    0  0.88409425434E+03  0.69073057373E+03 -0.45730421871E+03  0.12115612302E+04  0.46999998093E+01 0. -1.
       -5    1    3    3    0  502 -0.88409425434E+03 -0.69073057373E+03  0.28450295735E+03  0.11574521151E+04  0.46999998093E+01 0.  1.
</event>
<event>
 5   0  0.1393026E-05  0.2395297E+04  0.7818609E-02  0.8441266E-01
        1   -1    0    0  501    0  0.00000000000E+00  0.00000000000E+00  0.23683585529E+04  0.23683585529E+04  0.50400001928E-02 0.  1.
       -1   -1    0    0    0  501  0.00000000000E+00  0.00000000000E+00 -0.60563544289E+03  0.60563544292E+03  0.50400001928E-02 0. -1.
    10030    2    1    2    0    0  0.00000000000E+00  0.00000000000E+00  0.17627231100E+04  0.29739939958E+04  0.23952969596E+04 0.  0.
        4    1    3    3  502    0  0.87409894027E+03  0.56438330741E+03  0.16177687458E+04  0.19234746691E+04  0.12699999809E+01 0.  1.
       -4    1    3    3    0  502 -0.87409894027E+03 -0.56438330741E+03  0.14495436418E+03  0.10505193266E+04  0.12699999809E+01 0. -1.
</event>
<event>
 5   0  0.3345974E-05  0.2393507E+04  0.7818609E-02  0.8441938E-01
       -2   -1    0    0    0  501  0.00000000000E+00  0.00000000000E+00  0.54129721343E+03  0.54129721344E+03  0.25500000920E-02 0. -1.
        2   -1    0    0  501    0  0.00000000000E+00  0.00000000000E+00 -0.26459022724E+04  0.26459022724E+04  0.25500000920E-02 0.  1.
    10030    2    1    2    0    0  0.00000000000E+00  0.00000000000E+00 -0.21046050590E+04  0.31871994859E+04  0.23935074908E+04 0.  0.
        4    1    3    3  502    0 -0.10333109677E+03 -0.37480548354E+03 -0.25594627974E+04  0.25888236498E+04  0.12699999809E+01 0.  1.
       -4    1    3    3    0  502  0.10333109677E+03  0.37480548354E+03  0.45485773838E+03  0.59837583600E+03  0.12699999809E+01 0. -1.
</event>
<event>
 5   0  0.3345974E-05  0.2451931E+04  0.7818609E-02  0.8420313E-01
       -2   -1    0    0    0  501  0.00000000000E+00  0.00000000000E+00  0.12776386460E+04  0.12776386460E+04  0.25500000920E-02 0.  1.
        2   -1    0    0  501    0  0.00000000000E+00  0.00000000000E+00 -0.11763825362E+04  0.11763825362E+04  0.25500000920E-02 0. -1.
    10030    2    1    2    0    0  0.00000000000E+00  0.00000000000E+00  0.10125610987E+03  0.24540211822E+04  0.24519313128E+04 0.  0.
        4    1    3    3  502    0 -0.10492855614E+04  0.62877355208E+03 -0.30889562021E+02  0.12236470681E+04  0.12699999809E+01 0. -1.
       -4    1    3    3    0  502  0.10492855614E+04 -0.62877355208E+03  0.13214567189E+03  0.12303741141E+04  0.12699999809E+01 0.  1.
</event>
<event>
 5   0  0.1407158E-05  0.2399878E+04  0.7818609E-02  0.8439549E-01
       -1   -1    0    0    0  501  0.00000000000E+00  0.00000000000E+00  0.88171736899E+03  0.88171736900E+03  0.50400001928E-02 0. -1.
        1   -1    0    0  501    0  0.00000000000E+00  0.00000000000E+00 -0.16330102564E+04  0.16330102564E+04  0.50400001928E-02 0.  1.
    10030    2    1    2    0    0  0.00000000000E+00  0.00000000000E+00 -0.75129288742E+03  0.25147276254E+04  0.23998779193E+04 0.  0.
        1    1    3    3  502    0 -0.14328372807E+03 -0.40811734758E+03  0.79718702406E+03  0.90697141492E+03  0.50400001928E-02 0. -1.
       -1    1    3    3    0  502  0.14328372807E+03  0.40811734758E+03 -0.15484799115E+04  0.16077562105E+04  0.50400001928E-02 0.  1.
</event>
<event>
 5   0  0.1393026E-05  0.2254438E+04  0.7818609E-02  0.8496105E-01
       -1   -1    0    0    0  501  0.00000000000E+00  0.00000000000E+00  0.10039032955E+04  0.10039032955E+04  0.50400001928E-02 0. -1.
        1   -1    0    0  501    0  0.00000000000E+00  0.00000000000E+00 -0.12656820473E+04  0.12656820473E+04  0.50400001928E-02 0.  1.
    10030    2    1    2    0    0  0.00000000000E+00  0.00000000000E+00 -0.26177875188E+03  0.22695853428E+04  0.22544377377E+04 0.  0.
        4    1    3    3  502    0  0.36787882509E+03  0.60680213612E+02 -0.12018055558E+04  0.12583143983E+04  0.12699999809E+01 0.  1.
       -4    1    3    3    0  502 -0.36787882509E+03 -0.60680213612E+02  0.94002680388E+03  0.10112709445E+04  0.12699999809E+01 0. -1.
</event>
<event>
 5   0  0.3345974E-05  0.2261884E+04  0.7818609E-02  0.8493103E-01
       -2   -1    0    0    0  501  0.00000000000E+00  0.00000000000E+00  0.10324218038E+04  0.10324218038E+04  0.25500000920E-02 0. -1.
        2   -1    0    0  501    0  0.00000000000E+00  0.00000000000E+00 -0.12388637568E+04  0.12388637568E+04  0.25500000920E-02 0.  1.
    10030    2    1    2    0    0  0.00000000000E+00  0.00000000000E+00 -0.20644195301E+03  0.22712855606E+04  0.22618841301E+04 0.  0.
        4    1    3    3  502    0 -0.11149262573E+04  0.17864113478E+03 -0.39276411696E+02  0.11298307234E+04  0.12699999809E+01 0. -1.
       -4    1    3    3    0  502  0.11149262573E+04 -0.17864113478E+03 -0.16716554131E+03  0.11414548372E+04  0.12699999809E+01 0.  1.
</event>
<event>
 5   0  0.3345974E-05  0.2452994E+04  0.7818609E-02  0.8419926E-01
        2   -1    0    0  501    0  0.00000000000E+00  0.00000000000E+00  0.18996650315E+04  0.18996650315E+04  0.25500000920E-02 0. -1.
       -2   -1    0    0    0  501  0.00000000000E+00  0.00000000000E+00 -0.79187348447E+03  0.79187348447E+03  0.25500000920E-02 0.  1.
    10030    2    1    2    0    0  0.00000000000E+00  0.00000000000E+00  0.11077915470E+04  0.26915385160E+04  0.24529935734E+04 0.  0.
        4    1    3    3  502    0  0.21366030261E+03 -0.61361226256E+03 -0.58751589001E+03  0.87598360007E+03  0.12699999809E+01 0.  1.
       -4    1    3    3    0  502 -0.21366030261E+03  0.61361226256E+03  0.16953074370E+04  0.18155549159E+04  0.12699999809E+01 0. -1.
</event>
<event>
 5   0  0.3320780E-05  0.2446571E+04  0.7818609E-02  0.8422271E-01
        2   -1    0    0  501    0  0.00000000000E+00  0.00000000000E+00  0.18104309313E+04  0.18104309313E+04  0.25500000920E-02 0. -1.
       -2   -1    0    0    0  501  0.00000000000E+00  0.00000000000E+00 -0.82655894805E+03  0.82655894805E+03  0.25500000920E-02 0.  1.
    10030    2    1    2    0    0  0.00000000000E+00  0.00000000000E+00  0.98387198326E+03  0.26369898794E+04  0.24465713855E+04 0.  0.
        5    1    3    3  502    0 -0.66021161170E+03 -0.43542112081E+03 -0.51393761050E+03  0.94319928019E+03  0.46999998093E+01 0.  1.
       -5    1    3    3    0  502  0.66021161170E+03  0.43542112081E+03  0.14978095938E+04  0.16937905992E+04  0.46999998093E+01 0. -1.
</event>
<event>
 5   0  0.3215208E-05  0.2388150E+04  0.7818609E-02  0.8443953E-01
        2   -1    0    0  501    0  0.00000000000E+00  0.00000000000E+00  0.18123703801E+04  0.18123703801E+04  0.25500000920E-02 0. -1.
       -2   -1    0    0    0  501  0.00000000000E+00  0.00000000000E+00 -0.78671266952E+03  0.78671266953E+03  0.25500000920E-02 0.  1.
    10030    2    1    2    0    0  0.00000000000E+00  0.00000000000E+00  0.10256577106E+04  0.25990830496E+04  0.23881496937E+04 0.  0.
        1    1    3    3  502    0  0.52182414010E+03 -0.47710383807E+03  0.15600476424E+04  0.17127980477E+04  0.50400001928E-02 0. -1.
       -1    1    3    3    0  502 -0.52182414010E+03  0.47710383807E+03 -0.53438993181E+03  0.88628500198E+03  0.50400001928E-02 0.  1.
</event>
<event>
 5   0  0.1434943E-05  0.2381427E+04  0.7818609E-02  0.8446490E-01
        1   -1    0    0  501    0  0.00000000000E+00  0.00000000000E+00  0.28237708041E+04  0.28237708041E+04  0.50400001928E-02 0.  1.
       -1   -1    0    0    0  501  0.00000000000E+00  0.00000000000E+00 -0.50209406630E+03  0.50209406632E+03  0.50400001928E-02 0. -1.
    10030    2    1    2    0    0  0.00000000000E+00  0.00000000000E+00  0.23216767378E+04  0.33258648705E+04  0.23814269381E+04 0.  0.
        5    1    3    3  502    0  0.55885264422E+03  0.32089270349E+03 -0.23748283908E+03  0.68681044980E+03  0.46999998093E+01 0. -1.
       -5    1    3    3    0  502 -0.55885264422E+03 -0.32089270349E+03  0.25591595769E+04  0.26390544207E+04  0.46999998093E+01 0.  1.
</event>
<event>
 5   0  0.3320780E-05  0.2391107E+04  0.7818609E-02  0.8442841E-01
        2   -1    0    0  501    0  0.00000000000E+00  0.00000000000E+00  0.10050995675E+04  0.10050995675E+04  0.25500000920E-02 0.  1.
       -2   -1    0    0    0  501  0.00000000000E+00  0.00000000000E+00 -0.14220959516E+04  0.14220959516E+04  0.25500000920E-02 0. -1.
    10030    2    1    2    0    0  0.00000000000E+00  0.00000000000E+00 -0.41699638405E+03  0.24271955191E+04  0.23911068783E+04 0.  0.
        5    1    3    3  502    0  0.70072256460E+03  0.28495795679E+03 -0.11482750793E+04  0.13750530526E+04  0.46999998093E+01 0. -1.
       -5    1    3    3    0  502 -0.70072256460E+03 -0.28495795679E+03  0.73127869526E+03  0.10521424665E+04  0.46999998093E+01 0.  1.
</event>
<event>
 5   0  0.1401596E-05  0.2411017E+04  0.7818609E-02  0.8435390E-01
       -1   -1    0    0    0  501  0.00000000000E+00  0.00000000000E+00  0.94670057764E+03  0.94670057765E+03  0.50400001928E-02 0.  1.
        1   -1    0    0  501    0  0.00000000000E+00  0.00000000000E+00 -0.15350694909E+04  0.15350694909E+04  0.50400001928E-02 0. -1.
    10030    2    1    2    0    0  0.00000000000E+00  0.00000000000E+00 -0.58836891327E+03  0.24817700686E+04  0.24110173569E+04 0.  0.
        2    1    3    3  502    0 -0.76884899064E+03  0.90450112544E+03 -0.78266817270E+02  0.11896960751E+04  0.25500000920E-02 0.  1.
       -2    1    3    3    0  502  0.76884899064E+03 -0.90450112544E+03 -0.51010209600E+03  0.12920739935E+04  0.25500000920E-02 0. -1.
</event>
<event>
 5   0  0.3320780E-05  0.2423246E+04  0.7818609E-02  0.8430852E-01
       -2   -1    0    0    0  501  0.00000000000E+00  0.00000000000E+00  0.84859139809E+03  0.84859139810E+03  0.25500000920E-02 0. -1.
        2   -1    0    0  501    0  0.00000000000E+00  0.00000000000E+00 -0.17299613417E+04  0.17299613417E+04  0.25500000920E-02 0.  1.
    10030    2    1    2    0    0  0.00000000000E+00  0.00000000000E+00 -0.88136994356E+03  0.25785527398E+04  0.24232460160E+04 0.  0.
        5    1    3    3  502    0 -0.88277633251E+03 -0.43417417834E+03  0.31189624246E+03  0.10320380935E+04  0.46999998093E+01 0. -1.
       -5    1    3    3    0  502  0.88277633251E+03  0.43417417834E+03 -0.11932661860E+04  0.15465146463E+04  0.46999998093E+01 0.  1.
</event>
<event>
 5   0  0.1506985E-05  0.2371372E+04  0.7818609E-02  0.8450300E-01
       -1   -1    0    0    0  501  0.00000000000E+00  0.00000000000E+00  0.11963998599E+04  0.11963998599E+04  0.50400001928E-02 0. -1.
        1   -1    0    0  501    0  0.00000000000E+00  0.00000000000E+00 -0.11750677145E+04  0.11750677145E+04  0.50400001928E-02 0.  1.
    10030    2    1    2    0    0  0.00000000000E+00  0.00000000000E+00  0.21332145359E+02  0.23714675744E+04  0.23713716276E+04 0.  0.
        3    1    3    3  502    0 -0.40891504031E+03  0.43505961853E+03  0.10350914600E+04  0.11949488368E+04  0.10100000352E+00 0. -1.
       -3    1    3    3    0  502  0.40891504031E+03 -0.43505961853E+03 -0.10137593146E+04  0.11765187376E+04  0.10100000352E+00 0.  1.
</event>
<event>
 5   0  0.1393026E-05  0.2233260E+04  0.7818609E-02  0.8504711E-01
       -1   -1    0    0    0  501  0.00000000000E+00  0.00000000000E+00  0.90070710697E+03  0.90070710698E+03  0.50400001928E-02 0. -1.
        1   -1    0    0  501    0  0.00000000000E+00  0.00000000000E+00 -0.13843149414E+04  0.13843149414E+04  0.50400001928E-02 0.  1.
    10030    2    1    2    0    0  0.00000000000E+00  0.00000000000E+00 -0.48360783444E+03  0.22850220484E+04  0.22332597753E+04 0.  0.
        4    1    3    3  502    0 -0.65453622701E+03  0.48648281260E+03 -0.10222261076E+04  0.13076815466E+04  0.12699999809E+01 0.  1.
       -4    1    3    3    0  502  0.65453622701E+03 -0.48648281260E+03  0.53861827313E+03  0.97734050180E+03  0.12699999809E+01 0. -1.
</event>
<event>
 5   0  0.1506985E-05  0.2404311E+04  0.7818609E-02  0.8437892E-01
       -1   -1    0    0    0  501  0.00000000000E+00  0.00000000000E+00  0.77014671582E+03  0.77014671584E+03  0.50400001928E-02 0. -1.
        1   -1    0    0  501    0  0.00000000000E+00  0.00000000000E+00 -0.18764961123E+04  0.18764961123E+04  0.50400001928E-02 0.  1.
    10030    2    1    2    0    0  0.00000000000E+00  0.00000000000E+00 -0.11063493965E+04  0.26466428282E+04  0.24043105608E+04 0.  0.
        3    1    3    3  502    0  0.27270413822E+03 -0.27574213508E+03 -0.18057449651E+04  0.18469207241E+04  0.10100000352E+00 0.  1.
       -3    1    3    3    0  502 -0.27270413822E+03  0.27574213508E+03  0.69939556861E+03  0.79972210402E+03  0.10100000352E+00 0. -1.
</event>
<event>
 5   0  0.1506985E-05  0.2384048E+04  0.7818609E-02  0.8445500E-01
       -1   -1    0    0    0  501  0.00000000000E+00  0.00000000000E+00  0.68746489928E+03  0.68746489930E+03  0.50400001928E-02 0.  1.
        1   -1    0    0  501    0  0.00000000000E+00  0.00000000000E+00 -0.20669007764E+04  0.20669007764E+04  0.50400001928E-02 0. -1.
    10030    2    1    2    0    0  0.00000000000E+00  0.00000000000E+00 -0.13794358772E+04  0.27543656758E+04  0.23840484342E+04 0.  0.
        3    1    3    3  502    0  0.96805178305E+03 -0.66164531260E+03 -0.44186518517E+03  0.12530537205E+04  0.10100000352E+00 0. -1.
       -3    1    3    3    0  502 -0.96805178305E+03  0.66164531260E+03 -0.93757069198E+03  0.15013119553E+04  0.10100000352E+00 0.  1.
</event>
<event>
 5   0  0.3310037E-05  0.2392873E+04  0.7818609E-02  0.8442176E-01
       -2   -1    0    0    0  501  0.00000000000E+00  0.00000000000E+00  0.69690990037E+03  0.69690990038E+03  0.25500000920E-02 0. -1.
        2   -1    0    0  501    0  0.00000000000E+00  0.00000000000E+00 -0.20540112679E+04  0.20540112679E+04  0.25500000920E-02 0.  1.
    10030    2    1    2    0    0  0.00000000000E+00  0.00000000000E+00 -0.13571013676E+04  0.27509211683E+04  0.23928734092E+04 0.  0.
        2    1    3    3  502    0  0.79196809877E+03 -0.75323024434E+03 -0.11900805777E+03  0.10994235709E+04  0.25500000920E-02 0. -1.
       -2    1    3    3    0  502 -0.79196809877E+03  0.75323024434E+03 -0.12380933098E+04  0.16514975974E+04  0.25500000920E-02 0.  1.
</event>
<event>
 5   0  0.1434943E-05  0.2410179E+04  0.7818609E-02  0.8435703E-01
       -1   -1    0    0    0  501  0.00000000000E+00  0.00000000000E+00  0.11242176929E+04  0.11242176929E+04  0.50400001928E-02 0. -1.
        1   -1    0    0  501    0  0.00000000000E+00  0.00000000000E+00 -0.12917787070E+04  0.12917787070E+04  0.50400001928E-02 0.  1.
    10030    2    1    2    0    0  0.00000000000E+00  0.00000000000E+00 -0.16756101410E+03  0.24159964000E+04  0.24101788131E+04 0.  0.
        5    1    3    3  502    0  0.52726594765E+03  0.91003593033E+03 -0.67345512964E+03  0.12488949818E+04  0.46999998093E+01 0.  1.
       -5    1    3    3    0  502 -0.52726594765E+03 -0.91003593033E+03  0.50589411554E+03  0.11671014181E+04  0.46999998093E+01 0. -1.
</event>
<event>
 5   0  0.1401596E-05  0.2396448E+04  0.7818609E-02  0.8440835E-01
        1   -1    0    0  501    0  0.00000000000E+00  0.00000000000E+00  0.10845060306E+04  0.10845060306E+04  0.50400001928E-02 0.  1.
       -1   -1    0    0    0  501  0.00000000000E+00  0.00000000000E+00 -0.13238660133E+04  0.13238660133E+04  0.50400001928E-02 0. -1.
    10030    2    1    2    0    0  0.00000000000E+00  0.00000000000E+00 -0.23935998270E+03  0.24083720439E+04  0.23964479341E+04 0.  0.
        2    1    3    3  502    0 -0.21687392600E+03  0.53130137216E+02  0.10634131907E+04  0.10866023769E+04  0.25500000920E-02 0.  1.
       -2    1    3    3    0  502  0.21687392600E+03 -0.53130137216E+02 -0.13027731734E+04  0.13217696670E+04  0.25500000920E-02 0. -1.
</event>
<event>
 5   0  0.1506985E-05  0.2463238E+04  0.7818609E-02  0.8416200E-01
       -1   -1    0    0    0  501  0.00000000000E+00  0.00000000000E+00  0.16558010110E+04  0.16558010110E+04  0.50400001928E-02 0.  1.
        1   -1    0    0  501    0  0.00000000000E+00  0.00000000000E+00 -0.91610396230E+03  0.91610396231E+03  0.50400001928E-02 0. -1.
    10030    2    1    2    0    0  0.00000000000E+00  0.00000000000E+00  0.73969704871E+03  0.25719049733E+04  0.24632384107E+04 0.  0.
        3    1    3    3  502    0  0.77717882638E+03  0.24525935490E+03 -0.59432104546E+03  0.10086508785E+04  0.10100000352E+00 0. -1.
       -3    1    3    3    0  502 -0.77717882638E+03 -0.24525935490E+03  0.13340180942E+04  0.15632540949E+04  0.10100000352E+00 0.  1.
</event>
<event>
 5   0  0.3215208E-05  0.2395295E+04  0.7818609E-02  0.8441267E-01
       -2   -1    0    0    0  501  0.00000000000E+00  0.00000000000E+00  0.64470774213E+03  0.64470774213E+03  0.25500000920E-02 0. -1.
        2   -1    0    0  501    0  0.00000000000E+00  0.00000000000E+00 -0.22248210295E+04  0.22248210296E+04  0.25500000920E-02 0.  1.
    10030    2    1    2    0    0  0.00000000000E+00  0.00000000000E+00 -0.15801132874E+04  0.28695287717E+04  0.23952948400E+04 0.  0.
        1    1    3    3  502    0 -0.13228737672E+03  0.38823520776E+02  0.63516974729E+03  0.64995986315E+03  0.50400001928E-02 0. -1.
       -1    1    3    3    0  502  0.13228737672E+03 -0.38823520776E+02 -0.22152830347E+04  0.22195689085E+04  0.50400001928E-02 0.  1.
</event>
<event>
 5   0  0.3310037E-05  0.2312166E+04  0.7818609E-02  0.8473140E-01
        2   -1    0    0  501    0  0.00000000000E+00  0.00000000000E+00  0.18733192829E+04  0.18733192829E+04  0.25500000920E-02 0.  1.
       -2   -1    0    0    0  501  0.00000000000E+00  0.00000000000E+00 -0.71345440572E+03  0.71345440573E+03  0.25500000920E-02 0. -1.
    10030    2    1    2    0    0  0.00000000000E+00  0.00000000000E+00  0.11598648772E+04  0.25867736887E+04  0.23121659938E+04 0.  0.
        2    1    3    3  502    0  0.23155069818E+03  0.10461928239E+04  0.10655244268E+04  0.15111179486E+04  0.25500000920E-02 0.  1.
       -2    1    3    3    0  502 -0.23155069818E+03 -0.10461928239E+04  0.94340450407E+02  0.10756557401E+04  0.25500000920E-02 0. -1.
</event>
<event>
 5   0  0.1506985E-05  0.2450328E+04  0.7818609E-02  0.8420898E-01
       -1   -1    0    0    0  501  0.00000000000E+00  0.00000000000E+00  0.92371800443E+03  0.92371800444E+03  0.50400001928E-02 0. -1.
        1   -1    0    0  501    0  0.00000000000E+00  0.00000000000E+00 -0.16249835852E+04  0.16249835852E+04  0.50400001928E-02 0.  1.
    10030    2    1    2    0    0  0.00000000000E+00  0.00000000000E+00 -0.70126558078E+03  0.25487015897E+04  0.24503278104E+04 0.  0.
        3    1    3    3  502    0 -0.83199385922E+03 -0.52346975699E+03 -0.11112871162E+04  0.14836419491E+04  0.10100000352E+00 0.  1.
       -3    1    3    3    0  502  0.83199385922E+03  0.52346975699E+03  0.41002153542E+03  0.10650596406E+04  0.10100000352E+00 0. -1.
</event>
<event>
 5   0  0.3215208E-05  0.2422566E+04  0.7818609E-02  0.8431103E-01
       -2   -1    0    0    0  501  0.00000000000E+00  0.00000000000E+00  0.13942055573E+04  0.13942055573E+04  0.25500000920E-02 0.  1.
        2   -1    0    0  501    0  0.00000000000E+00  0.00000000000E+00 -0.10523603602E+04  0.10523603602E+04  0.25500000920E-02 0. -1.
    10030    2    1    2    0    0  0.00000000000E+00  0.00000000000E+00  0.34184519712E+03  0.24465659175E+04  0.24225661291E+04 0.  0.
        1    1    3    3  502    0  0.18865347116E+03  0.11526463175E+04 -0.15322915142E+03  0.11779910179E+04  0.50400001928E-02 0. -1.
       -1    1    3    3    0  502 -0.18865347116E+03 -0.11526463175E+04  0.49507434854E+03  0.12685748996E+04  0.50400001928E-02 0.  1.
</event>
<event>
 5   0  0.1407158E-05  0.2406766E+04  0.7818609E-02  0.8436975E-01
       -1   -1    0    0    0  501  0.00000000000E+00  0.00000000000E+00  0.64313131155E+03  0.64313131157E+03  0.50400001928E-02 0. -1.
        1   -1    0    0  501    0  0.00000000000E+00  0.00000000000E+00 -0.22516874237E+04  0.22516874237E+04  0.50400001928E-02 0.  1.
    10030    2    1    2    0    0  0.00000000000E+00  0.00000000000E+00 -0.16085561122E+04  0.28948187353E+04  0.24067660344E+04 0.  0.
        1    1    3    3  502    0 -0.17470024645E+03 -0.56948580821E+03 -0.20619184116E+04  0.21462389891E+04  0.50400001928E-02 0.  1.
       -1    1    3    3    0  502  0.17470024645E+03  0.56948580821E+03  0.45336229947E+03  0.74857974623E+03  0.50400001928E-02 0. -1.
</event>
<event>
 5   0  0.1506985E-05  0.2427376E+04  0.7818609E-02  0.8429325E-01
       -1   -1    0    0    0  501  0.00000000000E+00  0.00000000000E+00  0.10434972600E+04  0.10434972600E+04  0.50400001928E-02 0.  1.
        1   -1    0    0  501    0  0.00000000000E+00  0.00000000000E+00 -0.14116365522E+04  0.14116365522E+04  0.50400001928E-02 0. -1.
    10030    2    1    2    0    0  0.00000000000E+00  0.00000000000E+00 -0.36813929223E+03  0.24551338122E+04  0.24273762579E+04 0.  0.
        3    1    3    3  502    0  0.26277286631E+03 -0.88512252804E+03 -0.98082601954E+03  0.13470379207E+04  0.10100000352E+00 0. -1.
       -3    1    3    3    0  502 -0.26277286631E+03  0.88512252804E+03  0.61268672731E+03  0.11080958916E+04  0.10100000352E+00 0.  1.
</event>
<event>
 5   0  0.3345974E-05  0.2388223E+04  0.7818609E-02  0.8443926E-01
       -2   -1    0    0    0  501  0.00000000000E+00  0.00000000000E+00  0.64516100083E+03  0.64516100084E+03  0.25500000920E-02 0. -1.
        2   -1    0    0  501    0  0.00000000000E+00  0.00000000000E+00 -0.22101495156E+04  0.22101495156E+04  0.25500000920E-02 0.  1.
    10030    2    1    2    0    0  0.00000000000E+00  0.00000000000E+00 -0.15649885148E+04  0.28553105165E+04  0.23882229992E+04 0.  0.
        4    1    3    3  502    0 -0.59695494192E+03  0.19446568730E+03  0.43190416306E+03  0.76204653742E+03  0.12699999809E+01 0. -1.
       -4    1    3    3    0  502  0.59695494192E+03 -0.19446568730E+03 -0.19968926779E+04  0.20932639791E+04  0.12699999809E+01 0.  1.
</event>
<event>
 5   0  0.3320780E-05  0.2396639E+04  0.7818609E-02  0.8440763E-01
       -2   -1    0    0    0  501  0.00000000000E+00  0.00000000000E+00  0.12783095823E+04  0.12783095823E+04  0.25500000920E-02 0. -1.
        2   -1    0    0  501    0  0.00000000000E+00  0.00000000000E+00 -0.11233351417E+04  0.11233351417E+04  0.25500000920E-02 0.  1.
    10030    2    1    2    0    0  0.00000000000E+00  0.00000000000E+00  0.15497444054E+03  0.24016447240E+04  0.23966393770E+04 0.  0.
        5    1    3    3  502    0 -0.99954456314E+03  0.36430876818E+03 -0.47515142741E+03  0.11651614400E+04  0.46999998093E+01 0. -1.
       -5    1    3    3    0  502  0.99954456314E+03 -0.36430876818E+03  0.63012586796E+03  0.12364832840E+04  0.46999998093E+01 0.  1.
</event>
<event>
 5   0  0.3215208E-05  0.2415335E+04  0.7818609E-02  0.8433784E-01
        2   -1    0    0  501    0  0.00000000000E+00  0.00000000000E+00  0.20937459501E+04  0.20937459501E+04  0.25500000920E-02 0. -1.
       -2   -1    0    0    0  501  0.00000000000E+00  0.00000000000E+00 -0.69657985580E+03  0.69657985580E+03  0.25500000920E-02 0.  1.
    10030    2    1    2    0    0  0.00000000000E+00  0.00000000000E+00  0.13971660943E+04  0.27903258059E+04  0.24153353821E+04 0.  0.
        1    1    3    3  502    0  0.27389768798E+03  0.22252229664E+03  0.20328514466E+04  0.20632549818E+04  0.50400001928E-02 0. -1.
       -1    1    3    3    0  502 -0.27389768798E+03 -0.22252229664E+03 -0.63568535234E+03  0.72707082406E+03  0.50400001928E-02 0.  1.
</event>
<event>
 5   0  0.3320780E-05  0.2451698E+04  0.7818609E-02  0.8420398E-01
       -2   -1    0    0    0  501  0.00000000000E+00  0.00000000000E+00  0.14884192865E+04  0.14884192865E+04  0.25500000920E-02 0.  1.
        2   -1    0    0  501    0  0.00000000000E+00  0.00000000000E+00 -0.10095984075E+04  0.10095984075E+04  0.25500000920E-02 0. -1.
    10030    2    1    2    0    0  0.00000000000E+00  0.00000000000E+00  0.47882087900E+03  0.24980176940E+04  0.24516979759E+04 0.  0.
        5    1    3    3  502    0  0.63800767976E+03  0.62727318363E+03  0.10931905420E+04  0.14126617067E+04  0.46999998093E+01 0.  1.
       -5    1    3    3    0  502 -0.63800767976E+03 -0.62727318363E+03 -0.61436966300E+03  0.10853559873E+04  0.46999998093E+01 0. -1.
</event>
<event>
 5   0  0.3345974E-05  0.2400419E+04  0.7818609E-02  0.8439347E-01
        2   -1    0    0  501    0  0.00000000000E+00  0.00000000000E+00  0.23777868665E+04  0.23777868665E+04  0.25500000920E-02 0.  1.
       -2   -1    0    0    0  501  0.00000000000E+00  0.00000000000E+00 -0.60581681094E+03  0.60581681094E+03  0.25500000920E-02 0. -1.
    10030    2    1    2    0    0  0.00000000000E+00  0.00000000000E+00  0.17719700556E+04  0.29836036775E+04  0.24004193438E+04 0.  0.
        4    1    3    3  502    0  0.67339269644E+03 -0.11836524124E+03 -0.34009249913E+03  0.76363117721E+03  0.12699999809E+01 0. -1.
       -4    1    3    3    0  502 -0.67339269644E+03  0.11836524124E+03  0.21120625547E+04  0.22199725003E+04  0.12699999809E+01 0.  1.
</event>
<event>
 5   0  0.1506985E-05  0.2356826E+04  0.7818609E-02  0.8455847E-01
        1   -1    0    0  501    0  0.00000000000E+00  0.00000000000E+00  0.17125632400E+04  0.17125632400E+04  0.50400001928E-02 0.  1.
       -1   -1    0    0    0  501  0.00000000000E+00  0.00000000000E+00 -0.81086454898E+03  0.81086454899E+03  0.50400001928E-02 0. -1.
    10030    2    1    2    0    0  0.00000000000E+00  0.00000000000E+00  0.90169869100E+03  0.25234277890E+04  0.23568256781E+04 0.  0.
        3    1    3    3  502    0  0.74473671195E+03 -0.29179455232E+03 -0.47570208285E+03  0.93062845042E+03  0.10100000352E+00 0. -1.
       -3    1    3    3    0  502 -0.74473671195E+03  0.29179455232E+03  0.13774007739E+04  0.15927993386E+04  0.10100000352E+00 0.  1.
</event>
<event>
 5   0  0.1506985E-05  0.2384852E+04  0.7818609E-02  0.8445196E-01
       -1   -1    0    0    0  501  0.00000000000E+00  0.00000000000E+00  0.26274799966E+04  0.26274799966E+04  0.50400001928E-02 0.  1.
        1   -1    0    0  501    0  0.00000000000E+00  0.00000000000E+00 -0.54115742709E+03  0.54115742711E+03  0.50400001928E-02 0. -1.
    10030    2    1    2    0    0  0.00000000000E+00  0.00000000000E+00  0.20863225695E+04  0.31686374237E+04  0.23848524606E+04 0.  0.
        3    1    3    3  502    0  0.74286280559E+03  0.65336447143E+03  0.15868453858E+03  0.10019536284E+04  0.10100000352E+00 0. -1.
       -3    1    3    3    0  502 -0.74286280559E+03 -0.65336447143E+03  0.19276380309E+04  0.21666837953E+04  0.10100000352E+00 0.  1.
</event>
<event>
 5   0  0.3347728E-05  0.2486387E+04  0.7818609E-02  0.8407851E-01
       -2   -1    0    0    0  501  0.00000000000E+00  0.00000000000E+00  0.76407058536E+03  0.76407058537E+03  0.25500000920E-02 0. -1.
        2   -1    0    0  501    0  0.00000000000E+00  0.00000000000E+00 -0.20227589614E+04  0.20227589614E+04  0.25500000920E-02 0.  1.
    10030    2    1    2    0    0  0.00000000000E+00  0.00000000000E+00 -0.12586883760E+04  0.27868295468E+04  0.24863874386E+04 0.  0.
        3    1    3    3  502    0  0.20646513081E+03 -0.22596157917E+03 -0.19798659900E+04  0.20033860921E+04  0.10100000352E+00 0.  1.
       -3    1    3    3    0  502 -0.20646513081E+03  0.22596157917E+03  0.72117761399E+03  0.78344345464E+03  0.10100000352E+00 0. -1.
</event>
<event>
 5   0  0.3345974E-05  0.2396885E+04  0.7818609E-02  0.8440671E-01
       -2   -1    0    0    0  501  0.00000000000E+00  0.00000000000E+00  0.86675081182E+03  0.86675081182E+03  0.25500000920E-02 0. -1.
        2   -1    0    0  501    0  0.00000000000E+00  0.00000000000E+00 -0.16570676943E+04  0.16570676943E+04  0.25500000920E-02 0.  1.
    10030    2    1    2    0    0  0.00000000000E+00  0.00000000000E+00 -0.79031688252E+03  0.25238185062E+04  0.23968852866E+04 0.  0.
        4    1    3    3  502    0 -0.32476624176E+03 -0.84913995836E+03  0.42706009900E+03  0.10044370173E+04  0.12699999809E+01 0. -1.
       -4    1    3    3    0  502  0.32476624176E+03  0.84913995836E+03 -0.12173769815E+04  0.15193814889E+04  0.12699999809E+01 0.  1.
</event>
<event>
 5   0  0.1401596E-05  0.2399582E+04  0.7818609E-02  0.8439660E-01
       -1   -1    0    0    0  501  0.00000000000E+00  0.00000000000E+00  0.80095923778E+03  0.80095923780E+03  0.50400001928E-02 0. -1.
        1   -1    0    0  501    0  0.00000000000E+00  0.00000000000E+00 -0.17972174626E+04  0.17972174626E+04  0.50400001928E-02 0.  1.
    10030    2    1    2    0    0  0.00000000000E+00  0.00000000000E+00 -0.99625822477E+03  0.25981767004E+04  0.23995815710E+04 0.  0.
        2    1    3    3  502    0 -0.36549443733E+03  0.10355390323E+04  0.25160733979E+02  0.10984354026E+04  0.25500000920E-02 0. -1.
       -2    1    3    3    0  502  0.36549443733E+03 -0.10355390323E+04 -0.10214189588E+04  0.14997412978E+04  0.25500000920E-02 0.  1.
</event>
<event>
 5   0  0.1407158E-05  0.2389653E+04  0.7818609E-02  0.8443387E-01
       -1   -1    0    0    0  501  0.00000000000E+00  0.00000000000E+00  0.66584691738E+03  0.66584691740E+03  0.50400001928E-02 0. -1.
        1   -1    0    0  501    0  0.00000000000E+00  0.00000000000E+00 -0.21440527343E+04  0.21440527343E+04  0.50400001928E-02 0.  1.
    10030    2    1    2    0    0  0.00000000000E+00  0.00000000000E+00 -0.14782058169E+04  0.28098996517E+04  0.23896534509E+04 0.  0.
        1    1    3    3  502    0  0.11793829723E+04  0.15871622363E+03 -0.61313826073E+03  0.13386835181E+04  0.50400001928E-02 0. -1.
       -1    1    3    3    0  502 -0.11793829723E+04 -0.15871622363E+03 -0.86506755616E+03  0.14712161336E+04  0.50400001928E-02 0.  1.
</event>
<event>
 5   0  0.1401596E-05  0.2405916E+04  0.7818609E-02  0.8437292E-01
       -1   -1    0    0    0  501  0.00000000000E+00  0.00000000000E+00  0.11567197109E+04  0.11567197109E+04  0.50400001928E-02 0.  1.
        1   -1    0    0  501    0  0.00000000000E+00  0.00000000000E+00 -0.12510442567E+04  0.12510442567E+04  0.50400001928E-02 0. -1.
    10030    2    1    2    0    0  0.00000000000E+00  0.00000000000E+00 -0.94324545835E+02  0.24077639676E+04  0.24059156685E+04 0.  0.
        2    1    3    3  502    0 -0.29876160627E+03  0.30060410119E+03 -0.11738540766E+04  0.12480203188E+04  0.25500000920E-02 0. -1.
       -2    1    3    3    0  502  0.29876160627E+03 -0.30060410119E+03  0.10795295308E+04  0.11597436488E+04  0.25500000920E-02 0.  1.
</event>
<event>
 5   0  0.3345974E-05  0.2389621E+04  0.7818609E-02  0.8443400E-01
       -2   -1    0    0    0  501  0.00000000000E+00  0.00000000000E+00  0.83442863589E+03  0.83442863589E+03  0.25500000920E-02 0.  1.
        2   -1    0    0  501    0  0.00000000000E+00  0.00000000000E+00 -0.17108372655E+04  0.17108372655E+04  0.25500000920E-02 0. -1.
    10030    2    1    2    0    0  0.00000000000E+00  0.00000000000E+00 -0.87640862959E+03  0.25452659014E+04  0.23896205604E+04 0.  0.
        4    1    3    3  502    0 -0.30518227424E+03 -0.97663148531E+03  0.21892781936E+03  0.10463633602E+04  0.12699999809E+01 0.  1.
       -4    1    3    3    0  502  0.30518227424E+03  0.97663148531E+03 -0.10953364489E+04  0.14989025412E+04  0.12699999809E+01 0. -1.
</event>
<event>
 5   0  0.3345974E-05  0.2431105E+04  0.7818609E-02  0.8427949E-01
        2   -1    0    0  501    0  0.00000000000E+00  0.00000000000E+00  0.33011010813E+04  0.33011010813E+04  0.25500000920E-02 0.  1.
       -2   -1    0    0    0  501  0.00000000000E+00  0.00000000000E+00 -0.44759845641E+03  0.44759845641E+03  0.25500000920E-02 0. -1.
    10030    2    1    2    0    0  0.00000000000E+00  0.00000000000E+00  0.28535026249E+04  0.37486995377E+04  0.24311048915E+04 0.  0.
        4    1    3    3  502    0 -0.59856815640E+03  0.59998455664E+02  0.30554743626E+04  0.31141305120E+04  0.12699999809E+01 0.  1.
       -4    1    3    3    0  502  0.59856815640E+03 -0.59998455664E+02 -0.20197173776E+03  0.63456902563E+03  0.12699999809E+01 0. -1.
</event>
<event>
 5   0  0.3320780E-05  0.2371836E+04  0.7818609E-02  0.8450123E-01
        2   -1    0    0  501    0  0.00000000000E+00  0.00000000000E+00  0.20381228719E+04  0.20381228719E+04  0.25500000920E-02 0.  1.
       -2   -1    0    0    0  501  0.00000000000E+00  0.00000000000E+00 -0.69004774611E+03  0.69004774611E+03  0.25500000920E-02 0. -1.
    10030    2    1    2    0    0  0.00000000000E+00  0.00000000000E+00  0.13480751258E+04  0.27281706180E+04  0.23718364986E+04 0.  0.
        5    1    3    3  502    0  0.30924193305E+03  0.11352461170E+04  0.84451195608E+03  0.14483220820E+04  0.46999998093E+01 0. -1.
       -5    1    3    3    0  502 -0.30924193305E+03 -0.11352461170E+04  0.50356316969E+03  0.12798485360E+04  0.46999998093E+01 0.  1.
</event>
<event>
 5   0  0.1506985E-05  0.2424451E+04  0.7818609E-02  0.8430406E-01
       -1   -1    0    0    0  501  0.00000000000E+00  0.00000000000E+00  0.58703570515E+03  0.58703570517E+03  0.50400001928E-02 0.  1.
        1   -1    0    0  501    0  0.00000000000E+00  0.00000000000E+00 -0.25032400087E+04  0.25032400087E+04  0.50400001928E-02 0. -1.
    10030    2    1    2    0    0  0.00000000000E+00  0.00000000000E+00 -0.19162043036E+04  0.30902757139E+04  0.24244514957E+04 0.  0.
        3    1    3    3  502    0  0.27886877346E+03 -0.65298349246E+03  0.29423995978E+03  0.76859117766E+03  0.10100000352E+00 0.  1.
       -3    1    3    3    0  502 -0.27886877346E+03  0.65298349246E+03 -0.22104442634E+04  0.23216845362E+04  0.10100000352E+00 0. -1.
</event>
<event>
 5   0  0.1401596E-05  0.2482948E+04  0.7818609E-02  0.8409086E-01
       -1   -1    0    0    0  501  0.00000000000E+00  0.00000000000E+00  0.77171055832E+03  0.77171055833E+03  0.50400001928E-02 0.  1.
        1   -1    0    0  501    0  0.00000000000E+00  0.00000000000E+00 -0.19971963749E+04  0.19971963749E+04  0.50400001928E-02 0. -1.
    10030    2    1    2    0    0  0.00000000000E+00  0.00000000000E+00 -0.12254858166E+04  0.27689069332E+04  0.24829478686E+04 0.  0.
        2    1    3    3  502    0 -0.51418765908E+03  0.35250803374E+03 -0.18099831918E+04  0.19143380102E+04  0.25500000920E-02 0. -1.
       -2    1    3    3    0  502  0.51418765908E+03 -0.35250803374E+03  0.58449737522E+03  0.85456892306E+03  0.25500000920E-02 0.  1.
</event>
<event>
 5   0  0.3215208E-05  0.2326553E+04  0.7818609E-02  0.8467525E-01
        2   -1    0    0  501    0  0.00000000000E+00  0.00000000000E+00  0.18962657642E+04  0.18962657642E+04  0.25500000920E-02 0. -1.
       -2   -1    0    0    0  501  0.00000000000E+00  0.00000000000E+00 -0.71361941659E+03  0.71361941659E+03  0.25500000920E-02 0.  1.
    10030    2    1    2    0    0  0.00000000000E+00  0.00000000000E+00  0.11826463476E+04  0.26098851808E+04  0.23265528735E+04 0.  0.
        1    1    3    3  502    0 -0.54168273002E+03  0.27582257602E+03 -0.52128656086E+03  0.80077334621E+03  0.50400001928E-02 0.  1.
       -1    1    3    3    0  502  0.54168273002E+03 -0.27582257602E+03  0.17039329085E+04  0.18091118346E+04  0.50400001928E-02 0. -1.
</event>
<event>
 5   0  0.1393026E-05  0.2379900E+04  0.7818609E-02  0.8447067E-01
       -1   -1    0    0    0  501  0.00000000000E+00  0.00000000000E+00  0.95391365108E+03  0.95391365110E+03  0.50400001928E-02 0. -1.
        1   -1    0    0  501    0  0.00000000000E+00  0.00000000000E+00 -0.14843910601E+04  0.14843910601E+04  0.50400001928E-02 0.  1.
    10030    2    1    2    0    0  0.00000000000E+00  0.00000000000E+00 -0.53047740899E+03  0.24383047112E+04  0.23798999103E+04 0.  0.
        4    1    3    3  502    0  0.65886726323E+03 -0.16806418749E+03  0.73526499887E+03  0.10014828372E+04  0.12699999809E+01 0. -1.
       -4    1    3    3    0  502 -0.65886726323E+03  0.16806418749E+03 -0.12657424079E+04  0.14368218740E+04  0.12699999809E+01 0.  1.
</event>
<event>
 5   0  0.3345974E-05  0.2462666E+04  0.7818609E-02  0.8416408E-01
       -2   -1    0    0    0  501  0.00000000000E+00  0.00000000000E+00  0.12816627822E+04  0.12816627822E+04  0.25500000920E-02 0. -1.
        2   -1    0    0  501    0  0.00000000000E+00  0.00000000000E+00 -0.11829797680E+04  0.11829797680E+04  0.25500000920E-02 0.  1.
    10030    2    1    2    0    0  0.00000000000E+00  0.00000000000E+00  0.98683014121E+02  0.24646425502E+04  0.24626661493E+04 0.  0.
        4    1    3    3  502    0 -0.16830038055E+03 -0.51919492398E+03  0.11539895925E+04  0.12765508136E+04  0.12699999809E+01 0. -1.
       -4    1    3    3    0  502  0.16830038055E+03  0.51919492398E+03 -0.10553065784E+04  0.11880917366E+04  0.12699999809E+01 0.  1.
</event>
<event>
 5   0  0.3310037E-05  0.2365815E+04  0.7818609E-02  0.8452414E-01
       -2   -1    0    0    0  501  0.00000000000E+00  0.00000000000E+00  0.10182385247E+04  0.10182385247E+04  0.25500000920E-02 0.  1.
        2   -1    0    0  501    0  0.00000000000E+00  0.00000000000E+00 -0.13742062924E+04  0.13742062924E+04  0.25500000920E-02 0. -1.
    10030    2    1    2    0    0  0.00000000000E+00  0.00000000000E+00 -0.35596776773E+03  0.23924448171E+04  0.23658146908E+04 0.  0.
        2    1    3    3  502    0  0.79297386262E+03 -0.75636466716E+03 -0.62839010528E+03  0.12632375790E+04  0.25500000920E-02 0. -1.
       -2    1    3    3    0  502 -0.79297386262E+03  0.75636466716E+03  0.27242233755E+03  0.11292072381E+04  0.25500000920E-02 0.  1.
</event>
<event>
 5   0  0.1393026E-05  0.2409681E+04  0.7818609E-02  0.8435888E-01
        1   -1    0    0  501    0  0.00000000000E+00  0.00000000000E+00  0.98275278090E+03  0.98275278091E+03  0.50400001928E-02 0. -1.
       -1   -1    0    0    0  501  0.00000000000E+00  0.00000000000E+00 -0.14771167407E+04  0.14771167407E+04  0.50400001928E-02 0.  1.
    10030    2    1    2    0    0  0.00000000000E+00  0.00000000000E+00 -0.49436395981E+03  0.24598695216E+04  0.24096809620E+04 0.  0.
        4    1    3    3  502    0  0.48629971236E+03 -0.10157164417E+04  0.19007528495E+03  0.11420584605E+04  0.12699999809E+01 0. -1.
       -4    1    3    3    0  502 -0.48629971236E+03  0.10157164417E+04 -0.68443924477E+03  0.13178110612E+04  0.12699999809E+01 0.  1.
</event>
<event>
 5   0  0.3345974E-05  0.2353001E+04  0.7818609E-02  0.8457312E-01
       -2   -1    0    0    0  501  0.00000000000E+00  0.00000000000E+00  0.54338927699E+03  0.54338927700E+03  0.25500000920E-02 0.  1.
        2   -1    0    0  501    0  0.00000000000E+00  0.00000000000E+00 -0.25472597710E+04  0.25472597710E+04  0.25500000920E-02 0. -1.
    10030    2    1    2    0    0  0.00000000000E+00  0.00000000000E+00 -0.20038704940E+04  0.30906490480E+04  0.23530011860E+04 0.  0.
        4    1    3    3  502    0 -0.25348789429E+03  0.94016507613E+03 -0.18692237593E+04  0.21076445521E+04  0.12699999809E+01 0. -1.
       -4    1    3    3    0  502  0.25348789429E+03 -0.94016507613E+03 -0.13464673477E+03  0.98300449592E+03  0.12699999809E+01 0.  1.
</event>
<event>
 5   0  0.1506985E-05  0.1997014E+04  0.7818609E-02  0.8608018E-01
       -1   -1    0    0    0  501  0.00000000000E+00  0.00000000000E+00  0.71927673125E+03  0.71927673127E+03  0.50400001928E-02 0.  1.
        1   -1    0    0  501    0  0.00000000000E+00  0.00000000000E+00 -0.13861373411E+04  0.13861373411E+04  0.50400001928E-02 0. -1.
    10030    2    1    2    0    0  0.00000000000E+00  0.00000000000E+00 -0.66686060985E+03  0.21054140724E+04  0.19970141069E+04 0.  0.
        3    1    3    3  502    0  0.82381245300E+03  0.27998984699E+02 -0.92754869383E+03  0.12408857685E+04  0.10100000352E+00 0. -1.
       -3    1    3    3    0  502 -0.82381245300E+03 -0.27998984699E+02  0.26068808398E+03  0.86452830387E+03  0.10100000352E+00 0.  1.
</event>
<event>
 5   0  0.3320780E-05  0.2373453E+04  0.7818609E-02  0.8449510E-01
       -2   -1    0    0    0  501  0.00000000000E+00  0.00000000000E+00  0.81621315382E+03  0.81621315383E+03  0.25500000920E-02 0.  1.
        2   -1    0    0  501    0  0.00000000000E+00  0.00000000000E+00 -0.17254308146E+04  0.17254308146E+04  0.25500000920E-02 0. -1.
    10030    2    1    2    0    0  0.00000000000E+00  0.00000000000E+00 -0.90921766074E+03  0.25416439684E+04  0.23734526133E+04 0.  0.
        5    1    3    3  502    0 -0.71984772833E+03  0.26069439921E+03 -0.14255903814E+04  0.16181694433E+04  0.46999998093E+01 0. -1.
       -5    1    3    3    0  502  0.71984772833E+03 -0.26069439921E+03  0.51637272068E+03  0.92347452506E+03  0.46999998093E+01 0.  1.
</event>
<event>
 5   0  0.3320780E-05  0.2417890E+04  0.7818609E-02  0.8432836E-01
        2   -1    0    0  501    0  0.00000000000E+00  0.00000000000E+00  0.56557057921E+03  0.56557057921E+03  0.25500000920E-02 0. -1.
       -2   -1    0    0    0  501  0.00000000000E+00  0.00000000000E+00 -0.25842005143E+04  0.25842005143E+04  0.25500000920E-02 0.  1.
    10030    2    1    2    0    0  0.00000000000E+00  0.00000000000E+00 -0.20186299351E+04  0.31497710935E+04  0.24178898086E+04 0.  0.
        5    1    3    3  502    0 -0.10279019887E+04  0.29283787318E+03 -0.17452959023E+04  0.20465620916E+04  0.46999998093E+01 0.  1.
       -5    1    3    3    0  502  0.10279019887E+04 -0.29283787318E+03 -0.27333403274E+03  0.11032090018E+04  0.46999998093E+01 0. -1.
</event>
<event>
 5   0  0.3215208E-05  0.2407116E+04  0.7818609E-02  0.8436844E-01
       -2   -1    0    0    0  501  0.00000000000E+00  0.00000000000E+00  0.84041449798E+03  0.84041449798E+03  0.25500000920E-02 0.  1.
        2   -1    0    0  501    0  0.00000000000E+00  0.00000000000E+00 -0.17236158556E+04  0.17236158556E+04  0.25500000920E-02 0. -1.
    10030    2    1    2    0    0  0.00000000000E+00  0.00000000000E+00 -0.88320135766E+03  0.25640303536E+04  0.24071159125E+04 0.  0.
        1    1    3    3  502    0 -0.34596006865E+02  0.11251126334E+04 -0.89537119576E+03  0.14383201660E+04  0.50400001928E-02 0. -1.
       -1    1    3    3    0  502  0.34596006865E+02 -0.11251126334E+04  0.12169838096E+02  0.11257101877E+04  0.50400001928E-02 0.  1.
</event>
<event>
 5   0  0.1401596E-05  0.2449725E+04  0.7818609E-02  0.8421118E-01
        1   -1    0    0  501    0  0.00000000000E+00  0.00000000000E+00  0.12119315091E+04  0.12119315091E+04  0.50400001928E-02 0. -1.
       -1   -1    0    0    0  501  0.00000000000E+00  0.00000000000E+00 -0.12379314008E+04  0.12379314008E+04  0.50400001928E-02 0.  1.
    10030    2    1    2    0    0  0.00000000000E+00  0.00000000000E+00 -0.25999891693E+02  0.24498629100E+04  0.24497249403E+04 0.  0.
        2    1    3    3  502    0  0.21846199408E+03 -0.10663735480E+04 -0.57464521934E+03  0.12308920809E+04  0.25500000920E-02 0.  1.
       -2    1    3    3    0  502 -0.21846199408E+03  0.10663735480E+04  0.54864532765E+03  0.12189708291E+04  0.25500000920E-02 0. -1.
</event>
<event>
 5   0  0.1506985E-05  0.2417359E+04  0.7818609E-02  0.8433033E-01
       -1   -1    0    0    0  501  0.00000000000E+00  0.00000000000E+00  0.86511293760E+03  0.86511293761E+03  0.50400001928E-02 0. -1.
        1   -1    0    0  501    0  0.00000000000E+00  0.00000000000E+00 -0.16886883656E+04  0.16886883656E+04  0.50400001928E-02 0.  1.
    10030    2    1    2    0    0  0.00000000000E+00  0.00000000000E+00 -0.82357542797E+03  0.25538013032E+04  0.24173590157E+04 0.  0.
        3    1    3    3  502    0 -0.98182111601E+03 -0.48630301643E+03 -0.95092844077E+03  0.14507681542E+04  0.10100000352E+00 0.  1.
       -3    1    3    3    0  502  0.98182111601E+03  0.48630301643E+03  0.12735301280E+03  0.11030331490E+04  0.10100000352E+00 0. -1.
</event>
<event>
 5   0  0.1506985E-05  0.2378367E+04  0.7818609E-02  0.8447647E-01
        1   -1    0    0  501    0  0.00000000000E+00  0.00000000000E+00  0.96782623782E+03  0.96782623783E+03  0.50400001928E-02 0.  1.
       -1   -1    0    0    0  501  0.00000000000E+00  0.00000000000E+00 -0.14611687465E+04  0.14611687465E+04  0.50400001928E-02 0. -1.
    10030    2    1    2    0    0  0.00000000000E+00  0.00000000000E+00 -0.49334250870E+03  0.24289949844E+04  0.23783670455E+04 0.  0.
        3    1    3    3  502    0  0.56016178913E+03  0.10425948967E+04 -0.12857192905E+03  0.11905108566E+04  0.10100000352E+00 0.  1.
       -3    1    3    3    0  502 -0.56016178913E+03 -0.10425948967E+04 -0.36477057965E+03  0.12384841277E+04  0.10100000352E+00 0. -1.
</event>
<event>
 5   0  0.3345974E-05  0.2268344E+04  0.7818609E-02  0.8490508E-01
        2   -1    0    0  501    0  0.00000000000E+00  0.00000000000E+00  0.18558380317E+04  0.18558380317E+04  0.25500000920E-02 0. -1.
       -2   -1    0    0    0  501  0.00000000000E+00  0.00000000000E+00 -0.69313493217E+03  0.69313493218E+03  0.25500000920E-02 0.  1.
    10030    2    1    2    0    0  0.00000000000E+00  0.00000000000E+00  0.11627030996E+04  0.25489729639E+04  0.22683440376E+04 0.  0.
        4    1    3    3  502    0 -0.34561795256E+03 -0.44786503563E+03 -0.52327244678E+03  0.77061697732E+03  0.12699999809E+01 0.  1.
       -4    1    3    3    0  502  0.34561795256E+03  0.44786503563E+03  0.16859755463E+04  0.17783559866E+04  0.12699999809E+01 0. -1.
</event>
<event>
 5   0  0.1434943E-05  0.2259591E+04  0.7818609E-02  0.8494026E-01
       -1   -1    0    0    0  501  0.00000000000E+00  0.00000000000E+00  0.11118769225E+04  0.11118769225E+04  0.50400001928E-02 0. -1.
        1   -1    0    0  501    0  0.00000000000E+00  0.00000000000E+00 -0.11480029816E+04  0.11480029816E+04  0.50400001928E-02 0.  1.
    10030    2    1    2    0    0  0.00000000000E+00  0.00000000000E+00 -0.36126059138E+02  0.22598799041E+04  0.22595911331E+04 0.  0.
        5    1    3    3  502    0  0.11091524847E+02 -0.49533272116E+03 -0.10335441598E+04  0.11461732622E+04  0.46999998093E+01 0.  1.
       -5    1    3    3    0  502 -0.11091524847E+02  0.49533272116E+03  0.99741810071E+03  0.11137066419E+04  0.46999998093E+01 0. -1.
</event>
<event>
 5   0  0.1393026E-05  0.2370775E+04  0.7818609E-02  0.8450527E-01
        1   -1    0    0  501    0  0.00000000000E+00  0.00000000000E+00  0.98085059205E+03  0.98085059206E+03  0.50400001928E-02 0.  1.
       -1   -1    0    0    0  501  0.00000000000E+00  0.00000000000E+00 -0.14325762538E+04  0.14325762538E+04  0.50400001928E-02 0. -1.
    10030    2    1    2    0    0  0.00000000000E+00  0.00000000000E+00 -0.45172566178E+03  0.24134268459E+04  0.23707747820E+04 0.  0.
        4    1    3    3  502    0 -0.17169908394E+02  0.10449763697E+04 -0.79527488745E+03  0.13132913532E+04  0.12699999809E+01 0. -1.
       -4    1    3    3    0  502  0.17169908394E+02 -0.10449763697E+04  0.34354922567E+03  0.11001354927E+04  0.12699999809E+01 0.  1.
</event>
<event>
 5   0  0.1401596E-05  0.2287055E+04  0.7818609E-02  0.8483043E-01
        1   -1    0    0  501    0  0.00000000000E+00  0.00000000000E+00  0.10376911652E+04  0.10376911652E+04  0.50400001928E-02 0.  1.
       -1   -1    0    0    0  501  0.00000000000E+00  0.00000000000E+00 -0.12601587016E+04  0.12601587017E+04  0.50400001928E-02 0. -1.
    10030    2    1    2    0    0  0.00000000000E+00  0.00000000000E+00 -0.22246753646E+03  0.22978498668E+04  0.22870553570E+04 0.  0.
        2    1    3    3  502    0 -0.31777784436E+03 -0.98562387407E+03  0.37604848340E+03  0.11017484474E+04  0.25500000920E-02 0.  1.
       -2    1    3    3    0  502  0.31777784436E+03  0.98562387407E+03 -0.59851601986E+03  0.11961014194E+04  0.25500000920E-02 0. -1.
</event>
<event>
 5   0  0.3347728E-05  0.2426416E+04  0.7818609E-02  0.8429679E-01
       -2   -1    0    0    0  501  0.00000000000E+00  0.00000000000E+00  0.83482692303E+03  0.83482692304E+03  0.25500000920E-02 0.  1.
        2   -1    0    0  501    0  0.00000000000E+00  0.00000000000E+00 -0.17630890641E+04  0.17630890641E+04  0.25500000920E-02 0. -1.
    10030    2    1    2    0    0  0.00000000000E+00  0.00000000000E+00 -0.92826214107E+03  0.25979159871E+04  0.24264164675E+04 0.  0.
        3    1    3    3  502    0 -0.65128787917E+03 -0.86594028485E+03 -0.10484573877E+04  0.15077438053E+04  0.10100000352E+00 0. -1.
       -3    1    3    3    0  502  0.65128787917E+03  0.86594028485E+03  0.12019524662E+03  0.10901721818E+04  0.10100000352E+00 0.  1.
</event>
<event>
 5   0  0.3345974E-05  0.2185412E+04  0.7818609E-02  0.8524524E-01
       -2   -1    0    0    0  501  0.00000000000E+00  0.00000000000E+00  0.11238205674E+04  0.11238205674E+04  0.25500000920E-02 0.  1.
        2   -1    0    0  501    0  0.00000000000E+00  0.00000000000E+00 -0.10624533470E+04  0.10624533470E+04  0.25500000920E-02 0. -1.
    10030    2    1    2    0    0  0.00000000000E+00  0.00000000000E+00  0.61367220415E+02  0.21862739144E+04  0.21854124766E+04 0.  0.
        4    1    3    3  502    0  0.71907087333E+03 -0.40977093518E+03  0.74442834362E+03  0.11131712860E+04  0.12699999809E+01 0.  1.
       -4    1    3    3    0  502 -0.71907087333E+03  0.40977093518E+03 -0.68306112320E+03  0.10731026284E+04  0.12699999809E+01 0. -1.
</event>
<event>
 5   0  0.3215208E-05  0.2437133E+04  0.7818609E-02  0.8425731E-01
       -2   -1    0    0    0  501  0.00000000000E+00  0.00000000000E+00  0.12247228666E+04  0.12247228666E+04  0.25500000920E-02 0.  1.
        2   -1    0    0  501    0  0.00000000000E+00  0.00000000000E+00 -0.12124409814E+04  0.12124409814E+04  0.25500000920E-02 0. -1.
    10030    2    1    2    0    0  0.00000000000E+00  0.00000000000E+00  0.12281885231E+02  0.24371638480E+04  0.24371329011E+04 0.  0.
        1    1    3    3  502    0 -0.12006413031E+04  0.18147538283E+03 -0.95994291179E+02  0.12180672220E+04  0.50400001928E-02 0. -1.
       -1    1    3    3    0  502  0.12006413031E+04 -0.18147538283E+03  0.10827617641E+03  0.12190966261E+04  0.50400001928E-02 0.  1.
</event>
<event>
 5   0  0.3347728E-05  0.2411716E+04  0.7818609E-02  0.8435130E-01
        2   -1    0    0  501    0  0.00000000000E+00  0.00000000000E+00  0.92371907976E+03  0.92371907976E+03  0.25500000920E-02 0.  1.
       -2   -1    0    0    0  501  0.00000000000E+00  0.00000000000E+00 -0.15741730575E+04  0.15741730575E+04  0.25500000920E-02 0. -1.
    10030    2    1    2    0    0  0.00000000000E+00  0.00000000000E+00 -0.65045397771E+03  0.24978921372E+04  0.24117161425E+04 0.  0.
        3    1    3    3  502    0 -0.17963825537E+02 -0.36670133615E+03  0.86442368352E+03  0.93915966896E+03  0.10100000352E+00 0.  1.
       -3    1    3    3    0  502  0.17963825537E+02  0.36670133615E+03 -0.15148776612E+04  0.15587324683E+04  0.10100000352E+00 0. -1.
</event>
<event>
 5   0  0.1434943E-05  0.2441501E+04  0.7818609E-02  0.8424128E-01
       -1   -1    0    0    0  501  0.00000000000E+00  0.00000000000E+00  0.99260222496E+03  0.99260222497E+03  0.50400001928E-02 0. -1.
        1   -1    0    0  501    0  0.00000000000E+00  0.00000000000E+00 -0.15013378246E+04  0.15013378246E+04  0.50400001928E-02 0.  1.
    10030    2    1    2    0    0  0.00000000000E+00  0.00000000000E+00 -0.50873559966E+03  0.24939400496E+04  0.24415005756E+04 0.  0.
        5    1    3    3  502    0 -0.61922210553E+03 -0.90242196341E+03  0.29799398568E+03  0.11342944598E+04  0.46999998093E+01 0. -1.
       -5    1    3    3    0  502  0.61922210553E+03  0.90242196341E+03 -0.80672958535E+03  0.13596455898E+04  0.46999998093E+01 0.  1.
</event>
<event>
 5   0  0.1393026E-05  0.2400488E+04  0.7818609E-02  0.8439321E-01
       -1   -1    0    0    0  501  0.00000000000E+00  0.00000000000E+00  0.58482989736E+03  0.58482989738E+03  0.50400001928E-02 0.  1.
        1   -1    0    0  501    0  0.00000000000E+00  0.00000000000E+00 -0.24632551700E+04  0.24632551700E+04  0.50400001928E-02 0. -1.
    10030    2    1    2    0    0  0.00000000000E+00  0.00000000000E+00 -0.18784252727E+04  0.30480850674E+04  0.24004876740E+04 0.  0.
        4    1    3    3  502    0  0.38466981779E+03 -0.27744727494E+03 -0.23392168509E+04  0.23868148121E+04  0.12699999809E+01 0. -1.
       -4    1    3    3    0  502 -0.38466981779E+03  0.27744727494E+03  0.46079157820E+03  0.66127025529E+03  0.12699999809E+01 0.  1.
</event>
<event>
 5   0  0.1434943E-05  0.2465258E+04  0.7818609E-02  0.8415468E-01
        1   -1    0    0  501    0  0.00000000000E+00  0.00000000000E+00  0.10750505798E+04  0.10750505798E+04  0.50400001928E-02 0.  1.
       -1   -1    0    0    0  501  0.00000000000E+00  0.00000000000E+00 -0.14133048553E+04  0.14133048554E+04  0.50400001928E-02 0. -1.
    10030    2    1    2    0    0  0.00000000000E+00  0.00000000000E+00 -0.33825427556E+03  0.24883554352E+04  0.24652579615E+04 0.  0.
        5    1    3    3  502    0 -0.36947054429E+02  0.34674441557E+03  0.10242167823E+04  0.10819606655E+04  0.46999998093E+01 0.  1.
       -5    1    3    3    0  502  0.36947054429E+02 -0.34674441557E+03 -0.13624710579E+04  0.14063947696E+04  0.46999998093E+01 0. -1.
</event>
<event>
 5   0  0.1407158E-05  0.2392288E+04  0.7818609E-02  0.8442397E-01
       -1   -1    0    0    0  501  0.00000000000E+00  0.00000000000E+00  0.13117509920E+04  0.13117509920E+04  0.50400001928E-02 0.  1.
        1   -1    0    0  501    0  0.00000000000E+00  0.00000000000E+00 -0.10907254509E+04  0.10907254509E+04  0.50400001928E-02 0. -1.
    10030    2    1    2    0    0  0.00000000000E+00  0.00000000000E+00  0.22102554106E+03  0.24024764429E+04  0.23922877689E+04 0.  0.
        1    1    3    3  502    0 -0.17374658801E+03 -0.37835452629E+02  0.12984033214E+04  0.13105230190E+04  0.50400001928E-02 0.  1.
       -1    1    3    3    0  502  0.17374658801E+03  0.37835452629E+02 -0.10773777804E+04  0.10919534239E+04  0.50400001928E-02 0. -1.
</event>
<event>
 5   0  0.3345974E-05  0.2451414E+04  0.7818609E-02  0.8420502E-01
       -2   -1    0    0    0  501  0.00000000000E+00  0.00000000000E+00  0.69192843974E+03  0.69192843975E+03  0.25500000920E-02 0. -1.
        2   -1    0    0  501    0  0.00000000000E+00  0.00000000000E+00 -0.21712612127E+04  0.21712612127E+04  0.25500000920E-02 0.  1.
    10030    2    1    2    0    0  0.00000000000E+00  0.00000000000E+00 -0.14793327729E+04  0.28631896524E+04  0.24514137824E+04 0.  0.
        4    1    3    3  502    0 -0.49279864443E+03 -0.10028682795E+04 -0.13280295659E+04  0.17355861923E+04  0.12699999809E+01 0.  1.
       -4    1    3    3    0  502  0.49279864443E+03  0.10028682795E+04 -0.15130320708E+03  0.11276034602E+04  0.12699999809E+01 0. -1.
</event>
<event>
 5   0  0.3215208E-05  0.2396924E+04  0.7818609E-02  0.8440656E-01
        2   -1    0    0  501    0  0.00000000000E+00  0.00000000000E+00  0.21752635004E+04  0.21752635004E+04  0.25500000920E-02 0.  1.
       -2   -1    0    0    0  501  0.00000000000E+00  0.00000000000E+00 -0.66029285907E+03  0.66029285907E+03  0.25500000920E-02 0. -1.
    10030    2    1    2    0    0  0.00000000000E+00  0.00000000000E+00  0.15149706413E+04  0.28355563594E+04  0.23969238251E+04 0.  0.
        1    1    3    3  502    0  0.12426401089E+03 -0.25254245448E+03 -0.62063980857E+03  0.68147854531E+03  0.50400001928E-02 0. -1.
       -1    1    3    3    0  502 -0.12426401089E+03  0.25254245448E+03  0.21356104499E+04  0.21540778141E+04  0.50400001928E-02 0.  1.
</event>
<event>
 5   0  0.3310037E-05  0.2402794E+04  0.7818609E-02  0.8438458E-01
        2   -1    0    0  501    0  0.00000000000E+00  0.00000000000E+00  0.99962703582E+03  0.99962703582E+03  0.25500000920E-02 0.  1.
       -2   -1    0    0    0  501  0.00000000000E+00  0.00000000000E+00 -0.14438933503E+04  0.14438933503E+04  0.25500000920E-02 0. -1.
    10030    2    1    2    0    0  0.00000000000E+00  0.00000000000E+00 -0.44426631447E+03  0.24435203861E+04  0.24027940651E+04 0.  0.
        2    1    3    3  502    0  0.77713454427E+03 -0.81585425720E+03  0.20182452003E+03  0.11446787347E+04  0.25500000920E-02 0.  1.
       -2    1    3    3    0  502 -0.77713454427E+03  0.81585425720E+03 -0.64609083449E+03  0.12988416514E+04  0.25500000920E-02 0. -1.
</event>
<event>
 5   0  0.1506985E-05  0.2386631E+04  0.7818609E-02  0.8444526E-01
        1   -1    0    0  501    0  0.00000000000E+00  0.00000000000E+00  0.84829610832E+03  0.84829610834E+03  0.50400001928E-02 0. -1.
       -1   -1    0    0    0  501  0.00000000000E+00  0.00000000000E+00 -0.16786615890E+04  0.16786615890E+04  0.50400001928E-02 0.  1.
    10030    2    1    2    0    0  0.00000000000E+00  0.00000000000E+00 -0.83036548070E+03  0.25269576974E+04  0.23866311765E+04 0.  0.
        3    1    3    3  502    0  0.10732933108E+04 -0.57124417034E+02  0.13374025201E+03  0.10831011934E+04  0.10100000352E+00 0. -1.
       -3    1    3    3    0  502 -0.10732933108E+04  0.57124417034E+02 -0.96410573271E+03  0.14438565040E+04  0.10100000352E+00 0.  1.
</event>
<event>
 5   0  0.3347728E-05  0.2387620E+04  0.7818609E-02  0.8444153E-01
        2   -1    0    0  501    0  0.00000000000E+00  0.00000000000E+00  0.12177000775E+04  0.12177000775E+04  0.25500000920E-02 0.  1.
       -2   -1    0    0    0  501  0.00000000000E+00  0.00000000000E+00 -0.11703888208E+04  0.11703888208E+04  0.25500000920E-02 0. -1.
    10030    2    1    2    0    0  0.00000000000E+00  0.00000000000E+00  0.47311256625E+02  0.23880888983E+04  0.23876202025E+04 0.  0.
        3    1    3    3  502    0  0.11905537397E+04  0.49470104271E+02 -0.49276785090E+02  0.11925995598E+04  0.10100000352E+00 0. -1.
       -3    1    3    3    0  502 -0.11905537397E+04 -0.49470104271E+02  0.96588041715E+02  0.11954893385E+04  0.10100000352E+00 0.  1.
</event>
<event>
 5   0  0.3320780E-05  0.2420437E+04  0.7818609E-02  0.8431892E-01
        2   -1    0    0  501    0  0.00000000000E+00  0.00000000000E+00  0.11635392001E+04  0.11635392001E+04  0.25500000920E-02 0. -1.
       -2   -1    0    0    0  501  0.00000000000E+00  0.00000000000E+00 -0.12587706681E+04  0.12587706681E+04  0.25500000920E-02 0.  1.
    10030    2    1    2    0    0  0.00000000000E+00  0.00000000000E+00 -0.95231468026E+02  0.24223098682E+04  0.24204371640E+04 0.  0.
        5    1    3    3  502    0 -0.72992090948E+03  0.89807189265E+03  0.30662036891E+03  0.11972283822E+04  0.46999998093E+01 0. -1.
       -5    1    3    3    0  502  0.72992090948E+03 -0.89807189265E+03 -0.40185183694E+03  0.12250814860E+04  0.46999998093E+01 0.  1.
</event>
<event>
 5   0  0.3215208E-05  0.2405070E+04  0.7818609E-02  0.8437608E-01
       -2   -1    0    0    0  501  0.00000000000E+00  0.00000000000E+00  0.87019876646E+03  0.87019876646E+03  0.25500000920E-02 0. -1.
        2   -1    0    0  501    0  0.00000000000E+00  0.00000000000E+00 -0.16617926744E+04  0.16617926744E+04  0.25500000920E-02 0.  1.
    10030    2    1    2    0    0  0.00000000000E+00  0.00000000000E+00 -0.79159390792E+03  0.25319914408E+04  0.24050695918E+04 0.  0.
        1    1    3    3  502    0 -0.62942570550E+03  0.96715666486E+03 -0.75206554405E+03  0.13773784214E+04  0.50400001928E-02 0.  1.
       -1    1    3    3    0  502  0.62942570550E+03 -0.96715666486E+03 -0.39528363878E+02  0.11546130195E+04  0.50400001928E-02 0. -1.
</event>
<event>
 5   0  0.1506985E-05  0.2408062E+04  0.7818609E-02  0.8436491E-01
       -1   -1    0    0    0  501  0.00000000000E+00  0.00000000000E+00  0.76342438074E+03  0.76342438076E+03  0.50400001928E-02 0.  1.
        1   -1    0    0  501    0  0.00000000000E+00  0.00000000000E+00 -0.18989323287E+04  0.18989323287E+04  0.50400001928E-02 0. -1.
    10030    2    1    2    0    0  0.00000000000E+00  0.00000000000E+00 -0.11355079480E+04  0.26623567095E+04  0.24080624885E+04 0.  0.
        3    1    3    3  502    0  0.41182231457E+03  0.66524137026E+03  0.44406593575E+03  0.89963229431E+03  0.10100000352E+00 0.  1.
       -3    1    3    3    0  502 -0.41182231457E+03 -0.66524137026E+03 -0.15795738838E+04  0.17627244152E+04  0.10100000352E+00 0. -1.
</event>
<event>
 5   0  0.1393026E-05  0.2567662E+04  0.7818609E-02  0.8379269E-01
       -1   -1    0    0    0  501  0.00000000000E+00  0.00000000000E+00  0.11186198523E+04  0.11186198523E+04  0.50400001928E-02 0. -1.
        1   -1    0    0  501    0  0.00000000000E+00  0.00000000000E+00 -0.14734423525E+04  0.14734423525E+04  0.50400001928E-02 0.  1.
    10030    2    1    2    0    0  0.00000000000E+00  0.00000000000E+00 -0.35482250015E+03  0.25920622048E+04  0.25676618677E+04 0.  0.
        4    1    3    3  502    0 -0.11827261430E+04 -0.56199052344E+02  0.32351056916E+03  0.12274608605E+04  0.12699999809E+01 0. -1.
       -4    1    3    3    0  502  0.11827261430E+04  0.56199052344E+02 -0.67833306931E+03  0.13646013442E+04  0.12699999809E+01 0.  1.
</event>
<event>
 5   0  0.1506985E-05  0.2470737E+04  0.7818609E-02  0.8413485E-01
       -1   -1    0    0    0  501  0.00000000000E+00  0.00000000000E+00  0.13330184235E+04  0.13330184235E+04  0.50400001928E-02 0.  1.
        1   -1    0    0  501    0  0.00000000000E+00  0.00000000000E+00 -0.11448721706E+04  0.11448721706E+04  0.50400001928E-02 0. -1.
    10030    2    1    2    0    0  0.00000000000E+00  0.00000000000E+00  0.18814625296E+03  0.24778905941E+04  0.24707372956E+04 0.  0.
        3    1    3    3  502    0  0.88468282178E+03 -0.72346348698E+03  0.56455025671E+03  0.12746686294E+04  0.10100000352E+00 0.  1.
       -3    1    3    3    0  502 -0.88468282178E+03  0.72346348698E+03 -0.37640400375E+03  0.12032219647E+04  0.10100000352E+00 0. -1.
</event>
<event>
 5   0  0.3345974E-05  0.2451778E+04  0.7818609E-02  0.8420369E-01
       -2   -1    0    0    0  501  0.00000000000E+00  0.00000000000E+00  0.14837060422E+04  0.14837060422E+04  0.25500000920E-02 0.  1.
        2   -1    0    0  501    0  0.00000000000E+00  0.00000000000E+00 -0.10128716526E+04  0.10128716526E+04  0.25500000920E-02 0. -1.
    10030    2    1    2    0    0  0.00000000000E+00  0.00000000000E+00  0.47083438956E+03  0.24965776947E+04  0.24517779597E+04 0.  0.
        4    1    3    3  502    0  0.33892198025E+03 -0.80062599525E+03 -0.64462704990E+03  0.10823196105E+04  0.12699999809E+01 0. -1.
       -4    1    3    3    0  502 -0.33892198025E+03  0.80062599525E+03  0.11154614395E+04  0.14142580842E+04  0.12699999809E+01 0.  1.
</event>
<event>
 5   0  0.3320780E-05  0.2403700E+04  0.7818609E-02  0.8438120E-01
       -2   -1    0    0    0  501  0.00000000000E+00  0.00000000000E+00  0.78739127804E+03  0.78739127805E+03  0.25500000920E-02 0.  1.
        2   -1    0    0  501    0  0.00000000000E+00  0.00000000000E+00 -0.18344676740E+04  0.18344676740E+04  0.25500000920E-02 0. -1.
    10030    2    1    2    0    0  0.00000000000E+00  0.00000000000E+00 -0.10470763959E+04  0.26218589520E+04  0.24037003527E+04 0.  0.
        5    1    3    3  502    0 -0.22534783290E+03 -0.51129234795E+03 -0.16841699704E+04  0.17744441637E+04  0.46999998093E+01 0. -1.
       -5    1    3    3    0  502  0.22534783290E+03  0.51129234795E+03  0.63709357446E+03  0.84741478834E+03  0.46999998093E+01 0.  1.
</event>
<event>
 5   0  0.3310037E-05  0.2420070E+04  0.7818609E-02  0.8432028E-01
       -2   -1    0    0    0  501  0.00000000000E+00  0.00000000000E+00  0.13458948055E+04  0.13458948055E+04  0.25500000920E-02 0. -1.
        2   -1    0    0  501    0  0.00000000000E+00  0.00000000000E+00 -0.10878895388E+04  0.10878895388E+04  0.25500000920E-02 0.  1.
    10030    2    1    2    0    0  0.00000000000E+00  0.00000000000E+00  0.25800526673E+03  0.24337843443E+04  0.24200701471E+04 0.  0.
        2    1    3    3  502    0  0.56882009506E+03  0.10571367314E+04  0.28181936216E+03  0.12330922603E+04  0.25500000920E-02 0. -1.
       -2    1    3    3    0  502 -0.56882009506E+03 -0.10571367314E+04 -0.23814095427E+02  0.12006920840E+04  0.25500000920E-02 0.  1.
</event>
<event>
 5   0  0.3347728E-05  0.2397423E+04  0.7818609E-02  0.8440469E-01
       -2   -1    0    0    0  501  0.00000000000E+00  0.00000000000E+00  0.14631903454E+04  0.14631903454E+04  0.25500000920E-02 0. -1.
        2   -1    0    0  501    0  0.00000000000E+00  0.00000000000E+00 -0.98203853239E+03  0.98203853240E+03  0.25500000920E-02 0.  1.
    10030    2    1    2    0    0  0.00000000000E+00  0.00000000000E+00  0.48115181303E+03  0.24452288778E+04  0.23974230327E+04 0.  0.
        3    1    3    3  502    0  0.69205664090E+03 -0.95467722942E+03  0.20499584671E+02  0.11793096496E+04  0.10100000352E+00 0.  1.
       -3    1    3    3    0  502 -0.69205664090E+03  0.95467722942E+03  0.46065222836E+03  0.12659192282E+04  0.10100000352E+00 0. -1.
</event>
<event>
 5   0  0.3310037E-05  0.2408506E+04  0.7818609E-02  0.8436326E-01
       -2   -1    0    0    0  501  0.00000000000E+00  0.00000000000E+00  0.95589344296E+03  0.95589344296E+03  0.25500000920E-02 0.  1.
        2   -1    0    0  501    0  0.00000000000E+00  0.00000000000E+00 -0.15171417807E+04  0.15171417807E+04  0.25500000920E-02 0. -1.
    10030    2    1    2    0    0  0.00000000000E+00  0.00000000000E+00 -0.56124833771E+03  0.24730352236E+04  0.24085064917E+04 0.  0.
        2    1    3    3  502    0 -0.32838863928E+03 -0.11317598682E+04 -0.53527351984E+03  0.12943095606E+04  0.25500000920E-02 0. -1.
       -2    1    3    3    0  502  0.32838863928E+03  0.11317598682E+04 -0.25974817870E+02  0.11787256631E+04  0.25500000920E-02 0.  1.
</event>
<event>
 5   0  0.3347728E-05  0.2393308E+04  0.7818609E-02  0.8442013E-01
       -2   -1    0    0    0  501  0.00000000000E+00  0.00000000000E+00  0.57169859167E+03  0.57169859168E+03  0.25500000920E-02 0. -1.
        2   -1    0    0  501    0  0.00000000000E+00  0.00000000000E+00 -0.25047829585E+04  0.25047829585E+04  0.25500000920E-02 0.  1.
    10030    2    1    2    0    0  0.00000000000E+00  0.00000000000E+00 -0.19330843668E+04  0.30764815501E+04  0.23933080786E+04 0.  0.
        3    1    3    3  502    0 -0.16307480702E+03 -0.78080073246E+03 -0.21132180603E+04  0.22587460585E+04  0.10100000352E+00 0.  1.
       -3    1    3    3    0  502  0.16307480702E+03  0.78080073246E+03  0.18013369348E+03  0.81773549160E+03  0.10100000352E+00 0. -1.
</event>
<event>
 5   0  0.3347728E-05  0.2284764E+04  0.7818609E-02  0.8483953E-01
       -2   -1    0    0    0  501  0.00000000000E+00  0.00000000000E+00  0.95854644218E+03  0.95854644218E+03  0.25500000920E-02 0. -1.
        2   -1    0    0  501    0  0.00000000000E+00  0.00000000000E+00 -0.13614743149E+04  0.13614743149E+04  0.25500000920E-02 0.  1.
    10030    2    1    2    0    0  0.00000000000E+00  0.00000000000E+00 -0.40292787270E+03  0.23200207571E+04  0.22847637608E+04 0.  0.
        3    1    3    3  502    0 -0.22516067212E+03 -0.43417800123E+03 -0.12497848028E+04  0.13420767223E+04  0.10100000352E+00 0.  1.
       -3    1    3    3    0  502  0.22516067212E+03  0.43417800123E+03  0.84685693006E+03  0.97794403481E+03  0.10100000352E+00 0. -1.
</event>
<event>
 5   0  0.3345974E-05  0.2501254E+04  0.7818609E-02  0.8402539E-01
        2   -1    0    0  501    0  0.00000000000E+00  0.00000000000E+00  0.13664645630E+04  0.13664645630E+04  0.25500000920E-02 0.  1.
       -2   -1    0    0    0  501  0.00000000000E+00  0.00000000000E+00 -0.11446096365E+04  0.11446096365E+04  0.25500000920E-02 0. -1.
    10030    2    1    2    0    0  0.00000000000E+00  0.00000000000E+00  0.22185492649E+03  0.25110741996E+04  0.25012544907E+04 0.  0.
        4    1    3    3  502    0 -0.99200374668E+03  0.73813380129E+03  0.29915741954E+03  0.12721673304E+04  0.12699999809E+01 0. -1.
       -4    1    3    3    0  502  0.99200374668E+03 -0.73813380129E+03 -0.77302493057E+02  0.12389068691E+04  0.12699999809E+01 0.  1.
</event>
<event>
 5   0  0.1434943E-05  0.2407620E+04  0.7818609E-02  0.8436656E-01
        1   -1    0    0  501    0  0.00000000000E+00  0.00000000000E+00  0.19113036365E+04  0.19113036365E+04  0.50400001928E-02 0. -1.
       -1   -1    0    0    0  501  0.00000000000E+00  0.00000000000E+00 -0.75820408028E+03  0.75820408030E+03  0.50400001928E-02 0.  1.
    10030    2    1    2    0    0  0.00000000000E+00  0.00000000000E+00  0.11530995562E+04  0.26695077168E+04  0.24076197506E+04 0.  0.
        5    1    3    3  502    0 -0.28255929048E+03  0.24999170972E+03  0.18440496739E+04  0.18822531438E+04  0.46999998093E+01 0. -1.
       -5    1    3    3    0  502  0.28255929048E+03 -0.24999170972E+03 -0.69095011768E+03  0.78725457299E+03  0.46999998093E+01 0.  1.
</event>
<event>
 5   0  0.1401596E-05  0.2411196E+04  0.7818609E-02  0.8435324E-01
       -1   -1    0    0    0  501  0.00000000000E+00  0.00000000000E+00  0.11199229711E+04  0.11199229711E+04  0.50400001928E-02 0. -1.
        1   -1    0    0  501    0  0.00000000000E+00  0.00000000000E+00 -0.12978268633E+04  0.12978268633E+04  0.50400001928E-02 0.  1.
    10030    2    1    2    0    0  0.00000000000E+00  0.00000000000E+00 -0.17790389224E+03  0.24177498345E+04  0.24111956509E+04 0.  0.
        2    1    3    3  502    0  0.11813424059E+04  0.36771676005E+02 -0.32738830671E+03  0.12264196425E+04  0.25500000920E-02 0. -1.
       -2    1    3    3    0  502 -0.11813424059E+04 -0.36771676005E+02  0.14948441447E+03  0.11913301920E+04  0.25500000920E-02 0.  1.
</event>
<event>
 5   0  0.1401596E-05  0.2404844E+04  0.7818609E-02  0.8437692E-01
       -1   -1    0    0    0  501  0.00000000000E+00  0.00000000000E+00  0.86535797262E+03  0.86535797263E+03  0.50400001928E-02 0. -1.
        1   -1    0    0  501    0  0.00000000000E+00  0.00000000000E+00 -0.16707754244E+04  0.16707754244E+04  0.50400001928E-02 0.  1.
    10030    2    1    2    0    0  0.00000000000E+00  0.00000000000E+00 -0.80541745174E+03  0.25361333970E+04  0.24048441396E+04 0.  0.
        2    1    3    3  502    0  0.32463927022E+02  0.10956187878E+04  0.11863229462E+03  0.11025008191E+04  0.25500000920E-02 0. -1.
       -2    1    3    3    0  502 -0.32463927022E+02 -0.10956187878E+04 -0.92404974636E+03  0.14336325779E+04  0.25500000920E-02 0.  1.
</event>
<event>
 5   0  0.1506985E-05  0.2034140E+04  0.7818609E-02  0.8590823E-01
       -1   -1    0    0    0  501  0.00000000000E+00  0.00000000000E+00  0.78355716346E+03  0.78355716347E+03  0.50400001928E-02 0. -1.
        1   -1    0    0  501    0  0.00000000000E+00  0.00000000000E+00 -0.13201734146E+04  0.13201734147E+04  0.50400001928E-02 0.  1.
    10030    2    1    2    0    0  0.00000000000E+00  0.00000000000E+00 -0.53661625119E+03  0.21037305781E+04  0.20341399520E+04 0.  0.
        3    1    3    3  502    0  0.91299721723E+03 -0.37312721618E+03 -0.11533034913E+02  0.98636750718E+03  0.10100000352E+00 0. -1.
       -3    1    3    3    0  502 -0.91299721723E+03  0.37312721618E+03 -0.52508321627E+03  0.11173630710E+04  0.10100000352E+00 0.  1.
</event>
<event>
 5   0  0.3215208E-05  0.2403712E+04  0.7818609E-02  0.8438115E-01
        2   -1    0    0  501    0  0.00000000000E+00  0.00000000000E+00  0.14611005517E+04  0.14611005517E+04  0.25500000920E-02 0. -1.
       -2   -1    0    0    0  501  0.00000000000E+00  0.00000000000E+00 -0.98860921737E+03  0.98860921738E+03  0.25500000920E-02 0.  1.
    10030    2    1    2    0    0  0.00000000000E+00  0.00000000000E+00  0.47249133434E+03  0.24497097691E+04  0.24037116906E+04 0.  0.
        1    1    3    3  502    0 -0.65901903519E+03  0.77861971472E+03  0.88394082381E+03  0.13497800298E+04  0.50400001928E-02 0. -1.
       -1    1    3    3    0  502  0.65901903519E+03 -0.77861971472E+03 -0.41144948948E+03  0.10999297393E+04  0.50400001928E-02 0.  1.
</event>
<event>
 5   0  0.1506985E-05  0.2405837E+04  0.7818609E-02  0.8437321E-01
       -1   -1    0    0    0  501  0.00000000000E+00  0.00000000000E+00  0.13266874929E+04  0.13266874929E+04  0.50400001928E-02 0.  1.
        1   -1    0    0  501    0  0.00000000000E+00  0.00000000000E+00 -0.10906964230E+04  0.10906964230E+04  0.50400001928E-02 0. -1.
    10030    2    1    2    0    0  0.00000000000E+00  0.00000000000E+00  0.23599106991E+03  0.24173839160E+04  0.24058373204E+04 0.  0.
        3    1    3    3  502    0  0.91363315947E+03  0.39052186358E+02  0.90325939943E+03  0.12853513824E+04  0.10100000352E+00 0.  1.
       -3    1    3    3    0  502 -0.91363315947E+03 -0.39052186358E+02 -0.66726832952E+03  0.11320325336E+04  0.10100000352E+00 0. -1.
</event>
<event>
 5   0  0.3347728E-05  0.2409850E+04  0.7818609E-02  0.8435825E-01
       -2   -1    0    0    0  501  0.00000000000E+00  0.00000000000E+00  0.72973787737E+03  0.72973787737E+03  0.25500000920E-02 0.  1.
        2   -1    0    0  501    0  0.00000000000E+00  0.00000000000E+00 -0.19895416921E+04  0.19895416921E+04  0.25500000920E-02 0. -1.
    10030    2    1    2    0    0  0.00000000000E+00  0.00000000000E+00 -0.12598038147E+04  0.27192795695E+04  0.24098497308E+04 0.  0.
        3    1    3    3  502    0  0.74228720463E+03  0.93024089351E+03 -0.84252564908E+03  0.14581453610E+04  0.10100000352E+00 0. -1.
       -3    1    3    3    0  502 -0.74228720463E+03 -0.93024089351E+03 -0.41727816562E+03  0.12611342085E+04  0.10100000352E+00 0.  1.
</event>
<event>
 5   0  0.1407158E-05  0.2420074E+04  0.7818609E-02  0.8432026E-01
        1   -1    0    0  501    0  0.00000000000E+00  0.00000000000E+00  0.11975556057E+04  0.11975556057E+04  0.50400001928E-02 0. -1.
       -1   -1    0    0    0  501  0.00000000000E+00  0.00000000000E+00 -0.12226486892E+04  0.12226486892E+04  0.50400001928E-02 0.  1.
    10030    2    1    2    0    0  0.00000000000E+00  0.00000000000E+00 -0.25093083554E+02  0.24202042949E+04  0.24200742068E+04 0.  0.
        1    1    3    3  502    0 -0.53425514189E+03  0.61027176546E+03 -0.91055338812E+03  0.12194128329E+04  0.50400001928E-02 0.  1.
       -1    1    3    3    0  502  0.53425514189E+03 -0.61027176546E+03  0.88546030456E+03  0.12007914621E+04  0.50400001928E-02 0. -1.
</event>
<event>
 5   0  0.3345974E-05  0.2398738E+04  0.7818609E-02  0.8439976E-01
       -2   -1    0    0    0  501  0.00000000000E+00  0.00000000000E+00  0.56351516373E+03  0.56351516374E+03  0.25500000920E-02 0.  1.
        2   -1    0    0  501    0  0.00000000000E+00  0.00000000000E+00 -0.25527005805E+04  0.25527005805E+04  0.25500000920E-02 0. -1.
    10030    2    1    2    0    0  0.00000000000E+00  0.00000000000E+00 -0.19891854168E+04  0.31162157442E+04  0.23987375726E+04 0.  0.
        4    1    3    3  502    0 -0.96765243331E+03 -0.68953107780E+03 -0.12067870982E+04  0.16935586946E+04  0.12699999809E+01 0. -1.
       -4    1    3    3    0  502  0.96765243331E+03  0.68953107780E+03 -0.78239831858E+03  0.14226570496E+04  0.12699999809E+01 0.  1.
</event>
<event>
 5   0  0.3345974E-05  0.2409456E+04  0.7818609E-02  0.8435972E-01
        2   -1    0    0  501    0  0.00000000000E+00  0.00000000000E+00  0.13151353890E+04  0.13151353890E+04  0.25500000920E-02 0.  1.
       -2   -1    0    0    0  501  0.00000000000E+00  0.00000000000E+00 -0.11035898554E+04  0.11035898554E+04  0.25500000920E-02 0. -1.
    10030    2    1    2    0    0  0.00000000000E+00  0.00000000000E+00  0.21154553364E+03  0.24187252444E+04  0.24094564315E+04 0.  0.
        4    1    3    3  502    0  0.37930089091E+02 -0.93764436932E+03 -0.65261529400E+03  0.11430328035E+04  0.12699999809E+01 0. -1.
       -4    1    3    3    0  502 -0.37930089091E+02  0.93764436932E+03  0.86416082764E+03  0.12756924409E+04  0.12699999809E+01 0.  1.
</event>
<event>
 5   0  0.1434943E-05  0.2379777E+04  0.7818609E-02  0.8447114E-01
       -1   -1    0    0    0  501  0.00000000000E+00  0.00000000000E+00  0.97033949639E+03  0.97033949641E+03  0.50400001928E-02 0. -1.
        1   -1    0    0  501    0  0.00000000000E+00  0.00000000000E+00 -0.14591120473E+04  0.14591120473E+04  0.50400001928E-02 0.  1.
    10030    2    1    2    0    0  0.00000000000E+00  0.00000000000E+00 -0.48877255087E+03  0.24294515437E+04  0.23797765014E+04 0.  0.
        5    1    3    3  502    0  0.18102620822E+03  0.51867361508E+03 -0.13218890523E+04  0.14315046503E+04  0.46999998093E+01 0.  1.
       -5    1    3    3    0  502 -0.18102620822E+03 -0.51867361508E+03  0.83311650147E+03  0.99794689341E+03  0.46999998093E+01 0. -1.
</event>
<event>
 5   0  0.1506985E-05  0.2394827E+04  0.7818609E-02  0.8441443E-01
        1   -1    0    0  501    0  0.00000000000E+00  0.00000000000E+00  0.13968577953E+04  0.13968577954E+04  0.50400001928E-02 0. -1.
       -1   -1    0    0    0  501  0.00000000000E+00  0.00000000000E+00 -0.10264462388E+04  0.10264462388E+04  0.50400001928E-02 0.  1.
    10030    2    1    2    0    0  0.00000000000E+00  0.00000000000E+00  0.37041155656E+03  0.24233040341E+04  0.23948272841E+04 0.  0.
        3    1    3    3  502    0  0.35144499629E+03  0.70387795471E+03  0.10986253652E+04  0.13512717950E+04  0.10100000352E+00 0. -1.
       -3    1    3    3    0  502 -0.35144499629E+03 -0.70387795471E+03 -0.72821380866E+03  0.10720322392E+04  0.10100000352E+00 0.  1.
</event>
<event>
 5   0  0.1401596E-05  0.2364388E+04  0.7818609E-02  0.8452958E-01
       -1   -1    0    0    0  501  0.00000000000E+00  0.00000000000E+00  0.69040547328E+03  0.69040547330E+03  0.50400001928E-02 0. -1.
        1   -1    0    0  501    0  0.00000000000E+00  0.00000000000E+00 -0.20242926724E+04  0.20242926724E+04  0.50400001928E-02 0.  1.
    10030    2    1    2    0    0  0.00000000000E+00  0.00000000000E+00 -0.13338871991E+04  0.27146981457E+04  0.23643880735E+04 0.  0.
        2    1    3    3  502    0  0.76837982859E+03  0.37452308131E+03  0.27069533559E+03  0.89663318259E+03  0.25500000920E-02 0. -1.
       -2    1    3    3    0  502 -0.76837982859E+03 -0.37452308131E+03 -0.16045825347E+04  0.18180649631E+04  0.25500000920E-02 0.  1.
</event>
<event>
 5   0  0.3345974E-05  0.2403800E+04  0.7818609E-02  0.8438082E-01
       -2   -1    0    0    0  501  0.00000000000E+00  0.00000000000E+00  0.82642866156E+03  0.82642866156E+03  0.25500000920E-02 0.  1.
        2   -1    0    0  501    0  0.00000000000E+00  0.00000000000E+00 -0.17479597568E+04  0.17479597568E+04  0.25500000920E-02 0. -1.
    10030    2    1    2    0    0  0.00000000000E+00  0.00000000000E+00 -0.92153109521E+03  0.25743884183E+04  0.24038003596E+04 0.  0.
        4    1    3    3  502    0  0.78125000670E+03 -0.82906010522E+03 -0.87119877985E+03  0.14341133700E+04  0.12699999809E+01 0. -1.
       -4    1    3    3    0  502 -0.78125000670E+03  0.82906010522E+03 -0.50332315363E+02  0.11402750484E+04  0.12699999809E+01 0.  1.
</event>
<event>
 5   0  0.1506985E-05  0.2436537E+04  0.7818609E-02  0.8425950E-01
       -1   -1    0    0    0  501  0.00000000000E+00  0.00000000000E+00  0.87332292008E+03  0.87332292010E+03  0.50400001928E-02 0.  1.
        1   -1    0    0  501    0  0.00000000000E+00  0.00000000000E+00 -0.16994603710E+04  0.16994603710E+04  0.50400001928E-02 0. -1.
    10030    2    1    2    0    0  0.00000000000E+00  0.00000000000E+00 -0.82613745088E+03  0.25727832911E+04  0.24365366353E+04 0.  0.
        3    1    3    3  502    0 -0.47373612814E+03 -0.70987218568E+02  0.76970695672E+03  0.90659467996E+03  0.10100000352E+00 0.  1.
       -3    1    3    3    0  502  0.47373612814E+03  0.70987218568E+02 -0.15958444076E+04  0.16661886111E+04  0.10100000352E+00 0. -1.
</event>
<event>
 5   0  0.3310037E-05  0.2402324E+04  0.7818609E-02  0.8438634E-01
       -2   -1    0    0    0  501  0.00000000000E+00  0.00000000000E+00  0.88213906012E+03  0.88213906012E+03  0.25500000920E-02 0.  1.
        2   -1    0    0  501    0  0.00000000000E+00  0.00000000000E+00 -0.16355586824E+04  0.16355586824E+04  0.25500000920E-02 0. -1.
    10030    2    1    2    0    0  0.00000000000E+00  0.00000000000E+00 -0.75341962233E+03  0.25176977426E+04  0.24023240405E+04 0.  0.
        2    1    3    3  502    0  0.11697674852E+04  0.19807017714E+03 -0.57334369249E+03  0.13176914488E+04  0.25500000920E-02 0.  1.
       -2    1    3    3    0  502 -0.11697674852E+04 -0.19807017714E+03 -0.18007592984E+03  0.12000062938E+04  0.25500000920E-02 0. -1.
</event>
<event>
 5   0  0.3345974E-05  0.2303517E+04  0.7818609E-02  0.8476536E-01
       -2   -1    0    0    0  501  0.00000000000E+00  0.00000000000E+00  0.95481757172E+03  0.95481757172E+03  0.25500000920E-02 0.  1.
        2   -1    0    0  501    0  0.00000000000E+00  0.00000000000E+00 -0.13893210106E+04  0.13893210106E+04  0.25500000920E-02 0. -1.
    10030    2    1    2    0    0  0.00000000000E+00  0.00000000000E+00 -0.43450343886E+03  0.23441385823E+04  0.23035174092E+04 0.  0.
        4    1    3    3  502    0  0.79278314553E+03 -0.77806238288E+03  0.92517788784E+02  0.11146512197E+04  0.12699999809E+01 0.  1.
       -4    1    3    3    0  502 -0.79278314553E+03  0.77806238288E+03 -0.52702122764E+03  0.12294873626E+04  0.12699999809E+01 0. -1.
</event>
<event>
 5   0  0.1434943E-05  0.2301027E+04  0.7818609E-02  0.8477516E-01
       -1   -1    0    0    0  501  0.00000000000E+00  0.00000000000E+00  0.10536560063E+04  0.10536560064E+04  0.50400001928E-02 0.  1.
        1   -1    0    0  501    0  0.00000000000E+00  0.00000000000E+00 -0.12562745612E+04  0.12562745613E+04  0.50400001928E-02 0. -1.
    10030    2    1    2    0    0  0.00000000000E+00  0.00000000000E+00 -0.20261855490E+03  0.23099305676E+04  0.23010269334E+04 0.  0.
        5    1    3    3  502    0  0.13861124472E+03  0.76032165323E+03  0.75425433003E+03  0.10799184126E+04  0.46999998093E+01 0.  1.
       -5    1    3    3    0  502 -0.13861124472E+03 -0.76032165323E+03 -0.95687288493E+03  0.12300121550E+04  0.46999998093E+01 0. -1.
</event>
<event>
 5   0  0.1401596E-05  0.2392225E+04  0.7818609E-02  0.8442420E-01
        1   -1    0    0  501    0  0.00000000000E+00  0.00000000000E+00  0.57591041056E+03  0.57591041058E+03  0.50400001928E-02 0.  1.
       -1   -1    0    0    0  501  0.00000000000E+00  0.00000000000E+00 -0.24842149633E+04  0.24842149633E+04  0.50400001928E-02 0. -1.
    10030    2    1    2    0    0  0.00000000000E+00  0.00000000000E+00 -0.19083045527E+04  0.30601253739E+04  0.23922251227E+04 0.  0.
        2    1    3    3  502    0 -0.90161708091E+03  0.37891792220E+03 -0.73276248262E+02  0.98074541086E+03  0.25500000920E-02 0.  1.
       -2    1    3    3    0  502  0.90161708091E+03 -0.37891792220E+03 -0.18350283045E+04  0.20793799630E+04  0.25500000920E-02 0. -1.
</event>
<event>
 5   0  0.3310037E-05  0.2398512E+04  0.7818609E-02  0.8440061E-01
        2   -1    0    0  501    0  0.00000000000E+00  0.00000000000E+00  0.11766160029E+04  0.11766160029E+04  0.25500000920E-02 0. -1.
       -2   -1    0    0    0  501  0.00000000000E+00  0.00000000000E+00 -0.12223317473E+04  0.12223317473E+04  0.25500000920E-02 0.  1.
    10030    2    1    2    0    0  0.00000000000E+00  0.00000000000E+00 -0.45715744396E+02  0.23989477502E+04  0.23985121177E+04 0.  0.
        2    1    3    3  502    0 -0.45124408269E+03  0.54232977706E+03 -0.99281351303E+03  0.12179579143E+04  0.25500000920E-02 0.  1.
       -2    1    3    3    0  502  0.45124408269E+03 -0.54232977706E+03  0.94709776863E+03  0.11809898359E+04  0.25500000920E-02 0. -1.
</event>
<event>
 5   0  0.3347728E-05  0.2308677E+04  0.7818609E-02  0.8474508E-01
        2   -1    0    0  501    0  0.00000000000E+00  0.00000000000E+00  0.97020758841E+03  0.97020758841E+03  0.25500000920E-02 0.  1.
       -2   -1    0    0    0  501  0.00000000000E+00  0.00000000000E+00 -0.13734146663E+04  0.13734146663E+04  0.25500000920E-02 0. -1.
    10030    2    1    2    0    0  0.00000000000E+00  0.00000000000E+00 -0.40320707787E+03  0.23436222547E+04  0.23086769642E+04 0.  0.
        3    1    3    3  502    0 -0.72148080391E+03 -0.42912319314E+03 -0.10059453651E+04  0.13101936319E+04  0.10100000352E+00 0. -1.
       -3    1    3    3    0  502  0.72148080391E+03  0.42912319314E+03  0.60273828723E+03  0.10334286228E+04  0.10100000352E+00 0.  1.
</event>
<event>
 5   0  0.3320780E-05  0.2409020E+04  0.7818609E-02  0.8436134E-01
        2   -1    0    0  501    0  0.00000000000E+00  0.00000000000E+00  0.19611279237E+04  0.19611279238E+04  0.25500000920E-02 0.  1.
       -2   -1    0    0    0  501  0.00000000000E+00  0.00000000000E+00 -0.73980125488E+03  0.73980125488E+03  0.25500000920E-02 0. -1.
    10030    2    1    2    0    0  0.00000000000E+00  0.00000000000E+00  0.12213266689E+04  0.27009291786E+04  0.24090204640E+04 0.  0.
        5    1    3    3  502    0  0.12169725861E+03  0.11765800869E+04  0.35580440105E+03  0.12352205412E+04  0.46999998093E+01 0.  1.
       -5    1    3    3    0  502 -0.12169725861E+03 -0.11765800869E+04  0.86552226782E+03  0.14657086374E+04  0.46999998093E+01 0. -1.
</event>
<event>
 5   0  0.1401596E-05  0.2292736E+04  0.7818609E-02  0.8480791E-01
       -1   -1    0    0    0  501  0.00000000000E+00  0.00000000000E+00  0.10337899144E+04  0.10337899144E+04  0.50400001928E-02 0.  1.
        1   -1    0    0  501    0  0.00000000000E+00  0.00000000000E+00 -0.12712053086E+04  0.12712053086E+04  0.50400001928E-02 0. -1.
    10030    2    1    2    0    0  0.00000000000E+00  0.00000000000E+00 -0.23741539412E+03  0.23049952230E+04  0.22927356823E+04 0.  0.
        2    1    3    3  502    0  0.44188030542E+03 -0.19245504129E+03  0.92697997737E+03  0.10447913790E+04  0.25500000920E-02 0.  1.
       -2    1    3    3    0  502 -0.44188030542E+03  0.19245504129E+03 -0.11643953715E+04  0.12602038440E+04  0.25500000920E-02 0. -1.
</event>
<event>
 5   0  0.3310037E-05  0.2414390E+04  0.7818609E-02  0.8434136E-01
       -2   -1    0    0    0  501  0.00000000000E+00  0.00000000000E+00  0.17182438925E+04  0.17182438925E+04  0.25500000920E-02 0. -1.
        2   -1    0    0  501    0  0.00000000000E+00  0.00000000000E+00 -0.84814490533E+03  0.84814490533E+03  0.25500000920E-02 0.  1.
    10030    2    1    2    0    0  0.00000000000E+00  0.00000000000E+00  0.87009898721E+03  0.25663887979E+04  0.24143900295E+04 0.  0.
        2    1    3    3  502    0 -0.34970643843E+03  0.27345484151E+03 -0.75823218296E+03  0.87862858292E+03  0.25500000920E-02 0.  1.
       -2    1    3    3    0  502  0.34970643843E+03 -0.27345484151E+03  0.16283311702E+04  0.16877602150E+04  0.25500000920E-02 0. -1.
</event>
<event>
 5   0  0.1401596E-05  0.2114296E+04  0.7818609E-02  0.8554972E-01
        1   -1    0    0  501    0  0.00000000000E+00  0.00000000000E+00  0.85038687411E+03  0.85038687412E+03  0.50400001928E-02 0.  1.
       -1   -1    0    0    0  501  0.00000000000E+00  0.00000000000E+00 -0.13141808676E+04  0.13141808676E+04  0.50400001928E-02 0. -1.
    10030    2    1    2    0    0  0.00000000000E+00  0.00000000000E+00 -0.46379399351E+03  0.21645677417E+04  0.21142962518E+04 0.  0.
        2    1    3    3  502    0  0.68137769811E+03  0.70158190257E+03 -0.64277406034E+03  0.11703209928E+04  0.25500000920E-02 0. -1.
       -2    1    3    3    0  502 -0.68137769811E+03 -0.70158190257E+03  0.17898006683E+03  0.99424674896E+03  0.25500000920E-02 0.  1.
</event>
<event>
 5   0  0.3320780E-05  0.2427820E+04  0.7818609E-02  0.8429161E-01
       -2   -1    0    0    0  501  0.00000000000E+00  0.00000000000E+00  0.86007372537E+03  0.86007372537E+03  0.25500000920E-02 0. -1.
        2   -1    0    0  501    0  0.00000000000E+00  0.00000000000E+00 -0.17133147931E+04  0.17133147931E+04  0.25500000920E-02 0.  1.
    10030    2    1    2    0    0  0.00000000000E+00  0.00000000000E+00 -0.85324106777E+03  0.25733885185E+04  0.24278196283E+04 0.  0.
        5    1    3    3  502    0 -0.50868088005E+03  0.77746911112E+03  0.40146468348E+03  0.10121316310E+04  0.46999998093E+01 0. -1.
       -5    1    3    3    0  502  0.50868088005E+03 -0.77746911112E+03 -0.12547057512E+04  0.15612568875E+04  0.46999998093E+01 0.  1.
</event>
<event>
 5   0  0.1407158E-05  0.2399588E+04  0.7818609E-02  0.8439658E-01
        1   -1    0    0  501    0  0.00000000000E+00  0.00000000000E+00  0.17319516811E+04  0.17319516811E+04  0.50400001928E-02 0.  1.
       -1   -1    0    0    0  501  0.00000000000E+00  0.00000000000E+00 -0.83114659842E+03  0.83114659844E+03  0.50400001928E-02 0. -1.
    10030    2    1    2    0    0  0.00000000000E+00  0.00000000000E+00  0.90080508272E+03  0.25630982796E+04  0.23995880884E+04 0.  0.
        1    1    3    3  502    0  0.39341532650E+03  0.29054181227E+03 -0.71984108419E+03  0.87026510347E+03  0.50400001928E-02 0. -1.
       -1    1    3    3    0  502 -0.39341532650E+03 -0.29054181227E+03  0.16206461669E+04  0.16928331761E+04  0.50400001928E-02 0.  1.
</event>
<event>
 5   0  0.1401596E-05  0.2378078E+04  0.7818609E-02  0.8447757E-01
       -1   -1    0    0    0  501  0.00000000000E+00  0.00000000000E+00  0.86956163451E+03  0.86956163452E+03  0.50400001928E-02 0. -1.
        1   -1    0    0  501    0  0.00000000000E+00  0.00000000000E+00 -0.16258919503E+04  0.16258919503E+04  0.50400001928E-02 0.  1.
    10030    2    1    2    0    0  0.00000000000E+00  0.00000000000E+00 -0.75633031582E+03  0.24954535849E+04  0.23780775949E+04 0.  0.
        2    1    3    3  502    0 -0.50617224557E+03 -0.43677675816E+03 -0.14099717679E+04  0.15604501482E+04  0.25500000920E-02 0.  1.
       -2    1    3    3    0  502  0.50617224557E+03  0.43677675816E+03  0.65364145210E+03  0.93500343666E+03  0.25500000920E-02 0. -1.
</event>
<event>
 5   0  0.1407158E-05  0.2398216E+04  0.7818609E-02  0.8440172E-01
       -1   -1    0    0    0  501  0.00000000000E+00  0.00000000000E+00  0.11327198091E+04  0.11327198091E+04  0.50400001928E-02 0.  1.
        1   -1    0    0  501    0  0.00000000000E+00  0.00000000000E+00 -0.12693869428E+04  0.12693869428E+04  0.50400001928E-02 0. -1.
    10030    2    1    2    0    0  0.00000000000E+00  0.00000000000E+00 -0.13666713373E+03  0.24021067519E+04  0.23982157830E+04 0.  0.
        1    1    3    3  502    0 -0.78263675093E+02  0.16178448741E+03 -0.12558203649E+04  0.12686150765E+04  0.50400001928E-02 0. -1.
       -1    1    3    3    0  502  0.78263675093E+02 -0.16178448741E+03  0.11191532312E+04  0.11334916754E+04  0.50400001928E-02 0.  1.
</event>
<event>
 5   0  0.3320780E-05  0.2404784E+04  0.7818609E-02  0.8437715E-01
        2   -1    0    0  501    0  0.00000000000E+00  0.00000000000E+00  0.70720560860E+03  0.70720560860E+03  0.25500000920E-02 0.  1.
       -2   -1    0    0    0  501  0.00000000000E+00  0.00000000000E+00 -0.20443089993E+04  0.20443089993E+04  0.25500000920E-02 0. -1.
    10030    2    1    2    0    0  0.00000000000E+00  0.00000000000E+00 -0.13371033907E+04  0.27515146079E+04  0.24047842232E+04 0.  0.
        5    1    3    3  502    0 -0.58638933532E+03 -0.81952727450E+03 -0.14190587562E+04  0.17404675377E+04  0.46999998093E+01 0. -1.
       -5    1    3    3    0  502  0.58638933532E+03  0.81952727450E+03  0.81955365516E+02  0.10110470702E+04  0.46999998093E+01 0.  1.
</event>
<event>
 5   0  0.1434943E-05  0.2106897E+04  0.7818609E-02  0.8558211E-01
       -1   -1    0    0    0  501  0.00000000000E+00  0.00000000000E+00  0.13605361223E+04  0.13605361223E+04  0.50400001928E-02 0. -1.
        1   -1    0    0  501    0  0.00000000000E+00  0.00000000000E+00 -0.81567369415E+03  0.81567369417E+03  0.50400001928E-02 0.  1.
    10030    2    1    2    0    0  0.00000000000E+00  0.00000000000E+00  0.54486242814E+03  0.21762098165E+04  0.21068967938E+04 0.  0.
        5    1    3    3  502    0  0.49842447076E+03 -0.86705848850E+03 -0.69384828251E+02  0.10025236755E+04  0.46999998093E+01 0.  1.
       -5    1    3    3    0  502 -0.49842447076E+03  0.86705848850E+03  0.61424725639E+03  0.11736861410E+04  0.46999998093E+01 0. -1.
</event>
<event>
 5   0  0.1506985E-05  0.2415509E+04  0.7818609E-02  0.8433720E-01
       -1   -1    0    0    0  501  0.00000000000E+00  0.00000000000E+00  0.90574145776E+03  0.90574145777E+03  0.50400001928E-02 0. -1.
        1   -1    0    0  501    0  0.00000000000E+00  0.00000000000E+00 -0.16104716431E+04  0.16104716431E+04  0.50400001928E-02 0.  1.
    10030    2    1    2    0    0  0.00000000000E+00  0.00000000000E+00 -0.70473018536E+03  0.25162131009E+04  0.24155090012E+04 0.  0.
        3    1    3    3  502    0  0.77842747013E+03  0.87937912574E+03 -0.58811662542E+02  0.11758893634E+04  0.10100000352E+00 0. -1.
       -3    1    3    3    0  502 -0.77842747013E+03 -0.87937912574E+03 -0.64591852282E+03  0.13403237375E+04  0.10100000352E+00 0.  1.
</event>
<event>
 5   0  0.3215208E-05  0.2400531E+04  0.7818609E-02  0.8439305E-01
       -2   -1    0    0    0  501  0.00000000000E+00  0.00000000000E+00  0.76365863161E+03  0.76365863161E+03  0.25500000920E-02 0.  1.
        2   -1    0    0  501    0  0.00000000000E+00  0.00000000000E+00 -0.18864932981E+04  0.18864932981E+04  0.25500000920E-02 0. -1.
    10030    2    1    2    0    0  0.00000000000E+00  0.00000000000E+00 -0.11228346665E+04  0.26501519297E+04  0.24005306835E+04 0.  0.
        1    1    3    3  502    0  0.33057448284E+03  0.64008887715E+03 -0.16212688456E+04  0.17741211709E+04  0.50400001928E-02 0. -1.
       -1    1    3    3    0  502 -0.33057448284E+03 -0.64008887715E+03  0.49843417913E+03  0.87603075877E+03  0.50400001928E-02 0.  1.
</event>
<event>
 5   0  0.1407158E-05  0.2346098E+04  0.7818609E-02  0.8459964E-01
        1   -1    0    0  501    0  0.00000000000E+00  0.00000000000E+00  0.14174554808E+04  0.14174554808E+04  0.50400001928E-02 0.  1.
       -1   -1    0    0    0  501  0.00000000000E+00  0.00000000000E+00 -0.97078500974E+03  0.97078500975E+03  0.50400001928E-02 0. -1.
    10030    2    1    2    0    0  0.00000000000E+00  0.00000000000E+00  0.44667047105E+03  0.23882404905E+04  0.23460984913E+04 0.  0.
        1    1    3    3  502    0 -0.68175614438E+03  0.23991347809E+02 -0.74810060407E+03  0.10124334739E+04  0.50400001928E-02 0.  1.
       -1    1    3    3    0  502  0.68175614438E+03 -0.23991347809E+02  0.11947710751E+04  0.13758070167E+04  0.50400001928E-02 0. -1.
</event>
<event>
 5   0  0.3347728E-05  0.2401020E+04  0.7818609E-02  0.8439122E-01
       -2   -1    0    0    0  501  0.00000000000E+00  0.00000000000E+00  0.82804749761E+03  0.82804749761E+03  0.25500000920E-02 0.  1.
        2   -1    0    0  501    0  0.00000000000E+00  0.00000000000E+00 -0.17405084705E+04  0.17405084705E+04  0.25500000920E-02 0. -1.
    10030    2    1    2    0    0  0.00000000000E+00  0.00000000000E+00 -0.91246097293E+03  0.25685559682E+04  0.24010195198E+04 0.  0.
        3    1    3    3  502    0  0.10179875799E+04  0.25464058033E+03  0.16762771743E+03  0.10626568589E+04  0.10100000352E+00 0.  1.
       -3    1    3    3    0  502 -0.10179875799E+04 -0.25464058033E+03 -0.10800886904E+04  0.15058991092E+04  0.10100000352E+00 0. -1.
</event>
<event>
 5   0  0.1407158E-05  0.2377731E+04  0.7818609E-02  0.8447888E-01
        1   -1    0    0  501    0  0.00000000000E+00  0.00000000000E+00  0.11482057263E+04  0.11482057263E+04  0.50400001928E-02 0. -1.
       -1   -1    0    0    0  501  0.00000000000E+00  0.00000000000E+00 -0.12309654586E+04  0.12309654586E+04  0.50400001928E-02 0.  1.
    10030    2    1    2    0    0  0.00000000000E+00  0.00000000000E+00 -0.82759732322E+02  0.23791711849E+04  0.23777313460E+04 0.  0.
        1    1    3    3  502    0  0.61129995211E+03 -0.89968537209E+03  0.43878590287E+03  0.11728829732E+04  0.50400001928E-02 0.  1.
       -1    1    3    3    0  502 -0.61129995211E+03  0.89968537209E+03 -0.52154563519E+03  0.12062882118E+04  0.50400001928E-02 0. -1.
</event>
<event>
 5   0  0.1407158E-05  0.2409082E+04  0.7818609E-02  0.8436111E-01
       -1   -1    0    0    0  501  0.00000000000E+00  0.00000000000E+00  0.15173473625E+04  0.15173473625E+04  0.50400001928E-02 0.  1.
        1   -1    0    0  501    0  0.00000000000E+00  0.00000000000E+00 -0.95622064083E+03  0.95622064084E+03  0.50400001928E-02 0. -1.
    10030    2    1    2    0    0  0.00000000000E+00  0.00000000000E+00  0.56112672168E+03  0.24735680034E+04  0.24090818727E+04 0.  0.
        1    1    3    3  502    0  0.57670566051E+03  0.50274741479E+03  0.12358297948E+04  0.14534853504E+04  0.50400001928E-02 0.  1.
       -1    1    3    3    0  502 -0.57670566051E+03 -0.50274741479E+03 -0.67470307316E+03  0.10200826530E+04  0.50400001928E-02 0. -1.
</event>
<event>
 5   0  0.3215208E-05  0.2444789E+04  0.7818609E-02  0.8422923E-01
       -2   -1    0    0    0  501  0.00000000000E+00  0.00000000000E+00  0.11324889569E+04  0.11324889569E+04  0.25500000920E-02 0. -1.
        2   -1    0    0  501    0  0.00000000000E+00  0.00000000000E+00 -0.13194375123E+04  0.13194375123E+04  0.25500000920E-02 0.  1.
    10030    2    1    2    0    0  0.00000000000E+00  0.00000000000E+00 -0.18694855541E+03  0.24519264691E+04  0.24447890804E+04 0.  0.
        1    1    3    3  502    0 -0.44765823430E+02  0.25292101968E+03 -0.12920680629E+04  0.13173507127E+04  0.50400001928E-02 0.  1.
       -1    1    3    3    0  502  0.44765823430E+02 -0.25292101968E+03  0.11051195075E+04  0.11345757564E+04  0.50400001928E-02 0. -1.
</event>
<event>
 5   0  0.1407158E-05  0.2401209E+04  0.7818609E-02  0.8439051E-01
        1   -1    0    0  501    0  0.00000000000E+00  0.00000000000E+00  0.18663751726E+04  0.18663751727E+04  0.50400001928E-02 0. -1.
       -1   -1    0    0    0  501  0.00000000000E+00  0.00000000000E+00 -0.77232687438E+03  0.77232687439E+03  0.50400001928E-02 0.  1.
    10030    2    1    2    0    0  0.00000000000E+00  0.00000000000E+00  0.10940482983E+04  0.26387020470E+04  0.24012094482E+04 0.  0.
        1    1    3    3  502    0 -0.40826363566E+02 -0.84490786452E+02 -0.76829090073E+03  0.77400025396E+03  0.50400001928E-02 0.  1.
       -1    1    3    3    0  502  0.40826363566E+02  0.84490786452E+02  0.18623391990E+04  0.18647017931E+04  0.50400001928E-02 0. -1.
</event>
<event>
 5   0  0.1407158E-05  0.2243194E+04  0.7818609E-02  0.8500662E-01
        1   -1    0    0  501    0  0.00000000000E+00  0.00000000000E+00  0.14554579290E+04  0.14554579290E+04  0.50400001928E-02 0. -1.
       -1   -1    0    0    0  501  0.00000000000E+00  0.00000000000E+00 -0.86431905928E+03  0.86431905929E+03  0.50400001928E-02 0.  1.
    10030    2    1    2    0    0  0.00000000000E+00  0.00000000000E+00  0.59113886976E+03  0.23197769883E+04  0.22431941762E+04 0.  0.
        1    1    3    3  502    0 -0.18367440689E+03 -0.92823857058E+03  0.91830459279E+03  0.13185774368E+04  0.50400001928E-02 0. -1.
       -1    1    3    3    0  502  0.18367440689E+03  0.92823857058E+03 -0.32716572303E+03  0.10011995515E+04  0.50400001928E-02 0.  1.
</event>
<event>
 5   0  0.3347728E-05  0.2402359E+04  0.7818609E-02  0.8438621E-01
        2   -1    0    0  501    0  0.00000000000E+00  0.00000000000E+00  0.13208228656E+04  0.13208228656E+04  0.25500000920E-02 0.  1.
       -2   -1    0    0    0  501  0.00000000000E+00  0.00000000000E+00 -0.10923732877E+04  0.10923732877E+04  0.25500000920E-02 0. -1.
    10030    2    1    2    0    0  0.00000000000E+00  0.00000000000E+00  0.22844957787E+03  0.24131961534E+04  0.24023585213E+04 0.  0.
        3    1    3    3  502    0  0.38560810498E+03 -0.41246514989E+03  0.11792011962E+04  0.13074159942E+04  0.10100000352E+00 0.  1.
       -3    1    3    3    0  502 -0.38560810498E+03  0.41246514989E+03 -0.95075161834E+03  0.11057801592E+04  0.10100000352E+00 0. -1.
</event>
<event>
 5   0  0.3320780E-05  0.2396098E+04  0.7818609E-02  0.8440966E-01
       -2   -1    0    0    0  501  0.00000000000E+00  0.00000000000E+00  0.97504086424E+03  0.97504086425E+03  0.25500000920E-02 0. -1.
        2   -1    0    0  501    0  0.00000000000E+00  0.00000000000E+00 -0.14720627848E+04  0.14720627848E+04  0.25500000920E-02 0.  1.
    10030    2    1    2    0    0  0.00000000000E+00  0.00000000000E+00 -0.49702192056E+03  0.24471036491E+04  0.23960979696E+04 0.  0.
        5    1    3    3  502    0 -0.19860626384E+03 -0.35132630847E+03 -0.14005410741E+04  0.14575362820E+04  0.46999998093E+01 0.  1.
       -5    1    3    3    0  502  0.19860626384E+03  0.35132630847E+03  0.90351915357E+03  0.98956736705E+03  0.46999998093E+01 0. -1.
</event>
<event>
 5   0  0.3310037E-05  0.2458236E+04  0.7818609E-02  0.8418017E-01
       -2   -1    0    0    0  501  0.00000000000E+00  0.00000000000E+00  0.13098979153E+04  0.13098979153E+04  0.25500000920E-02 0. -1.
        2   -1    0    0  501    0  0.00000000000E+00  0.00000000000E+00 -0.11533201198E+04  0.11533201198E+04  0.25500000920E-02 0.  1.
    10030    2    1    2    0    0  0.00000000000E+00  0.00000000000E+00  0.15657779544E+03  0.24632180351E+04  0.24582364578E+04 0.  0.
        2    1    3    3  502    0  0.35374957524E+03  0.11159754499E+04 -0.29689162146E+03  0.12077601590E+04  0.25500000920E-02 0.  1.
       -2    1    3    3    0  502 -0.35374957524E+03 -0.11159754499E+04  0.45346941690E+03  0.12554578761E+04  0.25500000920E-02 0. -1.
</event>
<event>
 5   0  0.3310037E-05  0.2377176E+04  0.7818609E-02  0.8448098E-01
       -2   -1    0    0    0  501  0.00000000000E+00  0.00000000000E+00  0.85101361459E+03  0.85101361459E+03  0.25500000920E-02 0.  1.
        2   -1    0    0  501    0  0.00000000000E+00  0.00000000000E+00 -0.16600687813E+04  0.16600687813E+04  0.25500000920E-02 0. -1.
    10030    2    1    2    0    0  0.00000000000E+00  0.00000000000E+00 -0.80905516668E+03  0.25110823959E+04  0.23771757478E+04 0.  0.
        2    1    3    3  502    0  0.32737841811E+03 -0.90607976520E+03 -0.11398608124E+04  0.14924610016E+04  0.25500000920E-02 0. -1.
       -2    1    3    3    0  502 -0.32737841811E+03  0.90607976520E+03  0.33080564577E+03  0.10186213943E+04  0.25500000920E-02 0.  1.
</event>
<event>
 5   0  0.3347728E-05  0.2407330E+04  0.7818609E-02  0.8436765E-01
        2   -1    0    0  501    0  0.00000000000E+00  0.00000000000E+00  0.13103953768E+04  0.13103953768E+04  0.25500000920E-02 0.  1.
       -2   -1    0    0    0  501  0.00000000000E+00  0.00000000000E+00 -0.11056273246E+04  0.11056273246E+04  0.25500000920E-02 0. -1.
    10030    2    1    2    0    0  0.00000000000E+00  0.00000000000E+00  0.20476805215E+03  0.24160227014E+04  0.24073295866E+04 0.  0.
        3    1    3    3  502    0  0.12654091024E+03 -0.11718931401E+04 -0.14234647607E+03  0.11872694147E+04  0.10100000352E+00 0.  1.
       -3    1    3    3    0  502 -0.12654091024E+03  0.11718931401E+04  0.34711452822E+03  0.12287532867E+04  0.10100000352E+00 0. -1.
</event>
<event>
 5   0  0.1401596E-05  0.2404803E+04  0.7818609E-02  0.8437708E-01
       -1   -1    0    0    0  501  0.00000000000E+00  0.00000000000E+00  0.93720063997E+03  0.93720063998E+03  0.50400001928E-02 0. -1.
        1   -1    0    0  501    0  0.00000000000E+00  0.00000000000E+00 -0.15426462564E+04  0.15426462564E+04  0.50400001928E-02 0.  1.
    10030    2    1    2    0    0  0.00000000000E+00  0.00000000000E+00 -0.60544561643E+03  0.24798468964E+04  0.24048027435E+04 0.  0.
        2    1    3    3  502    0 -0.26355995171E+03  0.61952655764E+03 -0.13300503455E+04  0.14907417366E+04  0.25500000920E-02 0.  1.
       -2    1    3    3    0  502  0.26355995171E+03 -0.61952655764E+03  0.72460472903E+03  0.98910515978E+03  0.25500000920E-02 0. -1.
</event>
<event>
 5   0  0.3215208E-05  0.2396941E+04  0.7818609E-02  0.8440650E-01
        2   -1    0    0  501    0  0.00000000000E+00  0.00000000000E+00  0.10286665274E+04  0.10286665274E+04  0.25500000920E-02 0. -1.
       -2   -1    0    0    0  501  0.00000000000E+00  0.00000000000E+00 -0.13963047836E+04  0.13963047836E+04  0.25500000920E-02 0.  1.
    10030    2    1    2    0    0  0.00000000000E+00  0.00000000000E+00 -0.36763825626E+03  0.24249713110E+04  0.23969413784E+04 0.  0.
        1    1    3    3  502    0 -0.44638245062E+03  0.58752185085E+03 -0.11392637393E+04  0.13573360252E+04  0.50400001928E-02 0.  1.
       -1    1    3    3    0  502  0.44638245062E+03 -0.58752185085E+03  0.77162548305E+03  0.10676352858E+04  0.50400001928E-02 0. -1.
</event>
<event>
 5   0  0.1506985E-05  0.2401428E+04  0.7818609E-02  0.8438969E-01
       -1   -1    0    0    0  501  0.00000000000E+00  0.00000000000E+00  0.96214927056E+03  0.96214927057E+03  0.50400001928E-02 0. -1.
        1   -1    0    0  501    0  0.00000000000E+00  0.00000000000E+00 -0.14984303603E+04  0.14984303603E+04  0.50400001928E-02 0.  1.
    10030    2    1    2    0    0  0.00000000000E+00  0.00000000000E+00 -0.53628108971E+03  0.24605796308E+04  0.24014276405E+04 0.  0.
        3    1    3    3  502    0 -0.22783790381E+03  0.11731693006E+04 -0.38709211181E+03  0.12562152011E+04  0.10100000352E+00 0.  1.
       -3    1    3    3    0  502  0.22783790381E+03 -0.11731693006E+04 -0.14918897791E+03  0.12043644297E+04  0.10100000352E+00 0. -1.
</event>
<event>
 5   0  0.1506985E-05  0.2398457E+04  0.7818609E-02  0.8440081E-01
       -1   -1    0    0    0  501  0.00000000000E+00  0.00000000000E+00  0.67643312456E+03  0.67643312458E+03  0.50400001928E-02 0.  1.
        1   -1    0    0  501    0  0.00000000000E+00  0.00000000000E+00 -0.21260773501E+04  0.21260773501E+04  0.50400001928E-02 0. -1.
    10030    2    1    2    0    0  0.00000000000E+00  0.00000000000E+00 -0.14496442255E+04  0.28025104747E+04  0.23984571249E+04 0.  0.
        3    1    3    3  502    0 -0.51787493916E+03 -0.79727908584E+03  0.12927680891E+03  0.95945864781E+03  0.10100000352E+00 0.  1.
       -3    1    3    3    0  502  0.51787493916E+03  0.79727908584E+03 -0.15789210345E+04  0.18430518269E+04  0.10100000352E+00 0. -1.
</event>
<event>
 5   0  0.1393026E-05  0.2418105E+04  0.7818609E-02  0.8432756E-01
        1   -1    0    0  501    0  0.00000000000E+00  0.00000000000E+00  0.18808962481E+04  0.18808962481E+04  0.50400001928E-02 0.  1.
       -1   -1    0    0    0  501  0.00000000000E+00  0.00000000000E+00 -0.77718683391E+03  0.77718683393E+03  0.50400001928E-02 0. -1.
    10030    2    1    2    0    0  0.00000000000E+00  0.00000000000E+00  0.11037094142E+04  0.26580830820E+04  0.24181048778E+04 0.  0.
        4    1    3    3  502    0  0.11830296586E+04  0.20477740962E+03  0.39518577868E+03  0.12639882805E+04  0.12699999809E+01 0.  1.
       -4    1    3    3    0  502 -0.11830296586E+04 -0.20477740962E+03  0.70852363549E+03  0.13940948015E+04  0.12699999809E+01 0. -1.
</event>
<event>
 5   0  0.3345974E-05  0.2585498E+04  0.7818609E-02  0.8373144E-01
       -2   -1    0    0    0  501  0.00000000000E+00  0.00000000000E+00  0.55296898048E+03  0.55296898048E+03  0.25500000920E-02 0.  1.
        2   -1    0    0  501    0  0.00000000000E+00  0.00000000000E+00 -0.30222311541E+04  0.30222311541E+04  0.25500000920E-02 0. -1.
    10030    2    1    2    0    0  0.00000000000E+00  0.00000000000E+00 -0.24692621736E+04  0.35752001346E+04  0.25854980797E+04 0.  0.
        4    1    3    3  502    0 -0.43619383028E+03 -0.34858598677E+03 -0.28468839644E+04  0.29011251554E+04  0.12699999809E+01 0. -1.
       -4    1    3    3    0  502  0.43619383028E+03  0.34858598677E+03  0.37762179079E+03  0.67407497916E+03  0.12699999809E+01 0.  1.
</event>
<event>
 5   0  0.1506985E-05  0.2398347E+04  0.7818609E-02  0.8440123E-01
        1   -1    0    0  501    0  0.00000000000E+00  0.00000000000E+00  0.14583248547E+04  0.14583248547E+04  0.50400001928E-02 0. -1.
       -1   -1    0    0    0  501  0.00000000000E+00  0.00000000000E+00 -0.98607474654E+03  0.98607474655E+03  0.50400001928E-02 0.  1.
    10030    2    1    2    0    0  0.00000000000E+00  0.00000000000E+00  0.47225010816E+03  0.24443996013E+04  0.23983471905E+04 0.  0.
        3    1    3    3  502    0  0.76456293739E+03 -0.80168200851E+03 -0.23178375852E+03  0.11318013293E+04  0.10100000352E+00 0. -1.
       -3    1    3    3    0  502 -0.76456293739E+03  0.80168200851E+03  0.70403386668E+03  0.13125982720E+04  0.10100000352E+00 0.  1.
</event>
<event>
 5   0  0.3320780E-05  0.2385001E+04  0.7818609E-02  0.8445140E-01
        2   -1    0    0  501    0  0.00000000000E+00  0.00000000000E+00  0.11933493664E+04  0.11933493664E+04  0.25500000920E-02 0.  1.
       -2   -1    0    0    0  501  0.00000000000E+00  0.00000000000E+00 -0.11916520029E+04  0.11916520029E+04  0.25500000920E-02 0. -1.
    10030    2    1    2    0    0  0.00000000000E+00  0.00000000000E+00  0.16973634380E+01  0.23850013693E+04  0.23850007653E+04 0.  0.
        5    1    3    3  502    0 -0.49439051090E+03 -0.17034477593E+03  0.10725745489E+04  0.11932634131E+04  0.46999998093E+01 0.  1.
       -5    1    3    3    0  502  0.49439051090E+03  0.17034477593E+03 -0.10708771855E+04  0.11917379562E+04  0.46999998093E+01 0. -1.
</event>
<event>
 5   0  0.1506985E-05  0.2397714E+04  0.7818609E-02  0.8440360E-01
        1   -1    0    0  501    0  0.00000000000E+00  0.00000000000E+00  0.16605060312E+04  0.16605060312E+04  0.50400001928E-02 0.  1.
       -1   -1    0    0    0  501  0.00000000000E+00  0.00000000000E+00 -0.86555405610E+03  0.86555405611E+03  0.50400001928E-02 0. -1.
    10030    2    1    2    0    0  0.00000000000E+00  0.00000000000E+00  0.79495197509E+03  0.25260600873E+04  0.23977136864E+04 0.  0.
        3    1    3    3  502    0 -0.25563439770E+03 -0.26576969480E+03 -0.80432052246E+03  0.88482427013E+03  0.10100000352E+00 0. -1.
       -3    1    3    3    0  502  0.25563439770E+03  0.26576969480E+03  0.15992724976E+04  0.16412358172E+04  0.10100000352E+00 0.  1.
</event>
<event>
 5   0  0.3215208E-05  0.2386912E+04  0.7818609E-02  0.8444420E-01
       -2   -1    0    0    0  501  0.00000000000E+00  0.00000000000E+00  0.82572554294E+03  0.82572554294E+03  0.25500000920E-02 0.  1.
        2   -1    0    0  501    0  0.00000000000E+00  0.00000000000E+00 -0.17249529666E+04  0.17249529666E+04  0.25500000920E-02 0. -1.
    10030    2    1    2    0    0  0.00000000000E+00  0.00000000000E+00 -0.89922742363E+03  0.25506785095E+04  0.23869124197E+04 0.  0.
        1    1    3    3  502    0 -0.74014038797E+03 -0.81625327111E+03  0.40388583649E+02  0.11025916897E+04  0.50400001928E-02 0.  1.
       -1    1    3    3    0  502  0.74014038797E+03  0.81625327111E+03 -0.93961600728E+03  0.14480868198E+04  0.50400001928E-02 0. -1.
</event>
<event>
 5   0  0.1506985E-05  0.2099869E+04  0.7818609E-02  0.8561301E-01
        1   -1    0    0  501    0  0.00000000000E+00  0.00000000000E+00  0.42173902136E+03  0.42173902139E+03  0.50400001928E-02 0. -1.
       -1   -1    0    0    0  501  0.00000000000E+00  0.00000000000E+00 -0.26138500129E+04  0.26138500129E+04  0.50400001928E-02 0.  1.
    10030    2    1    2    0    0  0.00000000000E+00  0.00000000000E+00 -0.21921109916E+04  0.30355890343E+04  0.20998690878E+04 0.  0.
        3    1    3    3  502    0  0.90007491848E+03  0.78482156080E+02 -0.18692443205E+04  0.20761427330E+04  0.10100000352E+00 0.  1.
       -3    1    3    3    0  502 -0.90007491848E+03 -0.78482156080E+02 -0.32286667106E+03  0.95944630135E+03  0.10100000352E+00 0. -1.
</event>
<event>
 5   0  0.3320780E-05  0.2431695E+04  0.7818609E-02  0.8427732E-01
        2   -1    0    0  501    0  0.00000000000E+00  0.00000000000E+00  0.17892051981E+04  0.17892051981E+04  0.25500000920E-02 0.  1.
       -2   -1    0    0    0  501  0.00000000000E+00  0.00000000000E+00 -0.82622419462E+03  0.82622419463E+03  0.25500000920E-02 0. -1.
    10030    2    1    2    0    0  0.00000000000E+00  0.00000000000E+00  0.96298100343E+03  0.26154293927E+04  0.24316945728E+04 0.  0.
        5    1    3    3  502    0  0.86835962638E+03  0.48040414752E+03  0.12370087644E+04  0.15858907147E+04  0.46999998093E+01 0.  1.
       -5    1    3    3    0  502 -0.86835962638E+03 -0.48040414752E+03 -0.27402776100E+03  0.10295386780E+04  0.46999998093E+01 0. -1.
</event>
<event>
 5   0  0.3347728E-05  0.2399851E+04  0.7818609E-02  0.8439559E-01
        2   -1    0    0  501    0  0.00000000000E+00  0.00000000000E+00  0.15845749824E+04  0.15845749824E+04  0.25500000920E-02 0. -1.
       -2   -1    0    0    0  501  0.00000000000E+00  0.00000000000E+00 -0.90864801296E+03  0.90864801297E+03  0.25500000920E-02 0.  1.
    10030    2    1    2    0    0  0.00000000000E+00  0.00000000000E+00  0.67592696939E+03  0.24932229953E+04  0.23998507530E+04 0.  0.
        3    1    3    3  502    0 -0.74475619718E+03 -0.91347918877E+03  0.10400188623E+03  0.11831831744E+04  0.10100000352E+00 0.  1.
       -3    1    3    3    0  502  0.74475619718E+03  0.91347918877E+03  0.57192508316E+03  0.13100398210E+04  0.10100000352E+00 0. -1.
</event>
<event>
 5   0  0.3347728E-05  0.2397831E+04  0.7818609E-02  0.8440316E-01
       -2   -1    0    0    0  501  0.00000000000E+00  0.00000000000E+00  0.20161987568E+04  0.20161987568E+04  0.25500000920E-02 0.  1.
        2   -1    0    0  501    0  0.00000000000E+00  0.00000000000E+00 -0.71292477190E+03  0.71292477190E+03  0.25500000920E-02 0. -1.
    10030    2    1    2    0    0  0.00000000000E+00  0.00000000000E+00  0.13032739849E+04  0.27291235287E+04  0.23978307186E+04 0.  0.
        3    1    3    3  502    0 -0.39325174346E+03 -0.99268602082E+03  0.12722498887E+04  0.16609311422E+04  0.10100000352E+00 0.  1.
       -3    1    3    3    0  502  0.39325174346E+03  0.99268602082E+03  0.31024096130E+02  0.10681923864E+04  0.10100000352E+00 0. -1.
</event>
<event>
 5   0  0.1407158E-05  0.2213695E+04  0.7818609E-02  0.8512750E-01
       -1   -1    0    0    0  501  0.00000000000E+00  0.00000000000E+00  0.84915995590E+03  0.84915995591E+03  0.50400001928E-02 0.  1.
        1   -1    0    0  501    0  0.00000000000E+00  0.00000000000E+00 -0.14427329145E+04  0.14427329145E+04  0.50400001928E-02 0. -1.
    10030    2    1    2    0    0  0.00000000000E+00  0.00000000000E+00 -0.59357295856E+03  0.22918928704E+04  0.22136946655E+04 0.  0.
        1    1    3    3  502    0  0.55430900467E+03 -0.55359064751E+03 -0.11063216831E+04  0.13556064120E+04  0.50400001928E-02 0. -1.
       -1    1    3    3    0  502 -0.55430900467E+03  0.55359064751E+03  0.51274872453E+03  0.93628645841E+03  0.50400001928E-02 0.  1.
</event>
<event>
 5   0  0.1393026E-05  0.2366956E+04  0.7818609E-02  0.8451979E-01
        1   -1    0    0  501    0  0.00000000000E+00  0.00000000000E+00  0.21889672430E+04  0.21889672430E+04  0.50400001928E-02 0. -1.
       -1   -1    0    0    0  501  0.00000000000E+00  0.00000000000E+00 -0.63985415645E+03  0.63985415647E+03  0.50400001928E-02 0.  1.
    10030    2    1    2    0    0  0.00000000000E+00  0.00000000000E+00  0.15491130866E+04  0.28288213995E+04  0.23669556724E+04 0.  0.
        4    1    3    3  502    0  0.11271577317E+04 -0.13689630126E+03  0.37567457342E+03  0.11959758139E+04  0.12699999809E+01 0.  1.
       -4    1    3    3    0  502 -0.11271577317E+04  0.13689630126E+03  0.11734385131E+04  0.16328455856E+04  0.12699999809E+01 0. -1.
</event>
<event>
 5   0  0.1407158E-05  0.1996456E+04  0.7818609E-02  0.8608279E-01
        1   -1    0    0  501    0  0.00000000000E+00  0.00000000000E+00  0.18868151950E+04  0.18868151950E+04  0.50400001928E-02 0. -1.
       -1   -1    0    0    0  501  0.00000000000E+00  0.00000000000E+00 -0.52811689171E+03  0.52811689173E+03  0.50400001928E-02 0.  1.
    10030    2    1    2    0    0  0.00000000000E+00  0.00000000000E+00  0.13586983033E+04  0.24149320868E+04  0.19964558358E+04 0.  0.
        1    1    3    3  502    0  0.15079884083E+03  0.70100579937E+03 -0.16070667279E+03  0.73483063073E+03  0.50400001928E-02 0.  1.
       -1    1    3    3    0  502 -0.15079884083E+03 -0.70100579937E+03  0.15194049761E+04  0.16801014561E+04  0.50400001928E-02 0. -1.
</event>
<event>
 5   0  0.1147362E-05  0.2401068E+04  0.7818609E-02  0.8439104E-01
        3   -1    0    0  501    0  0.00000000000E+00  0.00000000000E+00  0.11840818647E+04  0.11840818690E+04  0.10100000352E+00 0. -1.
       -3   -1    0    0    0  501  0.00000000000E+00  0.00000000000E+00 -0.12172146767E+04  0.12172146808E+04  0.10100000352E+00 0.  1.
    10030    2    1    2    0    0  0.00000000000E+00  0.00000000000E+00 -0.33132811974E+02  0.24012965498E+04  0.24010679576E+04 0.  0.
        4    1    3    3  502    0  0.63853930431E+03  0.64007139573E+03  0.77335459005E+03  0.11897490364E+04  0.12699999809E+01 0. -1.
       -4    1    3    3    0  502 -0.63853930431E+03 -0.64007139573E+03 -0.80648740202E+03  0.12115475134E+04  0.12699999809E+01 0.  1.
</event>
<event>
 5   0  0.1506985E-05  0.2409041E+04  0.7818609E-02  0.8436126E-01
       -1   -1    0    0    0  501  0.00000000000E+00  0.00000000000E+00  0.79124859332E+03  0.79124859333E+03  0.50400001928E-02 0.  1.
        1   -1    0    0  501    0  0.00000000000E+00  0.00000000000E+00 -0.18336460305E+04  0.18336460305E+04  0.50400001928E-02 0. -1.
    10030    2    1    2    0    0  0.00000000000E+00  0.00000000000E+00 -0.10423974372E+04  0.26248946239E+04  0.24090411722E+04 0.  0.
        3    1    3    3  502    0 -0.12168364059E+03 -0.20368075639E+03 -0.18079331180E+04  0.18234349257E+04  0.10100000352E+00 0. -1.
       -3    1    3    3    0  502  0.12168364059E+03  0.20368075639E+03  0.76553568082E+03  0.80145969813E+03  0.10100000352E+00 0.  1.
</event>
<event>
 5   0  0.1393026E-05  0.2387612E+04  0.7818609E-02  0.8444156E-01
       -1   -1    0    0    0  501  0.00000000000E+00  0.00000000000E+00  0.98338339226E+03  0.98338339228E+03  0.50400001928E-02 0.  1.
        1   -1    0    0  501    0  0.00000000000E+00  0.00000000000E+00 -0.14492549324E+04  0.14492549324E+04  0.50400001928E-02 0. -1.
    10030    2    1    2    0    0  0.00000000000E+00  0.00000000000E+00 -0.46587154012E+03  0.24326383247E+04  0.23876123904E+04 0.  0.
        4    1    3    3  502    0  0.85503582510E+03 -0.11709343113E+03 -0.10733390328E+04  0.13772637460E+04  0.12699999809E+01 0. -1.
       -4    1    3    3    0  502 -0.85503582510E+03  0.11709343113E+03  0.60746749265E+03  0.10553745787E+04  0.12699999809E+01 0.  1.
</event>
<event>
 5   0  0.1401596E-05  0.2413210E+04  0.7818609E-02  0.8434574E-01
        1   -1    0    0  501    0  0.00000000000E+00  0.00000000000E+00  0.98365650593E+03  0.98365650595E+03  0.50400001928E-02 0.  1.
       -1   -1    0    0    0  501  0.00000000000E+00  0.00000000000E+00 -0.14800855565E+04  0.14800855565E+04  0.50400001928E-02 0. -1.
    10030    2    1    2    0    0  0.00000000000E+00  0.00000000000E+00 -0.49642905053E+03  0.24637420624E+04  0.24132101334E+04 0.  0.
        2    1    3    3  502    0 -0.14386371174E+02 -0.72608262940E+03  0.73554596407E+03  0.10336492721E+04  0.25500000920E-02 0.  1.
       -2    1    3    3    0  502  0.14386371174E+02  0.72608262940E+03 -0.12319750146E+04  0.14300927903E+04  0.25500000920E-02 0. -1.
</event>
<event>
 5   0  0.3310037E-05  0.2400680E+04  0.7818609E-02  0.8439249E-01
       -2   -1    0    0    0  501  0.00000000000E+00  0.00000000000E+00  0.68403353804E+03  0.68403353804E+03  0.25500000920E-02 0. -1.
        2   -1    0    0  501    0  0.00000000000E+00  0.00000000000E+00 -0.21063532082E+04  0.21063532082E+04  0.25500000920E-02 0.  1.
    10030    2    1    2    0    0  0.00000000000E+00  0.00000000000E+00 -0.14223196702E+04  0.27903867463E+04  0.24006801015E+04 0.  0.
        2    1    3    3  502    0 -0.19523627502E+03  0.15829816415E+03 -0.20754228140E+04  0.20905873263E+04  0.25500000920E-02 0.  1.
       -2    1    3    3    0  502  0.19523627502E+03 -0.15829816415E+03  0.65310314378E+03  0.69979942004E+03  0.25500000920E-02 0. -1.
</event>
<event>
 5   0  0.1434943E-05  0.2390451E+04  0.7818609E-02  0.8443087E-01
        1   -1    0    0  501    0  0.00000000000E+00  0.00000000000E+00  0.23191798617E+04  0.23191798617E+04  0.50400001928E-02 0. -1.
       -1   -1    0    0    0  501  0.00000000000E+00  0.00000000000E+00 -0.61597793260E+03  0.61597793262E+03  0.50400001928E-02 0.  1.
    10030    2    1    2    0    0  0.00000000000E+00  0.00000000000E+00  0.17032019291E+04  0.29351577943E+04  0.23904506827E+04 0.  0.
        5    1    3    3  502    0 -0.11516898311E+03  0.45718271849E+02 -0.60805852481E+03  0.62057337571E+03  0.46999998093E+01 0.  1.
       -5    1    3    3    0  502  0.11516898311E+03 -0.45718271849E+02  0.23112604539E+04  0.23145844186E+04  0.46999998093E+01 0. -1.
</event>
<event>
 5   0  0.1506985E-05  0.2572131E+04  0.7818609E-02  0.8377730E-01
       -1   -1    0    0    0  501  0.00000000000E+00  0.00000000000E+00  0.16730009783E+04  0.16730009783E+04  0.50400001928E-02 0. -1.
        1   -1    0    0  501    0  0.00000000000E+00  0.00000000000E+00 -0.98862171221E+03  0.98862171223E+03  0.50400001928E-02 0.  1.
    10030    2    1    2    0    0  0.00000000000E+00  0.00000000000E+00  0.68437926606E+03  0.26616226905E+04  0.25721314832E+04 0.  0.
        3    1    3    3  502    0  0.77043343782E+03  0.90144398978E+03 -0.17292108574E+03  0.11983616570E+04  0.10100000352E+00 0.  1.
       -3    1    3    3    0  502 -0.77043343782E+03 -0.90144398978E+03  0.85730035180E+03  0.14632610335E+04  0.10100000352E+00 0. -1.
</event>
<event>
 5   0  0.3310037E-05  0.2370215E+04  0.7818609E-02  0.8450740E-01
       -2   -1    0    0    0  501  0.00000000000E+00  0.00000000000E+00  0.80759890670E+03  0.80759890671E+03  0.25500000920E-02 0.  1.
        2   -1    0    0  501    0  0.00000000000E+00  0.00000000000E+00 -0.17390802175E+04  0.17390802175E+04  0.25500000920E-02 0. -1.
    10030    2    1    2    0    0  0.00000000000E+00  0.00000000000E+00 -0.93148131084E+03  0.25466791242E+04  0.23702145746E+04 0.  0.
        2    1    3    3  502    0  0.85047142386E+03 -0.23897492300E+02  0.42066930192E+03  0.94912348750E+03  0.25500000920E-02 0.  1.
       -2    1    3    3    0  502 -0.85047142386E+03  0.23897492300E+02 -0.13521506128E+04  0.15975556368E+04  0.25500000920E-02 0. -1.
</event>
<event>
 5   0  0.1401596E-05  0.2413965E+04  0.7818609E-02  0.8434294E-01
       -1   -1    0    0    0  501  0.00000000000E+00  0.00000000000E+00  0.16182813331E+04  0.16182813331E+04  0.50400001928E-02 0. -1.
        1   -1    0    0  501    0  0.00000000000E+00  0.00000000000E+00 -0.90021854057E+03  0.90021854058E+03  0.50400001928E-02 0.  1.
    10030    2    1    2    0    0  0.00000000000E+00  0.00000000000E+00  0.71806279253E+03  0.25184998737E+04  0.24139650867E+04 0.  0.
        2    1    3    3  502    0 -0.19553795950E+03  0.45316927833E+03  0.15081869678E+04  0.15868917475E+04  0.25500000920E-02 0. -1.
       -2    1    3    3    0  502  0.19553795950E+03 -0.45316927833E+03 -0.79012417527E+03  0.93160812619E+03  0.25500000920E-02 0.  1.
</event>
<event>
 5   0  0.1434943E-05  0.2379670E+04  0.7818609E-02  0.8447154E-01
       -1   -1    0    0    0  501  0.00000000000E+00  0.00000000000E+00  0.12726701182E+04  0.12726701182E+04  0.50400001928E-02 0.  1.
        1   -1    0    0  501    0  0.00000000000E+00  0.00000000000E+00 -0.11123918122E+04  0.11123918122E+04  0.50400001928E-02 0. -1.
    10030    2    1    2    0    0  0.00000000000E+00  0.00000000000E+00  0.16027830603E+03  0.23850619304E+04  0.23796704135E+04 0.  0.
        5    1    3    3  502    0 -0.32606881871E+02 -0.11830340320E+04  0.20310779382E+03  0.12007945684E+04  0.46999998093E+01 0. -1.
       -5    1    3    3    0  502  0.32606881871E+02  0.11830340320E+04 -0.42829487792E+02  0.11842673620E+04  0.46999998093E+01 0.  1.
</event>
<event>
 5   0  0.3215208E-05  0.2384525E+04  0.7818609E-02  0.8445320E-01
        2   -1    0    0  501    0  0.00000000000E+00  0.00000000000E+00  0.12755918631E+04  0.12755918631E+04  0.25500000920E-02 0.  1.
       -2   -1    0    0    0  501  0.00000000000E+00  0.00000000000E+00 -0.11143766945E+04  0.11143766945E+04  0.25500000920E-02 0. -1.
    10030    2    1    2    0    0  0.00000000000E+00  0.00000000000E+00  0.16121516860E+03  0.23899685576E+04  0.23845249790E+04 0.  0.
        1    1    3    3  502    0  0.39235671760E+03  0.95107537292E+03  0.68447922103E+03  0.12357183995E+04  0.50400001928E-02 0.  1.
       -1    1    3    3    0  502 -0.39235671760E+03 -0.95107537292E+03 -0.52326405242E+03  0.11542501581E+04  0.50400001928E-02 0. -1.
</event>
<event>
 5   0  0.3310037E-05  0.2227789E+04  0.7818609E-02  0.8506950E-01
       -2   -1    0    0    0  501  0.00000000000E+00  0.00000000000E+00  0.11393483484E+04  0.11393483484E+04  0.25500000920E-02 0.  1.
        2   -1    0    0  501    0  0.00000000000E+00  0.00000000000E+00 -0.10890095751E+04  0.10890095751E+04  0.25500000920E-02 0. -1.
    10030    2    1    2    0    0  0.00000000000E+00  0.00000000000E+00  0.50338773228E+02  0.22283579235E+04  0.22277892726E+04 0.  0.
        2    1    3    3  502    0 -0.73700228050E+03 -0.49812479196E+03 -0.64541996089E+03  0.10990302979E+04  0.25500000920E-02 0.  1.
       -2    1    3    3    0  502  0.73700228050E+03  0.49812479196E+03  0.69575873411E+03  0.11293276256E+04  0.25500000920E-02 0. -1.
</event>
<event>
 5   0  0.3345974E-05  0.2398596E+04  0.7818609E-02  0.8440029E-01
       -2   -1    0    0    0  501  0.00000000000E+00  0.00000000000E+00  0.74603553155E+03  0.74603553156E+03  0.25500000920E-02 0. -1.
        2   -1    0    0  501    0  0.00000000000E+00  0.00000000000E+00 -0.19279457819E+04  0.19279457819E+04  0.25500000920E-02 0.  1.
    10030    2    1    2    0    0  0.00000000000E+00  0.00000000000E+00 -0.11819102503E+04  0.26739813134E+04  0.23985963030E+04 0.  0.
        4    1    3    3  502    0  0.56691543158E+03  0.16845086409E+03 -0.17540751423E+04  0.18510942758E+04  0.12699999809E+01 0.  1.
       -4    1    3    3    0  502 -0.56691543158E+03 -0.16845086409E+03  0.57216489198E+03  0.82288703762E+03  0.12699999809E+01 0. -1.
</event>
<event>
 5   0  0.3320780E-05  0.2402594E+04  0.7818609E-02  0.8438533E-01
        2   -1    0    0  501    0  0.00000000000E+00  0.00000000000E+00  0.18386521057E+04  0.18386521057E+04  0.25500000920E-02 0. -1.
       -2   -1    0    0    0  501  0.00000000000E+00  0.00000000000E+00 -0.78487650616E+03  0.78487650617E+03  0.25500000920E-02 0.  1.
    10030    2    1    2    0    0  0.00000000000E+00  0.00000000000E+00  0.10537755995E+04  0.26235286118E+04  0.24025942985E+04 0.  0.
        5    1    3    3  502    0  0.53140730699E+03  0.70273283611E+03 -0.36482400446E+03  0.95359625057E+03  0.46999998093E+01 0.  1.
       -5    1    3    3    0  502 -0.53140730699E+03 -0.70273283611E+03  0.14185996040E+04  0.16699323613E+04  0.46999998093E+01 0. -1.
</event>
<event>
 5   0  0.3345974E-05  0.2403814E+04  0.7818609E-02  0.8438077E-01
        2   -1    0    0  501    0  0.00000000000E+00  0.00000000000E+00  0.21641176074E+04  0.21641176074E+04  0.25500000920E-02 0.  1.
       -2   -1    0    0    0  501  0.00000000000E+00  0.00000000000E+00 -0.66751494304E+03  0.66751494305E+03  0.25500000920E-02 0. -1.
    10030    2    1    2    0    0  0.00000000000E+00  0.00000000000E+00  0.14966026644E+04  0.28316325505E+04  0.24038143368E+04 0.  0.
        4    1    3    3  502    0 -0.68706120327E+03 -0.97969378469E+03  0.88118930755E+03  0.14860515527E+04  0.12699999809E+01 0.  1.
       -4    1    3    3    0  502  0.68706120327E+03  0.97969378469E+03  0.61541335685E+03  0.13455809977E+04  0.12699999809E+01 0. -1.
</event>
<event>
 5   0  0.3215208E-05  0.2417198E+04  0.7818609E-02  0.8433093E-01
        2   -1    0    0  501    0  0.00000000000E+00  0.00000000000E+00  0.87719498320E+03  0.87719498320E+03  0.25500000920E-02 0.  1.
       -2   -1    0    0    0  501  0.00000000000E+00  0.00000000000E+00 -0.16652072336E+04  0.16652072336E+04  0.25500000920E-02 0. -1.
    10030    2    1    2    0    0  0.00000000000E+00  0.00000000000E+00 -0.78801225041E+03  0.25424022168E+04  0.24171979078E+04 0.  0.
        1    1    3    3  502    0 -0.88707838322E+03  0.76196808943E+03 -0.71511969072E+03  0.13707295865E+04  0.50400001928E-02 0.  1.
       -1    1    3    3    0  502  0.88707838322E+03 -0.76196808943E+03 -0.72892559689E+02  0.11716726303E+04  0.50400001928E-02 0. -1.
</event>
<event>
 5   0  0.1401596E-05  0.2386591E+04  0.7818609E-02  0.8444541E-01
        1   -1    0    0  501    0  0.00000000000E+00  0.00000000000E+00  0.13870826214E+04  0.13870826214E+04  0.50400001928E-02 0. -1.
       -1   -1    0    0    0  501  0.00000000000E+00  0.00000000000E+00 -0.10265822689E+04  0.10265822689E+04  0.50400001928E-02 0.  1.
    10030    2    1    2    0    0  0.00000000000E+00  0.00000000000E+00  0.36050035250E+03  0.24136648904E+04  0.23865912299E+04 0.  0.
        2    1    3    3  502    0  0.80954788628E+03  0.51455222315E+03  0.89810690987E+03  0.13140501482E+04  0.25500000920E-02 0. -1.
       -2    1    3    3    0  502 -0.80954788628E+03 -0.51455222315E+03 -0.53760655737E+03  0.10996147421E+04  0.25500000920E-02 0.  1.
</event>
<event>
 5   0  0.3310037E-05  0.2397011E+04  0.7818609E-02  0.8440623E-01
       -2   -1    0    0    0  501  0.00000000000E+00  0.00000000000E+00  0.61332262587E+03  0.61332262588E+03  0.25500000920E-02 0. -1.
        2   -1    0    0  501    0  0.00000000000E+00  0.00000000000E+00 -0.23420223248E+04  0.23420223248E+04  0.25500000920E-02 0.  1.
    10030    2    1    2    0    0  0.00000000000E+00  0.00000000000E+00 -0.17286996989E+04  0.29553449506E+04  0.23970108736E+04 0.  0.
        2    1    3    3  502    0 -0.86335314716E+02 -0.64623322490E+03 -0.21042526788E+04  0.22029413301E+04  0.25500000920E-02 0.  1.
       -2    1    3    3    0  502  0.86335314716E+02  0.64623322490E+03  0.37555297990E+03  0.75240362057E+03  0.25500000920E-02 0. -1.
</event>
<event>
 5   0  0.3347728E-05  0.2404890E+04  0.7818609E-02  0.8437675E-01
       -2   -1    0    0    0  501  0.00000000000E+00  0.00000000000E+00  0.10003420236E+04  0.10003420236E+04  0.25500000920E-02 0. -1.
        2   -1    0    0  501    0  0.00000000000E+00  0.00000000000E+00 -0.14453802137E+04  0.14453802137E+04  0.25500000920E-02 0.  1.
    10030    2    1    2    0    0  0.00000000000E+00  0.00000000000E+00 -0.44503819008E+03  0.24457222373E+04  0.24048904906E+04 0.  0.
        3    1    3    3  502    0 -0.50557800249E+03 -0.36985640128E+03  0.82129524890E+03  0.10329224415E+04  0.10100000352E+00 0. -1.
       -3    1    3    3    0  502  0.50557800249E+03  0.36985640128E+03 -0.12663334390E+04  0.14127997958E+04  0.10100000352E+00 0.  1.
</event>
<event>
 5   0  0.3320780E-05  0.2407971E+04  0.7818609E-02  0.8436525E-01
        2   -1    0    0  501    0  0.00000000000E+00  0.00000000000E+00  0.17084231450E+04  0.17084231450E+04  0.25500000920E-02 0. -1.
       -2   -1    0    0    0  501  0.00000000000E+00  0.00000000000E+00 -0.84849094566E+03  0.84849094567E+03  0.25500000920E-02 0.  1.
    10030    2    1    2    0    0  0.00000000000E+00  0.00000000000E+00  0.85993219935E+03  0.25569140907E+04  0.24079714034E+04 0.  0.
        5    1    3    3  502    0 -0.85989524576E+03  0.17151038872E+03  0.13060592593E+04  0.15731015625E+04  0.46999998093E+01 0. -1.
       -5    1    3    3    0  502  0.85989524576E+03 -0.17151038872E+03 -0.44612705990E+03  0.98381252823E+03  0.46999998093E+01 0.  1.
</event>
<event>
 5   0  0.3215208E-05  0.2413559E+04  0.7818609E-02  0.8434445E-01
        2   -1    0    0  501    0  0.00000000000E+00  0.00000000000E+00  0.22805137718E+04  0.22805137718E+04  0.25500000920E-02 0. -1.
       -2   -1    0    0    0  501  0.00000000000E+00  0.00000000000E+00 -0.63859143834E+03  0.63859143835E+03  0.25500000920E-02 0.  1.
    10030    2    1    2    0    0  0.00000000000E+00  0.00000000000E+00  0.16419223334E+04  0.29191052101E+04  0.24135588410E+04 0.  0.
        1    1    3    3  502    0 -0.64653935460E+03 -0.78935775116E+03  0.41616039196E+02  0.10211908201E+04  0.50400001928E-02 0. -1.
       -1    1    3    3    0  502  0.64653935460E+03  0.78935775116E+03  0.16003062942E+04  0.18979143900E+04  0.50400001928E-02 0.  1.
</event>
<event>
 5   0  0.1407158E-05  0.2407773E+04  0.7818609E-02  0.8436599E-01
       -1   -1    0    0    0  501  0.00000000000E+00  0.00000000000E+00  0.61383593550E+03  0.61383593552E+03  0.50400001928E-02 0.  1.
        1   -1    0    0  501    0  0.00000000000E+00  0.00000000000E+00 -0.23611239605E+04  0.23611239605E+04  0.50400001928E-02 0. -1.
    10030    2    1    2    0    0  0.00000000000E+00  0.00000000000E+00 -0.17472880250E+04  0.29749598960E+04  0.24077730251E+04 0.  0.
        1    1    3    3  502    0  0.55170151197E+02  0.58694456741E+03 -0.21705723579E+04  0.22492069784E+04  0.50400001928E-02 0. -1.
       -1    1    3    3    0  502 -0.55170151197E+02 -0.58694456741E+03  0.42328433296E+03  0.72575291756E+03  0.50400001928E-02 0.  1.
</event>
<event>
 5   0  0.3310037E-05  0.2238992E+04  0.7818609E-02  0.8502372E-01
        2   -1    0    0  501    0  0.00000000000E+00  0.00000000000E+00  0.72397597884E+03  0.72397597885E+03  0.25500000920E-02 0. -1.
       -2   -1    0    0    0  501  0.00000000000E+00  0.00000000000E+00 -0.17310953497E+04  0.17310953497E+04  0.25500000920E-02 0.  1.
    10030    2    1    2    0    0  0.00000000000E+00  0.00000000000E+00 -0.10071193709E+04  0.24550713286E+04  0.22389921396E+04 0.  0.
        2    1    3    3  502    0 -0.37302473905E+02  0.11084450502E+04 -0.33643834493E+03  0.11589791473E+04  0.25500000920E-02 0. -1.
       -2    1    3    3    0  502  0.37302473905E+02 -0.11084450502E+04 -0.67068102594E+03  0.12960921813E+04  0.25500000920E-02 0.  1.
</event>
<event>
 5   0  0.1434943E-05  0.2391217E+04  0.7818609E-02  0.8442799E-01
       -1   -1    0    0    0  501  0.00000000000E+00  0.00000000000E+00  0.93760370491E+03  0.93760370492E+03  0.50400001928E-02 0.  1.
        1   -1    0    0  501    0  0.00000000000E+00  0.00000000000E+00 -0.15246100731E+04  0.15246100731E+04  0.50400001928E-02 0. -1.
    10030    2    1    2    0    0  0.00000000000E+00  0.00000000000E+00 -0.58700636814E+03  0.24622137780E+04  0.23912173076E+04 0.  0.
        5    1    3    3  502    0 -0.97415927857E+03 -0.14844178286E+03 -0.99068556093E+03  0.13973193026E+04  0.46999998093E+01 0. -1.
       -5    1    3    3    0  502  0.97415927857E+03  0.14844178286E+03  0.40367919279E+03  0.10648944753E+04  0.46999998093E+01 0.  1.
</event>
<event>
 5   0  0.3320780E-05  0.2260565E+04  0.7818609E-02  0.8493634E-01
       -2   -1    0    0    0  501  0.00000000000E+00  0.00000000000E+00  0.10632194615E+04  0.10632194615E+04  0.25500000920E-02 0. -1.
        2   -1    0    0  501    0  0.00000000000E+00  0.00000000000E+00 -0.12015757004E+04  0.12015757004E+04  0.25500000920E-02 0.  1.
    10030    2    1    2    0    0  0.00000000000E+00  0.00000000000E+00 -0.13835623889E+03  0.22647951619E+04  0.22605651233E+04 0.  0.
        5    1    3    3  502    0 -0.49141688134E+03  0.21716412148E+03 -0.10654562064E+04  0.11932601664E+04  0.46999998093E+01 0.  1.
       -5    1    3    3    0  502  0.49141688134E+03 -0.21716412148E+03  0.92709996750E+03  0.10715349955E+04  0.46999998093E+01 0. -1.
</event>
<event>
 5   0  0.1393026E-05  0.2415130E+04  0.7818609E-02  0.8433861E-01
       -1   -1    0    0    0  501  0.00000000000E+00  0.00000000000E+00  0.81067903218E+03  0.81067903220E+03  0.50400001928E-02 0.  1.
        1   -1    0    0  501    0  0.00000000000E+00  0.00000000000E+00 -0.17987555567E+04  0.17987555567E+04  0.50400001928E-02 0. -1.
    10030    2    1    2    0    0  0.00000000000E+00  0.00000000000E+00 -0.98807652455E+03  0.26094345889E+04  0.24151301529E+04 0.  0.
        4    1    3    3  502    0 -0.54967566467E+03  0.18422193702E+03  0.65049285596E+03  0.87133439446E+03  0.12699999809E+01 0.  1.
       -4    1    3    3    0  502  0.54967566467E+03 -0.18422193702E+03 -0.16385693805E+04  0.17381001945E+04  0.12699999809E+01 0. -1.
</event>
<event>
 5   0  0.3345974E-05  0.2408067E+04  0.7818609E-02  0.8436489E-01
        2   -1    0    0  501    0  0.00000000000E+00  0.00000000000E+00  0.11205178074E+04  0.11205178074E+04  0.25500000920E-02 0. -1.
       -2   -1    0    0    0  501  0.00000000000E+00  0.00000000000E+00 -0.12937742712E+04  0.12937742712E+04  0.25500000920E-02 0.  1.
    10030    2    1    2    0    0  0.00000000000E+00  0.00000000000E+00 -0.17325646380E+03  0.24142920786E+04  0.24080673659E+04 0.  0.
        4    1    3    3  502    0 -0.78861796047E+03  0.11701224102E+03 -0.99122731985E+03  0.12720626418E+04  0.12699999809E+01 0.  1.
       -4    1    3    3    0  502  0.78861796047E+03 -0.11701224102E+03  0.81797085605E+03  0.11422294368E+04  0.12699999809E+01 0. -1.
</event>
<event>
 5   0  0.1407158E-05  0.2399268E+04  0.7818609E-02  0.8439778E-01
        1   -1    0    0  501    0  0.00000000000E+00  0.00000000000E+00  0.11863263965E+04  0.11863263965E+04  0.50400001928E-02 0. -1.
       -1   -1    0    0    0  501  0.00000000000E+00  0.00000000000E+00 -0.12130905922E+04  0.12130905922E+04  0.50400001928E-02 0.  1.
    10030    2    1    2    0    0  0.00000000000E+00  0.00000000000E+00 -0.26764195720E+02  0.23994169887E+04  0.23992677141E+04 0.  0.
        1    1    3    3  502    0  0.20131261930E+03 -0.42085645508E+03 -0.11186542189E+04  0.12120372057E+04  0.50400001928E-02 0.  1.
       -1    1    3    3    0  502 -0.20131261930E+03  0.42085645508E+03  0.10918900232E+04  0.11873797831E+04  0.50400001928E-02 0. -1.
</event>
<event>
 5   0  0.3215208E-05  0.2403744E+04  0.7818609E-02  0.8438103E-01
        2   -1    0    0  501    0  0.00000000000E+00  0.00000000000E+00  0.18314781278E+04  0.18314781278E+04  0.25500000920E-02 0. -1.
       -2   -1    0    0    0  501  0.00000000000E+00  0.00000000000E+00 -0.78870488603E+03  0.78870488603E+03  0.25500000920E-02 0.  1.
    10030    2    1    2    0    0  0.00000000000E+00  0.00000000000E+00  0.10427732417E+04  0.26201830138E+04  0.24037435371E+04 0.  0.
        1    1    3    3  502    0 -0.95936583315E+02 -0.28260835938E+03  0.17904436900E+04  0.18151473549E+04  0.50400001928E-02 0. -1.
       -1    1    3    3    0  502  0.95936583315E+02  0.28260835938E+03 -0.74767044830E+03  0.80503565889E+03  0.50400001928E-02 0.  1.
</event>
<event>
 5   0  0.1393026E-05  0.2384072E+04  0.7818609E-02  0.8445491E-01
        1   -1    0    0  501    0  0.00000000000E+00  0.00000000000E+00  0.17753537714E+04  0.17753537714E+04  0.50400001928E-02 0.  1.
       -1   -1    0    0    0  501  0.00000000000E+00  0.00000000000E+00 -0.80037543794E+03  0.80037543795E+03  0.50400001928E-02 0. -1.
    10030    2    1    2    0    0  0.00000000000E+00  0.00000000000E+00  0.97497833342E+03  0.25757292093E+04  0.23840717710E+04 0.  0.
        4    1    3    3  502    0  0.10610887134E+04 -0.37055266371E+03  0.91656811779E+03  0.14502817870E+04  0.12699999809E+01 0.  1.
       -4    1    3    3    0  502 -0.10610887134E+04  0.37055266371E+03  0.58410215634E+02  0.11254474223E+04  0.12699999809E+01 0. -1.
</event>
<event>
 5   0  0.3347728E-05  0.2394000E+04  0.7818609E-02  0.8441753E-01
       -2   -1    0    0    0  501  0.00000000000E+00  0.00000000000E+00  0.98494112093E+03  0.98494112093E+03  0.25500000920E-02 0.  1.
        2   -1    0    0  501    0  0.00000000000E+00  0.00000000000E+00 -0.14547157930E+04  0.14547157930E+04  0.25500000920E-02 0. -1.
    10030    2    1    2    0    0  0.00000000000E+00  0.00000000000E+00 -0.46977467211E+03  0.24396569140E+04  0.23940003374E+04 0.  0.
        3    1    3    3  502    0  0.10021961847E+04 -0.65359147514E+03 -0.27063313425E+03  0.12267115849E+04  0.10100000352E+00 0.  1.
       -3    1    3    3    0  502 -0.10021961847E+04  0.65359147514E+03 -0.19914153786E+03  0.12129453291E+04  0.10100000352E+00 0. -1.
</event>
<event>
 5   0  0.1506985E-05  0.2374185E+04  0.7818609E-02  0.8449232E-01
       -1   -1    0    0    0  501  0.00000000000E+00  0.00000000000E+00  0.14600964188E+04  0.14600964188E+04  0.50400001928E-02 0.  1.
        1   -1    0    0  501    0  0.00000000000E+00  0.00000000000E+00 -0.96513408124E+03  0.96513408126E+03  0.50400001928E-02 0. -1.
    10030    2    1    2    0    0  0.00000000000E+00  0.00000000000E+00  0.49496233758E+03  0.24252305001E+04  0.23741851787E+04 0.  0.
        3    1    3    3  502    0 -0.64473924079E+03 -0.77303832059E+03  0.89022467004E+03  0.13437919880E+04  0.10100000352E+00 0.  1.
       -3    1    3    3    0  502  0.64473924079E+03  0.77303832059E+03 -0.39526233246E+03  0.10814385121E+04  0.10100000352E+00 0. -1.
</event>
<event>
 5   0  0.3215208E-05  0.2407125E+04  0.7818609E-02  0.8436841E-01
        2   -1    0    0  501    0  0.00000000000E+00  0.00000000000E+00  0.18421414774E+04  0.18421414774E+04  0.25500000920E-02 0. -1.
       -2   -1    0    0    0  501  0.00000000000E+00  0.00000000000E+00 -0.78634701941E+03  0.78634701941E+03  0.25500000920E-02 0.  1.
    10030    2    1    2    0    0  0.00000000000E+00  0.00000000000E+00  0.10557944580E+04  0.26284884968E+04  0.24071248078E+04 0.  0.
        1    1    3    3  502    0  0.97144548211E+03 -0.44975723683E+03 -0.72755811125E+02  0.10729777746E+04  0.50400001928E-02 0.  1.
       -1    1    3    3    0  502 -0.97144548211E+03  0.44975723683E+03  0.11285502691E+04  0.15555107221E+04  0.50400001928E-02 0. -1.
</event>
<event>
 5   0  0.1393026E-05  0.2386904E+04  0.7818609E-02  0.8444423E-01
        1   -1    0    0  501    0  0.00000000000E+00  0.00000000000E+00  0.12004801890E+04  0.12004801890E+04  0.50400001928E-02 0. -1.
       -1   -1    0    0    0  501  0.00000000000E+00  0.00000000000E+00 -0.11864650123E+04  0.11864650123E+04  0.50400001928E-02 0.  1.
    10030    2    1    2    0    0  0.00000000000E+00  0.00000000000E+00  0.14015176707E+02  0.23869452013E+04  0.23869040553E+04 0.  0.
        4    1    3    3  502    0  0.31364812018E+03 -0.25439271615E+03  0.11300742896E+04  0.12000667941E+04  0.12699999809E+01 0. -1.
       -4    1    3    3    0  502 -0.31364812018E+03  0.25439271615E+03 -0.11160591129E+04  0.11868784073E+04  0.12699999809E+01 0.  1.
</event>
<event>
 5   0  0.3347728E-05  0.2396525E+04  0.7818609E-02  0.8440806E-01
        2   -1    0    0  501    0  0.00000000000E+00  0.00000000000E+00  0.21043726663E+04  0.21043726663E+04  0.25500000920E-02 0. -1.
       -2   -1    0    0    0  501  0.00000000000E+00  0.00000000000E+00 -0.68230921192E+03  0.68230921192E+03  0.25500000920E-02 0.  1.
    10030    2    1    2    0    0  0.00000000000E+00  0.00000000000E+00  0.14220634544E+04  0.27866818782E+04  0.23965248637E+04 0.  0.
        3    1    3    3  502    0  0.41117941199E+03  0.49448047180E+03 -0.46463637714E+03  0.79338919768E+03  0.10100000352E+00 0.  1.
       -3    1    3    3    0  502 -0.41117941199E+03 -0.49448047180E+03  0.18866998315E+04  0.19932926805E+04  0.10100000352E+00 0. -1.
</event>
<event>
 5   0  0.1393026E-05  0.2402397E+04  0.7818609E-02  0.8438607E-01
       -1   -1    0    0    0  501  0.00000000000E+00  0.00000000000E+00  0.10087788241E+04  0.10087788241E+04  0.50400001928E-02 0.  1.
        1   -1    0    0  501    0  0.00000000000E+00  0.00000000000E+00 -0.14303216720E+04  0.14303216720E+04  0.50400001928E-02 0. -1.
    10030    2    1    2    0    0  0.00000000000E+00  0.00000000000E+00 -0.42154284794E+03  0.24391004962E+04  0.24023973147E+04 0.  0.
        4    1    3    3  502    0  0.11086069982E+04  0.46241801024E+03 -0.20462008201E+03  0.12184871290E+04  0.12699999809E+01 0. -1.
       -4    1    3    3    0  502 -0.11086069982E+04 -0.46241801024E+03 -0.21692276594E+03  0.12206133671E+04  0.12699999809E+01 0.  1.
</event>
<event>
 5   0  0.1147362E-05  0.2423987E+04  0.7818609E-02  0.8430577E-01
       -3   -1    0    0    0  501  0.00000000000E+00  0.00000000000E+00  0.16438223744E+04  0.16438223775E+04  0.10100000352E+00 0. -1.
        3   -1    0    0  501    0  0.00000000000E+00  0.00000000000E+00 -0.89360518793E+03  0.89360519363E+03  0.10100000352E+00 0.  1.
    10030    2    1    2    0    0  0.00000000000E+00  0.00000000000E+00  0.75021718651E+03  0.25374275712E+04  0.24239869744E+04 0.  0.
        4    1    3    3  502    0  0.39433970984E+03 -0.11369108348E+04  0.22393199231E+03  0.12240168313E+04  0.12699999809E+01 0.  1.
       -4    1    3    3    0  502 -0.39433970984E+03  0.11369108348E+04  0.52628519421E+03  0.13134107399E+04  0.12699999809E+01 0. -1.
</event>
<event>
 5   0  0.1393026E-05  0.2411036E+04  0.7818609E-02  0.8435383E-01
       -1   -1    0    0    0  501  0.00000000000E+00  0.00000000000E+00  0.10257886437E+04  0.10257886438E+04  0.50400001928E-02 0. -1.
        1   -1    0    0  501    0  0.00000000000E+00  0.00000000000E+00 -0.14167378095E+04  0.14167378095E+04  0.50400001928E-02 0.  1.
    10030    2    1    2    0    0  0.00000000000E+00  0.00000000000E+00 -0.39094916579E+03  0.24425264533E+04  0.24110359236E+04 0.  0.
        4    1    3    3  502    0 -0.24417762999E+03  0.96124785387E+03  0.49878772307E+03  0.11101400620E+04  0.12699999809E+01 0. -1.
       -4    1    3    3    0  502  0.24417762999E+03 -0.96124785387E+03 -0.88973688886E+03  0.13323863914E+04  0.12699999809E+01 0.  1.
</event>
<event>
 5   0  0.1434943E-05  0.2304595E+04  0.7818609E-02  0.8476111E-01
        1   -1    0    0  501    0  0.00000000000E+00  0.00000000000E+00  0.22180924743E+04  0.22180924743E+04  0.50400001928E-02 0. -1.
       -1   -1    0    0    0  501  0.00000000000E+00  0.00000000000E+00 -0.59861798135E+03  0.59861798137E+03  0.50400001928E-02 0.  1.
    10030    2    1    2    0    0  0.00000000000E+00  0.00000000000E+00  0.16194744929E+04  0.28167104557E+04  0.23045954434E+04 0.  0.
        5    1    3    3  502    0 -0.46178294212E+03 -0.89303288912E+03  0.12157856509E+03  0.10126967286E+04  0.46999998093E+01 0.  1.
       -5    1    3    3    0  502  0.46178294212E+03  0.89303288912E+03  0.14978959278E+04  0.18040137270E+04  0.46999998093E+01 0. -1.
</event>
<event>
 5   0  0.3310037E-05  0.2401264E+04  0.7818609E-02  0.8439030E-01
       -2   -1    0    0    0  501  0.00000000000E+00  0.00000000000E+00  0.87552690004E+03  0.87552690004E+03  0.25500000920E-02 0.  1.
        2   -1    0    0  501    0  0.00000000000E+00  0.00000000000E+00 -0.16464569532E+04  0.16464569532E+04  0.25500000920E-02 0. -1.
    10030    2    1    2    0    0  0.00000000000E+00  0.00000000000E+00 -0.77093005320E+03  0.25219838533E+04  0.24012641273E+04 0.  0.
        2    1    3    3  502    0 -0.69635173707E+03  0.20995316156E+03 -0.13887544848E+04  0.15676814379E+04  0.25500000920E-02 0. -1.
       -2    1    3    3    0  502  0.69635173707E+03 -0.20995316156E+03  0.61782443156E+03  0.95430241538E+03  0.25500000920E-02 0.  1.
</event>
<event>
 5   0  0.3345974E-05  0.2423207E+04  0.7818609E-02  0.8430866E-01
        2   -1    0    0  501    0  0.00000000000E+00  0.00000000000E+00  0.97737186617E+03  0.97737186617E+03  0.25500000920E-02 0. -1.
       -2   -1    0    0    0  501  0.00000000000E+00  0.00000000000E+00 -0.15019692278E+04  0.15019692278E+04  0.25500000920E-02 0.  1.
    10030    2    1    2    0    0  0.00000000000E+00  0.00000000000E+00 -0.52459736160E+03  0.24793410940E+04  0.24232065261E+04 0.  0.
        4    1    3    3  502    0  0.62746890967E+03 -0.10346754222E+04 -0.32462274377E+03  0.12528575341E+04  0.12699999809E+01 0. -1.
       -4    1    3    3    0  502 -0.62746890967E+03  0.10346754222E+04 -0.19997461783E+03  0.12264835599E+04  0.12699999809E+01 0.  1.
</event>
<event>
 5   0  0.3320780E-05  0.2392299E+04  0.7818609E-02  0.8442392E-01
       -2   -1    0    0    0  501  0.00000000000E+00  0.00000000000E+00  0.10168643028E+04  0.10168643028E+04  0.25500000920E-02 0.  1.
        2   -1    0    0  501    0  0.00000000000E+00  0.00000000000E+00 -0.14070445982E+04  0.14070445982E+04  0.25500000920E-02 0. -1.
    10030    2    1    2    0    0  0.00000000000E+00  0.00000000000E+00 -0.39018029538E+03  0.24239089010E+04  0.23922988312E+04 0.  0.
        5    1    3    3  502    0 -0.86548949776E+03 -0.76735194387E+03 -0.50382980843E+03  0.12616527424E+04  0.46999998093E+01 0. -1.
       -5    1    3    3    0  502  0.86548949776E+03  0.76735194387E+03  0.11364951305E+03  0.11622561586E+04  0.46999998093E+01 0.  1.
</event>
<event>
 5   0  0.3320780E-05  0.2425110E+04  0.7818609E-02  0.8430162E-01
        2   -1    0    0  501    0  0.00000000000E+00  0.00000000000E+00  0.21627804753E+04  0.21627804754E+04  0.25500000920E-02 0. -1.
       -2   -1    0    0    0  501  0.00000000000E+00  0.00000000000E+00 -0.67981455720E+03  0.67981455720E+03  0.25500000920E-02 0.  1.
    10030    2    1    2    0    0  0.00000000000E+00  0.00000000000E+00  0.14829659182E+04  0.28425950326E+04  0.24251100191E+04 0.  0.
        5    1    3    3  502    0  0.34834948129E+03 -0.41829450917E+03 -0.52853051670E+03  0.75873859438E+03  0.46999998093E+01 0.  1.
       -5    1    3    3    0  502 -0.34834948129E+03  0.41829450917E+03  0.20114964348E+04  0.20838564382E+04  0.46999998093E+01 0. -1.
</event>
<event>
 5   0  0.1393026E-05  0.2383414E+04  0.7818609E-02  0.8445739E-01
        1   -1    0    0  501    0  0.00000000000E+00  0.00000000000E+00  0.17241760827E+04  0.17241760827E+04  0.50400001928E-02 0. -1.
       -1   -1    0    0    0  501  0.00000000000E+00  0.00000000000E+00 -0.82367808795E+03  0.82367808797E+03  0.50400001928E-02 0.  1.
    10030    2    1    2    0    0  0.00000000000E+00  0.00000000000E+00  0.90049799477E+03  0.25478541707E+04  0.23834144072E+04 0.  0.
        4    1    3    3  502    0  0.30762508405E+01 -0.50314862579E+02 -0.82253715919E+03  0.82408133085E+03  0.12699999809E+01 0.  1.
       -4    1    3    3    0  502 -0.30762508405E+01  0.50314862579E+02  0.17230351540E+04  0.17237728398E+04  0.12699999809E+01 0. -1.
</event>
<event>
 5   0  0.1407158E-05  0.2420843E+04  0.7818609E-02  0.8431741E-01
       -1   -1    0    0    0  501  0.00000000000E+00  0.00000000000E+00  0.80780941934E+03  0.80780941935E+03  0.50400001928E-02 0.  1.
        1   -1    0    0  501    0  0.00000000000E+00  0.00000000000E+00 -0.18136952559E+04  0.18136952559E+04  0.50400001928E-02 0. -1.
    10030    2    1    2    0    0  0.00000000000E+00  0.00000000000E+00 -0.10058858366E+04  0.26215046753E+04  0.24208429206E+04 0.  0.
        1    1    3    3  502    0  0.61620072534E+03  0.79265749756E+03  0.22919820294E+03  0.10298257419E+04  0.50400001928E-02 0.  1.
       -1    1    3    3    0  502 -0.61620072534E+03 -0.79265749756E+03 -0.12350840395E+04  0.15916789334E+04  0.50400001928E-02 0. -1.
</event>
<event>
 5   0  0.3347728E-05  0.2407288E+04  0.7818609E-02  0.8436780E-01
       -2   -1    0    0    0  501  0.00000000000E+00  0.00000000000E+00  0.11089458697E+04  0.11089458697E+04  0.25500000920E-02 0. -1.
        2   -1    0    0  501    0  0.00000000000E+00  0.00000000000E+00 -0.13064286020E+04  0.13064286020E+04  0.25500000920E-02 0.  1.
    10030    2    1    2    0    0  0.00000000000E+00  0.00000000000E+00 -0.19748273235E+03  0.24153744717E+04  0.24072877703E+04 0.  0.
        3    1    3    3  502    0  0.60030205503E+03  0.10432348925E+04 -0.91166574323E+02  0.12070679155E+04  0.10100000352E+00 0. -1.
       -3    1    3    3    0  502 -0.60030205503E+03 -0.10432348925E+04 -0.10631615803E+03  0.12083065562E+04  0.10100000352E+00 0.  1.
</event>
<event>
 5   0  0.3215208E-05  0.2362192E+04  0.7818609E-02  0.8453796E-01
       -2   -1    0    0    0  501  0.00000000000E+00  0.00000000000E+00  0.90640253537E+03  0.90640253538E+03  0.25500000920E-02 0.  1.
        2   -1    0    0  501    0  0.00000000000E+00  0.00000000000E+00 -0.15390376118E+04  0.15390376118E+04  0.25500000920E-02 0. -1.
    10030    2    1    2    0    0  0.00000000000E+00  0.00000000000E+00 -0.63263507639E+03  0.24454401471E+04  0.23621918579E+04 0.  0.
        1    1    3    3  502    0  0.33594401163E+03 -0.45319270101E+03  0.75791529079E+03  0.94481616796E+03  0.50400001928E-02 0.  1.
       -1    1    3    3    0  502 -0.33594401163E+03  0.45319270101E+03 -0.13905503672E+04  0.15006239792E+04  0.50400001928E-02 0. -1.
</event>
<event>
 5   0  0.3320780E-05  0.2419191E+04  0.7818609E-02  0.8432354E-01
        2   -1    0    0  501    0  0.00000000000E+00  0.00000000000E+00  0.13135516642E+04  0.13135516642E+04  0.25500000920E-02 0.  1.
       -2   -1    0    0    0  501  0.00000000000E+00  0.00000000000E+00 -0.11138663022E+04  0.11138663022E+04  0.25500000920E-02 0. -1.
    10030    2    1    2    0    0  0.00000000000E+00  0.00000000000E+00  0.19968536200E+03  0.24274179663E+04  0.24191907199E+04 0.  0.
        5    1    3    3  502    0  0.52777883656E+03  0.10436248698E+04  0.40975464547E+03  0.12392031023E+04  0.46999998093E+01 0. -1.
       -5    1    3    3    0  502 -0.52777883656E+03 -0.10436248698E+04 -0.21006928347E+03  0.11882148640E+04  0.46999998093E+01 0.  1.
</event>
<event>
 5   0  0.1506985E-05  0.2045711E+04  0.7818609E-02  0.8585543E-01
        1   -1    0    0  501    0  0.00000000000E+00  0.00000000000E+00  0.83568889991E+03  0.83568889993E+03  0.50400001928E-02 0. -1.
       -1   -1    0    0    0  501  0.00000000000E+00  0.00000000000E+00 -0.12519410404E+04  0.12519410404E+04  0.50400001928E-02 0.  1.
    10030    2    1    2    0    0  0.00000000000E+00  0.00000000000E+00 -0.41625214053E+03  0.20876299404E+04  0.20457108602E+04 0.  0.
        3    1    3    3  502    0 -0.27224867005E+03 -0.32959984598E+03  0.74015015055E+03  0.85473835316E+03  0.10100000352E+00 0. -1.
       -3    1    3    3    0  502  0.27224867005E+03  0.32959984598E+03 -0.11564022911E+04  0.12328915872E+04  0.10100000352E+00 0.  1.
</event>
<event>
 5   0  0.3310037E-05  0.2435648E+04  0.7818609E-02  0.8426277E-01
        2   -1    0    0  501    0  0.00000000000E+00  0.00000000000E+00  0.13992940925E+04  0.13992940926E+04  0.25500000920E-02 0. -1.
       -2   -1    0    0    0  501  0.00000000000E+00  0.00000000000E+00 -0.10598883281E+04  0.10598883281E+04  0.25500000920E-02 0.  1.
    10030    2    1    2    0    0  0.00000000000E+00  0.00000000000E+00  0.33940576448E+03  0.24591824206E+04  0.24356481488E+04 0.  0.
        2    1    3    3  502    0  0.46478850374E+03 -0.47761167283E+03  0.11988427417E+04  0.13716286606E+04  0.25500000920E-02 0. -1.
       -2    1    3    3    0  502 -0.46478850374E+03  0.47761167283E+03 -0.85943697719E+03  0.10875537601E+04  0.25500000920E-02 0.  1.
</event>
<event>
 5   0  0.1407158E-05  0.2406581E+04  0.7818609E-02  0.8437044E-01
       -1   -1    0    0    0  501  0.00000000000E+00  0.00000000000E+00  0.15267403085E+04  0.15267403085E+04  0.50400001928E-02 0.  1.
        1   -1    0    0  501    0  0.00000000000E+00  0.00000000000E+00 -0.94836548085E+03  0.94836548086E+03  0.50400001928E-02 0. -1.
    10030    2    1    2    0    0  0.00000000000E+00  0.00000000000E+00  0.57837482767E+03  0.24751057894E+04  0.24065808167E+04 0.  0.
        1    1    3    3  502    0 -0.85569338043E+03 -0.76828375359E+03  0.65344252897E+03  0.13226708684E+04  0.50400001928E-02 0.  1.
       -1    1    3    3    0  502  0.85569338043E+03  0.76828375359E+03 -0.75067701304E+02  0.11524349210E+04  0.50400001928E-02 0. -1.
</event>
<event>
 5   0  0.3347728E-05  0.2390553E+04  0.7818609E-02  0.8443049E-01
        2   -1    0    0  501    0  0.00000000000E+00  0.00000000000E+00  0.10119194972E+04  0.10119194972E+04  0.25500000920E-02 0. -1.
       -2   -1    0    0    0  501  0.00000000000E+00  0.00000000000E+00 -0.14118573053E+04  0.14118573054E+04  0.25500000920E-02 0.  1.
    10030    2    1    2    0    0  0.00000000000E+00  0.00000000000E+00 -0.39993780814E+03  0.24237768026E+04  0.23905530193E+04 0.  0.
        3    1    3    3  502    0  0.12695001535E+03 -0.73340247400E+01 -0.14049796122E+04  0.14107224445E+04  0.10100000352E+00 0.  1.
       -3    1    3    3    0  502 -0.12695001535E+03  0.73340247400E+01  0.10050418041E+04  0.10130543581E+04  0.10100000352E+00 0. -1.
</event>
<event>
 5   0  0.3310037E-05  0.2466916E+04  0.7818609E-02  0.8414867E-01
        2   -1    0    0  501    0  0.00000000000E+00  0.00000000000E+00  0.12150770076E+04  0.12150770076E+04  0.25500000920E-02 0.  1.
       -2   -1    0    0    0  501  0.00000000000E+00  0.00000000000E+00 -0.12521175339E+04  0.12521175339E+04  0.25500000920E-02 0. -1.
    10030    2    1    2    0    0  0.00000000000E+00  0.00000000000E+00 -0.37040526334E+02  0.24671945415E+04  0.24669164771E+04 0.  0.
        2    1    3    3  502    0  0.63630423718E+02 -0.36050037095E+03 -0.11965366748E+04  0.12512830865E+04  0.25500000920E-02 0. -1.
       -2    1    3    3    0  502 -0.63630423718E+02  0.36050037095E+03  0.11594961485E+04  0.12159114551E+04  0.25500000920E-02 0.  1.
</event>
<event>
 5   0  0.1407158E-05  0.2421353E+04  0.7818609E-02  0.8431552E-01
        1   -1    0    0  501    0  0.00000000000E+00  0.00000000000E+00  0.12684371565E+04  0.12684371565E+04  0.50400001928E-02 0. -1.
       -1   -1    0    0    0  501  0.00000000000E+00  0.00000000000E+00 -0.11555460421E+04  0.11555460421E+04  0.50400001928E-02 0.  1.
    10030    2    1    2    0    0  0.00000000000E+00  0.00000000000E+00  0.11289111436E+03  0.24239831987E+04  0.24213529573E+04 0.  0.
        1    1    3    3  502    0 -0.19839746904E+03 -0.34903212762E+03  0.11998563688E+04  0.12652431733E+04  0.50400001928E-02 0. -1.
       -1    1    3    3    0  502  0.19839746904E+03  0.34903212762E+03 -0.10869652545E+04  0.11587400253E+04  0.50400001928E-02 0.  1.
</event>
<event>
 5   0  0.3320780E-05  0.2399906E+04  0.7818609E-02  0.8439539E-01
        2   -1    0    0  501    0  0.00000000000E+00  0.00000000000E+00  0.18344046992E+04  0.18344046992E+04  0.25500000920E-02 0. -1.
       -2   -1    0    0    0  501  0.00000000000E+00  0.00000000000E+00 -0.78493458233E+03  0.78493458234E+03  0.25500000920E-02 0.  1.
    10030    2    1    2    0    0  0.00000000000E+00  0.00000000000E+00  0.10494701168E+04  0.26193392815E+04  0.23999064035E+04 0.  0.
        5    1    3    3  502    0  0.96763026384E+03  0.23697916998E+03 -0.20530138305E+03  0.10171716681E+04  0.46999998093E+01 0.  1.
       -5    1    3    3    0  502 -0.96763026384E+03 -0.23697916998E+03  0.12547714999E+04  0.16021676134E+04  0.46999998093E+01 0. -1.
</event>
<event>
 5   0  0.3310037E-05  0.2451040E+04  0.7818609E-02  0.8420638E-01
        2   -1    0    0  501    0  0.00000000000E+00  0.00000000000E+00  0.10102614416E+04  0.10102614416E+04  0.25500000920E-02 0. -1.
       -2   -1    0    0    0  501  0.00000000000E+00  0.00000000000E+00 -0.14866439350E+04  0.14866439350E+04  0.25500000920E-02 0.  1.
    10030    2    1    2    0    0  0.00000000000E+00  0.00000000000E+00 -0.47638249335E+03  0.24969053766E+04  0.24510398160E+04 0.  0.
        2    1    3    3  502    0 -0.77575070712E+03 -0.68832380191E+03  0.42695889600E+03  0.11215492476E+04  0.25500000920E-02 0. -1.
       -2    1    3    3    0  502  0.77575070712E+03  0.68832380191E+03 -0.90334138936E+03  0.13753561290E+04  0.25500000920E-02 0.  1.
</event>
<event>
 5   0  0.3320780E-05  0.2263134E+04  0.7818609E-02  0.8492600E-01
        2   -1    0    0  501    0  0.00000000000E+00  0.00000000000E+00  0.15088612150E+04  0.15088612150E+04  0.25500000920E-02 0.  1.
       -2   -1    0    0    0  501  0.00000000000E+00  0.00000000000E+00 -0.84861606358E+03  0.84861606358E+03  0.25500000920E-02 0. -1.
    10030    2    1    2    0    0  0.00000000000E+00  0.00000000000E+00  0.66024515139E+03  0.23574772786E+04  0.22631339905E+04 0.  0.
        5    1    3    3  502    0  0.31629890999E+03 -0.80988093989E+03 -0.42427003153E+03  0.96746022497E+03  0.46999998093E+01 0. -1.
       -5    1    3    3    0  502 -0.31629890999E+03  0.80988093989E+03  0.10845151829E+04  0.13900170536E+04  0.46999998093E+01 0.  1.
</event>
<event>
 5   0  0.1407158E-05  0.2391544E+04  0.7818609E-02  0.8442676E-01
       -1   -1    0    0    0  501  0.00000000000E+00  0.00000000000E+00  0.21841033246E+04  0.21841033246E+04  0.50400001928E-02 0.  1.
        1   -1    0    0  501    0  0.00000000000E+00  0.00000000000E+00 -0.65467153679E+03  0.65467153681E+03  0.50400001928E-02 0. -1.
    10030    2    1    2    0    0  0.00000000000E+00  0.00000000000E+00  0.15294317878E+04  0.28387748614E+04  0.23915436689E+04 0.  0.
        1    1    3    3  502    0  0.98176324239E+03 -0.50354356517E+03  0.21759133499E+03  0.11246160123E+04  0.50400001928E-02 0. -1.
       -1    1    3    3    0  502 -0.98176324239E+03  0.50354356517E+03  0.13118404528E+04  0.17141588491E+04  0.50400001928E-02 0.  1.
</event>
<event>
 5   0  0.3345974E-05  0.2386598E+04  0.7818609E-02  0.8444538E-01
        2   -1    0    0  501    0  0.00000000000E+00  0.00000000000E+00  0.12670310169E+04  0.12670310169E+04  0.25500000920E-02 0.  1.
       -2   -1    0    0    0  501  0.00000000000E+00  0.00000000000E+00 -0.11238579758E+04  0.11238579758E+04  0.25500000920E-02 0. -1.
    10030    2    1    2    0    0  0.00000000000E+00  0.00000000000E+00  0.14317304104E+03  0.23908889927E+04  0.23865983440E+04 0.  0.
        4    1    3    3  502    0  0.35895997630E+03 -0.18174028231E+03 -0.10538562999E+04  0.11280498697E+04  0.12699999809E+01 0. -1.
       -4    1    3    3    0  502 -0.35895997630E+03  0.18174028231E+03  0.11970293409E+04  0.12628391230E+04  0.12699999809E+01 0.  1.
</event>
<event>
 5   0  0.3347728E-05  0.2382434E+04  0.7818609E-02  0.8446109E-01
       -2   -1    0    0    0  501  0.00000000000E+00  0.00000000000E+00  0.77840553682E+03  0.77840553682E+03  0.25500000920E-02 0.  1.
        2   -1    0    0  501    0  0.00000000000E+00  0.00000000000E+00 -0.18229550485E+04  0.18229550485E+04  0.25500000920E-02 0. -1.
    10030    2    1    2    0    0  0.00000000000E+00  0.00000000000E+00 -0.10445495117E+04  0.26013605853E+04  0.23824343039E+04 0.  0.
        3    1    3    3  502    0 -0.82152426031E+03 -0.43762900852E+03  0.28938878313E+03  0.97476517038E+03  0.10100000352E+00 0.  1.
       -3    1    3    3    0  502  0.82152426031E+03  0.43762900852E+03 -0.13339382948E+04  0.16265954149E+04  0.10100000352E+00 0. -1.
</event>
<event>
 5   0  0.3320780E-05  0.2260225E+04  0.7818609E-02  0.8493771E-01
       -2   -1    0    0    0  501  0.00000000000E+00  0.00000000000E+00  0.13312719607E+04  0.13312719607E+04  0.25500000920E-02 0.  1.
        2   -1    0    0  501    0  0.00000000000E+00  0.00000000000E+00 -0.95934925764E+03  0.95934925764E+03  0.25500000920E-02 0. -1.
    10030    2    1    2    0    0  0.00000000000E+00  0.00000000000E+00  0.37192270310E+03  0.22906212184E+04  0.22602254465E+04 0.  0.
        5    1    3    3  502    0 -0.13839784999E+02 -0.10794376164E+04 -0.15283295857E+03  0.10903013852E+04  0.46999998093E+01 0. -1.
       -5    1    3    3    0  502  0.13839784999E+02  0.10794376164E+04  0.52475566166E+03  0.12003198332E+04  0.46999998093E+01 0.  1.
</event>
<event>
 5   0  0.3347728E-05  0.2418227E+04  0.7818609E-02  0.8432711E-01
        2   -1    0    0  501    0  0.00000000000E+00  0.00000000000E+00  0.24283736813E+04  0.24283736813E+04  0.25500000920E-02 0. -1.
       -2   -1    0    0    0  501  0.00000000000E+00  0.00000000000E+00 -0.60203053055E+03  0.60203053056E+03  0.25500000920E-02 0.  1.
    10030    2    1    2    0    0  0.00000000000E+00  0.00000000000E+00  0.18263431508E+04  0.30304042119E+04  0.24182267021E+04 0.  0.
        3    1    3    3  502    0 -0.88734754332E+03  0.77368534796E+03  0.56774610999E+03  0.13070234642E+04  0.10100000352E+00 0. -1.
       -3    1    3    3    0  502  0.88734754332E+03 -0.77368534796E+03  0.12585970408E+04  0.17233807477E+04  0.10100000352E+00 0.  1.
</event>
<event>
 5   0  0.1506985E-05  0.2368395E+04  0.7818609E-02  0.8451432E-01
       -1   -1    0    0    0  501  0.00000000000E+00  0.00000000000E+00  0.94757000759E+03  0.94757000760E+03  0.50400001928E-02 0. -1.
        1   -1    0    0  501    0  0.00000000000E+00  0.00000000000E+00 -0.14799152431E+04  0.14799152431E+04  0.50400001928E-02 0.  1.
    10030    2    1    2    0    0  0.00000000000E+00  0.00000000000E+00 -0.53234523550E+03  0.24274852507E+04  0.23683946446E+04 0.  0.
        3    1    3    3  502    0 -0.76535337971E+03 -0.19000126935E+03 -0.11716487816E+04  0.14123126976E+04  0.10100000352E+00 0.  1.
       -3    1    3    3    0  502  0.76535337971E+03  0.19000126935E+03  0.63930354613E+03  0.10151725531E+04  0.10100000352E+00 0. -1.
</event>
<event>
 5   0  0.1506985E-05  0.2411096E+04  0.7818609E-02  0.8435361E-01
        1   -1    0    0  501    0  0.00000000000E+00  0.00000000000E+00  0.14096270552E+04  0.14096270552E+04  0.50400001928E-02 0.  1.
       -1   -1    0    0    0  501  0.00000000000E+00  0.00000000000E+00 -0.10310143787E+04  0.10310143787E+04  0.50400001928E-02 0. -1.
    10030    2    1    2    0    0  0.00000000000E+00  0.00000000000E+00  0.37861267645E+03  0.24406414339E+04  0.24110958194E+04 0.  0.
        3    1    3    3  502    0  0.44931312409E+02  0.10454491232E+04 -0.41666366775E+03  0.11263175903E+04  0.10100000352E+00 0. -1.
       -3    1    3    3    0  502 -0.44931312409E+02 -0.10454491232E+04  0.79527634420E+03  0.13143238436E+04  0.10100000352E+00 0.  1.
</event>
<event>
 5   0  0.3345974E-05  0.2417974E+04  0.7818609E-02  0.8432805E-01
       -2   -1    0    0    0  501  0.00000000000E+00  0.00000000000E+00  0.12093231694E+04  0.12093231694E+04  0.25500000920E-02 0. -1.
        2   -1    0    0  501    0  0.00000000000E+00  0.00000000000E+00 -0.12086505717E+04  0.12086505717E+04  0.25500000920E-02 0.  1.
    10030    2    1    2    0    0  0.00000000000E+00  0.00000000000E+00  0.67259770535E+00  0.24179737411E+04  0.24179736475E+04 0.  0.
        4    1    3    3  502    0  0.38637630449E+03  0.94390104541E+03  0.64949862643E+03  0.12091674453E+04  0.12699999809E+01 0. -1.
       -4    1    3    3    0  502 -0.38637630449E+03 -0.94390104541E+03 -0.64882602872E+03  0.12088062958E+04  0.12699999809E+01 0.  1.
</event>
<event>
 5   0  0.1434943E-05  0.2448018E+04  0.7818609E-02  0.8421742E-01
       -1   -1    0    0    0  501  0.00000000000E+00  0.00000000000E+00  0.87090800400E+03  0.87090800401E+03  0.50400001928E-02 0.  1.
        1   -1    0    0  501    0  0.00000000000E+00  0.00000000000E+00 -0.17202706446E+04  0.17202706446E+04  0.50400001928E-02 0. -1.
    10030    2    1    2    0    0  0.00000000000E+00  0.00000000000E+00 -0.84936264056E+03  0.25911786486E+04  0.24480175436E+04 0.  0.
        5    1    3    3  502    0  0.44294163604E+02  0.11969347622E+04 -0.15782544118E+03  0.12081166160E+04  0.46999998093E+01 0.  1.
       -5    1    3    3    0  502 -0.44294163604E+02 -0.11969347622E+04 -0.69153719938E+03  0.13830620326E+04  0.46999998093E+01 0. -1.
</event>
<event>
 5   0  0.1506985E-05  0.2428170E+04  0.7818609E-02  0.8429032E-01
        1   -1    0    0  501    0  0.00000000000E+00  0.00000000000E+00  0.22163486738E+04  0.22163486738E+04  0.50400001928E-02 0.  1.
       -1   -1    0    0    0  501  0.00000000000E+00  0.00000000000E+00 -0.66505862182E+03  0.66505862184E+03  0.50400001928E-02 0. -1.
    10030    2    1    2    0    0  0.00000000000E+00  0.00000000000E+00  0.15512900520E+04  0.28814072957E+04  0.24281695118E+04 0.  0.
        3    1    3    3  502    0 -0.65344396049E+03  0.84720491966E+03  0.14565600137E+04  0.18072941844E+04  0.10100000352E+00 0.  1.
       -3    1    3    3    0  502  0.65344396049E+03 -0.84720491966E+03  0.94730038317E+02  0.10741131112E+04  0.10100000352E+00 0. -1.
</event>
<event>
 5   0  0.1147362E-05  0.2409566E+04  0.7818609E-02  0.8435931E-01
       -3   -1    0    0    0  501  0.00000000000E+00  0.00000000000E+00  0.92827565715E+03  0.92827566264E+03  0.10100000352E+00 0.  1.
        3   -1    0    0  501    0  0.00000000000E+00  0.00000000000E+00 -0.15636538640E+04  0.15636538673E+04  0.10100000352E+00 0. -1.
    10030    2    1    2    0    0  0.00000000000E+00  0.00000000000E+00 -0.63537820690E+03  0.24919295299E+04  0.24095657942E+04 0.  0.
        1    1    3    3  502    0  0.35048341207E+03  0.86153280930E+03  0.47427043294E+03  0.10440353668E+04  0.50400001928E-02 0.  1.
       -1    1    3    3    0  502 -0.35048341207E+03 -0.86153280930E+03 -0.11096486398E+04  0.14478941631E+04  0.50400001928E-02 0. -1.
</event>
<event>
 5   0  0.1506985E-05  0.2383559E+04  0.7818609E-02  0.8445684E-01
        1   -1    0    0  501    0  0.00000000000E+00  0.00000000000E+00  0.16097859733E+04  0.16097859733E+04  0.50400001928E-02 0. -1.
       -1   -1    0    0    0  501  0.00000000000E+00  0.00000000000E+00 -0.88231535092E+03  0.88231535093E+03  0.50400001928E-02 0.  1.
    10030    2    1    2    0    0  0.00000000000E+00  0.00000000000E+00  0.72747062236E+03  0.24921013242E+04  0.23835594190E+04 0.  0.
        3    1    3    3  502    0 -0.68737265946E+03 -0.65049277098E+03  0.11210950556E+04  0.14671319477E+04  0.10100000352E+00 0. -1.
       -3    1    3    3    0  502  0.68737265946E+03  0.65049277098E+03 -0.39362443329E+03  0.10249693765E+04  0.10100000352E+00 0.  1.
</event>
<event>
 5   0  0.3215208E-05  0.2402450E+04  0.7818609E-02  0.8438587E-01
        2   -1    0    0  501    0  0.00000000000E+00  0.00000000000E+00  0.15473430426E+04  0.15473430426E+04  0.25500000920E-02 0. -1.
       -2   -1    0    0    0  501  0.00000000000E+00  0.00000000000E+00 -0.93252840598E+03  0.93252840598E+03  0.25500000920E-02 0.  1.
    10030    2    1    2    0    0  0.00000000000E+00  0.00000000000E+00  0.61481463660E+03  0.24798714486E+04  0.24024498671E+04 0.  0.
        1    1    3    3  502    0  0.51123668359E+03  0.10627475197E+04  0.54312152944E+03  0.12983744579E+04  0.50400001928E-02 0.  1.
       -1    1    3    3    0  502 -0.51123668359E+03 -0.10627475197E+04  0.71693107165E+02  0.11814969906E+04  0.50400001928E-02 0. -1.
</event>
<event>
 5   0  0.1401596E-05  0.2454903E+04  0.7818609E-02  0.8419230E-01
       -1   -1    0    0    0  501  0.00000000000E+00  0.00000000000E+00  0.11253159234E+04  0.11253159235E+04  0.50400001928E-02 0.  1.
        1   -1    0    0  501    0  0.00000000000E+00  0.00000000000E+00 -0.13388570987E+04  0.13388570987E+04  0.50400001928E-02 0. -1.
    10030    2    1    2    0    0  0.00000000000E+00  0.00000000000E+00 -0.21354117528E+03  0.24641730222E+04  0.24549030225E+04 0.  0.
        2    1    3    3  502    0 -0.21891516960E+03  0.96504455856E+03 -0.83573762852E+03  0.12952575942E+04  0.25500000920E-02 0. -1.
       -2    1    3    3    0  502  0.21891516960E+03 -0.96504455856E+03  0.62219645324E+03  0.11689154280E+04  0.25500000920E-02 0.  1.
</event>
<event>
 5   0  0.1506985E-05  0.2406838E+04  0.7818609E-02  0.8436948E-01
       -1   -1    0    0    0  501  0.00000000000E+00  0.00000000000E+00  0.60739021983E+03  0.60739021985E+03  0.50400001928E-02 0. -1.
        1   -1    0    0  501    0  0.00000000000E+00  0.00000000000E+00 -0.23843285863E+04  0.23843285863E+04  0.50400001928E-02 0.  1.
    10030    2    1    2    0    0  0.00000000000E+00  0.00000000000E+00 -0.17769383665E+04  0.29917188062E+04  0.24068384775E+04 0.  0.
        3    1    3    3  502    0  0.22922467606E+03 -0.11296179038E+04 -0.13184084537E+04  0.17512228361E+04  0.10100000352E+00 0.  1.
       -3    1    3    3    0  502 -0.22922467606E+03  0.11296179038E+04 -0.45852991284E+03  0.12404959701E+04  0.10100000352E+00 0. -1.
</event>
<event>
 5   0  0.1401596E-05  0.2376650E+04  0.7818609E-02  0.8448298E-01
        1   -1    0    0  501    0  0.00000000000E+00  0.00000000000E+00  0.13774531234E+04  0.13774531234E+04  0.50400001928E-02 0. -1.
       -1   -1    0    0    0  501  0.00000000000E+00  0.00000000000E+00 -0.10251643318E+04  0.10251643318E+04  0.50400001928E-02 0.  1.
    10030    2    1    2    0    0  0.00000000000E+00  0.00000000000E+00  0.35228879154E+03  0.24026174552E+04  0.23766495837E+04 0.  0.
        2    1    3    3  502    0 -0.41040006598E+03 -0.11152070547E+04  0.17522795755E+03  0.12011743529E+04  0.25500000920E-02 0.  1.
       -2    1    3    3    0  502  0.41040006598E+03  0.11152070547E+04  0.17706083399E+03  0.12014431023E+04  0.25500000920E-02 0. -1.
</event>
<event>
 5   0  0.1506985E-05  0.2230062E+04  0.7818609E-02  0.8506019E-01
        1   -1    0    0  501    0  0.00000000000E+00  0.00000000000E+00  0.17533022927E+04  0.17533022927E+04  0.50400001928E-02 0. -1.
       -1   -1    0    0    0  501  0.00000000000E+00  0.00000000000E+00 -0.70911554934E+03  0.70911554936E+03  0.50400001928E-02 0.  1.
    10030    2    1    2    0    0  0.00000000000E+00  0.00000000000E+00  0.10441867434E+04  0.24624178421E+04  0.22300618094E+04 0.  0.
        3    1    3    3  502    0  0.30311517664E+03  0.90235473113E+03 -0.11907188357E+03  0.95932319620E+03  0.10100000352E+00 0.  1.
       -3    1    3    3    0  502 -0.30311517664E+03 -0.90235473113E+03  0.11632586269E+04  0.15030946459E+04  0.10100000352E+00 0. -1.
</event>
<event>
 5   0  0.3320780E-05  0.2411917E+04  0.7818609E-02  0.8435055E-01
       -2   -1    0    0    0  501  0.00000000000E+00  0.00000000000E+00  0.13174504295E+04  0.13174504295E+04  0.25500000920E-02 0. -1.
        2   -1    0    0  501    0  0.00000000000E+00  0.00000000000E+00 -0.11039022437E+04  0.11039022437E+04  0.25500000920E-02 0.  1.
    10030    2    1    2    0    0  0.00000000000E+00  0.00000000000E+00  0.21354818582E+03  0.24213526732E+04  0.24119174821E+04 0.  0.
        5    1    3    3  502    0 -0.93770806722E+03 -0.49766727385E+03  0.68115319813E+03  0.12613329870E+04  0.46999998093E+01 0. -1.
       -5    1    3    3    0  502  0.93770806722E+03  0.49766727385E+03 -0.46760501231E+03  0.11600196862E+04  0.46999998093E+01 0.  1.
</event>
<event>
 5   0  0.3215208E-05  0.2503649E+04  0.7818609E-02  0.8401687E-01
        2   -1    0    0  501    0  0.00000000000E+00  0.00000000000E+00  0.12645065323E+04  0.12645065323E+04  0.25500000920E-02 0.  1.
       -2   -1    0    0    0  501  0.00000000000E+00  0.00000000000E+00 -0.12392696308E+04  0.12392696308E+04  0.25500000920E-02 0. -1.
    10030    2    1    2    0    0  0.00000000000E+00  0.00000000000E+00  0.25236901495E+02  0.25037761631E+04  0.25036489718E+04 0.  0.
        1    1    3    3  502    0  0.89398802487E+03 -0.54631382415E+03  0.69777453075E+03  0.12587941368E+04  0.50400001928E-02 0.  1.
       -1    1    3    3    0  502 -0.89398802487E+03  0.54631382415E+03 -0.67253762925E+03  0.12449820263E+04  0.50400001928E-02 0. -1.
</event>
<event>
 5   0  0.1407158E-05  0.2409103E+04  0.7818609E-02  0.8436104E-01
        1   -1    0    0  501    0  0.00000000000E+00  0.00000000000E+00  0.22420380424E+04  0.22420380424E+04  0.50400001928E-02 0. -1.
       -1   -1    0    0    0  501  0.00000000000E+00  0.00000000000E+00 -0.64715398930E+03  0.64715398932E+03  0.50400001928E-02 0.  1.
    10030    2    1    2    0    0  0.00000000000E+00  0.00000000000E+00  0.15948840531E+04  0.28891920317E+04  0.24091026241E+04 0.  0.
        1    1    3    3  502    0  0.40856493071E+03 -0.98867082943E+03  0.13343795545E+03  0.10780542656E+04  0.50400001928E-02 0.  1.
       -1    1    3    3    0  502 -0.40856493071E+03  0.98867082943E+03  0.14614460976E+04  0.18111377661E+04  0.50400001928E-02 0. -1.
</event>
<event>
 5   0  0.3310037E-05  0.2407101E+04  0.7818609E-02  0.8436850E-01
        2   -1    0    0  501    0  0.00000000000E+00  0.00000000000E+00  0.13384991054E+04  0.13384991054E+04  0.25500000920E-02 0.  1.
       -2   -1    0    0    0  501  0.00000000000E+00  0.00000000000E+00 -0.10822072941E+04  0.10822072941E+04  0.25500000920E-02 0. -1.
    10030    2    1    2    0    0  0.00000000000E+00  0.00000000000E+00  0.25629181126E+03  0.24207063995E+04  0.24071007416E+04 0.  0.
        2    1    3    3  502    0 -0.87691477388E+03 -0.54082995252E+03  0.75380142373E+03  0.12765943540E+04  0.25500000920E-02 0.  1.
       -2    1    3    3    0  502  0.87691477388E+03  0.54082995252E+03 -0.49750961247E+03  0.11441120455E+04  0.25500000920E-02 0. -1.
</event>
<event>
 5   0  0.3320780E-05  0.2655573E+04  0.7818609E-02  0.8349566E-01
       -2   -1    0    0    0  501  0.00000000000E+00  0.00000000000E+00  0.14814516254E+04  0.14814516254E+04  0.25500000920E-02 0. -1.
        2   -1    0    0  501    0  0.00000000000E+00  0.00000000000E+00 -0.11900605054E+04  0.11900605055E+04  0.25500000920E-02 0.  1.
    10030    2    1    2    0    0  0.00000000000E+00  0.00000000000E+00  0.29139111993E+03  0.26715121308E+04  0.26555730606E+04 0.  0.
        5    1    3    3  502    0  0.65361550186E+03 -0.52661415269E+03  0.11806851360E+04  0.14486459783E+04  0.46999998093E+01 0. -1.
       -5    1    3    3    0  502 -0.65361550186E+03  0.52661415269E+03 -0.88929401604E+03  0.12228661526E+04  0.46999998093E+01 0.  1.
</event>
<event>
 5   0  0.1401596E-05  0.2388721E+04  0.7818609E-02  0.8443738E-01
        1   -1    0    0  501    0  0.00000000000E+00  0.00000000000E+00  0.22453079208E+04  0.22453079208E+04  0.50400001928E-02 0. -1.
       -1   -1    0    0    0  501  0.00000000000E+00  0.00000000000E+00 -0.63532336643E+03  0.63532336645E+03  0.50400001928E-02 0.  1.
    10030    2    1    2    0    0  0.00000000000E+00  0.00000000000E+00  0.16099845544E+04  0.28806312872E+04  0.23887206508E+04 0.  0.
        2    1    3    3  502    0  0.10817220376E+04 -0.13381410515E+03  0.21609819949E+03  0.11111827992E+04  0.25500000920E-02 0.  1.
       -2    1    3    3    0  502 -0.10817220376E+04  0.13381410515E+03  0.13938863549E+04  0.17694484880E+04  0.25500000920E-02 0. -1.
</event>
<event>
 5   0  0.3310037E-05  0.2351172E+04  0.7818609E-02  0.8458014E-01
        2   -1    0    0  501    0  0.00000000000E+00  0.00000000000E+00  0.19961868999E+04  0.19961868999E+04  0.25500000920E-02 0.  1.
       -2   -1    0    0    0  501  0.00000000000E+00  0.00000000000E+00 -0.69232122890E+03  0.69232122891E+03  0.25500000920E-02 0. -1.
    10030    2    1    2    0    0  0.00000000000E+00  0.00000000000E+00  0.13038656710E+04  0.26885081288E+04  0.23511721057E+04 0.  0.
        2    1    3    3  502    0  0.40647689560E+03  0.88061449332E+03  0.14115460770E+04  0.17126493161E+04  0.25500000920E-02 0.  1.
       -2    1    3    3    0  502 -0.40647689560E+03 -0.88061449332E+03 -0.10768040597E+03  0.97585881271E+03  0.25500000920E-02 0. -1.
</event>
<event>
 5   0  0.3347728E-05  0.2408509E+04  0.7818609E-02  0.8436325E-01
        2   -1    0    0  501    0  0.00000000000E+00  0.00000000000E+00  0.74816486307E+03  0.74816486308E+03  0.25500000920E-02 0. -1.
       -2   -1    0    0    0  501  0.00000000000E+00  0.00000000000E+00 -0.19383809996E+04  0.19383809996E+04  0.25500000920E-02 0.  1.
    10030    2    1    2    0    0  0.00000000000E+00  0.00000000000E+00 -0.11902161365E+04  0.26865458627E+04  0.24085087130E+04 0.  0.
        3    1    3    3  502    0 -0.47568221057E+03 -0.50461084978E+02  0.63764625514E+03  0.79712774600E+03  0.10100000352E+00 0. -1.
       -3    1    3    3    0  502  0.47568221057E+03  0.50461084978E+02 -0.18278623917E+04  0.18894181167E+04  0.10100000352E+00 0.  1.
</event>
<event>
 5   0  0.1147362E-05  0.2248902E+04  0.7818609E-02  0.8498345E-01
        3   -1    0    0  501    0  0.00000000000E+00  0.00000000000E+00  0.83812946677E+03  0.83812947285E+03  0.10100000352E+00 0.  1.
       -3   -1    0    0    0  501  0.00000000000E+00  0.00000000000E+00 -0.15085851929E+04  0.15085851963E+04  0.10100000352E+00 0. -1.
    10030    2    1    2    0    0  0.00000000000E+00  0.00000000000E+00 -0.67045572612E+03  0.23467146691E+04  0.22489017003E+04 0.  0.
        2    1    3    3  502    0 -0.23760943454E+02  0.65397627980E+03 -0.12894057690E+04  0.14459656960E+04  0.25500000920E-02 0. -1.
       -2    1    3    3    0  502  0.23760943454E+02 -0.65397627980E+03  0.61895004286E+03  0.90074897310E+03  0.25500000920E-02 0.  1.
</event>
<event>
 5   0  0.1434943E-05  0.2363234E+04  0.7818609E-02  0.8453398E-01
        1   -1    0    0  501    0  0.00000000000E+00  0.00000000000E+00  0.19261824656E+04  0.19261824656E+04  0.50400001928E-02 0.  1.
       -1   -1    0    0    0  501  0.00000000000E+00  0.00000000000E+00 -0.72486306153E+03  0.72486306155E+03  0.50400001928E-02 0. -1.
    10030    2    1    2    0    0  0.00000000000E+00  0.00000000000E+00  0.12013194041E+04  0.26510455272E+04  0.23632338176E+04 0.  0.
        5    1    3    3  502    0 -0.52930604138E+03  0.76258651664E+03 -0.21946831001E+03  0.95388233546E+03  0.46999998093E+01 0. -1.
       -5    1    3    3    0  502  0.52930604138E+03 -0.76258651664E+03  0.14207877141E+04  0.16971631917E+04  0.46999998093E+01 0.  1.
</event>
<event>
 5   0  0.3215208E-05  0.2408314E+04  0.7818609E-02  0.8436397E-01
        2   -1    0    0  501    0  0.00000000000E+00  0.00000000000E+00  0.15484736837E+04  0.15484736837E+04  0.25500000920E-02 0.  1.
       -2   -1    0    0    0  501  0.00000000000E+00  0.00000000000E+00 -0.93640223805E+03  0.93640223805E+03  0.25500000920E-02 0. -1.
    10030    2    1    2    0    0  0.00000000000E+00  0.00000000000E+00  0.61207144566E+03  0.24848759218E+04  0.24083141182E+04 0.  0.
        1    1    3    3  502    0 -0.62233974078E+03  0.96935906178E+03  0.66794351529E+03  0.13315826235E+04  0.50400001928E-02 0.  1.
       -1    1    3    3    0  502  0.62233974078E+03 -0.96935906178E+03 -0.55872069634E+02  0.11532932983E+04  0.50400001928E-02 0. -1.
</event>
<event>
 5   0  0.1393026E-05  0.2348132E+04  0.7818609E-02  0.8459182E-01
        1   -1    0    0  501    0  0.00000000000E+00  0.00000000000E+00  0.16625638045E+04  0.16625638045E+04  0.50400001928E-02 0.  1.
       -1   -1    0    0    0  501  0.00000000000E+00  0.00000000000E+00 -0.82909946603E+03  0.82909946605E+03  0.50400001928E-02 0. -1.
    10030    2    1    2    0    0  0.00000000000E+00  0.00000000000E+00  0.83346433842E+03  0.24916632705E+04  0.23481318213E+04 0.  0.
        4    1    3    3  502    0  0.26092209791E+03 -0.21542166259E+03 -0.77624052494E+03  0.84678084494E+03  0.12699999809E+01 0. -1.
       -4    1    3    3    0  502 -0.26092209791E+03  0.21542166259E+03  0.16097048634E+04  0.16448824256E+04  0.12699999809E+01 0.  1.
</event>
<event>
 5   0  0.1401596E-05  0.2420985E+04  0.7818609E-02  0.8431689E-01
        1   -1    0    0  501    0  0.00000000000E+00  0.00000000000E+00  0.12558970311E+04  0.12558970311E+04  0.50400001928E-02 0.  1.
       -1   -1    0    0    0  501  0.00000000000E+00  0.00000000000E+00 -0.11667294729E+04  0.11667294729E+04  0.50400001928E-02 0. -1.
    10030    2    1    2    0    0  0.00000000000E+00  0.00000000000E+00  0.89167558258E+02  0.24226265040E+04  0.24209849906E+04 0.  0.
        2    1    3    3  502    0 -0.10235760723E+04 -0.58374503912E+03 -0.23277889195E+03  0.12011045995E+04  0.25500000920E-02 0. -1.
       -2    1    3    3    0  502  0.10235760723E+04  0.58374503912E+03  0.32194645020E+03  0.12215219045E+04  0.25500000920E-02 0.  1.
</event>
<event>
 5   0  0.3345974E-05  0.2428355E+04  0.7818609E-02  0.8428963E-01
        2   -1    0    0  501    0  0.00000000000E+00  0.00000000000E+00  0.13952602257E+04  0.13952602257E+04  0.25500000920E-02 0.  1.
       -2   -1    0    0    0  501  0.00000000000E+00  0.00000000000E+00 -0.10565965813E+04  0.10565965813E+04  0.25500000920E-02 0. -1.
    10030    2    1    2    0    0  0.00000000000E+00  0.00000000000E+00  0.33866364434E+03  0.24518568070E+04  0.24283551507E+04 0.  0.
        4    1    3    3  502    0 -0.11152745951E+04 -0.32356766754E+03  0.52729381286E+03  0.12753720382E+04  0.12699999809E+01 0. -1.
       -4    1    3    3    0  502  0.11152745951E+04  0.32356766754E+03 -0.18863016852E+03  0.11764847688E+04  0.12699999809E+01 0.  1.
</event>
<event>
 5   0  0.3310037E-05  0.2391552E+04  0.7818609E-02  0.8442673E-01
       -2   -1    0    0    0  501  0.00000000000E+00  0.00000000000E+00  0.72337071190E+03  0.72337071191E+03  0.25500000920E-02 0. -1.
        2   -1    0    0  501    0  0.00000000000E+00  0.00000000000E+00 -0.19766903623E+04  0.19766903623E+04  0.25500000920E-02 0.  1.
    10030    2    1    2    0    0  0.00000000000E+00  0.00000000000E+00 -0.12533196503E+04  0.27000610742E+04  0.23915517260E+04 0.  0.
        2    1    3    3  502    0  0.22589072571E+02 -0.73293475994E+03 -0.16930573959E+04  0.18450330551E+04  0.25500000920E-02 0.  1.
       -2    1    3    3    0  502 -0.22589072571E+02  0.73293475994E+03  0.43973774556E+03  0.85502801907E+03  0.25500000920E-02 0. -1.
</event>
<event>
 5   0  0.3347728E-05  0.2404904E+04  0.7818609E-02  0.8437670E-01
       -2   -1    0    0    0  501  0.00000000000E+00  0.00000000000E+00  0.11266362698E+04  0.11266362698E+04  0.25500000920E-02 0. -1.
        2   -1    0    0  501    0  0.00000000000E+00  0.00000000000E+00 -0.12833697720E+04  0.12833697720E+04  0.25500000920E-02 0.  1.
    10030    2    1    2    0    0  0.00000000000E+00  0.00000000000E+00 -0.15673350221E+03  0.24100060418E+04  0.24049041001E+04 0.  0.
        3    1    3    3  502    0 -0.96105571922E+02 -0.70236263608E+03  0.89495136911E+03  0.11417037780E+04  0.10100000352E+00 0. -1.
       -3    1    3    3    0  502  0.96105571922E+02  0.70236263608E+03 -0.10516848713E+04  0.12683022638E+04  0.10100000352E+00 0.  1.
</event>
<event>
 5   0  0.1147362E-05  0.2397611E+04  0.7818609E-02  0.8440398E-01
       -4   -1    0    0    0  501  0.00000000000E+00  0.00000000000E+00  0.22646914485E+04  0.22646918046E+04  0.12699999809E+01 0.  1.
        4   -1    0    0  501    0  0.00000000000E+00  0.00000000000E+00 -0.63458219292E+03  0.63458346375E+03  0.12699999809E+01 0. -1.
    10030    2    1    2    0    0  0.00000000000E+00  0.00000000000E+00  0.16301092556E+04  0.28992752684E+04  0.23976114983E+04 0.  0.
        5    1    3    3  502    0  0.15726940303E+03 -0.80501789281E+03  0.18722368676E+04  0.20440353352E+04  0.46999998093E+01 0.  1.
       -5    1    3    3    0  502 -0.15726940303E+03  0.80501789281E+03 -0.24212761202E+03  0.85523993322E+03  0.46999998093E+01 0. -1.
</event>
<event>
 5   0  0.3345974E-05  0.2423316E+04  0.7818609E-02  0.8430826E-01
       -2   -1    0    0    0  501  0.00000000000E+00  0.00000000000E+00  0.96294734604E+03  0.96294734604E+03  0.25500000920E-02 0.  1.
        2   -1    0    0  501    0  0.00000000000E+00  0.00000000000E+00 -0.15246056401E+04  0.15246056401E+04  0.25500000920E-02 0. -1.
    10030    2    1    2    0    0  0.00000000000E+00  0.00000000000E+00 -0.56165829406E+03  0.24875529862E+04  0.24233158729E+04 0.  0.
        4    1    3    3  502    0  0.36175640609E+03 -0.79158436294E+03  0.58451147053E+03  0.10483934248E+04  0.12699999809E+01 0.  1.
       -4    1    3    3    0  502 -0.36175640609E+03  0.79158436294E+03 -0.11461697646E+04  0.14391595614E+04  0.12699999809E+01 0. -1.
</event>
<event>
 5   0  0.3347728E-05  0.2389258E+04  0.7818609E-02  0.8443536E-01
        2   -1    0    0  501    0  0.00000000000E+00  0.00000000000E+00  0.11689121545E+04  0.11689121545E+04  0.25500000920E-02 0.  1.
       -2   -1    0    0    0  501  0.00000000000E+00  0.00000000000E+00 -0.12209120284E+04  0.12209120284E+04  0.25500000920E-02 0. -1.
    10030    2    1    2    0    0  0.00000000000E+00  0.00000000000E+00 -0.51999873912E+02  0.23898241829E+04  0.23892583867E+04 0.  0.
        3    1    3    3  502    0  0.37815045695E+02 -0.11243389552E+04 -0.42805387259E+03  0.12036603308E+04  0.10100000352E+00 0. -1.
       -3    1    3    3    0  502 -0.37815045695E+02  0.11243389552E+04  0.37605399868E+03  0.11861638521E+04  0.10100000352E+00 0.  1.
</event>
<event>
 5   0  0.1506985E-05  0.2424392E+04  0.7818609E-02  0.8430428E-01
       -1   -1    0    0    0  501  0.00000000000E+00  0.00000000000E+00  0.14495561160E+04  0.14495561160E+04  0.50400001928E-02 0. -1.
        1   -1    0    0  501    0  0.00000000000E+00  0.00000000000E+00 -0.10137026865E+04  0.10137026865E+04  0.50400001928E-02 0.  1.
    10030    2    1    2    0    0  0.00000000000E+00  0.00000000000E+00  0.43585342947E+03  0.24632588025E+04  0.24243918240E+04 0.  0.
        3    1    3    3  502    0 -0.83820553132E+03 -0.70828094809E+03 -0.30527384809E+03  0.11390533555E+04  0.10100000352E+00 0. -1.
       -3    1    3    3    0  502  0.83820553132E+03  0.70828094809E+03  0.74112727757E+03  0.13242054470E+04  0.10100000352E+00 0.  1.
</event>
<event>
 5   0  0.3347728E-05  0.2394837E+04  0.7818609E-02  0.8441439E-01
        2   -1    0    0  501    0  0.00000000000E+00  0.00000000000E+00  0.74541101979E+03  0.74541101980E+03  0.25500000920E-02 0.  1.
       -2   -1    0    0    0  501  0.00000000000E+00  0.00000000000E+00 -0.19235173065E+04  0.19235173065E+04  0.25500000920E-02 0. -1.
    10030    2    1    2    0    0  0.00000000000E+00  0.00000000000E+00 -0.11781062867E+04  0.26689283263E+04  0.23948369439E+04 0.  0.
        3    1    3    3  502    0  0.25712036760E+03  0.76846189478E+03  0.39341386471E+03  0.90078801408E+03  0.10100000352E+00 0.  1.
       -3    1    3    3    0  502 -0.25712036760E+03 -0.76846189478E+03 -0.15715201514E+04  0.17681403122E+04  0.10100000352E+00 0. -1.
</event>
<event>
 5   0  0.1401596E-05  0.2440052E+04  0.7818609E-02  0.8424659E-01
       -1   -1    0    0    0  501  0.00000000000E+00  0.00000000000E+00  0.80494562059E+03  0.80494562060E+03  0.50400001928E-02 0.  1.
        1   -1    0    0  501    0  0.00000000000E+00  0.00000000000E+00 -0.18491479853E+04  0.18491479853E+04  0.50400001928E-02 0. -1.
    10030    2    1    2    0    0  0.00000000000E+00  0.00000000000E+00 -0.10442023647E+04  0.26540936059E+04  0.24400521082E+04 0.  0.
        2    1    3    3  502    0 -0.57210975440E+03  0.36708153223E+03  0.57988600748E+03  0.89349102069E+03  0.25500000920E-02 0.  1.
       -2    1    3    3    0  502  0.57210975440E+03 -0.36708153223E+03 -0.16240883722E+04  0.17606025852E+04  0.25500000920E-02 0. -1.
</event>
<event>
 5   0  0.1407158E-05  0.2416880E+04  0.7818609E-02  0.8433211E-01
        1   -1    0    0  501    0  0.00000000000E+00  0.00000000000E+00  0.98705082635E+03  0.98705082637E+03  0.50400001928E-02 0.  1.
       -1   -1    0    0    0  501  0.00000000000E+00  0.00000000000E+00 -0.14794858002E+04  0.14794858003E+04  0.50400001928E-02 0. -1.
    10030    2    1    2    0    0  0.00000000000E+00  0.00000000000E+00 -0.49243497389E+03  0.24665366266E+04  0.24168803708E+04 0.  0.
        1    1    3    3  502    0  0.90649980002E+03 -0.64779644614E+03  0.23131231921E+03  0.11379312423E+04  0.50400001928E-02 0.  1.
       -1    1    3    3    0  502 -0.90649980002E+03  0.64779644614E+03 -0.72374729310E+03  0.13286053844E+04  0.50400001928E-02 0. -1.
</event>
<event>
 5   0  0.3345974E-05  0.2411781E+04  0.7818609E-02  0.8435106E-01
       -2   -1    0    0    0  501  0.00000000000E+00  0.00000000000E+00  0.12710731412E+04  0.12710731412E+04  0.25500000920E-02 0. -1.
        2   -1    0    0  501    0  0.00000000000E+00  0.00000000000E+00 -0.11440500737E+04  0.11440500737E+04  0.25500000920E-02 0.  1.
    10030    2    1    2    0    0  0.00000000000E+00  0.00000000000E+00  0.12702306751E+03  0.24151232150E+04  0.24117805215E+04 0.  0.
        4    1    3    3  502    0 -0.10788899435E+04  0.13535906867E+03  0.58562089659E+03  0.12350218764E+04  0.12699999809E+01 0. -1.
       -4    1    3    3    0  502  0.10788899435E+04 -0.13535906867E+03 -0.45859782908E+03  0.11801013386E+04  0.12699999809E+01 0.  1.
</event>
<event>
 5   0  0.3345974E-05  0.2466151E+04  0.7818609E-02  0.8415144E-01
       -2   -1    0    0    0  501  0.00000000000E+00  0.00000000000E+00  0.10442844859E+04  0.10442844859E+04  0.25500000920E-02 0.  1.
        2   -1    0    0  501    0  0.00000000000E+00  0.00000000000E+00 -0.14559974150E+04  0.14559974150E+04  0.25500000920E-02 0. -1.
    10030    2    1    2    0    0  0.00000000000E+00  0.00000000000E+00 -0.41171292911E+03  0.25002819009E+04  0.24661512622E+04 0.  0.
        4    1    3    3  502    0 -0.48931427764E+03  0.67200682890E+02 -0.13513290379E+04  0.14387620288E+04  0.12699999809E+01 0. -1.
       -4    1    3    3    0  502  0.48931427764E+03 -0.67200682890E+02  0.93961610875E+03  0.10615198721E+04  0.12699999809E+01 0.  1.
</event>
<event>
 5   0  0.3345974E-05  0.2369703E+04  0.7818609E-02  0.8450934E-01
       -2   -1    0    0    0  501  0.00000000000E+00  0.00000000000E+00  0.13848468026E+04  0.13848468026E+04  0.25500000920E-02 0. -1.
        2   -1    0    0  501    0  0.00000000000E+00  0.00000000000E+00 -0.10137391347E+04  0.10137391347E+04  0.25500000920E-02 0.  1.
    10030    2    1    2    0    0  0.00000000000E+00  0.00000000000E+00  0.37110766796E+03  0.23985859373E+04  0.23697032720E+04 0.  0.
        4    1    3    3  502    0 -0.50312304401E+03  0.88918660091E+03 -0.42183183454E+03  0.11053186501E+04  0.12699999809E+01 0.  1.
       -4    1    3    3    0  502  0.50312304401E+03 -0.88918660091E+03  0.79293950249E+03  0.12932672872E+04  0.12699999809E+01 0. -1.
</event>
<event>
 5   0  0.1407158E-05  0.2438640E+04  0.7818609E-02  0.8425177E-01
        1   -1    0    0  501    0  0.00000000000E+00  0.00000000000E+00  0.33773129670E+04  0.33773129670E+04  0.50400001928E-02 0.  1.
       -1   -1    0    0    0  501  0.00000000000E+00  0.00000000000E+00 -0.44021416934E+03  0.44021416937E+03  0.50400001928E-02 0. -1.
    10030    2    1    2    0    0  0.00000000000E+00  0.00000000000E+00  0.29370987977E+04  0.38175271364E+04  0.24386398032E+04 0.  0.
        1    1    3    3  502    0  0.79431991889E+03  0.52185257361E+03  0.27279347217E+03  0.98878234238E+03  0.50400001928E-02 0. -1.
       -1    1    3    3    0  502 -0.79431991889E+03 -0.52185257361E+03  0.26643053255E+04  0.28287447940E+04  0.50400001928E-02 0.  1.
</event>
<event>
 5   0  0.3347728E-05  0.2412326E+04  0.7818609E-02  0.8434903E-01
        2   -1    0    0  501    0  0.00000000000E+00  0.00000000000E+00  0.77350347971E+03  0.77350347971E+03  0.25500000920E-02 0. -1.
       -2   -1    0    0    0  501  0.00000000000E+00  0.00000000000E+00 -0.18808313060E+04  0.18808313060E+04  0.25500000920E-02 0.  1.
    10030    2    1    2    0    0  0.00000000000E+00  0.00000000000E+00 -0.11073278263E+04  0.26543347857E+04  0.24123263129E+04 0.  0.
        3    1    3    3  502    0 -0.38446294143E+03 -0.31237124482E+03  0.65641075106E+03  0.82235189076E+03  0.10100000352E+00 0. -1.
       -3    1    3    3    0  502  0.38446294143E+03  0.31237124482E+03 -0.17637385773E+04  0.18319828949E+04  0.10100000352E+00 0.  1.
</event>
<event>
 5   0  0.3215208E-05  0.2393332E+04  0.7818609E-02  0.8442004E-01
       -2   -1    0    0    0  501  0.00000000000E+00  0.00000000000E+00  0.10964358413E+04  0.10964358413E+04  0.25500000920E-02 0. -1.
        2   -1    0    0  501    0  0.00000000000E+00  0.00000000000E+00 -0.13060590230E+04  0.13060590230E+04  0.25500000920E-02 0.  1.
    10030    2    1    2    0    0  0.00000000000E+00  0.00000000000E+00 -0.20962318178E+03  0.24024948643E+04  0.23933323410E+04 0.  0.
        1    1    3    3  502    0 -0.53684003291E+03  0.40499987341E+03  0.88882018914E+03  0.11145507826E+04  0.50400001928E-02 0. -1.
       -1    1    3    3    0  502  0.53684003291E+03 -0.40499987341E+03 -0.10984433709E+04  0.12879440817E+04  0.50400001928E-02 0.  1.
</event>
<event>
 5   0  0.1401596E-05  0.2394736E+04  0.7818609E-02  0.8441477E-01
       -1   -1    0    0    0  501  0.00000000000E+00  0.00000000000E+00  0.10545793516E+04  0.10545793516E+04  0.50400001928E-02 0.  1.
        1   -1    0    0  501    0  0.00000000000E+00  0.00000000000E+00 -0.13594899758E+04  0.13594899758E+04  0.50400001928E-02 0. -1.
    10030    2    1    2    0    0  0.00000000000E+00  0.00000000000E+00 -0.30491062421E+03  0.24140693275E+04  0.23947359414E+04 0.  0.
        2    1    3    3  502    0 -0.38299146886E+02 -0.25886450766E+03 -0.13303113640E+04  0.13558045520E+04  0.25500000920E-02 0. -1.
       -2    1    3    3    0  502  0.38299146886E+02  0.25886450766E+03  0.10254007398E+04  0.10582647755E+04  0.25500000920E-02 0.  1.
</event>
<event>
 5   0  0.1407158E-05  0.2476133E+04  0.7818609E-02  0.8411538E-01
       -1   -1    0    0    0  501  0.00000000000E+00  0.00000000000E+00  0.65475236560E+03  0.65475236562E+03  0.50400001928E-02 0. -1.
        1   -1    0    0  501    0  0.00000000000E+00  0.00000000000E+00 -0.23410516787E+04  0.23410516787E+04  0.50400001928E-02 0.  1.
    10030    2    1    2    0    0  0.00000000000E+00  0.00000000000E+00 -0.16862993131E+04  0.29958040443E+04  0.24761333766E+04 0.  0.
        1    1    3    3  502    0  0.11617427966E+04 -0.22792325168E+03 -0.12814069067E+04  0.17445913546E+04  0.50400001928E-02 0. -1.
       -1    1    3    3    0  502 -0.11617427966E+04  0.22792325168E+03 -0.40489240634E+03  0.12512126897E+04  0.50400001928E-02 0.  1.
</event>
<event>
 5   0  0.1401596E-05  0.2353860E+04  0.7818609E-02  0.8456982E-01
       -1   -1    0    0    0  501  0.00000000000E+00  0.00000000000E+00  0.79328278793E+03  0.79328278794E+03  0.50400001928E-02 0. -1.
        1   -1    0    0  501    0  0.00000000000E+00  0.00000000000E+00 -0.17461171457E+04  0.17461171457E+04  0.50400001928E-02 0.  1.
    10030    2    1    2    0    0  0.00000000000E+00  0.00000000000E+00 -0.95283435775E+03  0.25393999336E+04  0.23538603845E+04 0.  0.
        2    1    3    3  502    0 -0.50469291835E+03 -0.10133961106E+04 -0.82345318787E+03  0.13999149158E+04  0.25500000920E-02 0.  1.
       -2    1    3    3    0  502  0.50469291835E+03  0.10133961106E+04 -0.12938116988E+03  0.11394850179E+04  0.25500000920E-02 0. -1.
</event>
<event>
 5   0  0.3347728E-05  0.2420669E+04  0.7818609E-02  0.8431806E-01
        2   -1    0    0  501    0  0.00000000000E+00  0.00000000000E+00  0.15311139595E+04  0.15311139595E+04  0.25500000920E-02 0. -1.
       -2   -1    0    0    0  501  0.00000000000E+00  0.00000000000E+00 -0.95676058340E+03  0.95676058340E+03  0.25500000920E-02 0.  1.
    10030    2    1    2    0    0  0.00000000000E+00  0.00000000000E+00  0.57435337606E+03  0.24878745429E+04  0.24206689035E+04 0.  0.
        3    1    3    3  502    0 -0.37859974460E+03  0.24448556445E+03  0.14416611478E+04  0.15104627878E+04  0.10100000352E+00 0. -1.
       -3    1    3    3    0  502  0.37859974460E+03 -0.24448556445E+03 -0.86730777177E+03  0.97741175510E+03  0.10100000352E+00 0.  1.
</event>
<event>
 5   0  0.1401596E-05  0.2376095E+04  0.7818609E-02  0.8448508E-01
       -1   -1    0    0    0  501  0.00000000000E+00  0.00000000000E+00  0.12882226776E+04  0.12882226776E+04  0.50400001928E-02 0.  1.
        1   -1    0    0  501    0  0.00000000000E+00  0.00000000000E+00 -0.10956626151E+04  0.10956626151E+04  0.50400001928E-02 0. -1.
    10030    2    1    2    0    0  0.00000000000E+00  0.00000000000E+00  0.19256006252E+03  0.23838852928E+04  0.23760954761E+04 0.  0.
        2    1    3    3  502    0 -0.93435523406E+03 -0.30784006146E+03  0.76455098606E+03  0.12459227172E+04  0.25500000920E-02 0.  1.
       -2    1    3    3    0  502  0.93435523406E+03  0.30784006146E+03 -0.57199092354E+03  0.11379625756E+04  0.25500000920E-02 0. -1.
</event>
<event>
 5   0  0.3310037E-05  0.2388938E+04  0.7818609E-02  0.8443657E-01
        2   -1    0    0  501    0  0.00000000000E+00  0.00000000000E+00  0.12516831025E+04  0.12516831025E+04  0.25500000920E-02 0.  1.
       -2   -1    0    0    0  501  0.00000000000E+00  0.00000000000E+00 -0.11398702712E+04  0.11398702712E+04  0.25500000920E-02 0. -1.
    10030    2    1    2    0    0  0.00000000000E+00  0.00000000000E+00  0.11181283135E+03  0.23915533737E+04  0.23889381386E+04 0.  0.
        2    1    3    3  502    0 -0.99197126013E+02 -0.29184795849E+03 -0.10993677676E+04  0.11417638938E+04  0.25500000920E-02 0. -1.
       -2    1    3    3    0  502  0.99197126013E+02  0.29184795849E+03  0.12111805990E+04  0.12497894799E+04  0.25500000920E-02 0.  1.
</event>
<event>
 5   0  0.1506985E-05  0.2399610E+04  0.7818609E-02  0.8439650E-01
       -1   -1    0    0    0  501  0.00000000000E+00  0.00000000000E+00  0.18236865962E+04  0.18236865962E+04  0.50400001928E-02 0. -1.
        1   -1    0    0  501    0  0.00000000000E+00  0.00000000000E+00 -0.78935267571E+03  0.78935267573E+03  0.50400001928E-02 0.  1.
    10030    2    1    2    0    0  0.00000000000E+00  0.00000000000E+00  0.10343339205E+04  0.26130392719E+04  0.23996098803E+04 0.  0.
        3    1    3    3  502    0  0.23819296358E+03  0.38576477440E+03 -0.69248275066E+03  0.82769723887E+03  0.10100000352E+00 0.  1.
       -3    1    3    3    0  502 -0.23819296358E+03 -0.38576477440E+03  0.17268166711E+04  0.17853420331E+04  0.10100000352E+00 0. -1.
</event>
<event>
 5   0  0.1407158E-05  0.2490523E+04  0.7818609E-02  0.8406369E-01
       -1   -1    0    0    0  501  0.00000000000E+00  0.00000000000E+00  0.64642073172E+03  0.64642073174E+03  0.50400001928E-02 0.  1.
        1   -1    0    0  501    0  0.00000000000E+00  0.00000000000E+00 -0.23988657318E+04  0.23988657318E+04  0.50400001928E-02 0. -1.
    10030    2    1    2    0    0  0.00000000000E+00  0.00000000000E+00 -0.17524450001E+04  0.30452864635E+04  0.24905232717E+04 0.  0.
        1    1    3    3  502    0  0.11394215515E+04 -0.50235256339E+03 -0.88365734436E+03  0.15269216981E+04  0.50400001928E-02 0.  1.
       -1    1    3    3    0  502 -0.11394215515E+04  0.50235256339E+03 -0.86878765571E+03  0.15183647654E+04  0.50400001928E-02 0. -1.
</event>
<event>
 5   0  0.3345974E-05  0.2393264E+04  0.7818609E-02  0.8442030E-01
       -2   -1    0    0    0  501  0.00000000000E+00  0.00000000000E+00  0.89324565214E+03  0.89324565214E+03  0.25500000920E-02 0. -1.
        2   -1    0    0  501    0  0.00000000000E+00  0.00000000000E+00 -0.16030623475E+04  0.16030623475E+04  0.25500000920E-02 0.  1.
    10030    2    1    2    0    0  0.00000000000E+00  0.00000000000E+00 -0.70981669540E+03  0.24963079997E+04  0.23932642746E+04 0.  0.
        4    1    3    3  502    0  0.40388699765E+03  0.62789305476E+03 -0.13303480863E+04  0.15255169742E+04  0.12699999809E+01 0.  1.
       -4    1    3    3    0  502 -0.40388699765E+03 -0.62789305476E+03  0.62053139090E+03  0.97079102544E+03  0.12699999809E+01 0. -1.
</event>
<event>
 5   0  0.3320780E-05  0.2416666E+04  0.7818609E-02  0.8433290E-01
       -2   -1    0    0    0  501  0.00000000000E+00  0.00000000000E+00  0.74510636299E+03  0.74510636300E+03  0.25500000920E-02 0. -1.
        2   -1    0    0  501    0  0.00000000000E+00  0.00000000000E+00 -0.19595433048E+04  0.19595433048E+04  0.25500000920E-02 0.  1.
    10030    2    1    2    0    0  0.00000000000E+00  0.00000000000E+00 -0.12144369418E+04  0.27046496678E+04  0.24166656243E+04 0.  0.
        5    1    3    3  502    0 -0.66034757732E+03 -0.77104642742E+03  0.12621915496E+03  0.10229979869E+04  0.46999998093E+01 0. -1.
       -5    1    3    3    0  502  0.66034757732E+03  0.77104642742E+03 -0.13406560968E+04  0.16816516809E+04  0.46999998093E+01 0.  1.
</event>
<event>
 5   0  0.1401596E-05  0.2365093E+04  0.7818609E-02  0.8452689E-01
        1   -1    0    0  501    0  0.00000000000E+00  0.00000000000E+00  0.96454172906E+03  0.96454172907E+03  0.50400001928E-02 0.  1.
       -1   -1    0    0    0  501  0.00000000000E+00  0.00000000000E+00 -0.14498241516E+04  0.14498241516E+04  0.50400001928E-02 0. -1.
    10030    2    1    2    0    0  0.00000000000E+00  0.00000000000E+00 -0.48528242257E+03  0.24143658807E+04  0.23650927204E+04 0.  0.
        2    1    3    3  502    0 -0.36134327645E+03  0.10093428427E+04  0.26682932560E+03  0.11047804427E+04  0.25500000920E-02 0.  1.
       -2    1    3    3    0  502  0.36134327645E+03 -0.10093428427E+04 -0.75211174817E+03  0.13095854380E+04  0.25500000920E-02 0. -1.
</event>
<event>
 5   0  0.1401596E-05  0.2101419E+04  0.7818609E-02  0.8560618E-01
       -1   -1    0    0    0  501  0.00000000000E+00  0.00000000000E+00  0.72592144135E+03  0.72592144136E+03  0.50400001928E-02 0. -1.
        1   -1    0    0  501    0  0.00000000000E+00  0.00000000000E+00 -0.15208129537E+04  0.15208129537E+04  0.50400001928E-02 0.  1.
    10030    2    1    2    0    0  0.00000000000E+00  0.00000000000E+00 -0.79489151233E+03  0.22467343950E+04  0.21014192646E+04 0.  0.
        2    1    3    3  502    0 -0.65294330564E+01 -0.11855646745E+03  0.71872553794E+03  0.72846734201E+03  0.25500000920E-02 0. -1.
       -2    1    3    3    0  502  0.65294330564E+01  0.11855646745E+03 -0.15136170503E+04  0.15182670530E+04  0.25500000920E-02 0.  1.
</event>
<event>
 5   0  0.1407158E-05  0.2413919E+04  0.7818609E-02  0.8434311E-01
        1   -1    0    0  501    0  0.00000000000E+00  0.00000000000E+00  0.16143184901E+04  0.16143184901E+04  0.50400001928E-02 0.  1.
       -1   -1    0    0    0  501  0.00000000000E+00  0.00000000000E+00 -0.90239373501E+03  0.90239373503E+03  0.50400001928E-02 0. -1.
    10030    2    1    2    0    0  0.00000000000E+00  0.00000000000E+00  0.71192475511E+03  0.25167122252E+04  0.24139187160E+04 0.  0.
        1    1    3    3  502    0 -0.47089430167E+03  0.10971040821E+04  0.54062652450E+03  0.13105937011E+04  0.50400001928E-02 0. -1.
       -1    1    3    3    0  502  0.47089430167E+03 -0.10971040821E+04  0.17129823061E+03  0.12061185241E+04  0.50400001928E-02 0.  1.
</event>
<event>
 5   0  0.1434943E-05  0.2487033E+04  0.7818609E-02  0.8407620E-01
        1   -1    0    0  501    0  0.00000000000E+00  0.00000000000E+00  0.16104208310E+04  0.16104208310E+04  0.50400001928E-02 0. -1.
       -1   -1    0    0    0  501  0.00000000000E+00  0.00000000000E+00 -0.96020458393E+03  0.96020458394E+03  0.50400001928E-02 0.  1.
    10030    2    1    2    0    0  0.00000000000E+00  0.00000000000E+00  0.65021624708E+03  0.25706254150E+04  0.24870331433E+04 0.  0.
        5    1    3    3  502    0 -0.16054893370E+02 -0.12229654209E+04  0.55717443473E+03  0.13440117638E+04  0.46999998093E+01 0. -1.
       -5    1    3    3    0  502  0.16054893370E+02  0.12229654209E+04  0.93041812345E+02  0.12266136512E+04  0.46999998093E+01 0.  1.
</event>
<event>
 5   0  0.1506985E-05  0.2425164E+04  0.7818609E-02  0.8430142E-01
        1   -1    0    0  501    0  0.00000000000E+00  0.00000000000E+00  0.13611603107E+04  0.13611603107E+04  0.50400001928E-02 0. -1.
       -1   -1    0    0    0  501  0.00000000000E+00  0.00000000000E+00 -0.10802221326E+04  0.10802221327E+04  0.50400001928E-02 0.  1.
    10030    2    1    2    0    0  0.00000000000E+00  0.00000000000E+00  0.28093817801E+03  0.24413824433E+04  0.24251643191E+04 0.  0.
        3    1    3    3  502    0 -0.60673483312E+03  0.10421719521E+04  0.12711180338E+02  0.12059896848E+04  0.10100000352E+00 0. -1.
       -3    1    3    3    0  502  0.60673483312E+03 -0.10421719521E+04  0.26822699767E+03  0.12353927586E+04  0.10100000352E+00 0.  1.
</event>
<event>
 5   0  0.3215208E-05  0.2498056E+04  0.7818609E-02  0.8403678E-01
        2   -1    0    0  501    0  0.00000000000E+00  0.00000000000E+00  0.10274158168E+04  0.10274158169E+04  0.25500000920E-02 0. -1.
       -2   -1    0    0    0  501  0.00000000000E+00  0.00000000000E+00 -0.15184418422E+04  0.15184418422E+04  0.25500000920E-02 0.  1.
    10030    2    1    2    0    0  0.00000000000E+00  0.00000000000E+00 -0.49102602540E+03  0.25458576591E+04  0.24980561769E+04 0.  0.
        1    1    3    3  502    0  0.55450454173E+03 -0.14742538257E+03  0.88515872145E+03  0.10548533037E+04  0.50400001928E-02 0. -1.
       -1    1    3    3    0  502 -0.55450454173E+03  0.14742538257E+03 -0.13761847468E+04  0.14910043554E+04  0.50400001928E-02 0.  1.
</event>
<event>
 5   0  0.1434943E-05  0.2445249E+04  0.7818609E-02  0.8422755E-01
        1   -1    0    0  501    0  0.00000000000E+00  0.00000000000E+00  0.12855473866E+04  0.12855473866E+04  0.50400001928E-02 0.  1.
       -1   -1    0    0    0  501  0.00000000000E+00  0.00000000000E+00 -0.11627816167E+04  0.11627816167E+04  0.50400001928E-02 0. -1.
    10030    2    1    2    0    0  0.00000000000E+00  0.00000000000E+00  0.12276576996E+03  0.24483290033E+04  0.24452491640E+04 0.  0.
        5    1    3    3  502    0 -0.93080732495E+03  0.24332646125E+03  0.81677246799E+03  0.12620417574E+04  0.46999998093E+01 0.  1.
       -5    1    3    3    0  502  0.93080732495E+03 -0.24332646125E+03 -0.69400669803E+03  0.11862872459E+04  0.46999998093E+01 0. -1.
</event>
<event>
 5   0  0.1407158E-05  0.2465670E+04  0.7818609E-02  0.8415319E-01
       -1   -1    0    0    0  501  0.00000000000E+00  0.00000000000E+00  0.10281748523E+04  0.10281748523E+04  0.50400001928E-02 0.  1.
        1   -1    0    0  501    0  0.00000000000E+00  0.00000000000E+00 -0.14782331978E+04  0.14782331978E+04  0.50400001928E-02 0. -1.
    10030    2    1    2    0    0  0.00000000000E+00  0.00000000000E+00 -0.45005834557E+03  0.25064080501E+04  0.24656700508E+04 0.  0.
        1    1    3    3  502    0 -0.37984971728E+03 -0.55565141451E+03 -0.12749778471E+04  0.14417360413E+04  0.50400001928E-02 0. -1.
       -1    1    3    3    0  502  0.37984971728E+03  0.55565141451E+03  0.82491950156E+03  0.10646720088E+04  0.50400001928E-02 0.  1.
</event>
<event>
 5   0  0.1407158E-05  0.2171369E+04  0.7818609E-02  0.8530440E-01
        1   -1    0    0  501    0  0.00000000000E+00  0.00000000000E+00  0.23115280039E+04  0.23115280039E+04  0.50400001928E-02 0. -1.
       -1   -1    0    0    0  501  0.00000000000E+00  0.00000000000E+00 -0.50992728790E+03  0.50992728792E+03  0.50400001928E-02 0.  1.
    10030    2    1    2    0    0  0.00000000000E+00  0.00000000000E+00  0.18016007160E+04  0.28214552918E+04  0.21713693430E+04 0.  0.
        1    1    3    3  502    0 -0.87795178704E+02  0.31759887336E+03  0.22449839397E+04  0.22690372247E+04  0.50400001928E-02 0. -1.
       -1    1    3    3    0  502  0.87795178704E+02 -0.31759887336E+03 -0.44338322369E+03  0.55241806708E+03  0.50400001928E-02 0.  1.
</event>
<event>
 5   0  0.1393026E-05  0.2391609E+04  0.7818609E-02  0.8442652E-01
       -1   -1    0    0    0  501  0.00000000000E+00  0.00000000000E+00  0.10103679132E+04  0.10103679132E+04  0.50400001928E-02 0. -1.
        1   -1    0    0  501    0  0.00000000000E+00  0.00000000000E+00 -0.14152744573E+04  0.14152744573E+04  0.50400001928E-02 0.  1.
    10030    2    1    2    0    0  0.00000000000E+00  0.00000000000E+00 -0.40490654409E+03  0.24256423706E+04  0.23916085801E+04 0.  0.
        4    1    3    3  502    0  0.28352611993E+03  0.39580029626E+03  0.90528951987E+03  0.10279083923E+04  0.12699999809E+01 0. -1.
       -4    1    3    3    0  502 -0.28352611993E+03 -0.39580029626E+03 -0.13101960640E+04  0.13977339783E+04  0.12699999809E+01 0.  1.
</event>
<event>
 5   0  0.1506985E-05  0.2375881E+04  0.7818609E-02  0.8448589E-01
        1   -1    0    0  501    0  0.00000000000E+00  0.00000000000E+00  0.14361314374E+04  0.14361314374E+04  0.50400001928E-02 0. -1.
       -1   -1    0    0    0  501  0.00000000000E+00  0.00000000000E+00 -0.98264185982E+03  0.98264185983E+03  0.50400001928E-02 0.  1.
    10030    2    1    2    0    0  0.00000000000E+00  0.00000000000E+00  0.45348957755E+03  0.24187732972E+04  0.23758811979E+04 0.  0.
        3    1    3    3  502    0  0.97635785076E+03  0.67662203373E+03  0.21602728951E+03  0.12073772523E+04  0.10100000352E+00 0.  1.
       -3    1    3    3    0  502 -0.97635785076E+03 -0.67662203373E+03  0.23746228803E+03  0.12113960449E+04  0.10100000352E+00 0. -1.
</event>
<event>
 5   0  0.3215208E-05  0.2503132E+04  0.7818609E-02  0.8401870E-01
        2   -1    0    0  501    0  0.00000000000E+00  0.00000000000E+00  0.12612269501E+04  0.12612269501E+04  0.25500000920E-02 0.  1.
       -2   -1    0    0    0  501  0.00000000000E+00  0.00000000000E+00 -0.12419794060E+04  0.12419794060E+04  0.25500000920E-02 0. -1.
    10030    2    1    2    0    0  0.00000000000E+00  0.00000000000E+00  0.19247544083E+02  0.25032063560E+04  0.25031323563E+04 0.  0.
        1    1    3    3  502    0  0.19943910138E+03  0.10662958369E+04 -0.61461830469E+03  0.12468032833E+04  0.50400001928E-02 0. -1.
       -1    1    3    3    0  502 -0.19943910138E+03 -0.10662958369E+04  0.63386584878E+03  0.12564030727E+04  0.50400001928E-02 0.  1.
</event>
<event>
 5   0  0.3347728E-05  0.2353508E+04  0.7818609E-02  0.8457117E-01
       -2   -1    0    0    0  501  0.00000000000E+00  0.00000000000E+00  0.14086524098E+04  0.14086524098E+04  0.25500000920E-02 0. -1.
        2   -1    0    0  501    0  0.00000000000E+00  0.00000000000E+00 -0.98303204318E+03  0.98303204318E+03  0.25500000920E-02 0.  1.
    10030    2    1    2    0    0  0.00000000000E+00  0.00000000000E+00  0.42562036663E+03  0.23916844530E+04  0.23535084079E+04 0.  0.
        3    1    3    3  502    0 -0.71402606747E+03 -0.45421786811E+03 -0.61813504888E+03  0.10479685327E+04  0.10100000352E+00 0.  1.
       -3    1    3    3    0  502  0.71402606747E+03  0.45421786811E+03  0.10437554155E+04  0.13437159203E+04  0.10100000352E+00 0. -1.
</event>
<event>
 5   0  0.1506985E-05  0.2435032E+04  0.7818609E-02  0.8426503E-01
       -1   -1    0    0    0  501  0.00000000000E+00  0.00000000000E+00  0.80119199390E+03  0.80119199392E+03  0.50400001928E-02 0. -1.
        1   -1    0    0  501    0  0.00000000000E+00  0.00000000000E+00 -0.18501749314E+04  0.18501749314E+04  0.50400001928E-02 0.  1.
    10030    2    1    2    0    0  0.00000000000E+00  0.00000000000E+00 -0.10489829375E+04  0.26513669253E+04  0.24350321085E+04 0.  0.
        3    1    3    3  502    0  0.37931291380E+02  0.95895412482E+03 -0.13402617874E+04  0.16484336399E+04  0.10100000352E+00 0.  1.
       -3    1    3    3    0  502 -0.37931291380E+02 -0.95895412482E+03  0.29127884987E+03  0.10029332854E+04  0.10100000352E+00 0. -1.
</event>
<event>
 5   0  0.3320780E-05  0.2388716E+04  0.7818609E-02  0.8443740E-01
       -2   -1    0    0    0  501  0.00000000000E+00  0.00000000000E+00  0.65036855763E+03  0.65036855764E+03  0.25500000920E-02 0.  1.
        2   -1    0    0  501    0  0.00000000000E+00  0.00000000000E+00 -0.21933587853E+04  0.21933587853E+04  0.25500000920E-02 0. -1.
    10030    2    1    2    0    0  0.00000000000E+00  0.00000000000E+00 -0.15429902277E+04  0.28437273429E+04  0.23887164667E+04 0.  0.
        5    1    3    3  502    0 -0.14034703609E+03  0.99976213236E+03 -0.11776493907E+02  0.10096446839E+04  0.46999998093E+01 0.  1.
       -5    1    3    3    0  502  0.14034703609E+03 -0.99976213236E+03 -0.15312137338E+04  0.18340826591E+04  0.46999998093E+01 0. -1.
</event>
<event>
 5   0  0.1393026E-05  0.2418218E+04  0.7818609E-02  0.8432714E-01
        1   -1    0    0  501    0  0.00000000000E+00  0.00000000000E+00  0.10089637133E+04  0.10089637133E+04  0.50400001928E-02 0.  1.
       -1   -1    0    0    0  501  0.00000000000E+00  0.00000000000E+00 -0.14489563703E+04  0.14489563703E+04  0.50400001928E-02 0. -1.
    10030    2    1    2    0    0  0.00000000000E+00  0.00000000000E+00 -0.43999265703E+03  0.24579200837E+04  0.24182178561E+04 0.  0.
        4    1    3    3  502    0  0.10657218339E+04 -0.29278103782E+02 -0.79973119421E+03  0.13327384704E+04  0.12699999809E+01 0. -1.
       -4    1    3    3    0  502 -0.10657218339E+04  0.29278103782E+02  0.35973853718E+03  0.11251816132E+04  0.12699999809E+01 0.  1.
</event>
<event>
 5   0  0.1401596E-05  0.2416328E+04  0.7818609E-02  0.8433416E-01
        1   -1    0    0  501    0  0.00000000000E+00  0.00000000000E+00  0.13897518398E+04  0.13897518398E+04  0.50400001928E-02 0.  1.
       -1   -1    0    0    0  501  0.00000000000E+00  0.00000000000E+00 -0.10503031879E+04  0.10503031879E+04  0.50400001928E-02 0. -1.
    10030    2    1    2    0    0  0.00000000000E+00  0.00000000000E+00  0.33944865192E+03  0.24400550277E+04  0.24163284444E+04 0.  0.
        2    1    3    3  502    0 -0.10473407220E+04 -0.59496568646E+03  0.26420602861E+03  0.12331713513E+04  0.25500000920E-02 0.  1.
       -2    1    3    3    0  502  0.10473407220E+04  0.59496568646E+03  0.75242623303E+02  0.12068836764E+04  0.25500000920E-02 0. -1.
</event>
<event>
 5   0  0.1407158E-05  0.2399356E+04  0.7818609E-02  0.8439745E-01
       -1   -1    0    0    0  501  0.00000000000E+00  0.00000000000E+00  0.51815583052E+03  0.51815583055E+03  0.50400001928E-02 0.  1.
        1   -1    0    0  501    0  0.00000000000E+00  0.00000000000E+00 -0.27775944990E+04  0.27775944990E+04  0.50400001928E-02 0. -1.
    10030    2    1    2    0    0  0.00000000000E+00  0.00000000000E+00 -0.22594386685E+04  0.32957503296E+04  0.23993555673E+04 0.  0.
        1    1    3    3  502    0  0.15842470307E+03  0.66148852199E+03  0.22768569632E+03  0.71729089468E+03  0.50400001928E-02 0.  1.
       -1    1    3    3    0  502 -0.15842470307E+03 -0.66148852199E+03 -0.24871243648E+04  0.25784594349E+04  0.50400001928E-02 0. -1.
</event>
<event>
 5   0  0.1434943E-05  0.2413164E+04  0.7818609E-02  0.8434591E-01
        1   -1    0    0  501    0  0.00000000000E+00  0.00000000000E+00  0.14376824296E+04  0.14376824297E+04  0.50400001928E-02 0. -1.
       -1   -1    0    0    0  501  0.00000000000E+00  0.00000000000E+00 -0.10126299895E+04  0.10126299895E+04  0.50400001928E-02 0.  1.
    10030    2    1    2    0    0  0.00000000000E+00  0.00000000000E+00  0.42505244019E+03  0.24503124191E+04  0.24131641831E+04 0.  0.
        5    1    3    3  502    0  0.21527069908E+02  0.33659447983E+03 -0.96378000151E+03  0.10211039320E+04  0.46999998093E+01 0.  1.
       -5    1    3    3    0  502 -0.21527069908E+02 -0.33659447983E+03  0.13888324417E+04  0.14292084871E+04  0.46999998093E+01 0. -1.
</event>
<event>
 5   0  0.3320780E-05  0.2380061E+04  0.7818609E-02  0.8447006E-01
       -2   -1    0    0    0  501  0.00000000000E+00  0.00000000000E+00  0.91982108643E+03  0.91982108643E+03  0.25500000920E-02 0.  1.
        2   -1    0    0  501    0  0.00000000000E+00  0.00000000000E+00 -0.15396177211E+04  0.15396177211E+04  0.25500000920E-02 0. -1.
    10030    2    1    2    0    0  0.00000000000E+00  0.00000000000E+00 -0.61979663464E+03  0.24594388075E+04  0.23800612134E+04 0.  0.
        5    1    3    3  502    0 -0.90988032154E+03 -0.62468344882E+03  0.14995933196E+03  0.11138319002E+04  0.46999998093E+01 0.  1.
       -5    1    3    3    0  502  0.90988032154E+03  0.62468344882E+03 -0.76975596660E+03  0.13456069073E+04  0.46999998093E+01 0. -1.
</event>
<event>
 5   0  0.3345974E-05  0.2431258E+04  0.7818609E-02  0.8427893E-01
        2   -1    0    0  501    0  0.00000000000E+00  0.00000000000E+00  0.11349049069E+04  0.11349049069E+04  0.25500000920E-02 0.  1.
       -2   -1    0    0    0  501  0.00000000000E+00  0.00000000000E+00 -0.13020951200E+04  0.13020951200E+04  0.25500000920E-02 0. -1.
    10030    2    1    2    0    0  0.00000000000E+00  0.00000000000E+00 -0.16719021311E+03  0.24370000268E+04  0.24312582264E+04 0.  0.
        4    1    3    3  502    0 -0.52831209627E+03  0.84753204761E+03 -0.77828907258E+03  0.12661594434E+04  0.12699999809E+01 0. -1.
       -4    1    3    3    0  502  0.52831209627E+03 -0.84753204761E+03  0.61109885946E+03  0.11708405834E+04  0.12699999809E+01 0.  1.
</event>
<event>
 5   0  0.1434943E-05  0.2394453E+04  0.7818609E-02  0.8441583E-01
        1   -1    0    0  501    0  0.00000000000E+00  0.00000000000E+00  0.10151062076E+04  0.10151062076E+04  0.50400001928E-02 0. -1.
       -1   -1    0    0    0  501  0.00000000000E+00  0.00000000000E+00 -0.14120209020E+04  0.14120209020E+04  0.50400001928E-02 0.  1.
    10030    2    1    2    0    0  0.00000000000E+00  0.00000000000E+00 -0.39691469436E+03  0.24271271096E+04  0.23944529086E+04 0.  0.
        5    1    3    3  502    0  0.42823248525E+03 -0.46864488525E+03 -0.12273542622E+04  0.13818218644E+04  0.46999998093E+01 0.  1.
       -5    1    3    3    0  502 -0.42823248525E+03  0.46864488525E+03  0.83043956786E+03  0.10453052453E+04  0.46999998093E+01 0. -1.
</event>
<event>
 5   0  0.1147362E-05  0.2391940E+04  0.7818609E-02  0.8442527E-01
        3   -1    0    0  501    0  0.00000000000E+00  0.00000000000E+00  0.22236748623E+04  0.22236748646E+04  0.10100000352E+00 0. -1.
       -3   -1    0    0    0  501  0.00000000000E+00  0.00000000000E+00 -0.64323437769E+03  0.64323438562E+03  0.10100000352E+00 0.  1.
    10030    2    1    2    0    0  0.00000000000E+00  0.00000000000E+00  0.15804404846E+04  0.28669092502E+04  0.23919399080E+04 0.  0.
        4    1    3    3  502    0  0.27433166956E+03  0.80549913282E+03 -0.21704696405E+03  0.87817863525E+03  0.12699999809E+01 0.  1.
       -4    1    3    3    0  502 -0.27433166956E+03 -0.80549913282E+03  0.17974874486E+04  0.19887306149E+04  0.12699999809E+01 0. -1.
</event>
<event>
 5   0  0.3215208E-05  0.2396371E+04  0.7818609E-02  0.8440864E-01
        2   -1    0    0  501    0  0.00000000000E+00  0.00000000000E+00  0.19489330925E+04  0.19489330925E+04  0.25500000920E-02 0. -1.
       -2   -1    0    0    0  501  0.00000000000E+00  0.00000000000E+00 -0.73663274276E+03  0.73663274276E+03  0.25500000920E-02 0.  1.
    10030    2    1    2    0    0  0.00000000000E+00  0.00000000000E+00  0.12123003498E+04  0.26855658353E+04  0.23963705301E+04 0.  0.
        1    1    3    3  502    0  0.58701784026E+03 -0.79832690296E+03  0.13610365819E+04  0.16835487418E+04  0.50400001928E-02 0. -1.
       -1    1    3    3    0  502 -0.58701784026E+03  0.79832690296E+03 -0.14873623216E+03  0.10020170934E+04  0.50400001928E-02 0.  1.
</event>
<event>
 5   0  0.3345974E-05  0.2436597E+04  0.7818609E-02  0.8425928E-01
        2   -1    0    0  501    0  0.00000000000E+00  0.00000000000E+00  0.12839671442E+04  0.12839671442E+04  0.25500000920E-02 0. -1.
       -2   -1    0    0    0  501  0.00000000000E+00  0.00000000000E+00 -0.11559885103E+04  0.11559885103E+04  0.25500000920E-02 0.  1.
    10030    2    1    2    0    0  0.00000000000E+00  0.00000000000E+00  0.12797863392E+03  0.24399556544E+04  0.24365970255E+04 0.  0.
        4    1    3    3  502    0 -0.51219845092E+03 -0.39187500026E+03 -0.97103900373E+03  0.11656893362E+04  0.12699999809E+01 0.  1.
       -4    1    3    3    0  502  0.51219845092E+03  0.39187500026E+03  0.10990176376E+04  0.12742663182E+04  0.12699999809E+01 0. -1.
</event>
<event>
 5   0  0.3345974E-05  0.2344707E+04  0.7818609E-02  0.8460499E-01
        2   -1    0    0  501    0  0.00000000000E+00  0.00000000000E+00  0.12090140485E+04  0.12090140485E+04  0.25500000920E-02 0. -1.
       -2   -1    0    0    0  501  0.00000000000E+00  0.00000000000E+00 -0.11368047260E+04  0.11368047260E+04  0.25500000920E-02 0.  1.
    10030    2    1    2    0    0  0.00000000000E+00  0.00000000000E+00  0.72209322487E+02  0.23458187744E+04  0.23447071323E+04 0.  0.
        4    1    3    3  502    0  0.81536202591E+03 -0.73779673874E+03 -0.37060007391E+03  0.11603901450E+04  0.12699999809E+01 0.  1.
       -4    1    3    3    0  502 -0.81536202591E+03  0.73779673874E+03  0.44280939640E+03  0.11854286294E+04  0.12699999809E+01 0. -1.
</event>
<event>
 5   0  0.1393026E-05  0.2390259E+04  0.7818609E-02  0.8443160E-01
        1   -1    0    0  501    0  0.00000000000E+00  0.00000000000E+00  0.12426359085E+04  0.12426359085E+04  0.50400001928E-02 0. -1.
       -1   -1    0    0    0  501  0.00000000000E+00  0.00000000000E+00 -0.11494388226E+04  0.11494388226E+04  0.50400001928E-02 0.  1.
    10030    2    1    2    0    0  0.00000000000E+00  0.00000000000E+00  0.93197085873E+02  0.23920747311E+04  0.23902585262E+04 0.  0.
        4    1    3    3  502    0  0.43806855534E+03 -0.30308144646E+03 -0.10240601106E+04  0.11543236744E+04  0.12699999809E+01 0.  1.
       -4    1    3    3    0  502 -0.43806855534E+03  0.30308144646E+03  0.11172571964E+04  0.12377510567E+04  0.12699999809E+01 0. -1.
</event>
<event>
 5   0  0.1506985E-05  0.2379908E+04  0.7818609E-02  0.8447064E-01
       -1   -1    0    0    0  501  0.00000000000E+00  0.00000000000E+00  0.99435983700E+03  0.99435983701E+03  0.50400001928E-02 0. -1.
        1   -1    0    0  501    0  0.00000000000E+00  0.00000000000E+00 -0.14240227907E+04  0.14240227907E+04  0.50400001928E-02 0.  1.
    10030    2    1    2    0    0  0.00000000000E+00  0.00000000000E+00 -0.42966295367E+03  0.24183826277E+04  0.23799084605E+04 0.  0.
        3    1    3    3  502    0 -0.19410446285E+03  0.38176896039E+03 -0.13429897322E+04  0.14096260187E+04  0.10100000352E+00 0.  1.
       -3    1    3    3    0  502  0.19410446285E+03 -0.38176896039E+03  0.91332677852E+03  0.10087566090E+04  0.10100000352E+00 0. -1.
</event>
<event>
 5   0  0.1506985E-05  0.2390805E+04  0.7818609E-02  0.8442954E-01
        1   -1    0    0  501    0  0.00000000000E+00  0.00000000000E+00  0.60424861154E+03  0.60424861156E+03  0.50400001928E-02 0. -1.
       -1   -1    0    0    0  501  0.00000000000E+00  0.00000000000E+00 -0.23648986138E+04  0.23648986138E+04  0.50400001928E-02 0.  1.
    10030    2    1    2    0    0  0.00000000000E+00  0.00000000000E+00 -0.17606500022E+04  0.29691472253E+04  0.23908046376E+04 0.  0.
        3    1    3    3  502    0  0.66621517185E+03  0.26347852039E+03  0.30809439092E+03  0.77986264805E+03  0.10100000352E+00 0. -1.
       -3    1    3    3    0  502 -0.66621517185E+03 -0.26347852039E+03 -0.20687443932E+04  0.21892845773E+04  0.10100000352E+00 0.  1.
</event>
<event>
 5   0  0.3345974E-05  0.2410762E+04  0.7818609E-02  0.8435485E-01
        2   -1    0    0  501    0  0.00000000000E+00  0.00000000000E+00  0.12331947596E+04  0.12331947596E+04  0.25500000920E-02 0. -1.
       -2   -1    0    0    0  501  0.00000000000E+00  0.00000000000E+00 -0.11781947031E+04  0.11781947031E+04  0.25500000920E-02 0.  1.
    10030    2    1    2    0    0  0.00000000000E+00  0.00000000000E+00  0.55000056552E+02  0.24113894627E+04  0.24107621481E+04 0.  0.
        4    1    3    3  502    0  0.16330576860E+03  0.65862422393E+03  0.10239958206E+04  0.12284232560E+04  0.12699999809E+01 0. -1.
       -4    1    3    3    0  502 -0.16330576860E+03 -0.65862422393E+03 -0.96899576406E+03  0.11829662067E+04  0.12699999809E+01 0.  1.
</event>
<event>
 5   0  0.1393026E-05  0.2404160E+04  0.7818609E-02  0.8437948E-01
        1   -1    0    0  501    0  0.00000000000E+00  0.00000000000E+00  0.13017161906E+04  0.13017161906E+04  0.50400001928E-02 0.  1.
       -1   -1    0    0    0  501  0.00000000000E+00  0.00000000000E+00 -0.11100699004E+04  0.11100699004E+04  0.50400001928E-02 0. -1.
    10030    2    1    2    0    0  0.00000000000E+00  0.00000000000E+00  0.19164629017E+03  0.24117860910E+04  0.24041596969E+04 0.  0.
        4    1    3    3  502    0  0.15081421081E+03 -0.87287294410E+03 -0.71936905427E+03  0.11411159239E+04  0.12699999809E+01 0. -1.
       -4    1    3    3    0  502 -0.15081421081E+03  0.87287294410E+03  0.91101534445E+03  0.12706701671E+04  0.12699999809E+01 0.  1.
</event>
<event>
 5   0  0.3215208E-05  0.2498852E+04  0.7818609E-02  0.8403395E-01
        2   -1    0    0  501    0  0.00000000000E+00  0.00000000000E+00  0.16341980969E+04  0.16341980969E+04  0.25500000920E-02 0. -1.
       -2   -1    0    0    0  501  0.00000000000E+00  0.00000000000E+00 -0.95524871280E+03  0.95524871280E+03  0.25500000920E-02 0.  1.
    10030    2    1    2    0    0  0.00000000000E+00  0.00000000000E+00  0.67894938414E+03  0.25894468097E+04  0.24988522394E+04 0.  0.
        1    1    3    3  502    0 -0.12155984792E+04  0.26422138078E+03  0.46020179791E+03  0.13263778856E+04  0.50400001928E-02 0. -1.
       -1    1    3    3    0  502  0.12155984792E+04 -0.26422138078E+03  0.21874758622E+03  0.12630689241E+04  0.50400001928E-02 0.  1.
</event>
<event>
 5   0  0.1434943E-05  0.2389753E+04  0.7818609E-02  0.8443350E-01
       -1   -1    0    0    0  501  0.00000000000E+00  0.00000000000E+00  0.11493905993E+04  0.11493905993E+04  0.50400001928E-02 0. -1.
        1   -1    0    0  501    0  0.00000000000E+00  0.00000000000E+00 -0.12421624072E+04  0.12421624072E+04  0.50400001928E-02 0.  1.
    10030    2    1    2    0    0  0.00000000000E+00  0.00000000000E+00 -0.92771807826E+02  0.23915530065E+04  0.23897529526E+04 0.  0.
        5    1    3    3  502    0  0.50993829001E+03  0.10667439737E+04  0.12616188617E+03  0.11890831244E+04  0.46999998093E+01 0. -1.
       -5    1    3    3    0  502 -0.50993829001E+03 -0.10667439737E+04 -0.21893369400E+03  0.12024698821E+04  0.46999998093E+01 0.  1.
</event>
<event>
 5   0  0.3347728E-05  0.2413368E+04  0.7818609E-02  0.8434516E-01
        2   -1    0    0  501    0  0.00000000000E+00  0.00000000000E+00  0.99898334739E+03  0.99898334740E+03  0.25500000920E-02 0. -1.
       -2   -1    0    0    0  501  0.00000000000E+00  0.00000000000E+00 -0.14575686640E+04  0.14575686640E+04  0.25500000920E-02 0.  1.
    10030    2    1    2    0    0  0.00000000000E+00  0.00000000000E+00 -0.45858531656E+03  0.24565520113E+04  0.24133684534E+04 0.  0.
        3    1    3    3  502    0 -0.54666378466E+03  0.86918376417E+03  0.41589854606E+03  0.11078327131E+04  0.10100000352E+00 0. -1.
       -3    1    3    3    0  502  0.54666378466E+03 -0.86918376417E+03 -0.87448386262E+03  0.13487192983E+04  0.10100000352E+00 0.  1.
</event>
<event>
 5   0  0.3215208E-05  0.2297490E+04  0.7818609E-02  0.8478911E-01
        2   -1    0    0  501    0  0.00000000000E+00  0.00000000000E+00  0.19056423846E+04  0.19056423846E+04  0.25500000920E-02 0. -1.
       -2   -1    0    0    0  501  0.00000000000E+00  0.00000000000E+00 -0.69247805284E+03  0.69247805285E+03  0.25500000920E-02 0.  1.
    10030    2    1    2    0    0  0.00000000000E+00  0.00000000000E+00  0.12131643317E+04  0.25981204374E+04  0.22974903942E+04 0.  0.
        1    1    3    3  502    0 -0.10426406840E+04 -0.23048422469E+03  0.10855521142E+04  0.15227100730E+04  0.50400001928E-02 0. -1.
       -1    1    3    3    0  502  0.10426406840E+04  0.23048422469E+03  0.12761221747E+03  0.10754103644E+04  0.50400001928E-02 0.  1.
</event>
<event>
 5   0  0.1434943E-05  0.2410102E+04  0.7818609E-02  0.8435731E-01
       -1   -1    0    0    0  501  0.00000000000E+00  0.00000000000E+00  0.92638624765E+03  0.92638624767E+03  0.50400001928E-02 0. -1.
        1   -1    0    0  501    0  0.00000000000E+00  0.00000000000E+00 -0.15675406507E+04  0.15675406508E+04  0.50400001928E-02 0.  1.
    10030    2    1    2    0    0  0.00000000000E+00  0.00000000000E+00 -0.64115440309E+03  0.24939268984E+04  0.24101021568E+04 0.  0.
        5    1    3    3  502    0 -0.83511664020E+03  0.26353060428E+03  0.53601727786E+03  0.10267447562E+04  0.46999998093E+01 0. -1.
       -5    1    3    3    0  502  0.83511664020E+03 -0.26353060428E+03 -0.11771716810E+04  0.14671821423E+04  0.46999998093E+01 0.  1.
</event>
<event>
 5   0  0.1401596E-05  0.2405962E+04  0.7818609E-02  0.8437275E-01
       -1   -1    0    0    0  501  0.00000000000E+00  0.00000000000E+00  0.11456132652E+04  0.11456132652E+04  0.50400001928E-02 0. -1.
        1   -1    0    0  501    0  0.00000000000E+00  0.00000000000E+00 -0.12632220040E+04  0.12632220041E+04  0.50400001928E-02 0.  1.
    10030    2    1    2    0    0  0.00000000000E+00  0.00000000000E+00 -0.11760873883E+03  0.24088352693E+04  0.24059624974E+04 0.  0.
        2    1    3    3  502    0  0.21828630666E+03 -0.75559129470E+03 -0.97016416397E+03  0.12489137766E+04  0.25500000920E-02 0.  1.
       -2    1    3    3    0  502 -0.21828630666E+03  0.75559129470E+03  0.85255542514E+03  0.11599214927E+04  0.25500000920E-02 0. -1.
</event>
<event>
 5   0  0.3310037E-05  0.2429139E+04  0.7818609E-02  0.8428674E-01
        2   -1    0    0  501    0  0.00000000000E+00  0.00000000000E+00  0.20790138883E+04  0.20790138883E+04  0.25500000920E-02 0. -1.
       -2   -1    0    0    0  501  0.00000000000E+00  0.00000000000E+00 -0.70955700749E+03  0.70955700749E+03  0.25500000920E-02 0.  1.
    10030    2    1    2    0    0  0.00000000000E+00  0.00000000000E+00  0.13694568809E+04  0.27885708958E+04  0.24291388377E+04 0.  0.
        2    1    3    3  502    0  0.82723153158E+02 -0.99009952340E+03 -0.11723852209E+03  0.10004424308E+04  0.25500000920E-02 0.  1.
       -2    1    3    3    0  502 -0.82723153158E+02  0.99009952340E+03  0.14866954029E+04  0.17881284650E+04  0.25500000920E-02 0. -1.
</event>
<event>
 5   0  0.3310037E-05  0.2431346E+04  0.7818609E-02  0.8427861E-01
       -2   -1    0    0    0  501  0.00000000000E+00  0.00000000000E+00  0.11627241150E+04  0.11627241150E+04  0.25500000920E-02 0.  1.
        2   -1    0    0  501    0  0.00000000000E+00  0.00000000000E+00 -0.12710330254E+04  0.12710330254E+04  0.25500000920E-02 0. -1.
    10030    2    1    2    0    0  0.00000000000E+00  0.00000000000E+00 -0.10830891040E+03  0.24337571403E+04  0.24313459231E+04 0.  0.
        2    1    3    3  502    0  0.36095010754E+03 -0.11561000666E+04 -0.15917945552E+03  0.12215524726E+04  0.25500000920E-02 0. -1.
       -2    1    3    3    0  502 -0.36095010754E+03  0.11561000666E+04  0.50870545116E+02  0.12122046678E+04  0.25500000920E-02 0.  1.
</event>
<event>
 5   0  0.1506985E-05  0.2367045E+04  0.7818609E-02  0.8451945E-01
       -1   -1    0    0    0  501  0.00000000000E+00  0.00000000000E+00  0.14567015932E+04  0.14567015932E+04  0.50400001928E-02 0. -1.
        1   -1    0    0  501    0  0.00000000000E+00  0.00000000000E+00 -0.96157330947E+03  0.96157330948E+03  0.50400001928E-02 0.  1.
    10030    2    1    2    0    0  0.00000000000E+00  0.00000000000E+00  0.49512828369E+03  0.24182749026E+04  0.23670448850E+04 0.  0.
        3    1    3    3  502    0 -0.31776298731E+03  0.64706407950E+03 -0.71139907244E+03  0.10127950876E+04  0.10100000352E+00 0.  1.
       -3    1    3    3    0  502  0.31776298731E+03 -0.64706407950E+03  0.12065273561E+04  0.14054798150E+04  0.10100000352E+00 0. -1.
</event>
<event>
 5   0  0.1401596E-05  0.2404295E+04  0.7818609E-02  0.8437897E-01
       -1   -1    0    0    0  501  0.00000000000E+00  0.00000000000E+00  0.14201927813E+04  0.14201927813E+04  0.50400001928E-02 0.  1.
        1   -1    0    0  501    0  0.00000000000E+00  0.00000000000E+00 -0.10175792878E+04  0.10175792878E+04  0.50400001928E-02 0. -1.
    10030    2    1    2    0    0  0.00000000000E+00  0.00000000000E+00  0.40261349349E+03  0.24377720691E+04  0.24042951225E+04 0.  0.
        2    1    3    3  502    0  0.29082458600E+03  0.76216883066E+03 -0.69398194419E+03  0.10710234382E+04  0.25500000920E-02 0. -1.
       -2    1    3    3    0  502 -0.29082458600E+03 -0.76216883066E+03  0.10965954377E+04  0.13667486309E+04  0.25500000920E-02 0.  1.
</event>
<event>
 5   0  0.3215208E-05  0.2381821E+04  0.7818609E-02  0.8446341E-01
       -2   -1    0    0    0  501  0.00000000000E+00  0.00000000000E+00  0.84016311985E+03  0.84016311986E+03  0.25500000920E-02 0.  1.
        2   -1    0    0  501    0  0.00000000000E+00  0.00000000000E+00 -0.16880857068E+04  0.16880857068E+04  0.25500000920E-02 0. -1.
    10030    2    1    2    0    0  0.00000000000E+00  0.00000000000E+00 -0.84792258693E+03  0.25282488266E+04  0.23818206095E+04 0.  0.
        1    1    3    3  502    0  0.50305542639E+03  0.10002676731E+04 -0.85470037903E+03  0.14085854315E+04  0.50400001928E-02 0. -1.
       -1    1    3    3    0  502 -0.50305542639E+03 -0.10002676731E+04  0.67777920996E+01  0.11196633951E+04  0.50400001928E-02 0.  1.
</event>
<event>
 5   0  0.1393026E-05  0.2383720E+04  0.7818609E-02  0.8445624E-01
       -1   -1    0    0    0  501  0.00000000000E+00  0.00000000000E+00  0.69374714704E+03  0.69374714706E+03  0.50400001928E-02 0.  1.
        1   -1    0    0  501    0  0.00000000000E+00  0.00000000000E+00 -0.20476195135E+04  0.20476195135E+04  0.50400001928E-02 0. -1.
    10030    2    1    2    0    0  0.00000000000E+00  0.00000000000E+00 -0.13538723664E+04  0.27413666606E+04  0.23837199464E+04 0.  0.
        4    1    3    3  502    0 -0.93845837351E+03 -0.32929127449E+03 -0.14322854275E+04  0.17437259019E+04  0.12699999809E+01 0. -1.
       -4    1    3    3    0  502  0.93845837351E+03  0.32929127449E+03  0.78413061049E+02  0.99764075865E+03  0.12699999809E+01 0.  1.
</event>
<event>
 5   0  0.3215208E-05  0.2422937E+04  0.7818609E-02  0.8430966E-01
        2   -1    0    0  501    0  0.00000000000E+00  0.00000000000E+00  0.18195543835E+04  0.18195543835E+04  0.25500000920E-02 0.  1.
       -2   -1    0    0    0  501  0.00000000000E+00  0.00000000000E+00 -0.80660217227E+03  0.80660217227E+03  0.25500000920E-02 0. -1.
    10030    2    1    2    0    0  0.00000000000E+00  0.00000000000E+00  0.10129522112E+04  0.26261565558E+04  0.24229374885E+04 0.  0.
        1    1    3    3  502    0 -0.11481659842E+04  0.28096325637E+03  0.21882870575E+03  0.12021278971E+04  0.50400001928E-02 0.  1.
       -1    1    3    3    0  502  0.11481659842E+04 -0.28096325637E+03  0.79412350548E+03  0.14240286586E+04  0.50400001928E-02 0. -1.
</event>
<event>
 5   0  0.1407158E-05  0.2402496E+04  0.7818609E-02  0.8438570E-01
        1   -1    0    0  501    0  0.00000000000E+00  0.00000000000E+00  0.81213133044E+03  0.81213133046E+03  0.50400001928E-02 0.  1.
       -1   -1    0    0    0  501  0.00000000000E+00  0.00000000000E+00 -0.17768018002E+04  0.17768018002E+04  0.50400001928E-02 0. -1.
    10030    2    1    2    0    0  0.00000000000E+00  0.00000000000E+00 -0.96467046978E+03  0.25889331307E+04  0.24024957107E+04 0.  0.
        1    1    3    3  502    0 -0.46647201537E+03  0.68061453045E+02 -0.16729595954E+04  0.17381088316E+04  0.50400001928E-02 0. -1.
       -1    1    3    3    0  502  0.46647201537E+03 -0.68061453045E+02  0.70828912561E+03  0.85082429913E+03  0.50400001928E-02 0.  1.
</event>
<event>
 5   0  0.3345974E-05  0.2385328E+04  0.7818609E-02  0.8445017E-01
        2   -1    0    0  501    0  0.00000000000E+00  0.00000000000E+00  0.21742763800E+04  0.21742763800E+04  0.25500000920E-02 0.  1.
       -2   -1    0    0    0  501  0.00000000000E+00  0.00000000000E+00 -0.65421635920E+03  0.65421635921E+03  0.25500000920E-02 0. -1.
    10030    2    1    2    0    0  0.00000000000E+00  0.00000000000E+00  0.15200600208E+04  0.28284927392E+04  0.23853277990E+04 0.  0.
        4    1    3    3  502    0  0.20416862115E+03 -0.79031731475E+03  0.17911605315E+04  0.19683861274E+04  0.12699999809E+01 0.  1.
       -4    1    3    3    0  502 -0.20416862115E+03  0.79031731475E+03 -0.27110051075E+03  0.86010661181E+03  0.12699999809E+01 0. -1.
</event>
<event>
 5   0  0.1147362E-05  0.2528739E+04  0.7818609E-02  0.8392818E-01
        3   -1    0    0  501    0  0.00000000000E+00  0.00000000000E+00  0.13076359102E+04  0.13076359141E+04  0.10100000352E+00 0.  1.
       -3   -1    0    0    0  501  0.00000000000E+00  0.00000000000E+00 -0.12225350886E+04  0.12225350928E+04  0.10100000352E+00 0. -1.
    10030    2    1    2    0    0  0.00000000000E+00  0.00000000000E+00  0.85100821611E+02  0.25301710069E+04  0.25287394437E+04 0.  0.
        4    1    3    3  502    0  0.67480495278E+03 -0.96622901539E+03 -0.41560502989E+03  0.12496757132E+04  0.12699999809E+01 0.  1.
       -4    1    3    3    0  502 -0.67480495278E+03  0.96622901539E+03  0.50070585150E+03  0.12804952937E+04  0.12699999809E+01 0. -1.
</event>
<event>
 5   0  0.3347728E-05  0.2393622E+04  0.7818609E-02  0.8441895E-01
        2   -1    0    0  501    0  0.00000000000E+00  0.00000000000E+00  0.13748221987E+04  0.13748221987E+04  0.25500000920E-02 0. -1.
       -2   -1    0    0    0  501  0.00000000000E+00  0.00000000000E+00 -0.10418489461E+04  0.10418489461E+04  0.25500000920E-02 0.  1.
    10030    2    1    2    0    0  0.00000000000E+00  0.00000000000E+00  0.33297325262E+03  0.24166711448E+04  0.23936224087E+04 0.  0.
        3    1    3    3  502    0 -0.44179318327E+03 -0.75689459364E+03 -0.65639922884E+03  0.10949568944E+04  0.10100000352E+00 0.  1.
       -3    1    3    3    0  502  0.44179318327E+03  0.75689459364E+03  0.98937248146E+03  0.13217142505E+04  0.10100000352E+00 0. -1.
</event>
<event>
 5   0  0.3310037E-05  0.2492140E+04  0.7818609E-02  0.8405791E-01
        2   -1    0    0  501    0  0.00000000000E+00  0.00000000000E+00  0.26752183045E+04  0.26752183045E+04  0.25500000920E-02 0.  1.
       -2   -1    0    0    0  501  0.00000000000E+00  0.00000000000E+00 -0.58039784328E+03  0.58039784329E+03  0.25500000920E-02 0. -1.
    10030    2    1    2    0    0  0.00000000000E+00  0.00000000000E+00  0.20948204612E+04  0.32556161478E+04  0.24921403927E+04 0.  0.
        2    1    3    3  502    0  0.47867185721E+03 -0.58989493971E+03 -0.24289942531E+03  0.79756060434E+03  0.25500000920E-02 0. -1.
       -2    1    3    3    0  502 -0.47867185721E+03  0.58989493971E+03  0.23377198865E+04  0.24580555435E+04  0.25500000920E-02 0.  1.
</event>
<event>
 5   0  0.3215208E-05  0.2389618E+04  0.7818609E-02  0.8443401E-01
        2   -1    0    0  501    0  0.00000000000E+00  0.00000000000E+00  0.14246252435E+04  0.14246252435E+04  0.25500000920E-02 0.  1.
       -2   -1    0    0    0  501  0.00000000000E+00  0.00000000000E+00 -0.10020660316E+04  0.10020660316E+04  0.25500000920E-02 0. -1.
    10030    2    1    2    0    0  0.00000000000E+00  0.00000000000E+00  0.42255921186E+03  0.24266912751E+04  0.23896180149E+04 0.  0.
        1    1    3    3  502    0  0.61513225787E+02  0.90295682136E+03 -0.58085648542E+03  0.10754111562E+04  0.50400001928E-02 0. -1.
       -1    1    3    3    0  502 -0.61513225787E+02 -0.90295682136E+03  0.10034156973E+04  0.13512801189E+04  0.50400001928E-02 0.  1.
</event>
<event>
 5   0  0.1401596E-05  0.2389419E+04  0.7818609E-02  0.8443475E-01
       -1   -1    0    0    0  501  0.00000000000E+00  0.00000000000E+00  0.11005221828E+04  0.11005221828E+04  0.50400001928E-02 0. -1.
        1   -1    0    0  501    0  0.00000000000E+00  0.00000000000E+00 -0.12969580552E+04  0.12969580552E+04  0.50400001928E-02 0.  1.
    10030    2    1    2    0    0  0.00000000000E+00  0.00000000000E+00 -0.19643587244E+03  0.23974802380E+04  0.23894192683E+04 0.  0.
        2    1    3    3  502    0 -0.63225388207E+03 -0.23020063660E+03 -0.10887635925E+04  0.12798997870E+04  0.25500000920E-02 0.  1.
       -2    1    3    3    0  502  0.63225388207E+03  0.23020063660E+03  0.89232772004E+03  0.11175804510E+04  0.25500000920E-02 0. -1.
</event>
<event>
 5   0  0.3310037E-05  0.2384074E+04  0.7818609E-02  0.8445490E-01
        2   -1    0    0  501    0  0.00000000000E+00  0.00000000000E+00  0.22242211908E+04  0.22242211908E+04  0.25500000920E-02 0.  1.
       -2   -1    0    0    0  501  0.00000000000E+00  0.00000000000E+00 -0.63885375274E+03  0.63885375275E+03  0.25500000920E-02 0. -1.
    10030    2    1    2    0    0  0.00000000000E+00  0.00000000000E+00  0.15853674381E+04  0.28630749436E+04  0.23840738703E+04 0.  0.
        2    1    3    3  502    0 -0.72825211093E+03 -0.48582485991E+03  0.17642954650E+04  0.19695470087E+04  0.25500000920E-02 0.  1.
       -2    1    3    3    0  502  0.72825211093E+03  0.48582485991E+03 -0.17892802693E+03  0.89352793488E+03  0.25500000920E-02 0. -1.
</event>
<event>
 5   0  0.1506985E-05  0.2414790E+04  0.7818609E-02  0.8433987E-01
        1   -1    0    0  501    0  0.00000000000E+00  0.00000000000E+00  0.92533101094E+03  0.92533101096E+03  0.50400001928E-02 0.  1.
       -1   -1    0    0    0  501  0.00000000000E+00  0.00000000000E+00 -0.15754391979E+04  0.15754391979E+04  0.50400001928E-02 0. -1.
    10030    2    1    2    0    0  0.00000000000E+00  0.00000000000E+00 -0.65010818691E+03  0.25007702088E+04  0.24147900494E+04 0.  0.
        3    1    3    3  502    0 -0.66308542605E+03 -0.35769064110E+03 -0.13021401221E+04  0.15043914998E+04  0.10100000352E+00 0. -1.
       -3    1    3    3    0  502  0.66308542605E+03  0.35769064110E+03  0.65203193520E+03  0.99637870898E+03  0.10100000352E+00 0.  1.
</event>
<event>
 5   0  0.1393026E-05  0.2416727E+04  0.7818609E-02  0.8433268E-01
       -1   -1    0    0    0  501  0.00000000000E+00  0.00000000000E+00  0.11804960187E+04  0.11804960187E+04  0.50400001928E-02 0.  1.
        1   -1    0    0  501    0  0.00000000000E+00  0.00000000000E+00 -0.12368891969E+04  0.12368891969E+04  0.50400001928E-02 0. -1.
    10030    2    1    2    0    0  0.00000000000E+00  0.00000000000E+00 -0.56393178212E+02  0.24173852156E+04  0.24167273512E+04 0.  0.
        4    1    3    3  502    0  0.35260372876E+03 -0.62031382136E+03 -0.10036658940E+04  0.12314485236E+04  0.12699999809E+01 0. -1.
       -4    1    3    3    0  502 -0.35260372876E+03  0.62031382136E+03  0.94727271579E+03  0.11859366920E+04  0.12699999809E+01 0.  1.
</event>
<event>
 5   0  0.1401596E-05  0.2394145E+04  0.7818609E-02  0.8441699E-01
       -1   -1    0    0    0  501  0.00000000000E+00  0.00000000000E+00  0.11242680706E+04  0.11242680706E+04  0.50400001928E-02 0.  1.
        1   -1    0    0  501    0  0.00000000000E+00  0.00000000000E+00 -0.12745911020E+04  0.12745911020E+04  0.50400001928E-02 0. -1.
    10030    2    1    2    0    0  0.00000000000E+00  0.00000000000E+00 -0.15032303142E+03  0.23988591726E+04  0.23941445897E+04 0.  0.
        2    1    3    3  502    0 -0.11692632821E+04  0.22311989753E+03 -0.20199264312E+03  0.12073773807E+04  0.25500000920E-02 0. -1.
       -2    1    3    3    0  502  0.11692632821E+04 -0.22311989753E+03  0.51669611699E+02  0.11914817919E+04  0.25500000920E-02 0.  1.
</event>
<event>
 5   0  0.1434943E-05  0.2399817E+04  0.7818609E-02  0.8439572E-01
       -1   -1    0    0    0  501  0.00000000000E+00  0.00000000000E+00  0.10311004417E+04  0.10311004417E+04  0.50400001928E-02 0.  1.
        1   -1    0    0  501    0  0.00000000000E+00  0.00000000000E+00 -0.13963534532E+04  0.13963534532E+04  0.50400001928E-02 0. -1.
    10030    2    1    2    0    0  0.00000000000E+00  0.00000000000E+00 -0.36525301148E+03  0.24274538949E+04  0.23998172117E+04 0.  0.
        5    1    3    3  502    0 -0.94710645055E+03  0.18044993967E+03  0.53987206756E+03  0.11050143659E+04  0.46999998093E+01 0.  1.
       -5    1    3    3    0  502  0.94710645055E+03 -0.18044993967E+03 -0.90512507904E+03  0.13224395291E+04  0.46999998093E+01 0. -1.
</event>
<event>
 5   0  0.3215208E-05  0.2404315E+04  0.7818609E-02  0.8437890E-01
        2   -1    0    0  501    0  0.00000000000E+00  0.00000000000E+00  0.10927378114E+04  0.10927378114E+04  0.25500000920E-02 0.  1.
       -2   -1    0    0    0  501  0.00000000000E+00  0.00000000000E+00 -0.13225333997E+04  0.13225333997E+04  0.25500000920E-02 0. -1.
    10030    2    1    2    0    0  0.00000000000E+00  0.00000000000E+00 -0.22979558837E+03  0.24152712111E+04  0.24043146655E+04 0.  0.
        1    1    3    3  502    0 -0.41760871768E+02  0.11717539521E+04  0.15169990491E+03  0.11822707625E+04  0.50400001928E-02 0. -1.
       -1    1    3    3    0  502  0.41760871768E+02 -0.11717539521E+04 -0.38149549328E+03  0.12330004486E+04  0.50400001928E-02 0.  1.
</event>
<event>
 5   0  0.3345974E-05  0.2374916E+04  0.7818609E-02  0.8448955E-01
       -2   -1    0    0    0  501  0.00000000000E+00  0.00000000000E+00  0.53695405483E+03  0.53695405484E+03  0.25500000920E-02 0. -1.
        2   -1    0    0  501    0  0.00000000000E+00  0.00000000000E+00 -0.26260287228E+04  0.26260287228E+04  0.25500000920E-02 0.  1.
    10030    2    1    2    0    0  0.00000000000E+00  0.00000000000E+00 -0.20890746679E+04  0.31629827776E+04  0.23749162266E+04 0.  0.
        4    1    3    3  502    0  0.10017822856E+04 -0.45088464840E+03 -0.16448813305E+04  0.19780042766E+04  0.12699999809E+01 0.  1.
       -4    1    3    3    0  502 -0.10017822856E+04  0.45088464840E+03 -0.44419333743E+03  0.11849785010E+04  0.12699999809E+01 0. -1.
</event>
<event>
 5   0  0.3347728E-05  0.2261967E+04  0.7818609E-02  0.8493070E-01
       -2   -1    0    0    0  501  0.00000000000E+00  0.00000000000E+00  0.82767722428E+03  0.82767722429E+03  0.25500000920E-02 0. -1.
        2   -1    0    0  501    0  0.00000000000E+00  0.00000000000E+00 -0.15454373453E+04  0.15454373453E+04  0.25500000920E-02 0.  1.
    10030    2    1    2    0    0  0.00000000000E+00  0.00000000000E+00 -0.71776012104E+03  0.23731145696E+04  0.22619666596E+04 0.  0.
        3    1    3    3  502    0  0.91112699770E+03 -0.39370357384E+03  0.20995035480E+03  0.10145117405E+04  0.10100000352E+00 0. -1.
       -3    1    3    3    0  502 -0.91112699770E+03  0.39370357384E+03 -0.92771047584E+03  0.13586028291E+04  0.10100000352E+00 0.  1.
</event>
<event>
 5   0  0.1401596E-05  0.2725978E+04  0.7818609E-02  0.8326625E-01
       -1   -1    0    0    0  501  0.00000000000E+00  0.00000000000E+00  0.13611713230E+04  0.13611713230E+04  0.50400001928E-02 0. -1.
        1   -1    0    0  501    0  0.00000000000E+00  0.00000000000E+00 -0.13648095426E+04  0.13648095426E+04  0.50400001928E-02 0.  1.
    10030    2    1    2    0    0  0.00000000000E+00  0.00000000000E+00 -0.36382195861E+01  0.27259808657E+04  0.27259784378E+04 0.  0.
        2    1    3    3  502    0  0.97883487207E+03  0.83595312245E+03 -0.44993141579E+03  0.13635885041E+04  0.25500000920E-02 0.  1.
       -2    1    3    3    0  502 -0.97883487207E+03 -0.83595312245E+03  0.44629319620E+03  0.13623923615E+04  0.25500000920E-02 0. -1.
</event>
<event>
 5   0  0.1147362E-05  0.2382209E+04  0.7818609E-02  0.8446194E-01
       -4   -1    0    0    0  501  0.00000000000E+00  0.00000000000E+00  0.72697227703E+03  0.72697338636E+03  0.12699999809E+01 0.  1.
        4   -1    0    0  501    0  0.00000000000E+00  0.00000000000E+00 -0.19515576311E+04  0.19515580444E+04  0.12699999809E+01 0. -1.
    10030    2    1    2    0    0  0.00000000000E+00  0.00000000000E+00 -0.12245853541E+04  0.26785314307E+04  0.23822093392E+04 0.  0.
        5    1    3    3  502    0  0.10846791580E+04 -0.48714229754E+03 -0.69077273625E+03  0.13751456494E+04  0.46999998093E+01 0. -1.
       -5    1    3    3    0  502 -0.10846791580E+04  0.48714229754E+03 -0.53381261785E+03  0.13033857813E+04  0.46999998093E+01 0.  1.
</event>
<event>
 5   0  0.1147362E-05  0.2401879E+04  0.7818609E-02  0.8438801E-01
       -3   -1    0    0    0  501  0.00000000000E+00  0.00000000000E+00  0.99187973298E+03  0.99187973812E+03  0.10100000352E+00 0.  1.
        3   -1    0    0  501    0  0.00000000000E+00  0.00000000000E+00 -0.14540627999E+04  0.14540628034E+04  0.10100000352E+00 0. -1.
    10030    2    1    2    0    0  0.00000000000E+00  0.00000000000E+00 -0.46218306690E+03  0.24459425415E+04  0.24018787915E+04 0.  0.
        3    1    3    3  502    0 -0.79203558494E+03  0.23938746663E+03 -0.11174785190E+04  0.13904621453E+04  0.10100000352E+00 0. -1.
       -3    1    3    3    0  502  0.79203558494E+03 -0.23938746663E+03  0.65529545209E+03  0.10554803962E+04  0.10100000352E+00 0.  1.
</event>
<event>
 5   0  0.1147362E-05  0.2406306E+04  0.7818609E-02  0.8437146E-01
       -3   -1    0    0    0  501  0.00000000000E+00  0.00000000000E+00  0.17500118010E+04  0.17500118039E+04  0.10100000352E+00 0.  1.
        3   -1    0    0  501    0  0.00000000000E+00  0.00000000000E+00 -0.82718153498E+03  0.82718154114E+03  0.10100000352E+00 0. -1.
    10030    2    1    2    0    0  0.00000000000E+00  0.00000000000E+00  0.92283026601E+03  0.25771933450E+04  0.24063062644E+04 0.  0.
        4    1    3    3  502    0 -0.65732171634E+03  0.88863550164E+03 -0.47549767349E+02  0.11063487185E+04  0.12699999809E+01 0.  1.
       -4    1    3    3    0  502  0.65732171634E+03 -0.88863550164E+03  0.97038003336E+03  0.14708446266E+04  0.12699999809E+01 0. -1.
</event>
<event>
 5   0  0.1393026E-05  0.2398359E+04  0.7818609E-02  0.8440118E-01
        1   -1    0    0  501    0  0.00000000000E+00  0.00000000000E+00  0.61841811043E+03  0.61841811046E+03  0.50400001928E-02 0. -1.
       -1   -1    0    0    0  501  0.00000000000E+00  0.00000000000E+00 -0.23253389180E+04  0.23253389180E+04  0.50400001928E-02 0.  1.
    10030    2    1    2    0    0  0.00000000000E+00  0.00000000000E+00 -0.17069208076E+04  0.29437570285E+04  0.23983591890E+04 0.  0.
        4    1    3    3  502    0  0.57273547171E+03 -0.10515995583E+04 -0.77446153992E+03  0.14260714713E+04  0.12699999809E+01 0.  1.
       -4    1    3    3    0  502 -0.57273547171E+03  0.10515995583E+04 -0.93245926769E+03  0.15176855572E+04  0.12699999809E+01 0. -1.
</event>
<event>
 5   0  0.1407158E-05  0.2256870E+04  0.7818609E-02  0.8495123E-01
       -1   -1    0    0    0  501  0.00000000000E+00  0.00000000000E+00  0.80974825972E+03  0.80974825974E+03  0.50400001928E-02 0.  1.
        1   -1    0    0  501    0  0.00000000000E+00  0.00000000000E+00 -0.15725454518E+04  0.15725454518E+04  0.50400001928E-02 0. -1.
    10030    2    1    2    0    0  0.00000000000E+00  0.00000000000E+00 -0.76279719209E+03  0.23822937116E+04  0.22568703489E+04 0.  0.
        1    1    3    3  502    0 -0.77503088382E+02 -0.87257140892E+03 -0.11322511479E+04  0.14315656654E+04  0.50400001928E-02 0. -1.
       -1    1    3    3    0  502  0.77503088382E+02  0.87257140892E+03  0.36945395577E+03  0.95072804620E+03  0.50400001928E-02 0.  1.
</event>
<event>
 5   0  0.3345974E-05  0.2386130E+04  0.7818609E-02  0.8444715E-01
       -2   -1    0    0    0  501  0.00000000000E+00  0.00000000000E+00  0.13296400758E+04  0.13296400758E+04  0.25500000920E-02 0. -1.
        2   -1    0    0  501    0  0.00000000000E+00  0.00000000000E+00 -0.10705182985E+04  0.10705182985E+04  0.25500000920E-02 0.  1.
    10030    2    1    2    0    0  0.00000000000E+00  0.00000000000E+00  0.25912177732E+03  0.24001583743E+04  0.23861299475E+04 0.  0.
        4    1    3    3  502    0  0.34413108810E+03 -0.74772774338E+03  0.99828149772E+03  0.12938665100E+04  0.12699999809E+01 0. -1.
       -4    1    3    3    0  502 -0.34413108810E+03  0.74772774338E+03 -0.73915972040E+03  0.11062918644E+04  0.12699999809E+01 0.  1.
</event>
<event>
 5   0  0.3320780E-05  0.2398908E+04  0.7818609E-02  0.8439913E-01
        2   -1    0    0  501    0  0.00000000000E+00  0.00000000000E+00  0.25691169701E+04  0.25691169701E+04  0.25500000920E-02 0.  1.
       -2   -1    0    0    0  501  0.00000000000E+00  0.00000000000E+00 -0.55999387024E+03  0.55999387024E+03  0.25500000920E-02 0. -1.
    10030    2    1    2    0    0  0.00000000000E+00  0.00000000000E+00  0.20091230999E+04  0.31291108404E+04  0.23989078809E+04 0.  0.
        5    1    3    3  502    0  0.19130062564E+02 -0.10670833533E+04  0.29055282560E+03  0.11061084380E+04  0.46999998093E+01 0. -1.
       -5    1    3    3    0  502 -0.19130062564E+02  0.10670833533E+04  0.17185702743E+04  0.20230024024E+04  0.46999998093E+01 0.  1.
</event>
<event>
 5   0  0.1434943E-05  0.2401237E+04  0.7818609E-02  0.8439041E-01
       -1   -1    0    0    0  501  0.00000000000E+00  0.00000000000E+00  0.12785550432E+04  0.12785550432E+04  0.50400001928E-02 0. -1.
        1   -1    0    0  501    0  0.00000000000E+00  0.00000000000E+00 -0.11274323204E+04  0.11274323204E+04  0.50400001928E-02 0.  1.
    10030    2    1    2    0    0  0.00000000000E+00  0.00000000000E+00  0.15112272277E+03  0.24059873636E+04  0.24012365807E+04 0.  0.
        5    1    3    3  502    0 -0.98093382230E+03  0.68306477994E+03 -0.37149111179E+02  0.11959142126E+04  0.46999998093E+01 0. -1.
       -5    1    3    3    0  502  0.98093382230E+03 -0.68306477994E+03  0.18827183395E+03  0.12100731510E+04  0.46999998093E+01 0.  1.
</event>
<event>
 5   0  0.3215208E-05  0.2656952E+04  0.7818609E-02  0.8349109E-01
       -2   -1    0    0    0  501  0.00000000000E+00  0.00000000000E+00  0.16552475445E+04  0.16552475445E+04  0.25500000920E-02 0.  1.
        2   -1    0    0  501    0  0.00000000000E+00  0.00000000000E+00 -0.10662145616E+04  0.10662145616E+04  0.25500000920E-02 0. -1.
    10030    2    1    2    0    0  0.00000000000E+00  0.00000000000E+00  0.58903298287E+03  0.27214621061E+04  0.26569524158E+04 0.  0.
        1    1    3    3  502    0  0.11812541452E+04  0.11492055119E+03  0.90590153967E+03  0.14930591710E+04  0.50400001928E-02 0.  1.
       -1    1    3    3    0  502 -0.11812541452E+04 -0.11492055119E+03 -0.31686855680E+03  0.12284029351E+04  0.50400001928E-02 0. -1.
</event>
<event>
 5   0  0.3310037E-05  0.2371315E+04  0.7818609E-02  0.8450321E-01
       -2   -1    0    0    0  501  0.00000000000E+00  0.00000000000E+00  0.61557248525E+03  0.61557248526E+03  0.25500000920E-02 0. -1.
        2   -1    0    0  501    0  0.00000000000E+00  0.00000000000E+00 -0.22837018177E+04  0.22837018177E+04  0.25500000920E-02 0.  1.
    10030    2    1    2    0    0  0.00000000000E+00  0.00000000000E+00 -0.16681293324E+04  0.28992743029E+04  0.23713152498E+04 0.  0.
        2    1    3    3  502    0  0.86668804257E+03 -0.64613911493E+03 -0.14294559839E+04  0.17922020893E+04  0.25500000920E-02 0.  1.
       -2    1    3    3    0  502 -0.86668804257E+03  0.64613911493E+03 -0.23867334857E+03  0.11070722137E+04  0.25500000920E-02 0. -1.
</event>
<event>
 5   0  0.3310037E-05  0.2372338E+04  0.7818609E-02  0.8449933E-01
       -2   -1    0    0    0  501  0.00000000000E+00  0.00000000000E+00  0.94728038259E+03  0.94728038260E+03  0.25500000920E-02 0.  1.
        2   -1    0    0  501    0  0.00000000000E+00  0.00000000000E+00 -0.14853013170E+04  0.14853013170E+04  0.25500000920E-02 0. -1.
    10030    2    1    2    0    0  0.00000000000E+00  0.00000000000E+00 -0.53802093440E+03  0.24325816996E+04  0.23723379185E+04 0.  0.
        2    1    3    3  502    0 -0.84267506612E+03  0.23262384028E+03  0.55308571336E+03  0.10344655260E+04  0.25500000920E-02 0.  1.
       -2    1    3    3    0  502  0.84267506612E+03 -0.23262384028E+03 -0.10911066478E+04  0.13981161736E+04  0.25500000920E-02 0. -1.
</event>
<event>
 5   0  0.1393026E-05  0.2361459E+04  0.7818609E-02  0.8454075E-01
       -1   -1    0    0    0  501  0.00000000000E+00  0.00000000000E+00  0.98714515819E+03  0.98714515820E+03  0.50400001928E-02 0.  1.
        1   -1    0    0  501    0  0.00000000000E+00  0.00000000000E+00 -0.14122764885E+04  0.14122764885E+04  0.50400001928E-02 0. -1.
    10030    2    1    2    0    0  0.00000000000E+00  0.00000000000E+00 -0.42513133028E+03  0.23994216467E+04  0.23614587844E+04 0.  0.
        4    1    3    3  502    0  0.44332823131E+03 -0.92626169326E+03 -0.80470321312E+03  0.13046261990E+04  0.12699999809E+01 0. -1.
       -4    1    3    3    0  502 -0.44332823131E+03  0.92626169326E+03  0.37957188283E+03  0.10947954477E+04  0.12699999809E+01 0.  1.
</event>
<event>
 5   0  0.1407158E-05  0.2381122E+04  0.7818609E-02  0.8446605E-01
        1   -1    0    0  501    0  0.00000000000E+00  0.00000000000E+00  0.13296524614E+04  0.13296524614E+04  0.50400001928E-02 0. -1.
       -1   -1    0    0    0  501  0.00000000000E+00  0.00000000000E+00 -0.10660197526E+04  0.10660197526E+04  0.50400001928E-02 0.  1.
    10030    2    1    2    0    0  0.00000000000E+00  0.00000000000E+00  0.26363270881E+03  0.23956722141E+04  0.23811222464E+04 0.  0.
        1    1    3    3  502    0  0.30019878250E+03 -0.11495457964E+04  0.20884094087E+03  0.12063123085E+04  0.50400001928E-02 0.  1.
       -1    1    3    3    0  502 -0.30019878250E+03  0.11495457964E+04  0.54791767941E+02  0.11893599055E+04  0.50400001928E-02 0. -1.
</event>
<event>
 5   0  0.3320780E-05  0.2396446E+04  0.7818609E-02  0.8440835E-01
        2   -1    0    0  501    0  0.00000000000E+00  0.00000000000E+00  0.11674656926E+04  0.11674656926E+04  0.25500000920E-02 0. -1.
       -2   -1    0    0    0  501  0.00000000000E+00  0.00000000000E+00 -0.12297904726E+04  0.12297904726E+04  0.25500000920E-02 0.  1.
    10030    2    1    2    0    0  0.00000000000E+00  0.00000000000E+00 -0.62324780002E+02  0.23972561652E+04  0.23964458566E+04 0.  0.
        5    1    3    3  502    0 -0.10995983396E+04 -0.27819199073E+03 -0.41756855522E+03  0.12086740175E+04  0.46999998093E+01 0. -1.
       -5    1    3    3    0  502  0.10995983396E+04  0.27819199073E+03  0.35524377522E+03  0.11885821478E+04  0.46999998093E+01 0.  1.
</event>
<event>
 5   0  0.1434943E-05  0.2365351E+04  0.7818609E-02  0.8452591E-01
        1   -1    0    0  501    0  0.00000000000E+00  0.00000000000E+00  0.16415677223E+04  0.16415677224E+04  0.50400001928E-02 0.  1.
       -1   -1    0    0    0  501  0.00000000000E+00  0.00000000000E+00 -0.85206444969E+03  0.85206444970E+03  0.50400001928E-02 0. -1.
    10030    2    1    2    0    0  0.00000000000E+00  0.00000000000E+00  0.78950327266E+03  0.24936321721E+04  0.23653511350E+04 0.  0.
        5    1    3    3  502    0 -0.85553059739E+02 -0.12406739582E+03  0.16313936426E+04  0.16383465299E+04  0.46999998093E+01 0.  1.
       -5    1    3    3    0  502  0.85553059739E+02  0.12406739582E+03 -0.84189036995E+03  0.85528564220E+03  0.46999998093E+01 0. -1.
</event>
<event>
 5   0  0.3310037E-05  0.2405283E+04  0.7818609E-02  0.8437528E-01
        2   -1    0    0  501    0  0.00000000000E+00  0.00000000000E+00  0.17021575554E+04  0.17021575554E+04  0.25500000920E-02 0. -1.
       -2   -1    0    0    0  501  0.00000000000E+00  0.00000000000E+00 -0.84971401896E+03  0.84971401897E+03  0.25500000920E-02 0.  1.
    10030    2    1    2    0    0  0.00000000000E+00  0.00000000000E+00  0.85244353647E+03  0.25518715744E+04  0.24052834655E+04 0.  0.
        2    1    3    3  502    0 -0.71361599524E+03 -0.95539306501E+03  0.26075718625E+03  0.12206629377E+04  0.25500000920E-02 0.  1.
       -2    1    3    3    0  502  0.71361599524E+03  0.95539306501E+03  0.59168635022E+03  0.13312086367E+04  0.25500000920E-02 0. -1.
</event>
<event>
 5   0  0.3345974E-05  0.2399804E+04  0.7818609E-02  0.8439577E-01
        2   -1    0    0  501    0  0.00000000000E+00  0.00000000000E+00  0.19342543639E+04  0.19342543639E+04  0.25500000920E-02 0.  1.
       -2   -1    0    0    0  501  0.00000000000E+00  0.00000000000E+00 -0.74435142199E+03  0.74435142199E+03  0.25500000920E-02 0. -1.
    10030    2    1    2    0    0  0.00000000000E+00  0.00000000000E+00  0.11899029419E+04  0.26786057859E+04  0.23998041472E+04 0.  0.
        4    1    3    3  502    0  0.12772131695E+03 -0.40343612838E+02 -0.73598024849E+03  0.74807010431E+03  0.12699999809E+01 0. -1.
       -4    1    3    3    0  502 -0.12772131695E+03  0.40343612838E+02  0.19258831904E+04  0.19305356816E+04  0.12699999809E+01 0.  1.
</event>
<event>
 5   0  0.1393026E-05  0.2394088E+04  0.7818609E-02  0.8441720E-01
       -1   -1    0    0    0  501  0.00000000000E+00  0.00000000000E+00  0.11940437479E+04  0.11940437479E+04  0.50400001928E-02 0. -1.
        1   -1    0    0  501    0  0.00000000000E+00  0.00000000000E+00 -0.12000517854E+04  0.12000517854E+04  0.50400001928E-02 0.  1.
    10030    2    1    2    0    0  0.00000000000E+00  0.00000000000E+00 -0.60080374469E+01  0.23940955333E+04  0.23940879947E+04 0.  0.
        4    1    3    3  502    0  0.19040571991E+03 -0.81803136463E+03 -0.85593288355E+03  0.11991882111E+04  0.12699999809E+01 0.  1.
       -4    1    3    3    0  502 -0.19040571991E+03  0.81803136463E+03  0.84992484610E+03  0.11949073222E+04  0.12699999809E+01 0. -1.
</event>
<event>
 5   0  0.3320780E-05  0.2415242E+04  0.7818609E-02  0.8433819E-01
        2   -1    0    0  501    0  0.00000000000E+00  0.00000000000E+00  0.14231377411E+04  0.14231377411E+04  0.25500000920E-02 0. -1.
       -2   -1    0    0    0  501  0.00000000000E+00  0.00000000000E+00 -0.10247416779E+04  0.10247416779E+04  0.25500000920E-02 0.  1.
    10030    2    1    2    0    0  0.00000000000E+00  0.00000000000E+00  0.39839606322E+03  0.24478794191E+04  0.24152420639E+04 0.  0.
        5    1    3    3  502    0 -0.55734951510E+03 -0.57145955493E+03 -0.71920475160E+03  0.10744682730E+04  0.46999998093E+01 0.  1.
       -5    1    3    3    0  502  0.55734951510E+03  0.57145955493E+03  0.11176008148E+04  0.13734111461E+04  0.46999998093E+01 0. -1.
</event>
<event>
 5   0  0.3347728E-05  0.2404242E+04  0.7818609E-02  0.8437917E-01
       -2   -1    0    0    0  501  0.00000000000E+00  0.00000000000E+00  0.70737135031E+03  0.70737135032E+03  0.25500000920E-02 0.  1.
        2   -1    0    0  501    0  0.00000000000E+00  0.00000000000E+00 -0.20429092037E+04  0.20429092037E+04  0.25500000920E-02 0. -1.
    10030    2    1    2    0    0  0.00000000000E+00  0.00000000000E+00 -0.13355378534E+04  0.27502805540E+04  0.24042424520E+04 0.  0.
        3    1    3    3  502    0  0.12509200382E+03 -0.49482841260E+03  0.57727072521E+03  0.77054829032E+03  0.10100000352E+00 0.  1.
       -3    1    3    3    0  502 -0.12509200382E+03  0.49482841260E+03 -0.19128085786E+04  0.19797322637E+04  0.10100000352E+00 0. -1.
</event>
<event>
 5   0  0.3345974E-05  0.2416261E+04  0.7818609E-02  0.8433441E-01
        2   -1    0    0  501    0  0.00000000000E+00  0.00000000000E+00  0.11466726981E+04  0.11466726981E+04  0.25500000920E-02 0. -1.
       -2   -1    0    0    0  501  0.00000000000E+00  0.00000000000E+00 -0.12728824708E+04  0.12728824708E+04  0.25500000920E-02 0.  1.
    10030    2    1    2    0    0  0.00000000000E+00  0.00000000000E+00 -0.12620977269E+03  0.24195551689E+04  0.24162612252E+04 0.  0.
        4    1    3    3  502    0  0.59113446544E+03 -0.91729485980E+03 -0.58218221670E+03  0.12368538969E+04  0.12699999809E+01 0.  1.
       -4    1    3    3    0  502 -0.59113446544E+03  0.91729485980E+03  0.45597244401E+03  0.11827012719E+04  0.12699999809E+01 0. -1.
</event>
<event>
 5   0  0.1401596E-05  0.2381648E+04  0.7818609E-02  0.8446406E-01
       -1   -1    0    0    0  501  0.00000000000E+00  0.00000000000E+00  0.10759474807E+04  0.10759474807E+04  0.50400001928E-02 0.  1.
        1   -1    0    0  501    0  0.00000000000E+00  0.00000000000E+00 -0.13179656981E+04  0.13179656981E+04  0.50400001928E-02 0. -1.
    10030    2    1    2    0    0  0.00000000000E+00  0.00000000000E+00 -0.24201821741E+03  0.23939131787E+04  0.23816480617E+04 0.  0.
        2    1    3    3  502    0 -0.10977426027E+04  0.42048753109E+02  0.34098268348E+03  0.11502504553E+04  0.25500000920E-02 0.  1.
       -2    1    3    3    0  502  0.10977426027E+04 -0.42048753109E+02 -0.58300090089E+03  0.12436627235E+04  0.25500000920E-02 0. -1.
</event>
<event>
 5   0  0.3347728E-05  0.2364790E+04  0.7818609E-02  0.8452805E-01
       -2   -1    0    0    0  501  0.00000000000E+00  0.00000000000E+00  0.10995058905E+04  0.10995058905E+04  0.25500000920E-02 0. -1.
        2   -1    0    0  501    0  0.00000000000E+00  0.00000000000E+00 -0.12715325649E+04  0.12715325649E+04  0.25500000920E-02 0.  1.
    10030    2    1    2    0    0  0.00000000000E+00  0.00000000000E+00 -0.17202667443E+03  0.23710384554E+04  0.23647896693E+04 0.  0.
        3    1    3    3  502    0  0.91995874769E+03 -0.65752310364E+03  0.26043815163E+03  0.11603830274E+04  0.10100000352E+00 0. -1.
       -3    1    3    3    0  502 -0.91995874769E+03  0.65752310364E+03 -0.43246482606E+03  0.12106554280E+04  0.10100000352E+00 0.  1.
</event>
<event>
 5   0  0.1434943E-05  0.2393786E+04  0.7818609E-02  0.8441834E-01
        1   -1    0    0  501    0  0.00000000000E+00  0.00000000000E+00  0.12779148457E+04  0.12779148457E+04  0.50400001928E-02 0.  1.
       -1   -1    0    0    0  501  0.00000000000E+00  0.00000000000E+00 -0.11210076620E+04  0.11210076620E+04  0.50400001928E-02 0. -1.
    10030    2    1    2    0    0  0.00000000000E+00  0.00000000000E+00  0.15690718362E+03  0.23989225077E+04  0.23937855655E+04 0.  0.
        5    1    3    3  502    0 -0.48134971274E+03  0.36001962975E+02 -0.10191302861E+04  0.11276711921E+04  0.46999998093E+01 0. -1.
       -5    1    3    3    0  502  0.48134971274E+03 -0.36001962975E+02  0.11760374698E+04  0.12712513157E+04  0.46999998093E+01 0.  1.
</event>
<event>
 5   0  0.3345974E-05  0.2383182E+04  0.7818609E-02  0.8445827E-01
        2   -1    0    0  501    0  0.00000000000E+00  0.00000000000E+00  0.18393669034E+04  0.18393669034E+04  0.25500000920E-02 0.  1.
       -2   -1    0    0    0  501  0.00000000000E+00  0.00000000000E+00 -0.77194459042E+03  0.77194459042E+03  0.25500000920E-02 0. -1.
    10030    2    1    2    0    0  0.00000000000E+00  0.00000000000E+00  0.10674223130E+04  0.26113114938E+04  0.23831821843E+04 0.  0.
        4    1    3    3  502    0 -0.74159684011E+03  0.33624530842E+03 -0.41954470046E+03  0.91599462295E+03  0.12699999809E+01 0. -1.
       -4    1    3    3    0  502  0.74159684011E+03 -0.33624530842E+03  0.14869670135E+04  0.16953168709E+04  0.12699999809E+01 0.  1.
</event>
<event>
 5   0  0.1407158E-05  0.2325528E+04  0.7818609E-02  0.8467923E-01
        1   -1    0    0  501    0  0.00000000000E+00  0.00000000000E+00  0.21540284647E+04  0.21540284647E+04  0.50400001928E-02 0. -1.
       -1   -1    0    0    0  501  0.00000000000E+00  0.00000000000E+00 -0.62767038739E+03  0.62767038741E+03  0.50400001928E-02 0.  1.
    10030    2    1    2    0    0  0.00000000000E+00  0.00000000000E+00  0.15263580773E+04  0.27816988521E+04  0.23255277946E+04 0.  0.
        1    1    3    3  502    0  0.34921055851E+03 -0.11079578153E+04  0.82300304307E+03  0.14236757157E+04  0.50400001928E-02 0. -1.
       -1    1    3    3    0  502 -0.34921055851E+03  0.11079578153E+04  0.70335503421E+03  0.13580231363E+04  0.50400001928E-02 0.  1.
</event>
<event>
 5   0  0.3320780E-05  0.2378291E+04  0.7818609E-02  0.8447676E-01
       -2   -1    0    0    0  501  0.00000000000E+00  0.00000000000E+00  0.16219722969E+04  0.16219722969E+04  0.25500000920E-02 0. -1.
        2   -1    0    0  501    0  0.00000000000E+00  0.00000000000E+00 -0.87181910708E+03  0.87181910708E+03  0.25500000920E-02 0.  1.
    10030    2    1    2    0    0  0.00000000000E+00  0.00000000000E+00  0.75015318979E+03  0.24937914039E+04  0.23782905117E+04 0.  0.
        5    1    3    3  502    0  0.59452247554E+03 -0.94028139422E+03 -0.65393304773E+02  0.11143986937E+04  0.46999998093E+01 0.  1.
       -5    1    3    3    0  502 -0.59452247554E+03  0.94028139422E+03  0.81554649456E+03  0.13793927102E+04  0.46999998093E+01 0. -1.
</event>
<event>
 5   0  0.1434943E-05  0.2380374E+04  0.7818609E-02  0.8446888E-01
       -1   -1    0    0    0  501  0.00000000000E+00  0.00000000000E+00  0.12643074662E+04  0.12643074662E+04  0.50400001928E-02 0. -1.
        1   -1    0    0  501    0  0.00000000000E+00  0.00000000000E+00 -0.11204121581E+04  0.11204121581E+04  0.50400001928E-02 0.  1.
    10030    2    1    2    0    0  0.00000000000E+00  0.00000000000E+00  0.14389530812E+03  0.23847196243E+04  0.23803743039E+04 0.  0.
        5    1    3    3  502    0 -0.57696405762E+03 -0.90248315405E+03 -0.44780573720E+03  0.11609976035E+04  0.46999998093E+01 0.  1.
       -5    1    3    3    0  502  0.57696405762E+03  0.90248315405E+03  0.59170104531E+03  0.12237220208E+04  0.46999998093E+01 0. -1.
</event>
<event>
 5   0  0.1434943E-05  0.2441295E+04  0.7818609E-02  0.8424203E-01
        1   -1    0    0  501    0  0.00000000000E+00  0.00000000000E+00  0.10358894193E+04  0.10358894193E+04  0.50400001928E-02 0. -1.
       -1   -1    0    0    0  501  0.00000000000E+00  0.00000000000E+00 -0.14383579220E+04  0.14383579220E+04  0.50400001928E-02 0.  1.
    10030    2    1    2    0    0  0.00000000000E+00  0.00000000000E+00 -0.40246850272E+03  0.24742473413E+04  0.24412945358E+04 0.  0.
        5    1    3    3  502    0  0.23192021985E+03 -0.66832564322E+03  0.80693479235E+03  0.10731318665E+04  0.46999998093E+01 0. -1.
       -5    1    3    3    0  502 -0.23192021985E+03  0.66832564322E+03 -0.12094032951E+04  0.14011154749E+04  0.46999998093E+01 0.  1.
</event>
<event>
 5   0  0.3320780E-05  0.2435556E+04  0.7818609E-02  0.8426310E-01
        2   -1    0    0  501    0  0.00000000000E+00  0.00000000000E+00  0.18023461811E+04  0.18023461811E+04  0.25500000920E-02 0.  1.
       -2   -1    0    0    0  501  0.00000000000E+00  0.00000000000E+00 -0.82280738611E+03  0.82280738611E+03  0.25500000920E-02 0. -1.
    10030    2    1    2    0    0  0.00000000000E+00  0.00000000000E+00  0.97953879503E+03  0.26251535672E+04  0.24355564047E+04 0.  0.
        5    1    3    3  502    0 -0.82231509015E+03 -0.86913873369E+03  0.73403262840E+03  0.14037201414E+04  0.46999998093E+01 0. -1.
       -5    1    3    3    0  502  0.82231509015E+03  0.86913873369E+03  0.24550616663E+03  0.12214334258E+04  0.46999998093E+01 0.  1.
</event>
<event>
 5   0  0.1393026E-05  0.2390331E+04  0.7818609E-02  0.8443132E-01
       -1   -1    0    0    0  501  0.00000000000E+00  0.00000000000E+00  0.97899073201E+03  0.97899073202E+03  0.50400001928E-02 0. -1.
        1   -1    0    0  501    0  0.00000000000E+00  0.00000000000E+00 -0.14590752207E+04  0.14590752207E+04  0.50400001928E-02 0.  1.
    10030    2    1    2    0    0  0.00000000000E+00  0.00000000000E+00 -0.48008448866E+03  0.24380659527E+04  0.23903314568E+04 0.  0.
        4    1    3    3  502    0  0.57059672048E+03  0.74914325599E+03 -0.99068963667E+03  0.13668444698E+04  0.12699999809E+01 0.  1.
       -4    1    3    3    0  502 -0.57059672048E+03 -0.74914325599E+03  0.51060514801E+03  0.10712214829E+04  0.12699999809E+01 0. -1.
</event>
<event>
 5   0  0.1393026E-05  0.2396642E+04  0.7818609E-02  0.8440762E-01
       -1   -1    0    0    0  501  0.00000000000E+00  0.00000000000E+00  0.83407823565E+03  0.83407823567E+03  0.50400001928E-02 0.  1.
        1   -1    0    0  501    0  0.00000000000E+00  0.00000000000E+00 -0.17216286749E+04  0.17216286749E+04  0.50400001928E-02 0. -1.
    10030    2    1    2    0    0  0.00000000000E+00  0.00000000000E+00 -0.88755043924E+03  0.25557069106E+04  0.23966418236E+04 0.  0.
        4    1    3    3  502    0 -0.11600417240E+04 -0.15057418365E+03 -0.72103553531E+03  0.13741409106E+04  0.12699999809E+01 0.  1.
       -4    1    3    3    0  502  0.11600417240E+04  0.15057418365E+03 -0.16651490393E+03  0.11815660000E+04  0.12699999809E+01 0. -1.
</event>
<event>
 5   0  0.1434943E-05  0.2411934E+04  0.7818609E-02  0.8435049E-01
        1   -1    0    0  501    0  0.00000000000E+00  0.00000000000E+00  0.11742773511E+04  0.11742773512E+04  0.50400001928E-02 0.  1.
       -1   -1    0    0    0  501  0.00000000000E+00  0.00000000000E+00 -0.12385114486E+04  0.12385114486E+04  0.50400001928E-02 0. -1.
    10030    2    1    2    0    0  0.00000000000E+00  0.00000000000E+00 -0.64234097454E+02  0.24127887998E+04  0.24119336170E+04 0.  0.
        5    1    3    3  502    0 -0.40267057736E+03  0.97356222460E+03  0.55491880800E+03  0.11907661284E+04  0.46999998093E+01 0.  1.
       -5    1    3    3    0  502  0.40267057736E+03 -0.97356222460E+03 -0.61915290545E+03  0.12220226714E+04  0.46999998093E+01 0. -1.
</event>
<event>
 5   0  0.1393026E-05  0.2417371E+04  0.7818609E-02  0.8433029E-01
       -1   -1    0    0    0  501  0.00000000000E+00  0.00000000000E+00  0.13325339034E+04  0.13325339034E+04  0.50400001928E-02 0.  1.
        1   -1    0    0  501    0  0.00000000000E+00  0.00000000000E+00 -0.10963475218E+04  0.10963475218E+04  0.50400001928E-02 0. -1.
    10030    2    1    2    0    0  0.00000000000E+00  0.00000000000E+00  0.23618638161E+03  0.24288814252E+04  0.24173706730E+04 0.  0.
        4    1    3    3  502    0  0.62835079532E+03 -0.10206012715E+04 -0.39070783520E+02  0.11991579614E+04  0.12699999809E+01 0. -1.
       -4    1    3    3    0  502 -0.62835079532E+03  0.10206012715E+04  0.27525716513E+03  0.12297234637E+04  0.12699999809E+01 0.  1.
</event>
<event>
 5   0  0.1393026E-05  0.2403164E+04  0.7818609E-02  0.8438320E-01
       -1   -1    0    0    0  501  0.00000000000E+00  0.00000000000E+00  0.12505207686E+04  0.12505207686E+04  0.50400001928E-02 0.  1.
        1   -1    0    0  501    0  0.00000000000E+00  0.00000000000E+00 -0.11545582253E+04  0.11545582253E+04  0.50400001928E-02 0. -1.
    10030    2    1    2    0    0  0.00000000000E+00  0.00000000000E+00  0.95962543344E+02  0.24050789939E+04  0.24031637807E+04 0.  0.
        4    1    3    3  502    0  0.11237590154E+04 -0.33435553254E+03 -0.21522923969E+03  0.11920374094E+04  0.12699999809E+01 0. -1.
       -4    1    3    3    0  502 -0.11237590154E+04  0.33435553254E+03  0.31119178303E+03  0.12130415845E+04  0.12699999809E+01 0.  1.
</event>
<event>
 5   0  0.1393026E-05  0.2390007E+04  0.7818609E-02  0.8443254E-01
       -1   -1    0    0    0  501  0.00000000000E+00  0.00000000000E+00  0.96451073647E+03  0.96451073648E+03  0.50400001928E-02 0. -1.
        1   -1    0    0  501    0  0.00000000000E+00  0.00000000000E+00 -0.14805780525E+04  0.14805780525E+04  0.50400001928E-02 0.  1.
    10030    2    1    2    0    0  0.00000000000E+00  0.00000000000E+00 -0.51606731605E+03  0.24450887890E+04  0.23900070526E+04 0.  0.
        4    1    3    3  502    0  0.13064770230E+03 -0.11821282757E+04 -0.13900916666E+03  0.11974227506E+04  0.12699999809E+01 0. -1.
       -4    1    3    3    0  502 -0.13064770230E+03  0.11821282757E+04 -0.37705814939E+03  0.12476660384E+04  0.12699999809E+01 0.  1.
</event>
<event>
 5   0  0.1407158E-05  0.2394991E+04  0.7818609E-02  0.8441381E-01
        1   -1    0    0  501    0  0.00000000000E+00  0.00000000000E+00  0.23813289442E+04  0.23813289442E+04  0.50400001928E-02 0.  1.
       -1   -1    0    0    0  501  0.00000000000E+00  0.00000000000E+00 -0.60218301617E+03  0.60218301619E+03  0.50400001928E-02 0. -1.
    10030    2    1    2    0    0  0.00000000000E+00  0.00000000000E+00  0.17791459281E+04  0.29835119604E+04  0.23949913120E+04 0.  0.
        1    1    3    3  502    0  0.14021515868E+03 -0.93856048156E+03  0.17994161346E+04  0.20343191720E+04  0.50400001928E-02 0. -1.
       -1    1    3    3    0  502 -0.14021515868E+03  0.93856048156E+03 -0.20270206502E+02  0.94919278841E+03  0.50400001928E-02 0.  1.
</event>
<event>
 5   0  0.3310037E-05  0.2395688E+04  0.7818609E-02  0.8441120E-01
        2   -1    0    0  501    0  0.00000000000E+00  0.00000000000E+00  0.17678196680E+04  0.17678196680E+04  0.25500000920E-02 0.  1.
       -2   -1    0    0    0  501  0.00000000000E+00  0.00000000000E+00 -0.81163859507E+03  0.81163859507E+03  0.25500000920E-02 0. -1.
    10030    2    1    2    0    0  0.00000000000E+00  0.00000000000E+00  0.95618107296E+03  0.25794582631E+04  0.23956883534E+04 0.  0.
        2    1    3    3  502    0  0.19249089106E+03 -0.76054045429E+03 -0.49652771807E+03  0.92844725244E+03  0.25500000920E-02 0. -1.
       -2    1    3    3    0  502 -0.19249089106E+03  0.76054045429E+03  0.14527087910E+04  0.16510110106E+04  0.25500000920E-02 0.  1.
</event>
<event>
 5   0  0.1407158E-05  0.2401417E+04  0.7818609E-02  0.8438973E-01
       -1   -1    0    0    0  501  0.00000000000E+00  0.00000000000E+00  0.51357606244E+03  0.51357606247E+03  0.50400001928E-02 0.  1.
        1   -1    0    0  501    0  0.00000000000E+00  0.00000000000E+00 -0.28071806916E+04  0.28071806916E+04  0.50400001928E-02 0. -1.
    10030    2    1    2    0    0  0.00000000000E+00  0.00000000000E+00 -0.22936046292E+04  0.33207567541E+04  0.24014169202E+04 0.  0.
        1    1    3    3  502    0 -0.49383971530E+02 -0.11098250858E+04 -0.51681589164E+03  0.12252547342E+04  0.50400001928E-02 0.  1.
       -1    1    3    3    0  502  0.49383971530E+02  0.11098250858E+04 -0.17767887375E+04  0.20955020199E+04  0.50400001928E-02 0. -1.
</event>
<event>
 5   0  0.1393026E-05  0.2309736E+04  0.7818609E-02  0.8474092E-01
        1   -1    0    0  501    0  0.00000000000E+00  0.00000000000E+00  0.13131669310E+04  0.13131669310E+04  0.50400001928E-02 0.  1.
       -1   -1    0    0    0  501  0.00000000000E+00  0.00000000000E+00 -0.10156516249E+04  0.10156516249E+04  0.50400001928E-02 0. -1.
    10030    2    1    2    0    0  0.00000000000E+00  0.00000000000E+00  0.29751530614E+03  0.23288185559E+04  0.23097360258E+04 0.  0.
        4    1    3    3  502    0  0.92806663074E+03 -0.68729026230E+03  0.15536454193E+03  0.11652533328E+04  0.12699999809E+01 0. -1.
       -4    1    3    3    0  502 -0.92806663074E+03  0.68729026230E+03  0.14215076421E+03  0.11635652231E+04  0.12699999809E+01 0.  1.
</event>
<event>
 5   0  0.3320780E-05  0.2410978E+04  0.7818609E-02  0.8435405E-01
        2   -1    0    0  501    0  0.00000000000E+00  0.00000000000E+00  0.22703275657E+04  0.22703275657E+04  0.25500000920E-02 0. -1.
       -2   -1    0    0    0  501  0.00000000000E+00  0.00000000000E+00 -0.64008558913E+03  0.64008558914E+03  0.25500000920E-02 0.  1.
    10030    2    1    2    0    0  0.00000000000E+00  0.00000000000E+00  0.16302419766E+04  0.29104131549E+04  0.24109781894E+04 0.  0.
        5    1    3    3  502    0  0.78811664250E+03 -0.19975620405E+03 -0.25927773408E+03  0.85339171348E+03  0.46999998093E+01 0.  1.
       -5    1    3    3    0  502 -0.78811664250E+03  0.19975620405E+03  0.18895197107E+04  0.20570214414E+04  0.46999998093E+01 0. -1.
</event>
<event>
 5   0  0.3320780E-05  0.2407937E+04  0.7818609E-02  0.8436538E-01
       -2   -1    0    0    0  501  0.00000000000E+00  0.00000000000E+00  0.13038743069E+04  0.13038743069E+04  0.25500000920E-02 0. -1.
        2   -1    0    0  501    0  0.00000000000E+00  0.00000000000E+00 -0.11117173027E+04  0.11117173027E+04  0.25500000920E-02 0.  1.
    10030    2    1    2    0    0  0.00000000000E+00  0.00000000000E+00  0.19215700418E+03  0.24155916097E+04  0.24079365669E+04 0.  0.
        5    1    3    3  502    0 -0.59822763349E+03  0.91739567649E+01  0.11441760257E+04  0.12911705274E+04  0.46999998093E+01 0. -1.
       -5    1    3    3    0  502  0.59822763349E+03 -0.91739567649E+01 -0.95201902153E+03  0.11244210823E+04  0.46999998093E+01 0.  1.
</event>
<event>
 5   0  0.1506985E-05  0.2333838E+04  0.7818609E-02  0.8464697E-01
        1   -1    0    0  501    0  0.00000000000E+00  0.00000000000E+00  0.14425080386E+04  0.14425080386E+04  0.50400001928E-02 0.  1.
       -1   -1    0    0    0  501  0.00000000000E+00  0.00000000000E+00 -0.94398118449E+03  0.94398118451E+03  0.50400001928E-02 0. -1.
    10030    2    1    2    0    0  0.00000000000E+00  0.00000000000E+00  0.49852685408E+03  0.23864892231E+04  0.23338384237E+04 0.  0.
        3    1    3    3  502    0  0.27541564624E+03 -0.10382742588E+04 -0.21690856478E+03  0.10958633813E+04  0.10100000352E+00 0. -1.
       -3    1    3    3    0  502 -0.27541564624E+03  0.10382742588E+04  0.71543541887E+03  0.12906258418E+04  0.10100000352E+00 0.  1.
</event>
<event>
 5   0  0.1393026E-05  0.2447911E+04  0.7818609E-02  0.8421781E-01
       -1   -1    0    0    0  501  0.00000000000E+00  0.00000000000E+00  0.21425958789E+04  0.21425958789E+04  0.50400001928E-02 0. -1.
        1   -1    0    0  501    0  0.00000000000E+00  0.00000000000E+00 -0.69918315957E+03  0.69918315958E+03  0.50400001928E-02 0.  1.
    10030    2    1    2    0    0  0.00000000000E+00  0.00000000000E+00  0.14434127193E+04  0.28417790385E+04  0.24479109104E+04 0.  0.
        4    1    3    3  502    0  0.40344309645E+03 -0.11538576414E+04  0.64910087866E+03  0.13840113266E+04  0.12699999809E+01 0. -1.
       -4    1    3    3    0  502 -0.40344309645E+03  0.11538576414E+04  0.79431184066E+03  0.14577677119E+04  0.12699999809E+01 0.  1.
</event>
<event>
 5   0  0.1393026E-05  0.2426923E+04  0.7818609E-02  0.8429492E-01
       -1   -1    0    0    0  501  0.00000000000E+00  0.00000000000E+00  0.87582094639E+03  0.87582094640E+03  0.50400001928E-02 0.  1.
        1   -1    0    0  501    0  0.00000000000E+00  0.00000000000E+00 -0.16812669327E+04  0.16812669327E+04  0.50400001928E-02 0. -1.
    10030    2    1    2    0    0  0.00000000000E+00  0.00000000000E+00 -0.80544598629E+03  0.25570878791E+04  0.24269229869E+04 0.  0.
        4    1    3    3  502    0 -0.94452827470E+03  0.11982030232E+03 -0.11954005753E+04  0.15282260026E+04  0.12699999809E+01 0. -1.
       -4    1    3    3    0  502  0.94452827470E+03 -0.11982030232E+03  0.38995458903E+03  0.10288618765E+04  0.12699999809E+01 0.  1.
</event>
<event>
 5   0  0.3345974E-05  0.2455209E+04  0.7818609E-02  0.8419119E-01
       -2   -1    0    0    0  501  0.00000000000E+00  0.00000000000E+00  0.58735907538E+03  0.58735907539E+03  0.25500000920E-02 0.  1.
        2   -1    0    0  501    0  0.00000000000E+00  0.00000000000E+00 -0.25657438370E+04  0.25657438370E+04  0.25500000920E-02 0. -1.
    10030    2    1    2    0    0  0.00000000000E+00  0.00000000000E+00 -0.19783847616E+04  0.31531029124E+04  0.24552090972E+04 0.  0.
        4    1    3    3  502    0  0.10158774409E+04  0.16402938480E+03 -0.12951301370E+03  0.10371537242E+04  0.12699999809E+01 0.  1.
       -4    1    3    3    0  502 -0.10158774409E+04 -0.16402938480E+03 -0.18488717479E+04  0.21159491882E+04  0.12699999809E+01 0. -1.
</event>
<event>
 5   0  0.1147362E-05  0.2384336E+04  0.7818609E-02  0.8445391E-01
       -3   -1    0    0    0  501  0.00000000000E+00  0.00000000000E+00  0.62331444176E+03  0.62331444995E+03  0.10100000352E+00 0.  1.
        3   -1    0    0  501    0  0.00000000000E+00  0.00000000000E+00 -0.22801723442E+04  0.22801723464E+04  0.10100000352E+00 0. -1.
    10030    2    1    2    0    0  0.00000000000E+00  0.00000000000E+00 -0.16568579024E+04  0.29034867964E+04  0.23843358547E+04 0.  0.
        3    1    3    3  502    0  0.10721287139E+04 -0.21727707469E+03 -0.25132703487E+03  0.11224235364E+04  0.10100000352E+00 0.  1.
       -3    1    3    3    0  502 -0.10721287139E+04  0.21727707469E+03 -0.14055308675E+04  0.17810632600E+04  0.10100000352E+00 0. -1.
</event>
<event>
 5   0  0.1506985E-05  0.2492060E+04  0.7818609E-02  0.8405820E-01
       -1   -1    0    0    0  501  0.00000000000E+00  0.00000000000E+00  0.95371454859E+03  0.95371454860E+03  0.50400001928E-02 0. -1.
        1   -1    0    0  501    0  0.00000000000E+00  0.00000000000E+00 -0.16279404152E+04  0.16279404152E+04  0.50400001928E-02 0.  1.
    10030    2    1    2    0    0  0.00000000000E+00  0.00000000000E+00 -0.67422586658E+03  0.25816549638E+04  0.24920597571E+04 0.  0.
        3    1    3    3  502    0 -0.12437777412E+04  0.38933002328E+02 -0.27084760967E+03  0.12735216080E+04  0.10100000352E+00 0.  1.
       -3    1    3    3    0  502  0.12437777412E+04 -0.38933002328E+02 -0.40337825691E+03  0.13081333558E+04  0.10100000352E+00 0. -1.
</event>
<event>
 5   0  0.3310037E-05  0.2395939E+04  0.7818609E-02  0.8441026E-01
        2   -1    0    0  501    0  0.00000000000E+00  0.00000000000E+00  0.33004927343E+04  0.33004927343E+04  0.25500000920E-02 0.  1.
       -2   -1    0    0    0  501  0.00000000000E+00  0.00000000000E+00 -0.43482318732E+03  0.43482318732E+03  0.25500000920E-02 0. -1.
    10030    2    1    2    0    0  0.00000000000E+00  0.00000000000E+00  0.28656695470E+04  0.37353159217E+04  0.23959388727E+04 0.  0.
        2    1    3    3  502    0 -0.49253016740E+03 -0.10893284573E+03  0.31268504368E+04  0.31672773773E+04  0.25500000920E-02 0.  1.
       -2    1    3    3    0  502  0.49253016740E+03  0.10893284573E+03 -0.26118088978E+03  0.56803854435E+03  0.25500000920E-02 0. -1.
</event>
<event>
 5   0  0.3320780E-05  0.2394421E+04  0.7818609E-02  0.8441595E-01
        2   -1    0    0  501    0  0.00000000000E+00  0.00000000000E+00  0.18717930806E+04  0.18717930806E+04  0.25500000920E-02 0. -1.
       -2   -1    0    0    0  501  0.00000000000E+00  0.00000000000E+00 -0.76574349156E+03  0.76574349156E+03  0.25500000920E-02 0.  1.
    10030    2    1    2    0    0  0.00000000000E+00  0.00000000000E+00  0.11060495891E+04  0.26375365722E+04  0.23944213238E+04 0.  0.
        5    1    3    3  502    0  0.49524122822E+03  0.28111828620E+03 -0.60699039231E+03  0.83231652112E+03  0.46999998093E+01 0.  1.
       -5    1    3    3    0  502 -0.49524122822E+03 -0.28111828620E+03  0.17130399814E+04  0.18052200511E+04  0.46999998093E+01 0. -1.
</event>
<event>
 5   0  0.3347728E-05  0.2368191E+04  0.7818609E-02  0.8451509E-01
        2   -1    0    0  501    0  0.00000000000E+00  0.00000000000E+00  0.17678297099E+04  0.17678297099E+04  0.25500000920E-02 0.  1.
       -2   -1    0    0    0  501  0.00000000000E+00  0.00000000000E+00 -0.79310895706E+03  0.79310895706E+03  0.25500000920E-02 0. -1.
    10030    2    1    2    0    0  0.00000000000E+00  0.00000000000E+00  0.97472075286E+03  0.25609386670E+04  0.23681905139E+04 0.  0.
        3    1    3    3  502    0  0.43235244654E+03  0.98451665491E+03  0.10235816520E+04  0.14845609082E+04  0.10100000352E+00 0. -1.
       -3    1    3    3    0  502 -0.43235244654E+03 -0.98451665491E+03 -0.48860899110E+02  0.10763777587E+04  0.10100000352E+00 0.  1.
</event>
<event>
 5   0  0.1401596E-05  0.2401279E+04  0.7818609E-02  0.8439025E-01
        1   -1    0    0  501    0  0.00000000000E+00  0.00000000000E+00  0.12667390935E+04  0.12667390935E+04  0.50400001928E-02 0. -1.
       -1   -1    0    0    0  501  0.00000000000E+00  0.00000000000E+00 -0.11379890254E+04  0.11379890254E+04  0.50400001928E-02 0.  1.
    10030    2    1    2    0    0  0.00000000000E+00  0.00000000000E+00  0.12875006816E+03  0.24047281189E+04  0.24012789812E+04 0.  0.
        2    1    3    3  502    0  0.36214876479E+03 -0.34900749264E+03  0.11561598878E+04  0.12608186403E+04  0.25500000920E-02 0. -1.
       -2    1    3    3    0  502 -0.36214876479E+03  0.34900749264E+03 -0.10274098196E+04  0.11439094786E+04  0.25500000920E-02 0.  1.
</event>
<event>
 5   0  0.3347728E-05  0.2423720E+04  0.7818609E-02  0.8430676E-01
       -2   -1    0    0    0  501  0.00000000000E+00  0.00000000000E+00  0.80049532280E+03  0.80049532280E+03  0.25500000920E-02 0. -1.
        2   -1    0    0  501    0  0.00000000000E+00  0.00000000000E+00 -0.18346204921E+04  0.18346204921E+04  0.25500000920E-02 0.  1.
    10030    2    1    2    0    0  0.00000000000E+00  0.00000000000E+00 -0.10341251693E+04  0.26351158149E+04  0.24237203824E+04 0.  0.
        3    1    3    3  502    0 -0.35210442313E+03 -0.23086415289E+03 -0.17525425299E+04  0.18024098067E+04  0.10100000352E+00 0.  1.
       -3    1    3    3    0  502  0.35210442313E+03  0.23086415289E+03  0.71841736062E+03  0.83270600822E+03  0.10100000352E+00 0. -1.
</event>
<event>
 5   0  0.1434943E-05  0.2400375E+04  0.7818609E-02  0.8439363E-01
        1   -1    0    0  501    0  0.00000000000E+00  0.00000000000E+00  0.17544094046E+04  0.17544094046E+04  0.50400001928E-02 0. -1.
       -1   -1    0    0    0  501  0.00000000000E+00  0.00000000000E+00 -0.82104521935E+03  0.82104521936E+03  0.50400001928E-02 0.  1.
    10030    2    1    2    0    0  0.00000000000E+00  0.00000000000E+00  0.93336418527E+03  0.25754546240E+04  0.24003745162E+04 0.  0.
        5    1    3    3  502    0  0.27295028562E+02 -0.11914662140E+04  0.61876185392E+03  0.13428421648E+04  0.46999998093E+01 0. -1.
       -5    1    3    3    0  502 -0.27295028562E+02  0.11914662140E+04  0.31460233135E+03  0.12326124592E+04  0.46999998093E+01 0.  1.
</event>
<event>
 5   0  0.1506985E-05  0.2387063E+04  0.7818609E-02  0.8444363E-01
        1   -1    0    0  501    0  0.00000000000E+00  0.00000000000E+00  0.14561855722E+04  0.14561855722E+04  0.50400001928E-02 0. -1.
       -1   -1    0    0    0  501  0.00000000000E+00  0.00000000000E+00 -0.97825253545E+03  0.97825253546E+03  0.50400001928E-02 0.  1.
    10030    2    1    2    0    0  0.00000000000E+00  0.00000000000E+00  0.47793303676E+03  0.24344381077E+04  0.23870628212E+04 0.  0.
        3    1    3    3  502    0  0.90468817533E+02 -0.98623333870E+03 -0.44034356229E+03  0.10838557415E+04  0.10100000352E+00 0.  1.
       -3    1    3    3    0  502 -0.90468817533E+02  0.98623333870E+03  0.91827659905E+03  0.13505823662E+04  0.10100000352E+00 0. -1.
</event>
<event>
 5   0  0.1393026E-05  0.2396281E+04  0.7818609E-02  0.8440897E-01
        1   -1    0    0  501    0  0.00000000000E+00  0.00000000000E+00  0.17315974516E+04  0.17315974516E+04  0.50400001928E-02 0.  1.
       -1   -1    0    0    0  501  0.00000000000E+00  0.00000000000E+00 -0.82902643897E+03  0.82902643899E+03  0.50400001928E-02 0. -1.
    10030    2    1    2    0    0  0.00000000000E+00  0.00000000000E+00  0.90257101266E+03  0.25606238906E+04  0.23962805087E+04 0.  0.
        4    1    3    3  502    0  0.93506667584E+03  0.72760243852E+03  0.26077947909E+03  0.12131622094E+04  0.12699999809E+01 0. -1.
       -4    1    3    3    0  502 -0.93506667584E+03 -0.72760243852E+03  0.64179153357E+03  0.13474616812E+04  0.12699999809E+01 0.  1.
</event>
<event>
 5   0  0.3345974E-05  0.2382668E+04  0.7818609E-02  0.8446021E-01
        2   -1    0    0  501    0  0.00000000000E+00  0.00000000000E+00  0.16140673896E+04  0.16140673896E+04  0.25500000920E-02 0. -1.
       -2   -1    0    0    0  501  0.00000000000E+00  0.00000000000E+00 -0.87931693192E+03  0.87931693192E+03  0.25500000920E-02 0.  1.
    10030    2    1    2    0    0  0.00000000000E+00  0.00000000000E+00  0.73475045764E+03  0.24933843215E+04  0.23826680716E+04 0.  0.
        4    1    3    3  502    0 -0.11324008360E+04  0.29496491411E+03  0.13352028927E+03  0.11777797904E+04  0.12699999809E+01 0.  1.
       -4    1    3    3    0  502  0.11324008360E+04 -0.29496491411E+03  0.60123016836E+03  0.13156045311E+04  0.12699999809E+01 0. -1.
</event>
<event>
 5   0  0.1393026E-05  0.2403401E+04  0.7818609E-02  0.8438231E-01
        1   -1    0    0  501    0  0.00000000000E+00  0.00000000000E+00  0.83880688887E+03  0.83880688888E+03  0.50400001928E-02 0.  1.
       -1   -1    0    0    0  501  0.00000000000E+00  0.00000000000E+00 -0.17215933027E+04  0.17215933027E+04  0.50400001928E-02 0. -1.
    10030    2    1    2    0    0  0.00000000000E+00  0.00000000000E+00 -0.88278641381E+03  0.25604001916E+04  0.24034011918E+04 0.  0.
        4    1    3    3  502    0  0.13663069070E+03  0.79385494657E+03  0.50860381979E+03  0.95265580365E+03  0.12699999809E+01 0.  1.
       -4    1    3    3    0  502 -0.13663069070E+03 -0.79385494657E+03 -0.13913902336E+04  0.16077443879E+04  0.12699999809E+01 0. -1.
</event>
<event>
 5   0  0.3320780E-05  0.2514875E+04  0.7818609E-02  0.8397705E-01
       -2   -1    0    0    0  501  0.00000000000E+00  0.00000000000E+00  0.10440281416E+04  0.10440281416E+04  0.25500000920E-02 0.  1.
        2   -1    0    0  501    0  0.00000000000E+00  0.00000000000E+00 -0.15144695182E+04  0.15144695182E+04  0.25500000920E-02 0. -1.
    10030    2    1    2    0    0  0.00000000000E+00  0.00000000000E+00 -0.47044137661E+03  0.25584976598E+04  0.25148747855E+04 0.  0.
        5    1    3    3  502    0  0.45091210815E+03 -0.11713602639E+04 -0.31216399210E+03  0.12933967083E+04  0.46999998093E+01 0. -1.
       -5    1    3    3    0  502 -0.45091210815E+03  0.11713602639E+04 -0.15827738451E+03  0.12651009515E+04  0.46999998093E+01 0.  1.
</event>
<event>
 5   0  0.1506985E-05  0.2353781E+04  0.7818609E-02  0.8457013E-01
        1   -1    0    0  501    0  0.00000000000E+00  0.00000000000E+00  0.16287409366E+04  0.16287409366E+04  0.50400001928E-02 0.  1.
       -1   -1    0    0    0  501  0.00000000000E+00  0.00000000000E+00 -0.85039348182E+03  0.85039348183E+03  0.50400001928E-02 0. -1.
    10030    2    1    2    0    0  0.00000000000E+00  0.00000000000E+00  0.77834745478E+03  0.24791344184E+04  0.23537805132E+04 0.  0.
        3    1    3    3  502    0 -0.73012693929E+03 -0.10747284067E+02 -0.58294817140E+03  0.93436044026E+03  0.10100000352E+00 0. -1.
       -3    1    3    3    0  502  0.73012693929E+03  0.10747284067E+02  0.13612956262E+04  0.15447739782E+04  0.10100000352E+00 0.  1.
</event>
<event>
 5   0  0.3310037E-05  0.2413673E+04  0.7818609E-02  0.8434402E-01
       -2   -1    0    0    0  501  0.00000000000E+00  0.00000000000E+00  0.14138642076E+04  0.14138642076E+04  0.25500000920E-02 0. -1.
        2   -1    0    0  501    0  0.00000000000E+00  0.00000000000E+00 -0.10301232949E+04  0.10301232949E+04  0.25500000920E-02 0.  1.
    10030    2    1    2    0    0  0.00000000000E+00  0.00000000000E+00  0.38374091266E+03  0.24439875025E+04  0.24136730981E+04 0.  0.
        2    1    3    3  502    0 -0.34468732459E+03  0.61654099437E+03 -0.79895003767E+03  0.10664207951E+04  0.25500000920E-02 0.  1.
       -2    1    3    3    0  502  0.34468732459E+03 -0.61654099437E+03  0.11826909503E+04  0.13775667074E+04  0.25500000920E-02 0. -1.
</event>
<event>
 5   0  0.3345974E-05  0.2393578E+04  0.7818609E-02  0.8441912E-01
       -2   -1    0    0    0  501  0.00000000000E+00  0.00000000000E+00  0.95666123262E+03  0.95666123262E+03  0.25500000920E-02 0. -1.
        2   -1    0    0  501    0  0.00000000000E+00  0.00000000000E+00 -0.14971903712E+04  0.14971903712E+04  0.25500000920E-02 0.  1.
    10030    2    1    2    0    0  0.00000000000E+00  0.00000000000E+00 -0.54052913853E+03  0.24538516038E+04  0.23935780630E+04 0.  0.
        4    1    3    3  502    0 -0.11104548275E+04 -0.41817923456E+03 -0.11039353726E+03  0.11917097558E+04  0.12699999809E+01 0. -1.
       -4    1    3    3    0  502  0.11104548275E+04  0.41817923456E+03 -0.43013560127E+03  0.12621418480E+04  0.12699999809E+01 0.  1.
</event>
<event>
 5   0  0.3310037E-05  0.2396978E+04  0.7818609E-02  0.8440636E-01
       -2   -1    0    0    0  501  0.00000000000E+00  0.00000000000E+00  0.14188668528E+04  0.14188668528E+04  0.25500000920E-02 0. -1.
        2   -1    0    0  501    0  0.00000000000E+00  0.00000000000E+00 -0.10123405470E+04  0.10123405470E+04  0.25500000920E-02 0.  1.
    10030    2    1    2    0    0  0.00000000000E+00  0.00000000000E+00  0.40652630584E+03  0.24312073998E+04  0.23969784695E+04 0.  0.
        2    1    3    3  502    0  0.60423684114E+03  0.10325408165E+04  0.13058980889E+03  0.12034518670E+04  0.25500000920E-02 0.  1.
       -2    1    3    3    0  502 -0.60423684114E+03 -0.10325408165E+04  0.27593649695E+03  0.12277555328E+04  0.25500000920E-02 0. -1.
</event>
<event>
 5   0  0.1393026E-05  0.2329021E+04  0.7818609E-02  0.8466566E-01
        1   -1    0    0  501    0  0.00000000000E+00  0.00000000000E+00  0.13444514362E+04  0.13444514363E+04  0.50400001928E-02 0.  1.
       -1   -1    0    0    0  501  0.00000000000E+00  0.00000000000E+00 -0.10086525558E+04  0.10086525558E+04  0.50400001928E-02 0. -1.
    10030    2    1    2    0    0  0.00000000000E+00  0.00000000000E+00  0.33579888049E+03  0.23531039920E+04  0.23290207189E+04 0.  0.
        4    1    3    3  502    0  0.85289838975E+03 -0.39806410755E+03 -0.52489663316E+03  0.10776867752E+04  0.12699999809E+01 0. -1.
       -4    1    3    3    0  502 -0.85289838975E+03  0.39806410755E+03  0.86069551364E+03  0.12754172169E+04  0.12699999809E+01 0.  1.
</event>
<event>
 5   0  0.3320780E-05  0.2409088E+04  0.7818609E-02  0.8436109E-01
        2   -1    0    0  501    0  0.00000000000E+00  0.00000000000E+00  0.14783484756E+04  0.14783484756E+04  0.25500000920E-02 0. -1.
       -2   -1    0    0    0  501  0.00000000000E+00  0.00000000000E+00 -0.98145082110E+03  0.98145082110E+03  0.25500000920E-02 0.  1.
    10030    2    1    2    0    0  0.00000000000E+00  0.00000000000E+00  0.49689765453E+03  0.24597992967E+04  0.24090880642E+04 0.  0.
        5    1    3    3  502    0  0.11941467038E+02 -0.26013908805E+02  0.14779918061E+04  0.14782764257E+04  0.46999998093E+01 0. -1.
       -5    1    3    3    0  502 -0.11941467038E+02  0.26013908805E+02 -0.98109415154E+03  0.98152287099E+03  0.46999998093E+01 0.  1.
</event>
<event>
 5   0  0.1401596E-05  0.2414828E+04  0.7818609E-02  0.8433973E-01
        1   -1    0    0  501    0  0.00000000000E+00  0.00000000000E+00  0.13884435755E+04  0.13884435756E+04  0.50400001928E-02 0. -1.
       -1   -1    0    0    0  501  0.00000000000E+00  0.00000000000E+00 -0.10499879920E+04  0.10499879920E+04  0.50400001928E-02 0.  1.
    10030    2    1    2    0    0  0.00000000000E+00  0.00000000000E+00  0.33845558354E+03  0.24384315676E+04  0.24148284261E+04 0.  0.
        2    1    3    3  502    0 -0.73479119314E+03  0.93864862913E+03 -0.24663946057E+02  0.11923035086E+04  0.25500000920E-02 0. -1.
       -2    1    3    3    0  502  0.73479119314E+03 -0.93864862913E+03  0.36311952959E+03  0.12461280589E+04  0.25500000920E-02 0.  1.
</event>
<event>
 5   0  0.1407158E-05  0.2408725E+04  0.7818609E-02  0.8436244E-01
       -1   -1    0    0    0  501  0.00000000000E+00  0.00000000000E+00  0.14064320045E+04  0.14064320045E+04  0.50400001928E-02 0.  1.
        1   -1    0    0  501    0  0.00000000000E+00  0.00000000000E+00 -0.10313255612E+04  0.10313255612E+04  0.50400001928E-02 0. -1.
    10030    2    1    2    0    0  0.00000000000E+00  0.00000000000E+00  0.37510644332E+03  0.24377575657E+04  0.24087252033E+04 0.  0.
        1    1    3    3  502    0 -0.32912443841E+03  0.10898783795E+04 -0.21003228283E+03  0.11577008845E+04  0.50400001928E-02 0. -1.
       -1    1    3    3    0  502  0.32912443841E+03 -0.10898783795E+04  0.58513872615E+03  0.12800566812E+04  0.50400001928E-02 0.  1.
</event>
<event>
 5   0  0.1434943E-05  0.2408514E+04  0.7818609E-02  0.8436323E-01
       -1   -1    0    0    0  501  0.00000000000E+00  0.00000000000E+00  0.12007432456E+04  0.12007432456E+04  0.50400001928E-02 0.  1.
        1   -1    0    0  501    0  0.00000000000E+00  0.00000000000E+00 -0.12077811896E+04  0.12077811896E+04  0.50400001928E-02 0. -1.
    10030    2    1    2    0    0  0.00000000000E+00  0.00000000000E+00 -0.70379439861E+01  0.24085244352E+04  0.24085141524E+04 0.  0.
        5    1    3    3  502    0  0.31801825412E+03 -0.11451351438E+04  0.19075719805E+03  0.12036945236E+04  0.46999998093E+01 0.  1.
       -5    1    3    3    0  502 -0.31801825412E+03  0.11451351438E+04 -0.19779514204E+03  0.12048299116E+04  0.46999998093E+01 0. -1.
</event>
<event>
 5   0  0.1393026E-05  0.2395242E+04  0.7818609E-02  0.8441287E-01
       -1   -1    0    0    0  501  0.00000000000E+00  0.00000000000E+00  0.11623805044E+04  0.11623805044E+04  0.50400001928E-02 0. -1.
        1   -1    0    0  501    0  0.00000000000E+00  0.00000000000E+00 -0.12339302953E+04  0.12339302953E+04  0.50400001928E-02 0.  1.
    10030    2    1    2    0    0  0.00000000000E+00  0.00000000000E+00 -0.71549790927E+02  0.23963107997E+04  0.23952423836E+04 0.  0.
        4    1    3    3  502    0 -0.96752949449E+03  0.40985661428E+03 -0.61066078024E+03  0.12153205208E+04  0.12699999809E+01 0.  1.
       -4    1    3    3    0  502  0.96752949449E+03 -0.40985661428E+03  0.53911098932E+03  0.11809902788E+04  0.12699999809E+01 0. -1.
</event>
<event>
 5   0  0.3215208E-05  0.2381150E+04  0.7818609E-02  0.8446595E-01
       -2   -1    0    0    0  501  0.00000000000E+00  0.00000000000E+00  0.10013124666E+04  0.10013124666E+04  0.25500000920E-02 0.  1.
        2   -1    0    0  501    0  0.00000000000E+00  0.00000000000E+00 -0.14156109026E+04  0.14156109026E+04  0.25500000920E-02 0. -1.
    10030    2    1    2    0    0  0.00000000000E+00  0.00000000000E+00 -0.41429843599E+03  0.24169233692E+04  0.23811500118E+04 0.  0.
        1    1    3    3  502    0  0.88137840760E+02  0.99560558319E+03  0.44946205495E+03  0.10959082512E+04  0.50400001928E-02 0.  1.
       -1    1    3    3    0  502 -0.88137840760E+02 -0.99560558319E+03 -0.86376049094E+03  0.13210151180E+04  0.50400001928E-02 0. -1.
</event>
<event>
 5   0  0.1407158E-05  0.2392275E+04  0.7818609E-02  0.8442401E-01
       -1   -1    0    0    0  501  0.00000000000E+00  0.00000000000E+00  0.98907647199E+03  0.98907647200E+03  0.50400001928E-02 0.  1.
        1   -1    0    0  501    0  0.00000000000E+00  0.00000000000E+00 -0.14465461938E+04  0.14465461938E+04  0.50400001928E-02 0. -1.
    10030    2    1    2    0    0  0.00000000000E+00  0.00000000000E+00 -0.45746972179E+03  0.24356226658E+04  0.23922749056E+04 0.  0.
        1    1    3    3  502    0  0.10150044196E+04 -0.42198505367E+02  0.41415776473E+03  0.10970603173E+04  0.50400001928E-02 0.  1.
       -1    1    3    3    0  502 -0.10150044196E+04  0.42198505367E+02 -0.87162748652E+03  0.13385623485E+04  0.50400001928E-02 0. -1.
</event>
<event>
 5   0  0.3347728E-05  0.2383501E+04  0.7818609E-02  0.8445707E-01
        2   -1    0    0  501    0  0.00000000000E+00  0.00000000000E+00  0.22354412919E+04  0.22354412919E+04  0.25500000920E-02 0.  1.
       -2   -1    0    0    0  501  0.00000000000E+00  0.00000000000E+00 -0.63534161448E+03  0.63534161448E+03  0.25500000920E-02 0. -1.
    10030    2    1    2    0    0  0.00000000000E+00  0.00000000000E+00  0.16000996775E+04  0.28707829064E+04  0.23835006855E+04 0.  0.
        3    1    3    3  502    0 -0.55641054712E+03  0.91982979907E+03  0.18050717332E+03  0.10900744956E+04  0.10100000352E+00 0.  1.
       -3    1    3    3    0  502  0.55641054712E+03 -0.91982979907E+03  0.14195925041E+04  0.17807084108E+04  0.10100000352E+00 0. -1.
</event>
<event>
 5   0  0.3215208E-05  0.2421788E+04  0.7818609E-02  0.8431391E-01
       -2   -1    0    0    0  501  0.00000000000E+00  0.00000000000E+00  0.11748269542E+04  0.11748269542E+04  0.25500000920E-02 0. -1.
        2   -1    0    0  501    0  0.00000000000E+00  0.00000000000E+00 -0.12480680322E+04  0.12480680322E+04  0.25500000920E-02 0.  1.
    10030    2    1    2    0    0  0.00000000000E+00  0.00000000000E+00 -0.73241077997E+02  0.24228949865E+04  0.24217877405E+04 0.  0.
        1    1    3    3  502    0  0.20159065746E+03 -0.10608309376E+04  0.51159248334E+03  0.11948757008E+04  0.50400001928E-02 0. -1.
       -1    1    3    3    0  502 -0.20159065746E+03  0.10608309376E+04 -0.58483356134E+03  0.12280192856E+04  0.50400001928E-02 0.  1.
</event>
<event>
 5   0  0.3215208E-05  0.2405003E+04  0.7818609E-02  0.8437633E-01
       -2   -1    0    0    0  501  0.00000000000E+00  0.00000000000E+00  0.10764128564E+04  0.10764128564E+04  0.25500000920E-02 0. -1.
        2   -1    0    0  501    0  0.00000000000E+00  0.00000000000E+00 -0.13433596710E+04  0.13433596710E+04  0.25500000920E-02 0.  1.
    10030    2    1    2    0    0  0.00000000000E+00  0.00000000000E+00 -0.26694681464E+03  0.24197725274E+04  0.24050028030E+04 0.  0.
        1    1    3    3  502    0 -0.52831797496E+02 -0.57255554950E+03 -0.11960836442E+04  0.13271123313E+04  0.50400001928E-02 0.  1.
       -1    1    3    3    0  502  0.52831797496E+02  0.57255554950E+03  0.92913682952E+03  0.10926601961E+04  0.50400001928E-02 0. -1.
</event>
<event>
 5   0  0.3320780E-05  0.2412284E+04  0.7818609E-02  0.8434919E-01
       -2   -1    0    0    0  501  0.00000000000E+00  0.00000000000E+00  0.17986525492E+04  0.17986525492E+04  0.25500000920E-02 0.  1.
        2   -1    0    0  501    0  0.00000000000E+00  0.00000000000E+00 -0.80881590141E+03  0.80881590141E+03  0.25500000920E-02 0. -1.
    10030    2    1    2    0    0  0.00000000000E+00  0.00000000000E+00  0.98983664777E+03  0.26074684506E+04  0.24122842145E+04 0.  0.
        5    1    3    3  502    0 -0.94927986607E+02  0.25145978923E+00 -0.80476181719E+03  0.81035489650E+03  0.46999998093E+01 0. -1.
       -5    1    3    3    0  502  0.94927986607E+02 -0.25145978923E+00  0.17945984650E+04  0.17971135541E+04  0.46999998093E+01 0.  1.
</event>
<event>
 5   0  0.1434943E-05  0.2376538E+04  0.7818609E-02  0.8448340E-01
       -1   -1    0    0    0  501  0.00000000000E+00  0.00000000000E+00  0.13990874414E+04  0.13990874414E+04  0.50400001928E-02 0.  1.
        1   -1    0    0  501    0  0.00000000000E+00  0.00000000000E+00 -0.10092168748E+04  0.10092168748E+04  0.50400001928E-02 0. -1.
    10030    2    1    2    0    0  0.00000000000E+00  0.00000000000E+00  0.38987056659E+03  0.24083043161E+04  0.23765375277E+04 0.  0.
        5    1    3    3  502    0 -0.10270086116E+03 -0.11255552087E+02 -0.10046472751E+04  0.10099566286E+04  0.46999998093E+01 0. -1.
       -5    1    3    3    0  502  0.10270086116E+03  0.11255552087E+02  0.13945178417E+04  0.13983476875E+04  0.46999998093E+01 0.  1.
</event>
<event>
 5   0  0.3347728E-05  0.2435718E+04  0.7818609E-02  0.8426251E-01
       -2   -1    0    0    0  501  0.00000000000E+00  0.00000000000E+00  0.11001546821E+04  0.11001546821E+04  0.25500000920E-02 0. -1.
        2   -1    0    0  501    0  0.00000000000E+00  0.00000000000E+00 -0.13481560047E+04  0.13481560047E+04  0.25500000920E-02 0.  1.
    10030    2    1    2    0    0  0.00000000000E+00  0.00000000000E+00 -0.24800132260E+03  0.24483106869E+04  0.24357176691E+04 0.  0.
        3    1    3    3  502    0  0.10814522481E+04  0.73071747709E+02  0.43411926887E+03  0.11676206554E+04  0.10100000352E+00 0.  1.
       -3    1    3    3    0  502 -0.10814522481E+04 -0.73071747709E+02 -0.68212059147E+03  0.12806900315E+04  0.10100000352E+00 0. -1.
</event>
<event>
 5   0  0.1401596E-05  0.2392777E+04  0.7818609E-02  0.8442213E-01
       -1   -1    0    0    0  501  0.00000000000E+00  0.00000000000E+00  0.90444717404E+03  0.90444717406E+03  0.50400001928E-02 0. -1.
        1   -1    0    0  501    0  0.00000000000E+00  0.00000000000E+00 -0.15825644576E+04  0.15825644576E+04  0.50400001928E-02 0.  1.
    10030    2    1    2    0    0  0.00000000000E+00  0.00000000000E+00 -0.67811728351E+03  0.24870116316E+04  0.23927774250E+04 0.  0.
        2    1    3    3  502    0  0.60267434983E+03  0.58838599083E+03 -0.12221863505E+04  0.14843025034E+04  0.25500000920E-02 0.  1.
       -2    1    3    3    0  502 -0.60267434983E+03 -0.58838599083E+03  0.54406906702E+03  0.10027091282E+04  0.25500000920E-02 0. -1.
</event>
<event>
 5   0  0.1407158E-05  0.2391274E+04  0.7818609E-02  0.8442778E-01
        1   -1    0    0  501    0  0.00000000000E+00  0.00000000000E+00  0.18136917888E+04  0.18136917888E+04  0.50400001928E-02 0.  1.
       -1   -1    0    0    0  501  0.00000000000E+00  0.00000000000E+00 -0.78819745546E+03  0.78819745548E+03  0.50400001928E-02 0. -1.
    10030    2    1    2    0    0  0.00000000000E+00  0.00000000000E+00  0.10254943333E+04  0.26018892443E+04  0.23912735125E+04 0.  0.
        1    1    3    3  502    0 -0.44126944068E+03 -0.10880584219E+04  0.75836686914E+03  0.13977518224E+04  0.50400001928E-02 0.  1.
       -1    1    3    3    0  502  0.44126944068E+03  0.10880584219E+04  0.26712746419E+03  0.12041374219E+04  0.50400001928E-02 0. -1.
</event>
<event>
 5   0  0.1506985E-05  0.2416430E+04  0.7818609E-02  0.8433378E-01
       -1   -1    0    0    0  501  0.00000000000E+00  0.00000000000E+00  0.10063687683E+04  0.10063687683E+04  0.50400001928E-02 0.  1.
        1   -1    0    0  501    0  0.00000000000E+00  0.00000000000E+00 -0.14505453351E+04  0.14505453351E+04  0.50400001928E-02 0. -1.
    10030    2    1    2    0    0  0.00000000000E+00  0.00000000000E+00 -0.44417656681E+03  0.24569141034E+04  0.24164300299E+04 0.  0.
        3    1    3    3  502    0 -0.44537141485E+03 -0.84278314050E+03  0.53274048849E+03  0.10919943028E+04  0.10100000352E+00 0.  1.
       -3    1    3    3    0  502  0.44537141485E+03  0.84278314050E+03 -0.97691705529E+03  0.13649198006E+04  0.10100000352E+00 0. -1.
</event>
<event>
 5   0  0.1506985E-05  0.2199810E+04  0.7818609E-02  0.8518507E-01
       -1   -1    0    0    0  501  0.00000000000E+00  0.00000000000E+00  0.76140692374E+03  0.76140692375E+03  0.50400001928E-02 0. -1.
        1   -1    0    0  501    0  0.00000000000E+00  0.00000000000E+00 -0.15888890427E+04  0.15888890427E+04  0.50400001928E-02 0.  1.
    10030    2    1    2    0    0  0.00000000000E+00  0.00000000000E+00 -0.82748211900E+03  0.23502959665E+04  0.21998100993E+04 0.  0.
        3    1    3    3  502    0 -0.59889563808E+03 -0.75412320816E+03  0.15403874887E+03  0.97524650461E+03  0.10100000352E+00 0. -1.
       -3    1    3    3    0  502  0.59889563808E+03  0.75412320816E+03 -0.98152086786E+03  0.13750494619E+04  0.10100000352E+00 0.  1.
</event>
<event>
 5   0  0.3310037E-05  0.2400908E+04  0.7818609E-02  0.8439164E-01
        2   -1    0    0  501    0  0.00000000000E+00  0.00000000000E+00  0.16205555324E+04  0.16205555324E+04  0.25500000920E-02 0. -1.
       -2   -1    0    0    0  501  0.00000000000E+00  0.00000000000E+00 -0.88925659511E+03  0.88925659512E+03  0.25500000920E-02 0.  1.
    10030    2    1    2    0    0  0.00000000000E+00  0.00000000000E+00  0.73129893732E+03  0.25098121276E+04  0.24009079074E+04 0.  0.
        2    1    3    3  502    0  0.10303522913E+04  0.44547818778E+03  0.81040426132E+03  0.13844969219E+04  0.25500000920E-02 0.  1.
       -2    1    3    3    0  502 -0.10303522913E+04 -0.44547818778E+03 -0.79105323993E+02  0.11253152057E+04  0.25500000920E-02 0. -1.
</event>
<event>
 5   0  0.1434943E-05  0.2384480E+04  0.7818609E-02  0.8445337E-01
       -1   -1    0    0    0  501  0.00000000000E+00  0.00000000000E+00  0.93325639039E+03  0.93325639040E+03  0.50400001928E-02 0.  1.
        1   -1    0    0  501    0  0.00000000000E+00  0.00000000000E+00 -0.15230934342E+04  0.15230934342E+04  0.50400001928E-02 0. -1.
    10030    2    1    2    0    0  0.00000000000E+00  0.00000000000E+00 -0.58983704379E+03  0.24563498246E+04  0.23844803884E+04 0.  0.
        5    1    3    3  502    0  0.10354977274E+04  0.19102551300E+03 -0.87093961810E+03  0.13664933949E+04  0.46999998093E+01 0. -1.
       -5    1    3    3    0  502 -0.10354977274E+04 -0.19102551300E+03  0.28110257431E+03  0.10898564297E+04  0.46999998093E+01 0.  1.
</event>
<event>
 5   0  0.3320780E-05  0.2396229E+04  0.7818609E-02  0.8440917E-01
        2   -1    0    0  501    0  0.00000000000E+00  0.00000000000E+00  0.13023669115E+04  0.13023669115E+04  0.25500000920E-02 0. -1.
       -2   -1    0    0    0  501  0.00000000000E+00  0.00000000000E+00 -0.11022072874E+04  0.11022072875E+04  0.25500000920E-02 0.  1.
    10030    2    1    2    0    0  0.00000000000E+00  0.00000000000E+00  0.20015962405E+03  0.24045741990E+04  0.23962289547E+04 0.  0.
        5    1    3    3  502    0  0.56142818029E+03  0.85839465529E+03  0.72143998862E+03  0.12540098616E+04  0.46999998093E+01 0. -1.
       -5    1    3    3    0  502 -0.56142818029E+03 -0.85839465529E+03 -0.52128036458E+03  0.11505643373E+04  0.46999998093E+01 0.  1.
</event>
<event>
 5   0  0.1401596E-05  0.2415129E+04  0.7818609E-02  0.8433861E-01
       -1   -1    0    0    0  501  0.00000000000E+00  0.00000000000E+00  0.62441837703E+03  0.62441837705E+03  0.50400001928E-02 0. -1.
        1   -1    0    0  501    0  0.00000000000E+00  0.00000000000E+00 -0.23353120019E+04  0.23353120019E+04  0.50400001928E-02 0.  1.
    10030    2    1    2    0    0  0.00000000000E+00  0.00000000000E+00 -0.17108936249E+04  0.29597303790E+04  0.24151287586E+04 0.  0.
        2    1    3    3  502    0  0.25012835160E+02  0.12073036239E+04 -0.85791242407E+03  0.14812904542E+04  0.25500000920E-02 0.  1.
       -2    1    3    3    0  502 -0.25012835160E+02 -0.12073036239E+04 -0.85298120084E+03  0.14784399248E+04  0.25500000920E-02 0. -1.
</event>
<event>
 5   0  0.1147362E-05  0.2428597E+04  0.7818609E-02  0.8428874E-01
       -4   -1    0    0    0  501  0.00000000000E+00  0.00000000000E+00  0.75186438200E+03  0.75186545460E+03  0.12699999809E+01 0.  1.
        4   -1    0    0  501    0  0.00000000000E+00  0.00000000000E+00 -0.19611495962E+04  0.19611500074E+04  0.12699999809E+01 0. -1.
    10030    2    1    2    0    0  0.00000000000E+00  0.00000000000E+00 -0.12092852142E+04  0.27130154620E+04  0.24285967487E+04 0.  0.
        4    1    3    3  502    0 -0.57980746888E+03  0.10269883306E+04 -0.28157263517E+03  0.12125042243E+04  0.12699999809E+01 0.  1.
       -4    1    3    3    0  502  0.57980746888E+03 -0.10269883306E+04 -0.92771257900E+03  0.15005112377E+04  0.12699999809E+01 0. -1.
</event>
<event>
 5   0  0.1407158E-05  0.2389385E+04  0.7818609E-02  0.8443488E-01
       -1   -1    0    0    0  501  0.00000000000E+00  0.00000000000E+00  0.13472623745E+04  0.13472623745E+04  0.50400001928E-02 0.  1.
        1   -1    0    0  501    0  0.00000000000E+00  0.00000000000E+00 -0.10594000387E+04  0.10594000387E+04  0.50400001928E-02 0. -1.
    10030    2    1    2    0    0  0.00000000000E+00  0.00000000000E+00  0.28786233580E+03  0.24066624132E+04  0.23893847005E+04 0.  0.
        1    1    3    3  502    0  0.36457586420E+03  0.36479238497E+03 -0.94149791329E+03  0.10735023827E+04  0.50400001928E-02 0. -1.
       -1    1    3    3    0  502 -0.36457586420E+03 -0.36479238497E+03  0.12293602491E+04  0.13331600305E+04  0.50400001928E-02 0.  1.
</event>
<event>
 5   0  0.1401596E-05  0.2447769E+04  0.7818609E-02  0.8421833E-01
        1   -1    0    0  501    0  0.00000000000E+00  0.00000000000E+00  0.26422927540E+04  0.26422927540E+04  0.50400001928E-02 0. -1.
       -1   -1    0    0    0  501  0.00000000000E+00  0.00000000000E+00 -0.56689162657E+03  0.56689162659E+03  0.50400001928E-02 0.  1.
    10030    2    1    2    0    0  0.00000000000E+00  0.00000000000E+00  0.20754011275E+04  0.32091843806E+04  0.24477693006E+04 0.  0.
        2    1    3    3  502    0 -0.34585801346E+03 -0.84581279577E+03 -0.29732192499E+02  0.91427624613E+03  0.25500000920E-02 0.  1.
       -2    1    3    3    0  502  0.34585801346E+03  0.84581279577E+03  0.21051333200E+04  0.22949081345E+04  0.25500000920E-02 0. -1.
</event>
<event>
 5   0  0.3215208E-05  0.2250231E+04  0.7818609E-02  0.8497807E-01
       -2   -1    0    0    0  501  0.00000000000E+00  0.00000000000E+00  0.14367620614E+04  0.14367620614E+04  0.25500000920E-02 0.  1.
        2   -1    0    0  501    0  0.00000000000E+00  0.00000000000E+00 -0.88106760229E+03  0.88106760229E+03  0.25500000920E-02 0. -1.
    10030    2    1    2    0    0  0.00000000000E+00  0.00000000000E+00  0.55569445908E+03  0.23178296637E+04  0.22502306588E+04 0.  0.
        1    1    3    3  502    0  0.73201173947E+03 -0.42998921397E+03 -0.48267781542E+03  0.97658065944E+03  0.50400001928E-02 0. -1.
       -1    1    3    3    0  502 -0.73201173947E+03  0.42998921397E+03  0.10383722745E+04  0.13412490042E+04  0.50400001928E-02 0.  1.
</event>
<event>
 5   0  0.3215208E-05  0.2390513E+04  0.7818609E-02  0.8443064E-01
        2   -1    0    0  501    0  0.00000000000E+00  0.00000000000E+00  0.20411505712E+04  0.20411505712E+04  0.25500000920E-02 0.  1.
       -2   -1    0    0    0  501  0.00000000000E+00  0.00000000000E+00 -0.69991804871E+03  0.69991804871E+03  0.25500000920E-02 0. -1.
    10030    2    1    2    0    0  0.00000000000E+00  0.00000000000E+00  0.13412325225E+04  0.27410686199E+04  0.23905130202E+04 0.  0.
        1    1    3    3  502    0  0.90071934194E+03 -0.66421658679E+03  0.11518780242E+04  0.16060205447E+04  0.50400001928E-02 0.  1.
       -1    1    3    3    0  502 -0.90071934194E+03  0.66421658679E+03  0.18935449826E+03  0.11350480753E+04  0.50400001928E-02 0. -1.
</event>
<event>
 5   0  0.1147362E-05  0.2399347E+04  0.7818609E-02  0.8439748E-01
       -3   -1    0    0    0  501  0.00000000000E+00  0.00000000000E+00  0.14757773667E+04  0.14757773701E+04  0.10100000352E+00 0.  1.
        3   -1    0    0  501    0  0.00000000000E+00  0.00000000000E+00 -0.97522594281E+03  0.97522594804E+03  0.10100000352E+00 0. -1.
    10030    2    1    2    0    0  0.00000000000E+00  0.00000000000E+00  0.50055142386E+03  0.24510033182E+04  0.23993468982E+04 0.  0.
        3    1    3    3  502    0  0.16007729783E+02 -0.11865251447E+04  0.43047710519E+03  0.12623029410E+04  0.10100000352E+00 0. -1.
       -3    1    3    3    0  502 -0.16007729783E+02  0.11865251447E+04  0.70074318665E+02  0.11887003772E+04  0.10100000352E+00 0.  1.
</event>
<event>
 5   0  0.1393026E-05  0.2398786E+04  0.7818609E-02  0.8439958E-01
       -1   -1    0    0    0  501  0.00000000000E+00  0.00000000000E+00  0.12589700160E+04  0.12589700160E+04  0.50400001928E-02 0. -1.
        1   -1    0    0  501    0  0.00000000000E+00  0.00000000000E+00 -0.11426354409E+04  0.11426354409E+04  0.50400001928E-02 0.  1.
    10030    2    1    2    0    0  0.00000000000E+00  0.00000000000E+00  0.11633457505E+03  0.24016054569E+04  0.23987861591E+04 0.  0.
        4    1    3    3  502    0  0.29620952246E+03 -0.72234771054E+03  0.96974047884E+03  0.12449596400E+04  0.12699999809E+01 0. -1.
       -4    1    3    3    0  502 -0.29620952246E+03  0.72234771054E+03 -0.85340590378E+03  0.11566458168E+04  0.12699999809E+01 0.  1.
</event>
<event>
 5   0  0.3320780E-05  0.2394019E+04  0.7818609E-02  0.8441746E-01
        2   -1    0    0  501    0  0.00000000000E+00  0.00000000000E+00  0.58754369974E+03  0.58754369974E+03  0.25500000920E-02 0.  1.
       -2   -1    0    0    0  501  0.00000000000E+00  0.00000000000E+00 -0.24386810496E+04  0.24386810496E+04  0.25500000920E-02 0. -1.
    10030    2    1    2    0    0  0.00000000000E+00  0.00000000000E+00 -0.18511373499E+04  0.30262247494E+04  0.23940189526E+04 0.  0.
        5    1    3    3  502    0 -0.11753117725E+04 -0.12304893709E+03 -0.11664435270E+04  0.16604551771E+04  0.46999998093E+01 0. -1.
       -5    1    3    3    0  502  0.11753117725E+04  0.12304893709E+03 -0.68469382284E+03  0.13657695723E+04  0.46999998093E+01 0.  1.
</event>
<event>
 5   0  0.1434943E-05  0.2408578E+04  0.7818609E-02  0.8436299E-01
       -1   -1    0    0    0  501  0.00000000000E+00  0.00000000000E+00  0.12334409644E+04  0.12334409645E+04  0.50400001928E-02 0. -1.
        1   -1    0    0  501    0  0.00000000000E+00  0.00000000000E+00 -0.11758257372E+04  0.11758257372E+04  0.50400001928E-02 0.  1.
    10030    2    1    2    0    0  0.00000000000E+00  0.00000000000E+00  0.57615227288E+02  0.24092667016E+04  0.24085776975E+04 0.  0.
        5    1    3    3  502    0  0.30306717293E+02 -0.34961576579E+03  0.11811527266E+04  0.12321905430E+04  0.46999998093E+01 0. -1.
       -5    1    3    3    0  502 -0.30306717293E+02  0.34961576579E+03 -0.11235374993E+04  0.11770761586E+04  0.46999998093E+01 0.  1.
</event>
<event>
 5   0  0.1401596E-05  0.2399627E+04  0.7818609E-02  0.8439643E-01
        1   -1    0    0  501    0  0.00000000000E+00  0.00000000000E+00  0.23879566376E+04  0.23879566376E+04  0.50400001928E-02 0.  1.
       -1   -1    0    0    0  501  0.00000000000E+00  0.00000000000E+00 -0.60283868605E+03  0.60283868607E+03  0.50400001928E-02 0. -1.
    10030    2    1    2    0    0  0.00000000000E+00  0.00000000000E+00  0.17851179515E+04  0.29907953237E+04  0.23996271725E+04 0.  0.
        2    1    3    3  502    0  0.71243715179E+03  0.89248680473E+03  0.43384957929E+03  0.12216074858E+04  0.25500000920E-02 0.  1.
       -2    1    3    3    0  502 -0.71243715179E+03 -0.89248680473E+03  0.13512683723E+04  0.17691878379E+04  0.25500000920E-02 0. -1.
</event>
<event>
 5   0  0.3320780E-05  0.2360716E+04  0.7818609E-02  0.8454359E-01
       -2   -1    0    0    0  501  0.00000000000E+00  0.00000000000E+00  0.79269672856E+03  0.79269672856E+03  0.25500000920E-02 0.  1.
        2   -1    0    0  501    0  0.00000000000E+00  0.00000000000E+00 -0.17576022158E+04  0.17576022158E+04  0.25500000920E-02 0. -1.
    10030    2    1    2    0    0  0.00000000000E+00  0.00000000000E+00 -0.96490548720E+03  0.25502989443E+04  0.23607164392E+04 0.  0.
        5    1    3    3  502    0 -0.20180621171E+03 -0.64622240172E+03 -0.15270010327E+04  0.16703542689E+04  0.46999998093E+01 0. -1.
       -5    1    3    3    0  502  0.20180621171E+03  0.64622240172E+03  0.56209554553E+03  0.87994467546E+03  0.46999998093E+01 0.  1.
</event>
<event>
 5   0  0.3215208E-05  0.2385917E+04  0.7818609E-02  0.8444795E-01
       -2   -1    0    0    0  501  0.00000000000E+00  0.00000000000E+00  0.92193201801E+03  0.92193201801E+03  0.25500000920E-02 0. -1.
        2   -1    0    0  501    0  0.00000000000E+00  0.00000000000E+00 -0.15436604645E+04  0.15436604645E+04  0.25500000920E-02 0.  1.
    10030    2    1    2    0    0  0.00000000000E+00  0.00000000000E+00 -0.62172844648E+03  0.24655924825E+04  0.23859170205E+04 0.  0.
        1    1    3    3  502    0 -0.31129858195E+03 -0.11156583865E+04 -0.15759075408E+02  0.11583819711E+04  0.50400001928E-02 0.  1.
       -1    1    3    3    0  502  0.31129858195E+03  0.11156583865E+04 -0.60596937108E+03  0.13072105114E+04  0.50400001928E-02 0. -1.
</event>
<event>
 5   0  0.1401596E-05  0.2325006E+04  0.7818609E-02  0.8468126E-01
        1   -1    0    0  501    0  0.00000000000E+00  0.00000000000E+00  0.13329238342E+04  0.13329238342E+04  0.50400001928E-02 0.  1.
       -1   -1    0    0    0  501  0.00000000000E+00  0.00000000000E+00 -0.10138711346E+04  0.10138711346E+04  0.50400001928E-02 0. -1.
    10030    2    1    2    0    0  0.00000000000E+00  0.00000000000E+00  0.31905269957E+03  0.23467949688E+04  0.23250058065E+04 0.  0.
        2    1    3    3  502    0  0.93820345308E+03 -0.59859441604E+03  0.49863918506E+03  0.12195007303E+04  0.25500000920E-02 0.  1.
       -2    1    3    3    0  502 -0.93820345308E+03  0.59859441604E+03 -0.17958648549E+03  0.11272942385E+04  0.25500000920E-02 0. -1.
</event>
<event>
 5   0  0.1434943E-05  0.2426076E+04  0.7818609E-02  0.8429805E-01
       -1   -1    0    0    0  501  0.00000000000E+00  0.00000000000E+00  0.18206522339E+04  0.18206522339E+04  0.50400001928E-02 0.  1.
        1   -1    0    0  501    0  0.00000000000E+00  0.00000000000E+00 -0.80820521333E+03  0.80820521335E+03  0.50400001928E-02 0. -1.
    10030    2    1    2    0    0  0.00000000000E+00  0.00000000000E+00  0.10124470205E+04  0.26288574472E+04  0.24260755364E+04 0.  0.
        5    1    3    3  502    0 -0.11003142857E+04 -0.56871781429E+02 -0.43648949334E+02  0.11026573573E+04  0.46999998093E+01 0.  1.
       -5    1    3    3    0  502  0.11003142857E+04  0.56871781429E+02  0.10560959699E+04  0.15262000899E+04  0.46999998093E+01 0. -1.
</event>
<event>
 5   0  0.1506985E-05  0.2417759E+04  0.7818609E-02  0.8432885E-01
        1   -1    0    0  501    0  0.00000000000E+00  0.00000000000E+00  0.11015236392E+04  0.11015236393E+04  0.50400001928E-02 0. -1.
       -1   -1    0    0    0  501  0.00000000000E+00  0.00000000000E+00 -0.13266984859E+04  0.13266984859E+04  0.50400001928E-02 0.  1.
    10030    2    1    2    0    0  0.00000000000E+00  0.00000000000E+00 -0.22517484668E+03  0.24282221252E+04  0.24177590818E+04 0.  0.
        3    1    3    3  502    0 -0.63222749521E+03  0.29989486532E+03 -0.11026227614E+04  0.13059194079E+04  0.10100000352E+00 0.  1.
       -3    1    3    3    0  502  0.63222749521E+03 -0.29989486532E+03  0.87744791469E+03  0.11223027172E+04  0.10100000352E+00 0. -1.
</event>
<event>
 5   0  0.1506985E-05  0.2407370E+04  0.7818609E-02  0.8436750E-01
       -1   -1    0    0    0  501  0.00000000000E+00  0.00000000000E+00  0.90422808246E+03  0.90422808247E+03  0.50400001928E-02 0. -1.
        1   -1    0    0  501    0  0.00000000000E+00  0.00000000000E+00 -0.16023141012E+04  0.16023141012E+04  0.50400001928E-02 0.  1.
    10030    2    1    2    0    0  0.00000000000E+00  0.00000000000E+00 -0.69808601872E+03  0.25065421837E+04  0.24073698571E+04 0.  0.
        3    1    3    3  502    0 -0.46003876035E+03  0.87344414984E+03  0.36803527230E+03  0.10535607793E+04  0.10100000352E+00 0. -1.
       -3    1    3    3    0  502  0.46003876035E+03 -0.87344414984E+03 -0.10661212910E+04  0.14529814043E+04  0.10100000352E+00 0.  1.
</event>
<event>
 5   0  0.1434943E-05  0.2582482E+04  0.7818609E-02  0.8374176E-01
        1   -1    0    0  501    0  0.00000000000E+00  0.00000000000E+00  0.13050076254E+04  0.13050076254E+04  0.50400001928E-02 0.  1.
       -1   -1    0    0    0  501  0.00000000000E+00  0.00000000000E+00 -0.12776199099E+04  0.12776199099E+04  0.50400001928E-02 0. -1.
    10030    2    1    2    0    0  0.00000000000E+00  0.00000000000E+00  0.27387715587E+02  0.25826275353E+04  0.25824823134E+04 0.  0.
        5    1    3    3  502    0  0.11967327303E+02 -0.40922670289E+03 -0.12109859337E+04  0.12783265361E+04  0.46999998093E+01 0. -1.
       -5    1    3    3    0  502 -0.11967327303E+02  0.40922670289E+03  0.12383736493E+04  0.13043009992E+04  0.46999998093E+01 0.  1.
</event>
<event>
 5   0  0.1393026E-05  0.2380844E+04  0.7818609E-02  0.8446710E-01
        1   -1    0    0  501    0  0.00000000000E+00  0.00000000000E+00  0.13247909026E+04  0.13247909026E+04  0.50400001928E-02 0.  1.
       -1   -1    0    0    0  501  0.00000000000E+00  0.00000000000E+00 -0.10696820877E+04  0.10696820877E+04  0.50400001928E-02 0. -1.
    10030    2    1    2    0    0  0.00000000000E+00  0.00000000000E+00  0.25510881488E+03  0.23944729903E+04  0.23808444707E+04 0.  0.
        4    1    3    3  502    0  0.38933825774E+03  0.70713580295E+03  0.10074787240E+04  0.12909842428E+04  0.12699999809E+01 0.  1.
       -4    1    3    3    0  502 -0.38933825774E+03 -0.70713580295E+03 -0.75236990916E+03  0.11034887475E+04  0.12699999809E+01 0. -1.
</event>
<event>
 5   0  0.1434943E-05  0.2381559E+04  0.7818609E-02  0.8446440E-01
        1   -1    0    0  501    0  0.00000000000E+00  0.00000000000E+00  0.10877260330E+04  0.10877260330E+04  0.50400001928E-02 0.  1.
       -1   -1    0    0    0  501  0.00000000000E+00  0.00000000000E+00 -0.13035962752E+04  0.13035962752E+04  0.50400001928E-02 0. -1.
    10030    2    1    2    0    0  0.00000000000E+00  0.00000000000E+00 -0.21587024223E+03  0.23913223083E+04  0.23815588215E+04 0.  0.
        5    1    3    3  502    0  0.12773725168E+03 -0.11561420238E+04 -0.36383741097E+03  0.12187620507E+04  0.46999998093E+01 0. -1.
       -5    1    3    3    0  502 -0.12773725168E+03  0.11561420238E+04  0.14796716874E+03  0.11725602576E+04  0.46999998093E+01 0.  1.
</event>
<event>
 5   0  0.3345974E-05  0.2398552E+04  0.7818609E-02  0.8440046E-01
        2   -1    0    0  501    0  0.00000000000E+00  0.00000000000E+00  0.23087142383E+04  0.23087142383E+04  0.25500000920E-02 0.  1.
       -2   -1    0    0    0  501  0.00000000000E+00  0.00000000000E+00 -0.62297121719E+03  0.62297121720E+03  0.25500000920E-02 0. -1.
    10030    2    1    2    0    0  0.00000000000E+00  0.00000000000E+00  0.16857430211E+04  0.29316854555E+04  0.23985516623E+04 0.  0.
        4    1    3    3  502    0 -0.18763665298E+03  0.14152423913E+03 -0.59454688311E+03  0.63931544086E+03  0.12699999809E+01 0. -1.
       -4    1    3    3    0  502  0.18763665298E+03 -0.14152423913E+03  0.22802899043E+04  0.22923700147E+04  0.12699999809E+01 0.  1.
</event>
<event>
 5   0  0.1434943E-05  0.2407233E+04  0.7818609E-02  0.8436800E-01
        1   -1    0    0  501    0  0.00000000000E+00  0.00000000000E+00  0.13421968494E+04  0.13421968494E+04  0.50400001928E-02 0.  1.
       -1   -1    0    0    0  501  0.00000000000E+00  0.00000000000E+00 -0.10793447693E+04  0.10793447693E+04  0.50400001928E-02 0. -1.
    10030    2    1    2    0    0  0.00000000000E+00  0.00000000000E+00  0.26285208012E+03  0.24215416187E+04  0.24072333902E+04 0.  0.
        5    1    3    3  502    0  0.10020258481E+04 -0.56911025146E+03  0.48095176494E+03  0.12487109228E+04  0.46999998093E+01 0.  1.
       -5    1    3    3    0  502 -0.10020258481E+04  0.56911025146E+03 -0.21809968482E+03  0.11728306958E+04  0.46999998093E+01 0. -1.
</event>
<event>
 5   0  0.3347728E-05  0.2364615E+04  0.7818609E-02  0.8452871E-01
        2   -1    0    0  501    0  0.00000000000E+00  0.00000000000E+00  0.79338313176E+03  0.79338313177E+03  0.25500000920E-02 0. -1.
       -2   -1    0    0    0  501  0.00000000000E+00  0.00000000000E+00 -0.17618868330E+04  0.17618868330E+04  0.25500000920E-02 0.  1.
    10030    2    1    2    0    0  0.00000000000E+00  0.00000000000E+00 -0.96850370121E+03  0.25552699647E+04  0.23646152274E+04 0.  0.
        3    1    3    3  502    0  0.53205160895E+03  0.10552645799E+04 -0.44698920896E+03  0.12635116190E+04  0.10100000352E+00 0. -1.
       -3    1    3    3    0  502 -0.53205160895E+03 -0.10552645799E+04 -0.52151449224E+03  0.12917583458E+04  0.10100000352E+00 0.  1.
</event>
<event>
 5   0  0.3347728E-05  0.2404232E+04  0.7818609E-02  0.8437921E-01
        2   -1    0    0  501    0  0.00000000000E+00  0.00000000000E+00  0.71626769559E+03  0.71626769560E+03  0.25500000920E-02 0. -1.
       -2   -1    0    0    0  501  0.00000000000E+00  0.00000000000E+00 -0.20175174177E+04  0.20175174177E+04  0.25500000920E-02 0.  1.
    10030    2    1    2    0    0  0.00000000000E+00  0.00000000000E+00 -0.13012497221E+04  0.27337851133E+04  0.24042317289E+04 0.  0.
        3    1    3    3  502    0  0.36754584620E+03 -0.39120642403E+03  0.57242839692E+03  0.78473351850E+03  0.10100000352E+00 0. -1.
       -3    1    3    3    0  502 -0.36754584620E+03  0.39120642403E+03 -0.18736781190E+04  0.19490515948E+04  0.10100000352E+00 0.  1.
</event>
<event>
 5   0  0.1147362E-05  0.2336460E+04  0.7818609E-02  0.8463683E-01
       -4   -1    0    0    0  501  0.00000000000E+00  0.00000000000E+00  0.99204327773E+03  0.99204409065E+03  0.12699999809E+01 0. -1.
        4   -1    0    0  501    0  0.00000000000E+00  0.00000000000E+00 -0.13757056814E+04  0.13757062676E+04  0.12699999809E+01 0.  1.
    10030    2    1    2    0    0  0.00000000000E+00  0.00000000000E+00 -0.38366240371E+03  0.23677503583E+04  0.23364599117E+04 0.  0.
        3    1    3    3  502    0  0.86247881486E+03 -0.17983941296E+03 -0.96927499469E+03  0.13098495891E+04  0.10100000352E+00 0.  1.
       -3    1    3    3    0  502 -0.86247881486E+03  0.17983941296E+03  0.58561259098E+03  0.10579007692E+04  0.10100000352E+00 0. -1.
</event>
<event>
 5   0  0.3320780E-05  0.2391758E+04  0.7818609E-02  0.8442596E-01
        2   -1    0    0  501    0  0.00000000000E+00  0.00000000000E+00  0.14798175715E+04  0.14798175715E+04  0.25500000920E-02 0. -1.
       -2   -1    0    0    0  501  0.00000000000E+00  0.00000000000E+00 -0.96642067683E+03  0.96642067684E+03  0.25500000920E-02 0.  1.
    10030    2    1    2    0    0  0.00000000000E+00  0.00000000000E+00  0.51339689466E+03  0.24462382483E+04  0.23917577628E+04 0.  0.
        5    1    3    3  502    0  0.10841953083E+04 -0.25234397066E+03 -0.19023028840E+03  0.11293213000E+04  0.46999998093E+01 0. -1.
       -5    1    3    3    0  502 -0.10841953083E+04  0.25234397066E+03  0.70362718306E+03  0.13169169483E+04  0.46999998093E+01 0.  1.
</event>
<event>
 5   0  0.1434943E-05  0.2291744E+04  0.7818609E-02  0.8481184E-01
        1   -1    0    0  501    0  0.00000000000E+00  0.00000000000E+00  0.10277210141E+04  0.10277210142E+04  0.50400001928E-02 0.  1.
       -1   -1    0    0    0  501  0.00000000000E+00  0.00000000000E+00 -0.12776058093E+04  0.12776058093E+04  0.50400001928E-02 0. -1.
    10030    2    1    2    0    0  0.00000000000E+00  0.00000000000E+00 -0.24988479513E+03  0.23053268234E+04  0.22917437361E+04 0.  0.
        5    1    3    3  502    0  0.68853778988E+03  0.91557971556E+03 -0.99698953990E+02  0.11499271608E+04  0.46999998093E+01 0. -1.
       -5    1    3    3    0  502 -0.68853778988E+03 -0.91557971556E+03 -0.15018584114E+03  0.11553996627E+04  0.46999998093E+01 0.  1.
</event>
<event>
 5   0  0.1401596E-05  0.2397291E+04  0.7818609E-02  0.8440519E-01
       -1   -1    0    0    0  501  0.00000000000E+00  0.00000000000E+00  0.94108304846E+03  0.94108304848E+03  0.50400001928E-02 0. -1.
        1   -1    0    0  501    0  0.00000000000E+00  0.00000000000E+00 -0.15266990084E+04  0.15266990084E+04  0.50400001928E-02 0.  1.
    10030    2    1    2    0    0  0.00000000000E+00  0.00000000000E+00 -0.58561595997E+03  0.24677820569E+04  0.23972906015E+04 0.  0.
        2    1    3    3  502    0  0.30389181600E+03  0.75269558320E+03  0.61508353688E+03  0.10184442224E+04  0.25500000920E-02 0. -1.
       -2    1    3    3    0  502 -0.30389181600E+03 -0.75269558320E+03 -0.12006994969E+04  0.14493378345E+04  0.25500000920E-02 0.  1.
</event>
<event>
 5   0  0.3320780E-05  0.2371619E+04  0.7818609E-02  0.8450206E-01
       -2   -1    0    0    0  501  0.00000000000E+00  0.00000000000E+00  0.10179278051E+04  0.10179278051E+04  0.25500000920E-02 0. -1.
        2   -1    0    0  501    0  0.00000000000E+00  0.00000000000E+00 -0.13813796263E+04  0.13813796263E+04  0.25500000920E-02 0.  1.
    10030    2    1    2    0    0  0.00000000000E+00  0.00000000000E+00 -0.36345182117E+03  0.23993074314E+04  0.23716194729E+04 0.  0.
        5    1    3    3  502    0  0.27984669444E+03 -0.89184541809E+03 -0.91991591694E+03  0.13114761936E+04  0.46999998093E+01 0.  1.
       -5    1    3    3    0  502 -0.27984669444E+03  0.89184541809E+03  0.55646409577E+03  0.10878312378E+04  0.46999998093E+01 0. -1.
</event>
<event>
 5   0  0.3215208E-05  0.2365594E+04  0.7818609E-02  0.8452498E-01
        2   -1    0    0  501    0  0.00000000000E+00  0.00000000000E+00  0.15893576853E+04  0.15893576853E+04  0.25500000920E-02 0.  1.
       -2   -1    0    0    0  501  0.00000000000E+00  0.00000000000E+00 -0.88023545855E+03  0.88023545856E+03  0.25500000920E-02 0. -1.
    10030    2    1    2    0    0  0.00000000000E+00  0.00000000000E+00  0.70912222675E+03  0.24695931439E+04  0.23655942094E+04 0.  0.
        1    1    3    3  502    0 -0.70089197486E+03 -0.15747681812E+02  0.13490758361E+04  0.15203628388E+04  0.50400001928E-02 0.  1.
       -1    1    3    3    0  502  0.70089197486E+03  0.15747681812E+02 -0.63995360937E+03  0.94923030508E+03  0.50400001928E-02 0. -1.
</event>
<event>
 5   0  0.1401596E-05  0.2409652E+04  0.7818609E-02  0.8435899E-01
       -1   -1    0    0    0  501  0.00000000000E+00  0.00000000000E+00  0.10288920840E+04  0.10288920840E+04  0.50400001928E-02 0.  1.
        1   -1    0    0  501    0  0.00000000000E+00  0.00000000000E+00 -0.14108437442E+04  0.14108437442E+04  0.50400001928E-02 0. -1.
    10030    2    1    2    0    0  0.00000000000E+00  0.00000000000E+00 -0.38195166023E+03  0.24397358282E+04  0.24096522240E+04 0.  0.
        2    1    3    3  502    0 -0.92133347716E+03 -0.77248188918E+03 -0.11240340344E+03  0.12075670459E+04  0.25500000920E-02 0. -1.
       -2    1    3    3    0  502  0.92133347716E+03  0.77248188918E+03 -0.26954825680E+03  0.12321687823E+04  0.25500000920E-02 0.  1.
</event>
<event>
 5   0  0.3215208E-05  0.2399240E+04  0.7818609E-02  0.8439788E-01
       -2   -1    0    0    0  501  0.00000000000E+00  0.00000000000E+00  0.99463311623E+03  0.99463311623E+03  0.25500000920E-02 0. -1.
        2   -1    0    0  501    0  0.00000000000E+00  0.00000000000E+00 -0.14468529902E+04  0.14468529903E+04  0.25500000920E-02 0.  1.
    10030    2    1    2    0    0  0.00000000000E+00  0.00000000000E+00 -0.45221987402E+03  0.24414861065E+04  0.23992397950E+04 0.  0.
        1    1    3    3  502    0  0.76659859349E+03  0.73994159162E+03  0.33486908339E+03  0.11168367229E+04  0.50400001928E-02 0. -1.
       -1    1    3    3    0  502 -0.76659859349E+03 -0.73994159162E+03 -0.78708895741E+03  0.13246493836E+04  0.50400001928E-02 0.  1.
</event>
<event>
 5   0  0.1393026E-05  0.2397225E+04  0.7818609E-02  0.8440543E-01
       -1   -1    0    0    0  501  0.00000000000E+00  0.00000000000E+00  0.12744401791E+04  0.12744401791E+04  0.50400001928E-02 0.  1.
        1   -1    0    0  501    0  0.00000000000E+00  0.00000000000E+00 -0.11272967865E+04  0.11272967865E+04  0.50400001928E-02 0. -1.
    10030    2    1    2    0    0  0.00000000000E+00  0.00000000000E+00  0.14714339260E+03  0.24017369656E+04  0.23972253281E+04 0.  0.
        4    1    3    3  502    0 -0.49193752362E+03 -0.76891708240E+03 -0.70470087437E+03  0.11531872970E+04  0.12699999809E+01 0. -1.
       -4    1    3    3    0  502  0.49193752362E+03  0.76891708240E+03  0.85184426697E+03  0.12485496685E+04  0.12699999809E+01 0.  1.
</event>
<event>
 5   0  0.3347728E-05  0.2369194E+04  0.7818609E-02  0.8451128E-01
        2   -1    0    0  501    0  0.00000000000E+00  0.00000000000E+00  0.16445135151E+04  0.16445135151E+04  0.25500000920E-02 0. -1.
       -2   -1    0    0    0  501  0.00000000000E+00  0.00000000000E+00 -0.85330390473E+03  0.85330390473E+03  0.25500000920E-02 0.  1.
    10030    2    1    2    0    0  0.00000000000E+00  0.00000000000E+00  0.79120961041E+03  0.24978174199E+04  0.23691937902E+04 0.  0.
        3    1    3    3  502    0  0.56367946644E+03 -0.26047865400E+03  0.14591771369E+04  0.15858062924E+04  0.10100000352E+00 0. -1.
       -3    1    3    3    0  502 -0.56367946644E+03  0.26047865400E+03 -0.66796752644E+03  0.91201112748E+03  0.10100000352E+00 0.  1.
</event>
<event>
 5   0  0.1393026E-05  0.2453579E+04  0.7818609E-02  0.8419712E-01
        1   -1    0    0  501    0  0.00000000000E+00  0.00000000000E+00  0.17327336187E+04  0.17327336187E+04  0.50400001928E-02 0.  1.
       -1   -1    0    0    0  501  0.00000000000E+00  0.00000000000E+00 -0.86857722373E+03  0.86857722374E+03  0.50400001928E-02 0. -1.
    10030    2    1    2    0    0  0.00000000000E+00  0.00000000000E+00  0.86415639495E+03  0.26013108424E+04  0.24535793902E+04 0.  0.
        4    1    3    3  502    0  0.37521939186E+03 -0.11561514018E+04  0.60800827562E+03  0.13590994563E+04  0.12699999809E+01 0.  1.
       -4    1    3    3    0  502 -0.37521939186E+03  0.11561514018E+04  0.25614811933E+03  0.12422113861E+04  0.12699999809E+01 0. -1.
</event>
<event>
 5   0  0.3347728E-05  0.2401804E+04  0.7818609E-02  0.8438828E-01
        2   -1    0    0  501    0  0.00000000000E+00  0.00000000000E+00  0.17935586214E+04  0.17935586214E+04  0.25500000920E-02 0. -1.
       -2   -1    0    0    0  501  0.00000000000E+00  0.00000000000E+00 -0.80408085223E+03  0.80408085224E+03  0.25500000920E-02 0.  1.
    10030    2    1    2    0    0  0.00000000000E+00  0.00000000000E+00  0.98947776912E+03  0.25976394736E+04  0.24018044423E+04 0.  0.
        3    1    3    3  502    0  0.89184841727E+03 -0.39195224972E+03 -0.26476320887E+03  0.10095146024E+04  0.10100000352E+00 0.  1.
       -3    1    3    3    0  502 -0.89184841727E+03  0.39195224972E+03  0.12542409780E+04  0.15881248712E+04  0.10100000352E+00 0. -1.
</event>
<event>
 5   0  0.3345974E-05  0.2366269E+04  0.7818609E-02  0.8452241E-01
        2   -1    0    0  501    0  0.00000000000E+00  0.00000000000E+00  0.12620254675E+04  0.12620254675E+04  0.25500000920E-02 0.  1.
       -2   -1    0    0    0  501  0.00000000000E+00  0.00000000000E+00 -0.11091750034E+04  0.11091750034E+04  0.25500000920E-02 0. -1.
    10030    2    1    2    0    0  0.00000000000E+00  0.00000000000E+00  0.15285046413E+03  0.23712004708E+04  0.23662688792E+04 0.  0.
        4    1    3    3  502    0 -0.87703337497E+03  0.66871975182E+03 -0.35275681226E+03  0.11579346392E+04  0.12699999809E+01 0. -1.
       -4    1    3    3    0  502  0.87703337497E+03 -0.66871975182E+03  0.50560727638E+03  0.12132658316E+04  0.12699999809E+01 0.  1.
</event>
<event>
 5   0  0.3310037E-05  0.2392607E+04  0.7818609E-02  0.8442277E-01
       -2   -1    0    0    0  501  0.00000000000E+00  0.00000000000E+00  0.18461628515E+04  0.18461628515E+04  0.25500000920E-02 0.  1.
        2   -1    0    0  501    0  0.00000000000E+00  0.00000000000E+00 -0.77519825132E+03  0.77519825132E+03  0.25500000920E-02 0. -1.
    10030    2    1    2    0    0  0.00000000000E+00  0.00000000000E+00  0.10709646002E+04  0.26213611028E+04  0.23926071254E+04 0.  0.
        2    1    3    3  502    0 -0.35483861374E+03  0.35982927648E+03 -0.65251051533E+03  0.82532267789E+03  0.25500000920E-02 0. -1.
       -2    1    3    3    0  502  0.35483861374E+03 -0.35982927648E+03  0.17234751155E+04  0.17960384249E+04  0.25500000920E-02 0.  1.
</event>
<event>
 5   0  0.3310037E-05  0.2416256E+04  0.7818609E-02  0.8433442E-01
       -2   -1    0    0    0  501  0.00000000000E+00  0.00000000000E+00  0.73617590233E+03  0.73617590233E+03  0.25500000920E-02 0.  1.
        2   -1    0    0  501    0  0.00000000000E+00  0.00000000000E+00 -0.19826423884E+04  0.19826423884E+04  0.25500000920E-02 0. -1.
    10030    2    1    2    0    0  0.00000000000E+00  0.00000000000E+00 -0.12464664861E+04  0.27188182908E+04  0.24162562358E+04 0.  0.
        2    1    3    3  502    0  0.11801915076E+04  0.19031344741E+03 -0.42671457177E+03  0.12693134084E+04  0.25500000920E-02 0.  1.
       -2    1    3    3    0  502 -0.11801915076E+04 -0.19031344741E+03 -0.81975191434E+03  0.14495048824E+04  0.25500000920E-02 0. -1.
</event>
<event>
 5   0  0.1393026E-05  0.2394489E+04  0.7818609E-02  0.8441570E-01
       -1   -1    0    0    0  501  0.00000000000E+00  0.00000000000E+00  0.12270525343E+04  0.12270525343E+04  0.50400001928E-02 0.  1.
        1   -1    0    0  501    0  0.00000000000E+00  0.00000000000E+00 -0.11681607413E+04  0.11681607413E+04  0.50400001928E-02 0. -1.
    10030    2    1    2    0    0  0.00000000000E+00  0.00000000000E+00  0.58891793006E+02  0.23952132756E+04  0.23944891715E+04 0.  0.
        4    1    3    3  502    0 -0.37293044882E+03 -0.21684119066E+03 -0.10877157986E+04  0.11701386641E+04  0.12699999809E+01 0. -1.
       -4    1    3    3    0  502  0.37293044882E+03  0.21684119066E+03  0.11466075916E+04  0.12250746115E+04  0.12699999809E+01 0.  1.
</event>
<event>
 5   0  0.3310037E-05  0.2428729E+04  0.7818609E-02  0.8428825E-01
       -2   -1    0    0    0  501  0.00000000000E+00  0.00000000000E+00  0.14234360848E+04  0.14234360848E+04  0.25500000920E-02 0.  1.
        2   -1    0    0  501    0  0.00000000000E+00  0.00000000000E+00 -0.10360011315E+04  0.10360011315E+04  0.25500000920E-02 0. -1.
    10030    2    1    2    0    0  0.00000000000E+00  0.00000000000E+00  0.38743495323E+03  0.24594372163E+04  0.24287292105E+04 0.  0.
        2    1    3    3  502    0 -0.30423221185E+03  0.46447275303E+03  0.12873675652E+04  0.14020012215E+04  0.25500000920E-02 0.  1.
       -2    1    3    3    0  502  0.30423221185E+03 -0.46447275303E+03 -0.89993261199E+03  0.10574359948E+04  0.25500000920E-02 0. -1.
</event>
<event>
 5   0  0.3320780E-05  0.2438706E+04  0.7818609E-02  0.8425153E-01
       -2   -1    0    0    0  501  0.00000000000E+00  0.00000000000E+00  0.11845797412E+04  0.11845797412E+04  0.25500000920E-02 0. -1.
        2   -1    0    0  501    0  0.00000000000E+00  0.00000000000E+00 -0.12551470904E+04  0.12551470904E+04  0.25500000920E-02 0.  1.
    10030    2    1    2    0    0  0.00000000000E+00  0.00000000000E+00 -0.70567349181E+02  0.24397268315E+04  0.24387060630E+04 0.  0.
        5    1    3    3  502    0  0.51669604940E+03  0.23520954126E+03  0.10442886684E+04  0.11886375599E+04  0.46999998093E+01 0. -1.
       -5    1    3    3    0  502 -0.51669604940E+03 -0.23520954126E+03 -0.11148560176E+04  0.12510892717E+04  0.46999998093E+01 0.  1.
</event>
<event>
 5   0  0.3320780E-05  0.2391199E+04  0.7818609E-02  0.8442806E-01
       -2   -1    0    0    0  501  0.00000000000E+00  0.00000000000E+00  0.10682548213E+04  0.10682548213E+04  0.25500000920E-02 0. -1.
        2   -1    0    0  501    0  0.00000000000E+00  0.00000000000E+00 -0.13381252392E+04  0.13381252392E+04  0.25500000920E-02 0.  1.
    10030    2    1    2    0    0  0.00000000000E+00  0.00000000000E+00 -0.26987041794E+03  0.24063800605E+04  0.23911994800E+04 0.  0.
        5    1    3    3  502    0  0.13802146884E+03 -0.77098072131E+03  0.77411309089E+03  0.11012421922E+04  0.46999998093E+01 0. -1.
       -5    1    3    3    0  502 -0.13802146884E+03  0.77098072131E+03 -0.10439835088E+04  0.13051378683E+04  0.46999998093E+01 0.  1.
</event>
<event>
 5   0  0.3347728E-05  0.2392595E+04  0.7818609E-02  0.8442281E-01
        2   -1    0    0  501    0  0.00000000000E+00  0.00000000000E+00  0.13106536247E+04  0.13106536247E+04  0.25500000920E-02 0. -1.
       -2   -1    0    0    0  501  0.00000000000E+00  0.00000000000E+00 -0.10919194737E+04  0.10919194737E+04  0.25500000920E-02 0.  1.
    10030    2    1    2    0    0  0.00000000000E+00  0.00000000000E+00  0.21873415104E+03  0.24025730984E+04  0.23925954243E+04 0.  0.
        3    1    3    3  502    0  0.64044277040E+01  0.80516713099E+03  0.99781265556E+03  0.12821720755E+04  0.10100000352E+00 0. -1.
       -3    1    3    3    0  502 -0.64044277040E+01 -0.80516713099E+03 -0.77907850452E+03  0.11204010228E+04  0.10100000352E+00 0.  1.
</event>
<event>
 5   0  0.1434943E-05  0.2403935E+04  0.7818609E-02  0.8438032E-01
        1   -1    0    0  501    0  0.00000000000E+00  0.00000000000E+00  0.75597882068E+03  0.75597882069E+03  0.50400001928E-02 0.  1.
       -1   -1    0    0    0  501  0.00000000000E+00  0.00000000000E+00 -0.19110659066E+04  0.19110659066E+04  0.50400001928E-02 0. -1.
    10030    2    1    2    0    0  0.00000000000E+00  0.00000000000E+00 -0.11550870859E+04  0.26670447273E+04  0.24039345668E+04 0.  0.
        5    1    3    3  502    0  0.21077764025E+03 -0.72602834350E+03  0.45915931794E+03  0.88453023603E+03  0.46999998093E+01 0.  1.
       -5    1    3    3    0  502 -0.21077764025E+03  0.72602834350E+03 -0.16142464039E+04  0.17825144913E+04  0.46999998093E+01 0. -1.
</event>
<event>
 5   0  0.1407158E-05  0.2800190E+04  0.7818609E-02  0.8303209E-01
        1   -1    0    0  501    0  0.00000000000E+00  0.00000000000E+00  0.15056738846E+04  0.15056738846E+04  0.50400001928E-02 0. -1.
       -1   -1    0    0    0  501  0.00000000000E+00  0.00000000000E+00 -0.13019193388E+04  0.13019193388E+04  0.50400001928E-02 0.  1.
    10030    2    1    2    0    0  0.00000000000E+00  0.00000000000E+00  0.20375454576E+03  0.28075932234E+04  0.28001899566E+04 0.  0.
        1    1    3    3  502    0  0.13415633543E+04 -0.23150811716E+03  0.42966316250E+03  0.14275849100E+04  0.50400001928E-02 0.  1.
       -1    1    3    3    0  502 -0.13415633543E+04  0.23150811716E+03 -0.22590861674E+03  0.13800083134E+04  0.50400001928E-02 0. -1.
</event>
<event>
 5   0  0.3347728E-05  0.2390989E+04  0.7818609E-02  0.8442885E-01
        2   -1    0    0  501    0  0.00000000000E+00  0.00000000000E+00  0.10507708681E+04  0.10507708681E+04  0.25500000920E-02 0.  1.
       -2   -1    0    0    0  501  0.00000000000E+00  0.00000000000E+00 -0.13601514455E+04  0.13601514455E+04  0.25500000920E-02 0. -1.
    10030    2    1    2    0    0  0.00000000000E+00  0.00000000000E+00 -0.30938057744E+03  0.24109223136E+04  0.23909893476E+04 0.  0.
        3    1    3    3  502    0  0.26784086705E+03  0.26186110506E+03  0.99007057073E+03  0.10585602078E+04  0.10100000352E+00 0.  1.
       -3    1    3    3    0  502 -0.26784086705E+03 -0.26186110506E+03 -0.12994511482E+04  0.13523621058E+04  0.10100000352E+00 0. -1.
</event>
<event>
 5   0  0.1401596E-05  0.2429810E+04  0.7818609E-02  0.8428427E-01
       -1   -1    0    0    0  501  0.00000000000E+00  0.00000000000E+00  0.65968353054E+03  0.65968353056E+03  0.50400001928E-02 0. -1.
        1   -1    0    0  501    0  0.00000000000E+00  0.00000000000E+00 -0.22374281701E+04  0.22374281701E+04  0.50400001928E-02 0.  1.
    10030    2    1    2    0    0  0.00000000000E+00  0.00000000000E+00 -0.15777446396E+04  0.28971117007E+04  0.24298102927E+04 0.  0.
        2    1    3    3  502    0  0.39744924342E+02  0.68477157270E+03 -0.19844684587E+04  0.20996682665E+04  0.25500000920E-02 0.  1.
       -2    1    3    3    0  502 -0.39744924342E+02 -0.68477157270E+03  0.40672381908E+03  0.79744343423E+03  0.25500000920E-02 0. -1.
</event>
<event>
 5   0  0.3345974E-05  0.2399114E+04  0.7818609E-02  0.8439835E-01
        2   -1    0    0  501    0  0.00000000000E+00  0.00000000000E+00  0.64099966127E+03  0.64099966128E+03  0.25500000920E-02 0. -1.
       -2   -1    0    0    0  501  0.00000000000E+00  0.00000000000E+00 -0.22448330933E+04  0.22448330933E+04  0.25500000920E-02 0.  1.
    10030    2    1    2    0    0  0.00000000000E+00  0.00000000000E+00 -0.16038334320E+04  0.28858327546E+04  0.23991142136E+04 0.  0.
        4    1    3    3  502    0 -0.68810622251E+03 -0.28991802520E+03 -0.19312055509E+04  0.20705311221E+04  0.12699999809E+01 0.  1.
       -4    1    3    3    0  502  0.68810622251E+03  0.28991802520E+03  0.32737211889E+03  0.81530163248E+03  0.12699999809E+01 0. -1.
</event>
<event>
 5   0  0.1393026E-05  0.2623043E+04  0.7818609E-02  0.8360416E-01
        1   -1    0    0  501    0  0.00000000000E+00  0.00000000000E+00  0.16859415294E+04  0.16859415294E+04  0.50400001928E-02 0.  1.
       -1   -1    0    0    0  501  0.00000000000E+00  0.00000000000E+00 -0.10202536806E+04  0.10202536806E+04  0.50400001928E-02 0. -1.
    10030    2    1    2    0    0  0.00000000000E+00  0.00000000000E+00  0.66568784877E+03  0.27061952100E+04  0.26230425469E+04 0.  0.
        4    1    3    3  502    0  0.66104051654E+03 -0.58052729956E+03  0.13363552784E+04  0.15999479844E+04  0.12699999809E+01 0.  1.
       -4    1    3    3    0  502 -0.66104051654E+03  0.58052729956E+03 -0.67066742958E+03  0.11062472256E+04  0.12699999809E+01 0. -1.
</event>
<event>
 5   0  0.3345974E-05  0.2399264E+04  0.7818609E-02  0.8439779E-01
       -2   -1    0    0    0  501  0.00000000000E+00  0.00000000000E+00  0.73775470369E+03  0.73775470369E+03  0.25500000920E-02 0.  1.
        2   -1    0    0  501    0  0.00000000000E+00  0.00000000000E+00 -0.19506711350E+04  0.19506711351E+04  0.25500000920E-02 0. -1.
    10030    2    1    2    0    0  0.00000000000E+00  0.00000000000E+00 -0.12129164314E+04  0.26884258387E+04  0.23992638915E+04 0.  0.
        4    1    3    3  502    0 -0.66212742845E+02 -0.83952802871E+03  0.35086544184E+03  0.91230455961E+03  0.12699999809E+01 0.  1.
       -4    1    3    3    0  502  0.66212742845E+02  0.83952802871E+03 -0.15637818732E+04  0.17761212791E+04  0.12699999809E+01 0. -1.
</event>
<event>
 5   0  0.3215208E-05  0.2369898E+04  0.7818609E-02  0.8450860E-01
       -2   -1    0    0    0  501  0.00000000000E+00  0.00000000000E+00  0.11229905604E+04  0.11229905604E+04  0.25500000920E-02 0. -1.
        2   -1    0    0  501    0  0.00000000000E+00  0.00000000000E+00 -0.12503253287E+04  0.12503253287E+04  0.25500000920E-02 0.  1.
    10030    2    1    2    0    0  0.00000000000E+00  0.00000000000E+00 -0.12733476834E+03  0.23733158891E+04  0.23698975012E+04 0.  0.
        1    1    3    3  502    0  0.42081897085E+03 -0.10395310607E+04 -0.44682887193E+03  0.12072155869E+04  0.50400001928E-02 0.  1.
       -1    1    3    3    0  502 -0.42081897085E+03  0.10395310607E+04  0.31949410359E+03  0.11661003022E+04  0.50400001928E-02 0. -1.
</event>
<event>
 5   0  0.3310037E-05  0.2408339E+04  0.7818609E-02  0.8436388E-01
       -2   -1    0    0    0  501  0.00000000000E+00  0.00000000000E+00  0.66080683667E+03  0.66080683668E+03  0.25500000920E-02 0.  1.
        2   -1    0    0  501    0  0.00000000000E+00  0.00000000000E+00 -0.21943242419E+04  0.21943242419E+04  0.25500000920E-02 0. -1.
    10030    2    1    2    0    0  0.00000000000E+00  0.00000000000E+00 -0.15335174053E+04  0.28551310786E+04  0.24083392294E+04 0.  0.
        2    1    3    3  502    0  0.30455602107E+03  0.97559809448E+03 -0.15216636643E+04  0.18330320017E+04  0.25500000920E-02 0. -1.
       -2    1    3    3    0  502 -0.30455602107E+03 -0.97559809448E+03 -0.11853740983E+02  0.10220990770E+04  0.25500000920E-02 0.  1.
</event>
<event>
 5   0  0.1506985E-05  0.2423305E+04  0.7818609E-02  0.8430830E-01
       -1   -1    0    0    0  501  0.00000000000E+00  0.00000000000E+00  0.10473280948E+04  0.10473280948E+04  0.50400001928E-02 0.  1.
        1   -1    0    0  501    0  0.00000000000E+00  0.00000000000E+00 -0.14017594548E+04  0.14017594548E+04  0.50400001928E-02 0. -1.
    10030    2    1    2    0    0  0.00000000000E+00  0.00000000000E+00 -0.35443136006E+03  0.24490875496E+04  0.24233052298E+04 0.  0.
        3    1    3    3  502    0 -0.84337241631E+03  0.52454295420E+03  0.52419983050E+03  0.11230350911E+04  0.10100000352E+00 0.  1.
       -3    1    3    3    0  502  0.84337241631E+03 -0.52454295420E+03 -0.87863119056E+03  0.13260524585E+04  0.10100000352E+00 0. -1.
</event>
<event>
 5   0  0.1407158E-05  0.2156035E+04  0.7818609E-02  0.8536954E-01
       -1   -1    0    0    0  501  0.00000000000E+00  0.00000000000E+00  0.86802742601E+03  0.86802742603E+03  0.50400001928E-02 0.  1.
        1   -1    0    0  501    0  0.00000000000E+00  0.00000000000E+00 -0.13388072072E+04  0.13388072073E+04  0.50400001928E-02 0. -1.
    10030    2    1    2    0    0  0.00000000000E+00  0.00000000000E+00 -0.47077978123E+03  0.22068346333E+04  0.21560346695E+04 0.  0.
        1    1    3    3  502    0 -0.11099814153E+03 -0.92641096694E+03 -0.78807865198E+03  0.12213213454E+04  0.50400001928E-02 0. -1.
       -1    1    3    3    0  502  0.11099814153E+03  0.92641096694E+03  0.31729887075E+03  0.98551328784E+03  0.50400001928E-02 0.  1.
</event>
<event>
 5   0  0.1401596E-05  0.2398957E+04  0.7818609E-02  0.8439894E-01
       -1   -1    0    0    0  501  0.00000000000E+00  0.00000000000E+00  0.94807669944E+03  0.94807669945E+03  0.50400001928E-02 0.  1.
        1   -1    0    0  501    0  0.00000000000E+00  0.00000000000E+00 -0.15175447383E+04  0.15175447383E+04  0.50400001928E-02 0. -1.
    10030    2    1    2    0    0  0.00000000000E+00  0.00000000000E+00 -0.56946803882E+03  0.24656214377E+04  0.23989571123E+04 0.  0.
        2    1    3    3  502    0 -0.31797566724E+03  0.87700633429E+03  0.49020800604E+03  0.10538275592E+04  0.25500000920E-02 0.  1.
       -2    1    3    3    0  502  0.31797566724E+03 -0.87700633429E+03 -0.10596760449E+04  0.14117938785E+04  0.25500000920E-02 0. -1.
</event>
<event>
 5   0  0.3310037E-05  0.2405829E+04  0.7818609E-02  0.8437325E-01
       -2   -1    0    0    0  501  0.00000000000E+00  0.00000000000E+00  0.83865288299E+03  0.83865288300E+03  0.25500000920E-02 0. -1.
        2   -1    0    0  501    0  0.00000000000E+00  0.00000000000E+00 -0.17253893314E+04  0.17253893314E+04  0.25500000920E-02 0.  1.
    10030    2    1    2    0    0  0.00000000000E+00  0.00000000000E+00 -0.88673644844E+03  0.25640422144E+04  0.24058285368E+04 0.  0.
        2    1    3    3  502    0 -0.54489266844E+03 -0.12909160733E+02  0.69949915520E+03  0.88677716179E+03  0.25500000920E-02 0. -1.
       -2    1    3    3    0  502  0.54489266844E+03  0.12909160733E+02 -0.15862356036E+04  0.16772650526E+04  0.25500000920E-02 0.  1.
</event>
<event>
 5   0  0.3320780E-05  0.2414024E+04  0.7818609E-02  0.8434272E-01
        2   -1    0    0  501    0  0.00000000000E+00  0.00000000000E+00  0.25182992035E+04  0.25182992035E+04  0.25500000920E-02 0. -1.
       -2   -1    0    0    0  501  0.00000000000E+00  0.00000000000E+00 -0.57851664305E+03  0.57851664306E+03  0.25500000920E-02 0.  1.
    10030    2    1    2    0    0  0.00000000000E+00  0.00000000000E+00  0.19397825604E+04  0.30968158465E+04  0.24140240276E+04 0.  0.
        5    1    3    3  502    0 -0.13361325247E+03  0.67046326206E+03  0.22459710815E+04  0.23477183979E+04  0.46999998093E+01 0. -1.
       -5    1    3    3    0  502  0.13361325247E+03 -0.67046326206E+03 -0.30618852111E+03  0.74909744858E+03  0.46999998093E+01 0.  1.
</event>
<event>
 5   0  0.1407158E-05  0.2421739E+04  0.7818609E-02  0.8431409E-01
       -1   -1    0    0    0  501  0.00000000000E+00  0.00000000000E+00  0.92155598504E+03  0.92155598506E+03  0.50400001928E-02 0.  1.
        1   -1    0    0  501    0  0.00000000000E+00  0.00000000000E+00 -0.15910097853E+04  0.15910097853E+04  0.50400001928E-02 0. -1.
    10030    2    1    2    0    0  0.00000000000E+00  0.00000000000E+00 -0.66945380026E+03  0.25125657704E+04  0.24217387059E+04 0.  0.
        1    1    3    3  502    0  0.41214422136E+03 -0.41764337549E+02  0.84575010844E+03  0.94175387710E+03  0.50400001928E-02 0.  1.
       -1    1    3    3    0  502 -0.41214422136E+03  0.41764337549E+02 -0.15152039087E+04  0.15708118933E+04  0.50400001928E-02 0. -1.
</event>
<event>
 5   0  0.3215208E-05  0.2446880E+04  0.7818609E-02  0.8422158E-01
       -2   -1    0    0    0  501  0.00000000000E+00  0.00000000000E+00  0.12485214789E+04  0.12485214789E+04  0.25500000920E-02 0. -1.
        2   -1    0    0  501    0  0.00000000000E+00  0.00000000000E+00 -0.11988620301E+04  0.11988620301E+04  0.25500000920E-02 0.  1.
    10030    2    1    2    0    0  0.00000000000E+00  0.00000000000E+00  0.49659448849E+02  0.24473835090E+04  0.24468796413E+04 0.  0.
        1    1    3    3  502    0 -0.54335023548E+03  0.78963873205E+03  0.78527977486E+03  0.12391219191E+04  0.50400001928E-02 0. -1.
       -1    1    3    3    0  502  0.54335023548E+03 -0.78963873205E+03 -0.73562032601E+03  0.12082615899E+04  0.50400001928E-02 0.  1.
</event>
<event>
 5   0  0.1407158E-05  0.2338305E+04  0.7818609E-02  0.8462969E-01
        1   -1    0    0  501    0  0.00000000000E+00  0.00000000000E+00  0.11722500994E+04  0.11722500994E+04  0.50400001928E-02 0.  1.
       -1   -1    0    0    0  501  0.00000000000E+00  0.00000000000E+00 -0.11660635248E+04  0.11660635248E+04  0.50400001928E-02 0. -1.
    10030    2    1    2    0    0  0.00000000000E+00  0.00000000000E+00  0.61865746165E+01  0.23383136242E+04  0.23383054401E+04 0.  0.
        1    1    3    3  502    0 -0.53591993928E+02  0.11106582952E+04  0.36432042580E+03  0.11701125259E+04  0.50400001928E-02 0.  1.
       -1    1    3    3    0  502  0.53591993928E+02 -0.11106582952E+04 -0.35813385118E+03  0.11682010983E+04  0.50400001928E-02 0. -1.
</event>
<event>
 5   0  0.3320780E-05  0.2414509E+04  0.7818609E-02  0.8434092E-01
       -2   -1    0    0    0  501  0.00000000000E+00  0.00000000000E+00  0.95367120471E+03  0.95367120472E+03  0.25500000920E-02 0. -1.
        2   -1    0    0  501    0  0.00000000000E+00  0.00000000000E+00 -0.15282657463E+04  0.15282657463E+04  0.25500000920E-02 0.  1.
    10030    2    1    2    0    0  0.00000000000E+00  0.00000000000E+00 -0.57459454156E+03  0.24819369510E+04  0.24145086750E+04 0.  0.
        5    1    3    3  502    0 -0.23734761290E+03 -0.36674267127E+03  0.86956829447E+03  0.97314191413E+03  0.46999998093E+01 0. -1.
       -5    1    3    3    0  502  0.23734761290E+03  0.36674267127E+03 -0.14441628360E+04  0.15087950369E+04  0.46999998093E+01 0.  1.
</event>
<event>
 5   0  0.3215208E-05  0.2431967E+04  0.7818609E-02  0.8427632E-01
        2   -1    0    0  501    0  0.00000000000E+00  0.00000000000E+00  0.10299142087E+04  0.10299142087E+04  0.25500000920E-02 0.  1.
       -2   -1    0    0    0  501  0.00000000000E+00  0.00000000000E+00 -0.14356685222E+04  0.14356685222E+04  0.25500000920E-02 0. -1.
    10030    2    1    2    0    0  0.00000000000E+00  0.00000000000E+00 -0.40575431355E+03  0.24655827309E+04  0.24319666198E+04 0.  0.
        1    1    3    3  502    0  0.23752474842E+03 -0.89633898762E+03 -0.10003720969E+04  0.13640329612E+04  0.50400001928E-02 0. -1.
       -1    1    3    3    0  502 -0.23752474842E+03  0.89633898762E+03  0.59461778339E+03  0.11015497697E+04  0.50400001928E-02 0.  1.
</event>
<event>
 5   0  0.3320780E-05  0.2388048E+04  0.7818609E-02  0.8443992E-01
       -2   -1    0    0    0  501  0.00000000000E+00  0.00000000000E+00  0.16243839099E+04  0.16243839099E+04  0.25500000920E-02 0.  1.
        2   -1    0    0  501    0  0.00000000000E+00  0.00000000000E+00 -0.87768276206E+03  0.87768276206E+03  0.25500000920E-02 0. -1.
    10030    2    1    2    0    0  0.00000000000E+00  0.00000000000E+00  0.74670114786E+03  0.25020666720E+04  0.23880483720E+04 0.  0.
        5    1    3    3  502    0  0.10460378801E+04 -0.43638312480E+03  0.76684305287E+03  0.13684647734E+04  0.46999998093E+01 0. -1.
       -5    1    3    3    0  502 -0.10460378801E+04  0.43638312480E+03 -0.20141905010E+02  0.11336018986E+04  0.46999998093E+01 0.  1.
</event>
<event>
 5   0  0.3320780E-05  0.2393047E+04  0.7818609E-02  0.8442111E-01
       -2   -1    0    0    0  501  0.00000000000E+00  0.00000000000E+00  0.99295246949E+03  0.99295246950E+03  0.25500000920E-02 0. -1.
        2   -1    0    0  501    0  0.00000000000E+00  0.00000000000E+00 -0.14418298651E+04  0.14418298651E+04  0.25500000920E-02 0.  1.
    10030    2    1    2    0    0  0.00000000000E+00  0.00000000000E+00 -0.44887739562E+03  0.24347823346E+04  0.23930470327E+04 0.  0.
        5    1    3    3  502    0 -0.75016762986E+03 -0.43810526746E+03  0.61268571373E+03  0.10630585930E+04  0.46999998093E+01 0. -1.
       -5    1    3    3    0  502  0.75016762986E+03  0.43810526746E+03 -0.10615631094E+04  0.13717237416E+04  0.46999998093E+01 0.  1.
</event>
<event>
 5   0  0.1147362E-05  0.2389285E+04  0.7818609E-02  0.8443526E-01
        4   -1    0    0  501    0  0.00000000000E+00  0.00000000000E+00  0.14197197598E+04  0.14197203279E+04  0.12699999809E+01 0.  1.
       -4   -1    0    0    0  501  0.00000000000E+00  0.00000000000E+00 -0.10052470645E+04  0.10052478668E+04  0.12699999809E+01 0. -1.
    10030    2    1    2    0    0  0.00000000000E+00  0.00000000000E+00  0.41447269531E+03  0.24249681946E+04  0.23892850667E+04 0.  0.
        1    1    3    3  502    0 -0.17652119833E+03 -0.98593629064E+03  0.86806767672E+03  0.13254326064E+04  0.50400001928E-02 0.  1.
       -1    1    3    3    0  502  0.17652119833E+03  0.98593629064E+03 -0.45359498141E+03  0.10995355883E+04  0.50400001928E-02 0. -1.
</event>
<event>
 5   0  0.3215208E-05  0.2417391E+04  0.7818609E-02  0.8433021E-01
       -2   -1    0    0    0  501  0.00000000000E+00  0.00000000000E+00  0.12781255066E+04  0.12781255066E+04  0.25500000920E-02 0.  1.
        2   -1    0    0  501    0  0.00000000000E+00  0.00000000000E+00 -0.11430372428E+04  0.11430372428E+04  0.25500000920E-02 0. -1.
    10030    2    1    2    0    0  0.00000000000E+00  0.00000000000E+00  0.13508826386E+03  0.24211627494E+04  0.24173912013E+04 0.  0.
        1    1    3    3  502    0 -0.37139309941E+03  0.79468839285E+03 -0.76530755162E+03  0.11641125910E+04  0.50400001928E-02 0. -1.
       -1    1    3    3    0  502  0.37139309941E+03 -0.79468839285E+03  0.90039581547E+03  0.12570501583E+04  0.50400001928E-02 0.  1.
</event>
<event>
 5   0  0.1401596E-05  0.2404103E+04  0.7818609E-02  0.8437969E-01
       -1   -1    0    0    0  501  0.00000000000E+00  0.00000000000E+00  0.79719952524E+03  0.79719952525E+03  0.50400001928E-02 0. -1.
        1   -1    0    0  501    0  0.00000000000E+00  0.00000000000E+00 -0.18125038986E+04  0.18125038986E+04  0.50400001928E-02 0.  1.
    10030    2    1    2    0    0  0.00000000000E+00  0.00000000000E+00 -0.10153043733E+04  0.26097034238E+04  0.24041025331E+04 0.  0.
        2    1    3    3  502    0  0.42723704668E+03  0.93068894846E+03 -0.11909389178E+04  0.15706842199E+04  0.25500000920E-02 0.  1.
       -2    1    3    3    0  502 -0.42723704668E+03 -0.93068894846E+03  0.17563454447E+03  0.10390192039E+04  0.25500000920E-02 0. -1.
</event>
<event>
 5   0  0.3345974E-05  0.2409077E+04  0.7818609E-02  0.8436113E-01
        2   -1    0    0  501    0  0.00000000000E+00  0.00000000000E+00  0.16934168985E+04  0.16934168985E+04  0.25500000920E-02 0.  1.
       -2   -1    0    0    0  501  0.00000000000E+00  0.00000000000E+00 -0.85679642859E+03  0.85679642859E+03  0.25500000920E-02 0. -1.
    10030    2    1    2    0    0  0.00000000000E+00  0.00000000000E+00  0.83662046987E+03  0.25502133270E+04  0.24090774589E+04 0.  0.
        4    1    3    3  502    0  0.13832813337E+03  0.10172955030E+04  0.10852079849E+04  0.14938884819E+04  0.12699999809E+01 0.  1.
       -4    1    3    3    0  502 -0.13832813337E+03 -0.10172955030E+04 -0.24858751501E+03  0.10563248452E+04  0.12699999809E+01 0. -1.
</event>
<event>
 5   0  0.1506985E-05  0.2410794E+04  0.7818609E-02  0.8435473E-01
        1   -1    0    0  501    0  0.00000000000E+00  0.00000000000E+00  0.15773809352E+04  0.15773809352E+04  0.50400001928E-02 0. -1.
       -1   -1    0    0    0  501  0.00000000000E+00  0.00000000000E+00 -0.92113580605E+03  0.92113580607E+03  0.50400001928E-02 0.  1.
    10030    2    1    2    0    0  0.00000000000E+00  0.00000000000E+00  0.65624512912E+03  0.24985167413E+04  0.24107941092E+04 0.  0.
        3    1    3    3  502    0  0.94705299623E+03  0.41217054994E+03 -0.31593041087E+03  0.10800953544E+04  0.10100000352E+00 0. -1.
       -3    1    3    3    0  502 -0.94705299623E+03 -0.41217054994E+03  0.97217553999E+03  0.14184213868E+04  0.10100000352E+00 0.  1.
</event>
<event>
 5   0  0.3347728E-05  0.2388861E+04  0.7818609E-02  0.8443686E-01
        2   -1    0    0  501    0  0.00000000000E+00  0.00000000000E+00  0.91813011516E+03  0.91813011516E+03  0.25500000920E-02 0.  1.
       -2   -1    0    0    0  501  0.00000000000E+00  0.00000000000E+00 -0.15538801441E+04  0.15538801441E+04  0.25500000920E-02 0. -1.
    10030    2    1    2    0    0  0.00000000000E+00  0.00000000000E+00 -0.63575002890E+03  0.24720102592E+04  0.23888609467E+04 0.  0.
        3    1    3    3  502    0  0.76822882237E+03  0.69766878112E+03 -0.92985374893E+03  0.13933934320E+04  0.10100000352E+00 0. -1.
       -3    1    3    3    0  502 -0.76822882237E+03 -0.69766878112E+03  0.29410372003E+03  0.10786168272E+04  0.10100000352E+00 0.  1.
</event>
<event>
 5   0  0.1393026E-05  0.2315508E+04  0.7818609E-02  0.8471832E-01
        1   -1    0    0  501    0  0.00000000000E+00  0.00000000000E+00  0.15889905717E+04  0.15889905717E+04  0.50400001928E-02 0. -1.
       -1   -1    0    0    0  501  0.00000000000E+00  0.00000000000E+00 -0.84355075373E+03  0.84355075375E+03  0.50400001928E-02 0.  1.
    10030    2    1    2    0    0  0.00000000000E+00  0.00000000000E+00  0.74543981793E+03  0.24325413254E+04  0.23155078876E+04 0.  0.
        4    1    3    3  502    0  0.76051691832E+03 -0.59302172708E+02 -0.54221215816E+03  0.93589442144E+03  0.12699999809E+01 0.  1.
       -4    1    3    3    0  502 -0.76051691832E+03  0.59302172708E+02  0.12876519761E+04  0.14966469040E+04  0.12699999809E+01 0. -1.
</event>
<event>
 5   0  0.3215208E-05  0.2397019E+04  0.7818609E-02  0.8440620E-01
        2   -1    0    0  501    0  0.00000000000E+00  0.00000000000E+00  0.10890562302E+04  0.10890562303E+04  0.25500000920E-02 0. -1.
       -2   -1    0    0    0  501  0.00000000000E+00  0.00000000000E+00 -0.13189631937E+04  0.13189631937E+04  0.25500000920E-02 0.  1.
    10030    2    1    2    0    0  0.00000000000E+00  0.00000000000E+00 -0.22990696344E+03  0.24080194239E+04  0.23970190517E+04 0.  0.
        1    1    3    3  502    0  0.93637865622E+03 -0.55281545829E+03  0.39135863689E+03  0.11556692872E+04  0.50400001928E-02 0. -1.
       -1    1    3    3    0  502 -0.93637865622E+03  0.55281545829E+03 -0.62126560033E+03  0.12523501367E+04  0.50400001928E-02 0.  1.
</event>
<event>
 5   0  0.1434943E-05  0.2406781E+04  0.7818609E-02  0.8436969E-01
       -1   -1    0    0    0  501  0.00000000000E+00  0.00000000000E+00  0.10403546754E+04  0.10403546754E+04  0.50400001928E-02 0. -1.
        1   -1    0    0  501    0  0.00000000000E+00  0.00000000000E+00 -0.13919759257E+04  0.13919759257E+04  0.50400001928E-02 0.  1.
    10030    2    1    2    0    0  0.00000000000E+00  0.00000000000E+00 -0.35162125034E+03  0.24323306011E+04  0.24067809724E+04 0.  0.
        5    1    3    3  502    0 -0.43817481272E+02  0.46974382765E+03  0.94298582472E+03  0.10544304581E+04  0.46999998093E+01 0. -1.
       -5    1    3    3    0  502  0.43817481272E+02 -0.46974382765E+03 -0.12946070751E+04  0.13779001430E+04  0.46999998093E+01 0.  1.
</event>
<event>
 5   0  0.1393026E-05  0.2387303E+04  0.7818609E-02  0.8444273E-01
       -1   -1    0    0    0  501  0.00000000000E+00  0.00000000000E+00  0.14778110305E+04  0.14778110305E+04  0.50400001928E-02 0. -1.
        1   -1    0    0  501    0  0.00000000000E+00  0.00000000000E+00 -0.96413115523E+03  0.96413115524E+03  0.50400001928E-02 0.  1.
    10030    2    1    2    0    0  0.00000000000E+00  0.00000000000E+00  0.51367987522E+03  0.24419421857E+04  0.23873027927E+04 0.  0.
        4    1    3    3  502    0  0.28343254161E+03  0.62072953216E+03  0.12586238526E+04  0.14317034515E+04  0.12699999809E+01 0. -1.
       -4    1    3    3    0  502 -0.28343254161E+03 -0.62072953216E+03 -0.74494397739E+03  0.10102387342E+04  0.12699999809E+01 0.  1.
</event>
<event>
 5   0  0.3347728E-05  0.2414034E+04  0.7818609E-02  0.8434268E-01
        2   -1    0    0  501    0  0.00000000000E+00  0.00000000000E+00  0.24257021805E+04  0.24257021805E+04  0.25500000920E-02 0. -1.
       -2   -1    0    0    0  501  0.00000000000E+00  0.00000000000E+00 -0.60060570147E+03  0.60060570148E+03  0.25500000920E-02 0.  1.
    10030    2    1    2    0    0  0.00000000000E+00  0.00000000000E+00  0.18250964790E+04  0.30263078820E+04  0.24140344320E+04 0.  0.
        3    1    3    3  502    0  0.87064452028E+03  0.24704470109E+03  0.19137571404E+04  0.21169599353E+04  0.10100000352E+00 0. -1.
       -3    1    3    3    0  502 -0.87064452028E+03 -0.24704470109E+03 -0.88660661391E+02  0.90934794666E+03  0.10100000352E+00 0.  1.
</event>
<event>
 5   0  0.1434943E-05  0.2384933E+04  0.7818609E-02  0.8445166E-01
       -1   -1    0    0    0  501  0.00000000000E+00  0.00000000000E+00  0.14067744231E+04  0.14067744231E+04  0.50400001928E-02 0. -1.
        1   -1    0    0  501    0  0.00000000000E+00  0.00000000000E+00 -0.10108061859E+04  0.10108061859E+04  0.50400001928E-02 0.  1.
    10030    2    1    2    0    0  0.00000000000E+00  0.00000000000E+00  0.39596823717E+03  0.24175806090E+04  0.23849329459E+04 0.  0.
        5    1    3    3  502    0 -0.66007162661E+03  0.76546377635E+03 -0.44338946339E+03  0.11037416597E+04  0.46999998093E+01 0.  1.
       -5    1    3    3    0  502  0.66007162661E+03 -0.76546377635E+03  0.83935770056E+03  0.13138389493E+04  0.46999998093E+01 0. -1.
</event>
<event>
 5   0  0.1506985E-05  0.2386954E+04  0.7818609E-02  0.8444404E-01
        1   -1    0    0  501    0  0.00000000000E+00  0.00000000000E+00  0.15466385154E+04  0.15466385154E+04  0.50400001928E-02 0.  1.
       -1   -1    0    0    0  501  0.00000000000E+00  0.00000000000E+00 -0.92095684217E+03  0.92095684218E+03  0.50400001928E-02 0. -1.
    10030    2    1    2    0    0  0.00000000000E+00  0.00000000000E+00  0.62568167319E+03  0.24675953576E+04  0.23869539779E+04 0.  0.
        3    1    3    3  502    0 -0.11898172359E+04 -0.90969458897E+02  0.33469298316E+03  0.12393384931E+04  0.10100000352E+00 0.  1.
       -3    1    3    3    0  502  0.11898172359E+04  0.90969458897E+02  0.29098869003E+03  0.12282568645E+04  0.10100000352E+00 0. -1.
</event>
<event>
 5   0  0.1401596E-05  0.2579035E+04  0.7818609E-02  0.8375357E-01
        1   -1    0    0  501    0  0.00000000000E+00  0.00000000000E+00  0.10036199693E+04  0.10036199693E+04  0.50400001928E-02 0.  1.
       -1   -1    0    0    0  501  0.00000000000E+00  0.00000000000E+00 -0.16568582005E+04  0.16568582005E+04  0.50400001928E-02 0. -1.
    10030    2    1    2    0    0  0.00000000000E+00  0.00000000000E+00 -0.65323823123E+03  0.26604781698E+04  0.25790354603E+04 0.  0.
        2    1    3    3  502    0  0.10645356130E+04  0.27609867849E+03 -0.10212243940E+04  0.15007883977E+04  0.25500000920E-02 0. -1.
       -2    1    3    3    0  502 -0.10645356130E+04 -0.27609867849E+03  0.36798616275E+03  0.11596897722E+04  0.25500000920E-02 0.  1.
</event>
<event>
 5   0  0.3310037E-05  0.2348529E+04  0.7818609E-02  0.8459029E-01
        2   -1    0    0  501    0  0.00000000000E+00  0.00000000000E+00  0.11401925975E+04  0.11401925975E+04  0.25500000920E-02 0. -1.
       -2   -1    0    0    0  501  0.00000000000E+00  0.00000000000E+00 -0.12093544475E+04  0.12093544475E+04  0.25500000920E-02 0.  1.
    10030    2    1    2    0    0  0.00000000000E+00  0.00000000000E+00 -0.69161849972E+02  0.23495470450E+04  0.23485288917E+04 0.  0.
        2    1    3    3  502    0 -0.96788402529E+03  0.16269511919E+03  0.61039058707E+03  0.11557879810E+04  0.25500000920E-02 0. -1.
       -2    1    3    3    0  502  0.96788402529E+03 -0.16269511919E+03 -0.67955243704E+03  0.11937590640E+04  0.25500000920E-02 0.  1.
</event>
<event>
 5   0  0.1401596E-05  0.2497041E+04  0.7818609E-02  0.8404040E-01
        1   -1    0    0  501    0  0.00000000000E+00  0.00000000000E+00  0.29496539586E+04  0.29496539586E+04  0.50400001928E-02 0.  1.
       -1   -1    0    0    0  501  0.00000000000E+00  0.00000000000E+00 -0.52847014648E+03  0.52847014650E+03  0.50400001928E-02 0. -1.
    10030    2    1    2    0    0  0.00000000000E+00  0.00000000000E+00  0.24211838121E+04  0.34781241051E+04  0.24970414972E+04 0.  0.
        2    1    3    3  502    0  0.54678235218E+03  0.10617286383E+04  0.70344423364E+03  0.13860275726E+04  0.25500000920E-02 0. -1.
       -2    1    3    3    0  502 -0.54678235218E+03 -0.10617286383E+04  0.17177395785E+04  0.20920965326E+04  0.25500000920E-02 0.  1.
</event>
<event>
 5   0  0.1401596E-05  0.2382314E+04  0.7818609E-02  0.8446155E-01
        1   -1    0    0  501    0  0.00000000000E+00  0.00000000000E+00  0.67042762029E+03  0.67042762031E+03  0.50400001928E-02 0. -1.
       -1   -1    0    0    0  501  0.00000000000E+00  0.00000000000E+00 -0.21163439704E+04  0.21163439704E+04  0.50400001928E-02 0.  1.
    10030    2    1    2    0    0  0.00000000000E+00  0.00000000000E+00 -0.14459163501E+04  0.27867715907E+04  0.23823143805E+04 0.  0.
        2    1    3    3  502    0 -0.91501265980E+03 -0.29521311254E+03  0.99599480123E+02  0.96660178246E+03  0.25500000920E-02 0. -1.
       -2    1    3    3    0  502  0.91501265980E+03  0.29521311254E+03 -0.15455158303E+04  0.18201698083E+04  0.25500000920E-02 0.  1.
</event>
<event>
 5   0  0.1506985E-05  0.2427902E+04  0.7818609E-02  0.8429131E-01
        1   -1    0    0  501    0  0.00000000000E+00  0.00000000000E+00  0.91825459886E+03  0.91825459888E+03  0.50400001928E-02 0. -1.
       -1   -1    0    0    0  501  0.00000000000E+00  0.00000000000E+00 -0.16048669719E+04  0.16048669719E+04  0.50400001928E-02 0.  1.
    10030    2    1    2    0    0  0.00000000000E+00  0.00000000000E+00 -0.68661237299E+03  0.25231215707E+04  0.24279015445E+04 0.  0.
        3    1    3    3  502    0 -0.53396071306E+02  0.94503616910E+03 -0.11332028947E+04  0.14765139052E+04  0.10100000352E+00 0.  1.
       -3    1    3    3    0  502  0.53396071306E+02 -0.94503616910E+03  0.44659052173E+03  0.10466076656E+04  0.10100000352E+00 0. -1.
</event>
<event>
 5   0  0.3215208E-05  0.2427911E+04  0.7818609E-02  0.8429127E-01
       -2   -1    0    0    0  501  0.00000000000E+00  0.00000000000E+00  0.11004927826E+04  0.11004927826E+04  0.25500000920E-02 0.  1.
        2   -1    0    0  501    0  0.00000000000E+00  0.00000000000E+00 -0.13391167584E+04  0.13391167584E+04  0.25500000920E-02 0. -1.
    10030    2    1    2    0    0  0.00000000000E+00  0.00000000000E+00 -0.23862397585E+03  0.24396095410E+04  0.24279113062E+04 0.  0.
        1    1    3    3  502    0  0.30826936602E+03  0.33140632944E+03  0.10125381074E+04  0.11090958373E+04  0.50400001928E-02 0.  1.
       -1    1    3    3    0  502 -0.30826936602E+03 -0.33140632944E+03 -0.12511620833E+04  0.13305137037E+04  0.50400001928E-02 0. -1.
</event>
<event>
 5   0  0.3345974E-05  0.2400121E+04  0.7818609E-02  0.8439458E-01
       -2   -1    0    0    0  501  0.00000000000E+00  0.00000000000E+00  0.11229154002E+04  0.11229154002E+04  0.25500000920E-02 0.  1.
        2   -1    0    0  501    0  0.00000000000E+00  0.00000000000E+00 -0.12825058909E+04  0.12825058909E+04  0.25500000920E-02 0. -1.
    10030    2    1    2    0    0  0.00000000000E+00  0.00000000000E+00 -0.15959049071E+03  0.24054212912E+04  0.24001213435E+04 0.  0.
        4    1    3    3  502    0 -0.50683893873E+03  0.98613541954E+03 -0.53993349774E+03  0.12332390565E+04  0.12699999809E+01 0. -1.
       -4    1    3    3    0  502  0.50683893873E+03 -0.98613541954E+03  0.38034300702E+03  0.11721822347E+04  0.12699999809E+01 0.  1.
</event>
<event>
 5   0  0.1407158E-05  0.2414695E+04  0.7818609E-02  0.8434022E-01
       -1   -1    0    0    0  501  0.00000000000E+00  0.00000000000E+00  0.68678724970E+03  0.68678724972E+03  0.50400001928E-02 0. -1.
        1   -1    0    0  501    0  0.00000000000E+00  0.00000000000E+00 -0.21224734347E+04  0.21224734347E+04  0.50400001928E-02 0.  1.
    10030    2    1    2    0    0  0.00000000000E+00  0.00000000000E+00 -0.14356861850E+04  0.28092606845E+04  0.24146947574E+04 0.  0.
        1    1    3    3  502    0  0.34949507054E+03  0.13358169642E+03 -0.20533235918E+04  0.20871340749E+04  0.50400001928E-02 0.  1.
       -1    1    3    3    0  502 -0.34949507054E+03 -0.13358169642E+03  0.61763740678E+03  0.72212660955E+03  0.50400001928E-02 0. -1.
</event>
<event>
 5   0  0.3215208E-05  0.2412719E+04  0.7818609E-02  0.8434757E-01
       -2   -1    0    0    0  501  0.00000000000E+00  0.00000000000E+00  0.18077041064E+04  0.18077041064E+04  0.25500000920E-02 0.  1.
        2   -1    0    0  501    0  0.00000000000E+00  0.00000000000E+00 -0.80505583264E+03  0.80505583265E+03  0.25500000920E-02 0. -1.
    10030    2    1    2    0    0  0.00000000000E+00  0.00000000000E+00  0.10026482738E+04  0.26127599391E+04  0.24127185784E+04 0.  0.
        1    1    3    3  502    0 -0.83719857454E+03  0.44988492564E+03 -0.30324668936E+03  0.99762540774E+03  0.50400001928E-02 0. -1.
       -1    1    3    3    0  502  0.83719857454E+03 -0.44988492564E+03  0.13058949631E+04  0.16151345313E+04  0.50400001928E-02 0.  1.
</event>
<event>
 5   0  0.3345974E-05  0.2401429E+04  0.7818609E-02  0.8438969E-01
       -2   -1    0    0    0  501  0.00000000000E+00  0.00000000000E+00  0.91374467020E+03  0.91374467020E+03  0.25500000920E-02 0. -1.
        2   -1    0    0  501    0  0.00000000000E+00  0.00000000000E+00 -0.15778100705E+04  0.15778100705E+04  0.25500000920E-02 0.  1.
    10030    2    1    2    0    0  0.00000000000E+00  0.00000000000E+00 -0.66406540034E+03  0.24915547407E+04  0.24014291932E+04 0.  0.
        4    1    3    3  502    0  0.16358275991E+03  0.60352061633E+03  0.73148231354E+03  0.96232242081E+03  0.12699999809E+01 0. -1.
       -4    1    3    3    0  502 -0.16358275991E+03 -0.60352061633E+03 -0.13955477139E+04  0.15292323199E+04  0.12699999809E+01 0.  1.
</event>
<event>
 5   0  0.3320780E-05  0.2396949E+04  0.7818609E-02  0.8440647E-01
       -2   -1    0    0    0  501  0.00000000000E+00  0.00000000000E+00  0.10942176499E+04  0.10942176499E+04  0.25500000920E-02 0.  1.
        2   -1    0    0  501    0  0.00000000000E+00  0.00000000000E+00 -0.13126646909E+04  0.13126646909E+04  0.25500000920E-02 0. -1.
    10030    2    1    2    0    0  0.00000000000E+00  0.00000000000E+00 -0.21844704096E+03  0.24068823408E+04  0.23969487881E+04 0.  0.
        5    1    3    3  502    0  0.89193893582E+02  0.67312500284E+02  0.10889660074E+04  0.10946942855E+04  0.46999998093E+01 0.  1.
       -5    1    3    3    0  502 -0.89193893582E+02 -0.67312500284E+02 -0.13074130484E+04  0.13121880553E+04  0.46999998093E+01 0. -1.
</event>
<event>
 5   0  0.3215208E-05  0.2373390E+04  0.7818609E-02  0.8449534E-01
        2   -1    0    0  501    0  0.00000000000E+00  0.00000000000E+00  0.24938462219E+04  0.24938462219E+04  0.25500000920E-02 0.  1.
       -2   -1    0    0    0  501  0.00000000000E+00  0.00000000000E+00 -0.56468787733E+03  0.56468787734E+03  0.25500000920E-02 0. -1.
    10030    2    1    2    0    0  0.00000000000E+00  0.00000000000E+00  0.19291583446E+04  0.30585340993E+04  0.23733897526E+04 0.  0.
        1    1    3    3  502    0  0.17684092022E+03 -0.93759203353E+03  0.55268349850E+02  0.95572282746E+03  0.50400001928E-02 0. -1.
       -1    1    3    3    0  502 -0.17684092022E+03  0.93759203353E+03  0.18738899947E+04  0.21028112718E+04  0.50400001928E-02 0.  1.
</event>
<event>
 5   0  0.3320780E-05  0.2422316E+04  0.7818609E-02  0.8431196E-01
        2   -1    0    0  501    0  0.00000000000E+00  0.00000000000E+00  0.13647303858E+04  0.13647303858E+04  0.25500000920E-02 0.  1.
       -2   -1    0    0    0  501  0.00000000000E+00  0.00000000000E+00 -0.10748672987E+04  0.10748672987E+04  0.25500000920E-02 0. -1.
    10030    2    1    2    0    0  0.00000000000E+00  0.00000000000E+00  0.28986308703E+03  0.24395976845E+04  0.24223162991E+04 0.  0.
        5    1    3    3  502    0  0.10847588518E+04 -0.51767083967E+03 -0.51183052629E+01  0.12019705287E+04  0.46999998093E+01 0. -1.
       -5    1    3    3    0  502 -0.10847588518E+04  0.51767083967E+03  0.29498139229E+03  0.12376271558E+04  0.46999998093E+01 0.  1.
</event>
<event>
 5   0  0.3215208E-05  0.2371835E+04  0.7818609E-02  0.8450124E-01
       -2   -1    0    0    0  501  0.00000000000E+00  0.00000000000E+00  0.91971855758E+03  0.91971855758E+03  0.25500000920E-02 0.  1.
        2   -1    0    0  501    0  0.00000000000E+00  0.00000000000E+00 -0.15291635650E+04  0.15291635650E+04  0.25500000920E-02 0. -1.
    10030    2    1    2    0    0  0.00000000000E+00  0.00000000000E+00 -0.60944500742E+03  0.24488821226E+04  0.23718348242E+04 0.  0.
        1    1    3    3  502    0  0.11484988769E+04 -0.13961294193E+02 -0.60953368165E+03  0.13002983877E+04  0.50400001928E-02 0. -1.
       -1    1    3    3    0  502 -0.11484988769E+04  0.13961294193E+02  0.88674229316E-01  0.11485837348E+04  0.50400001928E-02 0.  1.
</event>
<event>
 5   0  0.1393026E-05  0.2313443E+04  0.7818609E-02  0.8472639E-01
        1   -1    0    0  501    0  0.00000000000E+00  0.00000000000E+00  0.80840989048E+03  0.80840989050E+03  0.50400001928E-02 0.  1.
       -1   -1    0    0    0  501  0.00000000000E+00  0.00000000000E+00 -0.16551072554E+04  0.16551072554E+04  0.50400001928E-02 0. -1.
    10030    2    1    2    0    0  0.00000000000E+00  0.00000000000E+00 -0.84669736493E+03  0.24635171459E+04  0.23134433860E+04 0.  0.
        4    1    3    3  502    0 -0.17422472617E+03  0.47005262186E+03  0.68672420304E+03  0.85023259551E+03  0.12699999809E+01 0.  1.
       -4    1    3    3    0  502  0.17422472617E+03 -0.47005262186E+03 -0.15334215680E+04  0.16132845504E+04  0.12699999809E+01 0. -1.
</event>
<event>
 5   0  0.1506985E-05  0.2392112E+04  0.7818609E-02  0.8442463E-01
        1   -1    0    0  501    0  0.00000000000E+00  0.00000000000E+00  0.10858660734E+04  0.10858660734E+04  0.50400001928E-02 0.  1.
       -1   -1    0    0    0  501  0.00000000000E+00  0.00000000000E+00 -0.13174272420E+04  0.13174272420E+04  0.50400001928E-02 0. -1.
    10030    2    1    2    0    0  0.00000000000E+00  0.00000000000E+00 -0.23156116858E+03  0.24032933154E+04  0.23921116581E+04 0.  0.
        3    1    3    3  502    0 -0.46636376044E+03 -0.11795156652E+03 -0.12159526233E+04  0.13076499996E+04  0.10100000352E+00 0. -1.
       -3    1    3    3    0  502  0.46636376044E+03  0.11795156652E+03  0.98439145472E+03  0.10956433158E+04  0.10100000352E+00 0.  1.
</event>
<event>
 5   0  0.3215208E-05  0.2453940E+04  0.7818609E-02  0.8419581E-01
       -2   -1    0    0    0  501  0.00000000000E+00  0.00000000000E+00  0.16011509060E+04  0.16011509060E+04  0.25500000920E-02 0.  1.
        2   -1    0    0  501    0  0.00000000000E+00  0.00000000000E+00 -0.94023309719E+03  0.94023309719E+03  0.25500000920E-02 0. -1.
    10030    2    1    2    0    0  0.00000000000E+00  0.00000000000E+00  0.66091780880E+03  0.25413840032E+04  0.24539397510E+04 0.  0.
        1    1    3    3  502    0 -0.80680773552E+03 -0.44652009475E+03  0.11687062387E+04  0.14886884125E+04  0.50400001928E-02 0.  1.
       -1    1    3    3    0  502  0.80680773552E+03  0.44652009475E+03 -0.50778842988E+03  0.10526955907E+04  0.50400001928E-02 0. -1.
</event>
<event>
 5   0  0.1401596E-05  0.2394996E+04  0.7818609E-02  0.8441379E-01
        1   -1    0    0  501    0  0.00000000000E+00  0.00000000000E+00  0.88288016719E+03  0.88288016720E+03  0.50400001928E-02 0. -1.
       -1   -1    0    0    0  501  0.00000000000E+00  0.00000000000E+00 -0.16242316347E+04  0.16242316347E+04  0.50400001928E-02 0.  1.
    10030    2    1    2    0    0  0.00000000000E+00  0.00000000000E+00 -0.74135146750E+03  0.25071118019E+04  0.23949963651E+04 0.  0.
        2    1    3    3  502    0  0.10284825398E+04  0.31284477498E+03  0.18161448173E+03  0.10902440130E+04  0.25500000920E-02 0. -1.
       -2    1    3    3    0  502 -0.10284825398E+04 -0.31284477498E+03 -0.92296594923E+03  0.14168677889E+04  0.25500000920E-02 0.  1.
</event>
<event>
 5   0  0.3310037E-05  0.2422438E+04  0.7818609E-02  0.8431151E-01
       -2   -1    0    0    0  501  0.00000000000E+00  0.00000000000E+00  0.95570263836E+03  0.95570263837E+03  0.25500000920E-02 0.  1.
        2   -1    0    0  501    0  0.00000000000E+00  0.00000000000E+00 -0.15350496836E+04  0.15350496836E+04  0.25500000920E-02 0. -1.
    10030    2    1    2    0    0  0.00000000000E+00  0.00000000000E+00 -0.57934704526E+03  0.24907523220E+04  0.24224376423E+04 0.  0.
        2    1    3    3  502    0 -0.10732463307E+04  0.48575223326E+03 -0.57910449452E+03  0.13126975791E+04  0.25500000920E-02 0. -1.
       -2    1    3    3    0  502  0.10732463307E+04 -0.48575223326E+03 -0.24255073620E+00  0.11780547429E+04  0.25500000920E-02 0.  1.
</event>
<event>
 5   0  0.1393026E-05  0.2396134E+04  0.7818609E-02  0.8440952E-01
        1   -1    0    0  501    0  0.00000000000E+00  0.00000000000E+00  0.48369210253E+03  0.48369210255E+03  0.50400001928E-02 0. -1.
       -1   -1    0    0    0  501  0.00000000000E+00  0.00000000000E+00 -0.29675175815E+04  0.29675175815E+04  0.50400001928E-02 0.  1.
    10030    2    1    2    0    0  0.00000000000E+00  0.00000000000E+00 -0.24838254790E+04  0.34512096841E+04  0.23961342352E+04 0.  0.
        4    1    3    3  502    0 -0.11234902017E+04  0.56005051565E+02 -0.18357672678E+04  0.21530002029E+04  0.12699999809E+01 0.  1.
       -4    1    3    3    0  502  0.11234902017E+04 -0.56005051565E+02 -0.64805821113E+03  0.12982094812E+04  0.12699999809E+01 0. -1.
</event>
<event>
 5   0  0.3320780E-05  0.2374949E+04  0.7818609E-02  0.8448942E-01
        2   -1    0    0  501    0  0.00000000000E+00  0.00000000000E+00  0.19492456824E+04  0.19492456824E+04  0.25500000920E-02 0. -1.
       -2   -1    0    0    0  501  0.00000000000E+00  0.00000000000E+00 -0.72340565746E+03  0.72340565747E+03  0.25500000920E-02 0.  1.
    10030    2    1    2    0    0  0.00000000000E+00  0.00000000000E+00  0.12258400250E+04  0.26726513399E+04  0.23749487190E+04 0.  0.
        5    1    3    3  502    0  0.17662385054E+02 -0.80663437965E+03 -0.36755881212E+03  0.88661860608E+03  0.46999998093E+01 0.  1.
       -5    1    3    3    0  502 -0.17662385054E+02  0.80663437965E+03  0.15933988371E+04  0.17860327338E+04  0.46999998093E+01 0. -1.
</event>
<event>
 5   0  0.1393026E-05  0.2343382E+04  0.7818609E-02  0.8461010E-01
       -1   -1    0    0    0  501  0.00000000000E+00  0.00000000000E+00  0.11702530610E+04  0.11702530610E+04  0.50400001928E-02 0. -1.
        1   -1    0    0  501    0  0.00000000000E+00  0.00000000000E+00 -0.11731308909E+04  0.11731308909E+04  0.50400001928E-02 0.  1.
    10030    2    1    2    0    0  0.00000000000E+00  0.00000000000E+00 -0.28778299070E+01  0.23433839519E+04  0.23433821848E+04 0.  0.
        4    1    3    3  502    0  0.11150886234E+04  0.35782823382E+03  0.35907065840E+02  0.11716461126E+04  0.12699999809E+01 0.  1.
       -4    1    3    3    0  502 -0.11150886234E+04 -0.35782823382E+03 -0.38784895747E+02  0.11717378393E+04  0.12699999809E+01 0. -1.
</event>
<event>
 5   0  0.3215208E-05  0.2543530E+04  0.7818609E-02  0.8387640E-01
       -2   -1    0    0    0  501  0.00000000000E+00  0.00000000000E+00  0.11055973966E+04  0.11055973966E+04  0.25500000920E-02 0.  1.
        2   -1    0    0  501    0  0.00000000000E+00  0.00000000000E+00 -0.14629075984E+04  0.14629075984E+04  0.25500000920E-02 0. -1.
    10030    2    1    2    0    0  0.00000000000E+00  0.00000000000E+00 -0.35731020186E+03  0.25685049950E+04  0.25435304852E+04 0.  0.
        1    1    3    3  502    0  0.28201676446E+03 -0.93210736665E+03  0.64731821092E+03  0.11693495904E+04  0.50400001928E-02 0.  1.
       -1    1    3    3    0  502 -0.28201676446E+03  0.93210736665E+03 -0.10046284128E+04  0.13991554046E+04  0.50400001928E-02 0. -1.
</event>
<event>
 5   0  0.1401596E-05  0.2393410E+04  0.7818609E-02  0.8441975E-01
        1   -1    0    0  501    0  0.00000000000E+00  0.00000000000E+00  0.12550592713E+04  0.12550592713E+04  0.50400001928E-02 0. -1.
       -1   -1    0    0    0  501  0.00000000000E+00  0.00000000000E+00 -0.11410641240E+04  0.11410641240E+04  0.50400001928E-02 0.  1.
    10030    2    1    2    0    0  0.00000000000E+00  0.00000000000E+00  0.11399514736E+03  0.23961233953E+04  0.23934102097E+04 0.  0.
        2    1    3    3  502    0 -0.47258047954E+03  0.44682977591E+03 -0.94868782589E+03  0.11502163924E+04  0.25500000920E-02 0.  1.
       -2    1    3    3    0  502  0.47258047954E+03 -0.44682977591E+03  0.10626829732E+04  0.12459070029E+04  0.25500000920E-02 0. -1.
</event>
<event>
 5   0  0.1401596E-05  0.2409931E+04  0.7818609E-02  0.8435795E-01
       -1   -1    0    0    0  501  0.00000000000E+00  0.00000000000E+00  0.83966744072E+03  0.83966744074E+03  0.50400001928E-02 0.  1.
        1   -1    0    0  501    0  0.00000000000E+00  0.00000000000E+00 -0.17291863362E+04  0.17291863362E+04  0.50400001928E-02 0. -1.
    10030    2    1    2    0    0  0.00000000000E+00  0.00000000000E+00 -0.88951889543E+03  0.25688537769E+04  0.24099306757E+04 0.  0.
        2    1    3    3  502    0 -0.79630286328E+03  0.36297479591E+03 -0.13276892466E+04  0.15901596423E+04  0.25500000920E-02 0. -1.
       -2    1    3    3    0  502  0.79630286328E+03 -0.36297479591E+03  0.43817035112E+03  0.97869413462E+03  0.25500000920E-02 0.  1.
</event>
<event>
 5   0  0.1506985E-05  0.2418267E+04  0.7818609E-02  0.8432696E-01
       -1   -1    0    0    0  501  0.00000000000E+00  0.00000000000E+00  0.13497560980E+04  0.13497560981E+04  0.50400001928E-02 0. -1.
        1   -1    0    0  501    0  0.00000000000E+00  0.00000000000E+00 -0.10831614251E+04  0.10831614251E+04  0.50400001928E-02 0.  1.
    10030    2    1    2    0    0  0.00000000000E+00  0.00000000000E+00  0.26659467297E+03  0.24329175232E+04  0.24182669321E+04 0.  0.
        3    1    3    3  502    0 -0.56688864315E+03  0.10165380096E+04 -0.19624084928E+03  0.11803485671E+04  0.10100000352E+00 0.  1.
       -3    1    3    3    0  502  0.56688864315E+03 -0.10165380096E+04  0.46283552224E+03  0.12525689560E+04  0.10100000352E+00 0. -1.
</event>
<event>
 5   0  0.1434943E-05  0.2393273E+04  0.7818609E-02  0.8442026E-01
       -1   -1    0    0    0  501  0.00000000000E+00  0.00000000000E+00  0.61995687791E+03  0.61995687793E+03  0.50400001928E-02 0.  1.
        1   -1    0    0  501    0  0.00000000000E+00  0.00000000000E+00 -0.23097397186E+04  0.23097397186E+04  0.50400001928E-02 0. -1.
    10030    2    1    2    0    0  0.00000000000E+00  0.00000000000E+00 -0.16897828407E+04  0.29296965965E+04  0.23932730933E+04 0.  0.
        5    1    3    3  502    0  0.10393432374E+04 -0.57023705596E+03 -0.64557006015E+03  0.13498842386E+04  0.46999998093E+01 0.  1.
       -5    1    3    3    0  502 -0.10393432374E+04  0.57023705596E+03 -0.10442127805E+04  0.15798123579E+04  0.46999998093E+01 0. -1.
</event>
<event>
 5   0  0.1393026E-05  0.2413814E+04  0.7818609E-02  0.8434350E-01
        1   -1    0    0  501    0  0.00000000000E+00  0.00000000000E+00  0.17111281481E+04  0.17111281481E+04  0.50400001928E-02 0. -1.
       -1   -1    0    0    0  501  0.00000000000E+00  0.00000000000E+00 -0.85126582714E+03  0.85126582715E+03  0.50400001928E-02 0.  1.
    10030    2    1    2    0    0  0.00000000000E+00  0.00000000000E+00  0.85986232095E+03  0.25623939752E+04  0.24138143411E+04 0.  0.
        4    1    3    3  502    0  0.12695756065E+03  0.81422825579E+03 -0.50612669853E+03  0.96708413419E+03  0.12699999809E+01 0.  1.
       -4    1    3    3    0  502 -0.12695756065E+03 -0.81422825579E+03  0.13659890195E+04  0.15953098411E+04  0.12699999809E+01 0. -1.
</event>
<event>
 5   0  0.3345974E-05  0.2360630E+04  0.7818609E-02  0.8454392E-01
       -2   -1    0    0    0  501  0.00000000000E+00  0.00000000000E+00  0.75822192767E+03  0.75822192768E+03  0.25500000920E-02 0.  1.
        2   -1    0    0  501    0  0.00000000000E+00  0.00000000000E+00 -0.18373827060E+04  0.18373827060E+04  0.25500000920E-02 0. -1.
    10030    2    1    2    0    0  0.00000000000E+00  0.00000000000E+00 -0.10791607784E+04  0.25956046337E+04  0.23606303033E+04 0.  0.
        4    1    3    3  502    0 -0.23380875761E+03 -0.10605209526E+04 -0.31204463654E+02  0.10864375534E+04  0.12699999809E+01 0.  1.
       -4    1    3    3    0  502  0.23380875761E+03  0.10605209526E+04 -0.10479563147E+04  0.15091670803E+04  0.12699999809E+01 0. -1.
</event>
<event>
 5   0  0.3215208E-05  0.2393470E+04  0.7818609E-02  0.8441952E-01
        2   -1    0    0  501    0  0.00000000000E+00  0.00000000000E+00  0.16167476402E+04  0.16167476402E+04  0.25500000920E-02 0. -1.
       -2   -1    0    0    0  501  0.00000000000E+00  0.00000000000E+00 -0.88583697389E+03  0.88583697389E+03  0.25500000920E-02 0.  1.
    10030    2    1    2    0    0  0.00000000000E+00  0.00000000000E+00  0.73091066636E+03  0.25025846141E+04  0.23934701479E+04 0.  0.
        1    1    3    3  502    0  0.92779064427E+02  0.18825226793E+03 -0.86644481349E+03  0.89150069323E+03  0.50400001928E-02 0.  1.
       -1    1    3    3    0  502 -0.92779064427E+02 -0.18825226793E+03  0.15973554799E+04  0.16110839209E+04  0.50400001928E-02 0. -1.
</event>
<event>
 5   0  0.3320780E-05  0.2404187E+04  0.7818609E-02  0.8437938E-01
        2   -1    0    0  501    0  0.00000000000E+00  0.00000000000E+00  0.14252390958E+04  0.14252390958E+04  0.25500000920E-02 0.  1.
       -2   -1    0    0    0  501  0.00000000000E+00  0.00000000000E+00 -0.10138848361E+04  0.10138848361E+04  0.25500000920E-02 0. -1.
    10030    2    1    2    0    0  0.00000000000E+00  0.00000000000E+00  0.41135425972E+03  0.24391239320E+04  0.24041866043E+04 0.  0.
        5    1    3    3  502    0 -0.11267719288E+04 -0.23592000283E+03 -0.14537580484E+03  0.11603574630E+04  0.46999998093E+01 0.  1.
       -5    1    3    3    0  502  0.11267719288E+04  0.23592000283E+03  0.55673006455E+03  0.12787664689E+04  0.46999998093E+01 0. -1.
</event>
<event>
 5   0  0.3310037E-05  0.2396717E+04  0.7818609E-02  0.8440734E-01
        2   -1    0    0  501    0  0.00000000000E+00  0.00000000000E+00  0.13653359273E+04  0.13653359273E+04  0.25500000920E-02 0. -1.
       -2   -1    0    0    0  501  0.00000000000E+00  0.00000000000E+00 -0.10518021833E+04  0.10518021833E+04  0.25500000920E-02 0.  1.
    10030    2    1    2    0    0  0.00000000000E+00  0.00000000000E+00  0.31353374401E+03  0.24171381105E+04  0.23967171791E+04 0.  0.
        2    1    3    3  502    0  0.71515514014E+03 -0.13850104533E+03 -0.80288353367E+03  0.10840901174E+04  0.25500000920E-02 0.  1.
       -2    1    3    3    0  502 -0.71515514014E+03  0.13850104533E+03  0.11164172777E+04  0.13330479931E+04  0.25500000920E-02 0. -1.
</event>
<event>
 5   0  0.1401596E-05  0.2393885E+04  0.7818609E-02  0.8441797E-01
       -1   -1    0    0    0  501  0.00000000000E+00  0.00000000000E+00  0.14403997142E+04  0.14403997142E+04  0.50400001928E-02 0. -1.
        1   -1    0    0  501    0  0.00000000000E+00  0.00000000000E+00 -0.99463425197E+03  0.99463425198E+03  0.50400001928E-02 0.  1.
    10030    2    1    2    0    0  0.00000000000E+00  0.00000000000E+00  0.44576546219E+03  0.24350339661E+04  0.23938846190E+04 0.  0.
        2    1    3    3  502    0 -0.65775564420E+03  0.84776947382E+03  0.76239149545E+03  0.13162812619E+04  0.25500000920E-02 0. -1.
       -2    1    3    3    0  502  0.65775564420E+03 -0.84776947382E+03 -0.31662603326E+03  0.11187527042E+04  0.25500000920E-02 0.  1.
</event>
<event>
 5   0  0.1407158E-05  0.2364984E+04  0.7818609E-02  0.8452730E-01
        1   -1    0    0  501    0  0.00000000000E+00  0.00000000000E+00  0.16307762757E+04  0.16307762757E+04  0.50400001928E-02 0.  1.
       -1   -1    0    0    0  501  0.00000000000E+00  0.00000000000E+00 -0.85743698801E+03  0.85743698802E+03  0.50400001928E-02 0. -1.
    10030    2    1    2    0    0  0.00000000000E+00  0.00000000000E+00  0.77333928766E+03  0.24882132637E+04  0.23649844802E+04 0.  0.
        1    1    3    3  502    0 -0.19907990058E+03  0.26497629885E+03 -0.80757101301E+03  0.87293538526E+03  0.50400001928E-02 0. -1.
       -1    1    3    3    0  502  0.19907990058E+03 -0.26497629885E+03  0.15809103007E+04  0.16152778784E+04  0.50400001928E-02 0.  1.
</event>
<event>
 5   0  0.3320780E-05  0.2398065E+04  0.7818609E-02  0.8440228E-01
       -2   -1    0    0    0  501  0.00000000000E+00  0.00000000000E+00  0.63275694165E+03  0.63275694166E+03  0.25500000920E-02 0. -1.
        2   -1    0    0  501    0  0.00000000000E+00  0.00000000000E+00 -0.22720868856E+04  0.22720868856E+04  0.25500000920E-02 0.  1.
    10030    2    1    2    0    0  0.00000000000E+00  0.00000000000E+00 -0.16393299440E+04  0.29048438273E+04  0.23980648439E+04 0.  0.
        5    1    3    3  502    0 -0.71893682326E+03 -0.52544186345E+03  0.15294744355E+03  0.90353434809E+03  0.46999998093E+01 0. -1.
       -5    1    3    3    0  502  0.71893682326E+03  0.52544186345E+03 -0.17922773875E+04  0.20013094792E+04  0.46999998093E+01 0.  1.
</event>
<event>
 5   0  0.3215208E-05  0.2422027E+04  0.7818609E-02  0.8431303E-01
       -2   -1    0    0    0  501  0.00000000000E+00  0.00000000000E+00  0.12916681411E+04  0.12916681411E+04  0.25500000920E-02 0.  1.
        2   -1    0    0  501    0  0.00000000000E+00  0.00000000000E+00 -0.11353951411E+04  0.11353951411E+04  0.25500000920E-02 0. -1.
    10030    2    1    2    0    0  0.00000000000E+00  0.00000000000E+00  0.15627299996E+03  0.24270632822E+04  0.24220270282E+04 0.  0.
        1    1    3    3  502    0  0.24700007402E+03 -0.11334701921E+04  0.42640776093E+03  0.12359560233E+04  0.50400001928E-02 0.  1.
       -1    1    3    3    0  502 -0.24700007402E+03  0.11334701921E+04 -0.27013476097E+03  0.11911072589E+04  0.50400001928E-02 0. -1.
</event>
<event>
 5   0  0.1434943E-05  0.2339970E+04  0.7818609E-02  0.8462326E-01
        1   -1    0    0  501    0  0.00000000000E+00  0.00000000000E+00  0.17391135450E+04  0.17391135451E+04  0.50400001928E-02 0.  1.
       -1   -1    0    0    0  501  0.00000000000E+00  0.00000000000E+00 -0.78710475367E+03  0.78710475369E+03  0.50400001928E-02 0. -1.
    10030    2    1    2    0    0  0.00000000000E+00  0.00000000000E+00  0.95200879138E+03  0.25262182987E+04  0.23399696908E+04 0.  0.
        5    1    3    3  502    0  0.74203189540E+03 -0.21960019894E+03  0.14233489081E+04  0.16201172134E+04  0.46999998093E+01 0.  1.
       -5    1    3    3    0  502 -0.74203189540E+03  0.21960019894E+03 -0.47134011671E+03  0.90610108530E+03  0.46999998093E+01 0. -1.
</event>
<event>
 5   0  0.1506985E-05  0.2413222E+04  0.7818609E-02  0.8434570E-01
        1   -1    0    0  501    0  0.00000000000E+00  0.00000000000E+00  0.14486724924E+04  0.14486724924E+04  0.50400001928E-02 0.  1.
       -1   -1    0    0    0  501  0.00000000000E+00  0.00000000000E+00 -0.10049960624E+04  0.10049960624E+04  0.50400001928E-02 0. -1.
    10030    2    1    2    0    0  0.00000000000E+00  0.00000000000E+00  0.44367643006E+03  0.24536685548E+04  0.24132220375E+04 0.  0.
        3    1    3    3  502    0 -0.10079325961E+03  0.11482390418E+04 -0.14093009340E+03  0.11612379084E+04  0.10100000352E+00 0. -1.
       -3    1    3    3    0  502  0.10079325961E+03 -0.11482390418E+04  0.58460652345E+03  0.12924306464E+04  0.10100000352E+00 0.  1.
</event>
<event>
 5   0  0.3320780E-05  0.2401230E+04  0.7818609E-02  0.8439043E-01
       -2   -1    0    0    0  501  0.00000000000E+00  0.00000000000E+00  0.58148359683E+03  0.58148359683E+03  0.25500000920E-02 0. -1.
        2   -1    0    0  501    0  0.00000000000E+00  0.00000000000E+00 -0.24789623126E+04  0.24789623126E+04  0.25500000920E-02 0.  1.
    10030    2    1    2    0    0  0.00000000000E+00  0.00000000000E+00 -0.18974787157E+04  0.30604459094E+04  0.24012296199E+04 0.  0.
        5    1    3    3  502    0 -0.11351514863E+04 -0.14844645627E+03 -0.48770262275E+03  0.12443798397E+04  0.46999998093E+01 0. -1.
       -5    1    3    3    0  502  0.11351514863E+04  0.14844645627E+03 -0.14097760930E+04  0.18160660697E+04  0.46999998093E+01 0.  1.
</event>
<event>
 5   0  0.1506985E-05  0.2385086E+04  0.7818609E-02  0.8445108E-01
       -1   -1    0    0    0  501  0.00000000000E+00  0.00000000000E+00  0.82233832458E+03  0.82233832460E+03  0.50400001928E-02 0. -1.
        1   -1    0    0  501    0  0.00000000000E+00  0.00000000000E+00 -0.17294082121E+04  0.17294082121E+04  0.50400001928E-02 0.  1.
    10030    2    1    2    0    0  0.00000000000E+00  0.00000000000E+00 -0.90706988755E+03  0.25517465367E+04  0.23850858699E+04 0.  0.
        3    1    3    3  502    0 -0.11904178801E+03  0.94741314354E+02 -0.17189826409E+04  0.17257022321E+04  0.10100000352E+00 0.  1.
       -3    1    3    3    0  502  0.11904178801E+03 -0.94741314354E+02  0.81191275336E+03  0.82604430463E+03  0.10100000352E+00 0. -1.
</event>
<event>
 5   0  0.3347728E-05  0.2406749E+04  0.7818609E-02  0.8436981E-01
        2   -1    0    0  501    0  0.00000000000E+00  0.00000000000E+00  0.15061795991E+04  0.15061795991E+04  0.25500000920E-02 0. -1.
       -2   -1    0    0    0  501  0.00000000000E+00  0.00000000000E+00 -0.96144573143E+03  0.96144573143E+03  0.25500000920E-02 0.  1.
    10030    2    1    2    0    0  0.00000000000E+00  0.00000000000E+00  0.54473386766E+03  0.24676253305E+04  0.24067487998E+04 0.  0.
        3    1    3    3  502    0  0.31876131999E+03  0.11511720040E+04  0.12271552525E+03  0.12007767787E+04  0.10100000352E+00 0.  1.
       -3    1    3    3    0  502 -0.31876131999E+03 -0.11511720040E+04  0.42201834240E+03  0.12668485519E+04  0.10100000352E+00 0. -1.
</event>
<event>
 5   0  0.1401596E-05  0.2414469E+04  0.7818609E-02  0.8434106E-01
       -1   -1    0    0    0  501  0.00000000000E+00  0.00000000000E+00  0.79113863760E+03  0.79113863761E+03  0.50400001928E-02 0.  1.
        1   -1    0    0  501    0  0.00000000000E+00  0.00000000000E+00 -0.18421748892E+04  0.18421748892E+04  0.50400001928E-02 0. -1.
    10030    2    1    2    0    0  0.00000000000E+00  0.00000000000E+00 -0.10510362516E+04  0.26333135268E+04  0.24144694921E+04 0.  0.
        2    1    3    3  502    0 -0.21926174018E+03  0.29447507530E+03  0.72877522897E+03  0.81602978809E+03  0.25500000920E-02 0.  1.
       -2    1    3    3    0  502  0.21926174018E+03 -0.29447507530E+03 -0.17798114806E+04  0.18172837387E+04  0.25500000920E-02 0. -1.
</event>
<event>
 5   0  0.3215208E-05  0.2354270E+04  0.7818609E-02  0.8456825E-01
       -2   -1    0    0    0  501  0.00000000000E+00  0.00000000000E+00  0.12094367726E+04  0.12094367726E+04  0.25500000920E-02 0.  1.
        2   -1    0    0  501    0  0.00000000000E+00  0.00000000000E+00 -0.11456961369E+04  0.11456961369E+04  0.25500000920E-02 0. -1.
    10030    2    1    2    0    0  0.00000000000E+00  0.00000000000E+00  0.63740635674E+02  0.23551329095E+04  0.23542701954E+04 0.  0.
        1    1    3    3  502    0 -0.11234738240E+04  0.32069642252E+03 -0.11173509749E+03  0.11736798374E+04  0.50400001928E-02 0.  1.
       -1    1    3    3    0  502  0.11234738240E+04 -0.32069642252E+03  0.17547573316E+03  0.11814530721E+04  0.50400001928E-02 0. -1.
</event>
<event>
 5   0  0.1401596E-05  0.2390165E+04  0.7818609E-02  0.8443195E-01
        1   -1    0    0  501    0  0.00000000000E+00  0.00000000000E+00  0.99267319575E+03  0.99267319577E+03  0.50400001928E-02 0.  1.
       -1   -1    0    0    0  501  0.00000000000E+00  0.00000000000E+00 -0.14387631684E+04  0.14387631684E+04  0.50400001928E-02 0. -1.
    10030    2    1    2    0    0  0.00000000000E+00  0.00000000000E+00 -0.44608997260E+03  0.24314363641E+04  0.23901645402E+04 0.  0.
        2    1    3    3  502    0  0.11049610017E+02  0.68467038336E+02 -0.14367143518E+04  0.14383872768E+04  0.25500000920E-02 0. -1.
       -2    1    3    3    0  502 -0.11049610017E+02 -0.68467038336E+02  0.99062437922E+03  0.99304908737E+03  0.25500000920E-02 0.  1.
</event>
<event>
 5   0  0.3345974E-05  0.2353453E+04  0.7818609E-02  0.8457139E-01
        2   -1    0    0  501    0  0.00000000000E+00  0.00000000000E+00  0.22388758292E+04  0.22388758292E+04  0.25500000920E-02 0. -1.
       -2   -1    0    0    0  501  0.00000000000E+00  0.00000000000E+00 -0.61847348434E+03  0.61847348434E+03  0.25500000920E-02 0.  1.
    10030    2    1    2    0    0  0.00000000000E+00  0.00000000000E+00  0.16204023448E+04  0.28573493135E+04  0.23534530674E+04 0.  0.
        4    1    3    3  502    0  0.10379304327E+03 -0.60953684295E+03  0.20257517382E+04  0.21180131908E+04  0.12699999809E+01 0. -1.
       -4    1    3    3    0  502 -0.10379304327E+03  0.60953684295E+03 -0.40534939336E+03  0.73933612271E+03  0.12699999809E+01 0.  1.
</event>
<event>
 5   0  0.1393026E-05  0.2259640E+04  0.7818609E-02  0.8494007E-01
        1   -1    0    0  501    0  0.00000000000E+00  0.00000000000E+00  0.10277143858E+04  0.10277143858E+04  0.50400001928E-02 0.  1.
       -1   -1    0    0    0  501  0.00000000000E+00  0.00000000000E+00 -0.12420698260E+04  0.12420698260E+04  0.50400001928E-02 0. -1.
    10030    2    1    2    0    0  0.00000000000E+00  0.00000000000E+00 -0.21435544013E+03  0.22697842118E+04  0.22596398194E+04 0.  0.
        4    1    3    3  502    0 -0.22321262981E+03 -0.87820556900E+03  0.57070193631E+03  0.10708740414E+04  0.12699999809E+01 0.  1.
       -4    1    3    3    0  502  0.22321262981E+03  0.87820556900E+03 -0.78505737644E+03  0.11989101704E+04  0.12699999809E+01 0. -1.
</event>
<event>
 5   0  0.1147362E-05  0.2396619E+04  0.7818609E-02  0.8440771E-01
       -4   -1    0    0    0  501  0.00000000000E+00  0.00000000000E+00  0.15770166615E+04  0.15770171729E+04  0.12699999809E+01 0.  1.
        4   -1    0    0  501    0  0.00000000000E+00  0.00000000000E+00 -0.91054429677E+03  0.91054518245E+03  0.12699999809E+01 0. -1.
    10030    2    1    2    0    0  0.00000000000E+00  0.00000000000E+00  0.66647236472E+03  0.24875623553E+04  0.23966186719E+04 0.  0.
        5    1    3    3  502    0 -0.48299369261E+02  0.49380682472E+02 -0.90846730879E+03  0.91110165295E+03  0.46999998093E+01 0. -1.
       -5    1    3    3    0  502  0.48299369261E+02 -0.49380682472E+02  0.15749396735E+04  0.15764607024E+04  0.46999998093E+01 0.  1.
</event>
<event>
 5   0  0.1434943E-05  0.2383721E+04  0.7818609E-02  0.8445624E-01
       -1   -1    0    0    0  501  0.00000000000E+00  0.00000000000E+00  0.78749066000E+03  0.78749066002E+03  0.50400001928E-02 0.  1.
        1   -1    0    0  501    0  0.00000000000E+00  0.00000000000E+00 -0.18038702655E+04  0.18038702655E+04  0.50400001928E-02 0. -1.
    10030    2    1    2    0    0  0.00000000000E+00  0.00000000000E+00 -0.10163796055E+04  0.25913609255E+04  0.23837206094E+04 0.  0.
        5    1    3    3  502    0  0.10201690894E+04  0.47412276422E+03 -0.80234399511E+02  0.11278284512E+04  0.46999998093E+01 0. -1.
       -5    1    3    3    0  502 -0.10201690894E+04 -0.47412276422E+03 -0.93614520594E+03  0.14635324742E+04  0.46999998093E+01 0.  1.
</event>
<event>
 5   0  0.1401596E-05  0.2373504E+04  0.7818609E-02  0.8449490E-01
       -1   -1    0    0    0  501  0.00000000000E+00  0.00000000000E+00  0.66957013572E+03  0.66957013574E+03  0.50400001928E-02 0. -1.
        1   -1    0    0  501    0  0.00000000000E+00  0.00000000000E+00 -0.21034092419E+04  0.21034092419E+04  0.50400001928E-02 0.  1.
    10030    2    1    2    0    0  0.00000000000E+00  0.00000000000E+00 -0.14338391062E+04  0.27729793776E+04  0.23735037490E+04 0.  0.
        2    1    3    3  502    0  0.62359697682E+03 -0.32377091633E+03  0.40043530902E+03  0.80873310337E+03  0.25500000920E-02 0. -1.
       -2    1    3    3    0  502 -0.62359697682E+03  0.32377091633E+03 -0.18342744152E+04  0.19642462743E+04  0.25500000920E-02 0.  1.
</event>
<event>
 5   0  0.1506985E-05  0.2415926E+04  0.7818609E-02  0.8433565E-01
        1   -1    0    0  501    0  0.00000000000E+00  0.00000000000E+00  0.93262046171E+03  0.93262046172E+03  0.50400001928E-02 0. -1.
       -1   -1    0    0    0  501  0.00000000000E+00  0.00000000000E+00 -0.15645968473E+04  0.15645968473E+04  0.50400001928E-02 0.  1.
    10030    2    1    2    0    0  0.00000000000E+00  0.00000000000E+00 -0.63197638558E+03  0.24972173090E+04  0.24159263516E+04 0.  0.
        3    1    3    3  502    0 -0.59926822586E+01 -0.11046080779E+04 -0.82129310522E+03  0.13764873021E+04  0.10100000352E+00 0.  1.
       -3    1    3    3    0  502  0.59926822586E+01  0.11046080779E+04  0.18931671964E+03  0.11207300069E+04  0.10100000352E+00 0. -1.
</event>
<event>
 5   0  0.1434943E-05  0.2442709E+04  0.7818609E-02  0.8423685E-01
       -1   -1    0    0    0  501  0.00000000000E+00  0.00000000000E+00  0.22978182529E+04  0.22978182529E+04  0.50400001928E-02 0.  1.
        1   -1    0    0  501    0  0.00000000000E+00  0.00000000000E+00 -0.64918385990E+03  0.64918385992E+03  0.50400001928E-02 0. -1.
    10030    2    1    2    0    0  0.00000000000E+00  0.00000000000E+00  0.16486343930E+04  0.29470021128E+04  0.24427087610E+04 0.  0.
        5    1    3    3  502    0  0.43013644340E+02 -0.35216041737E+02  0.22962802264E+04  0.22969578384E+04  0.46999998093E+01 0.  1.
       -5    1    3    3    0  502 -0.43013644340E+02  0.35216041737E+02 -0.64764583340E+03  0.65004427443E+03  0.46999998093E+01 0. -1.
</event>
<event>
 5   0  0.1434943E-05  0.2418374E+04  0.7818609E-02  0.8432657E-01
       -1   -1    0    0    0  501  0.00000000000E+00  0.00000000000E+00  0.75727172358E+03  0.75727172360E+03  0.50400001928E-02 0.  1.
        1   -1    0    0  501    0  0.00000000000E+00  0.00000000000E+00 -0.19307906481E+04  0.19307906481E+04  0.50400001928E-02 0. -1.
    10030    2    1    2    0    0  0.00000000000E+00  0.00000000000E+00 -0.11735189245E+04  0.26880623717E+04  0.24183739677E+04 0.  0.
        5    1    3    3  502    0  0.96053804269E+03 -0.21209900604E+03  0.19486007847E+03  0.10028020044E+04  0.46999998093E+01 0.  1.
       -5    1    3    3    0  502 -0.96053804269E+03  0.21209900604E+03 -0.13683790030E+04  0.16852603673E+04  0.46999998093E+01 0. -1.
</event>
<event>
 5   0  0.1434943E-05  0.2391522E+04  0.7818609E-02  0.8442684E-01
        1   -1    0    0  501    0  0.00000000000E+00  0.00000000000E+00  0.13273204172E+04  0.13273204172E+04  0.50400001928E-02 0.  1.
       -1   -1    0    0    0  501  0.00000000000E+00  0.00000000000E+00 -0.10772415828E+04  0.10772415828E+04  0.50400001928E-02 0. -1.
    10030    2    1    2    0    0  0.00000000000E+00  0.00000000000E+00  0.25007883446E+03  0.24045620000E+04  0.23915223161E+04 0.  0.
        5    1    3    3  502    0 -0.42544233912E+03  0.10283670613E+04  0.56478283096E+03  0.12480151172E+04  0.46999998093E+01 0.  1.
       -5    1    3    3    0  502  0.42544233912E+03 -0.10283670613E+04 -0.31470399650E+03  0.11565468828E+04  0.46999998093E+01 0. -1.
</event>
<event>
 5   0  0.3345974E-05  0.2361014E+04  0.7818609E-02  0.8454245E-01
        2   -1    0    0  501    0  0.00000000000E+00  0.00000000000E+00  0.19356537996E+04  0.19356537996E+04  0.25500000920E-02 0.  1.
       -2   -1    0    0    0  501  0.00000000000E+00  0.00000000000E+00 -0.71996176005E+03  0.71996176006E+03  0.25500000920E-02 0. -1.
    10030    2    1    2    0    0  0.00000000000E+00  0.00000000000E+00  0.12156920395E+04  0.26556155596E+04  0.23610139486E+04 0.  0.
        4    1    3    3  502    0 -0.57616619642E+03  0.58631128377E+01  0.17667453830E+04  0.18583306280E+04  0.12699999809E+01 0.  1.
       -4    1    3    3    0  502  0.57616619642E+03 -0.58631128377E+01 -0.55105334342E+03  0.79728493162E+03  0.12699999809E+01 0. -1.
</event>
<event>
 5   0  0.1393026E-05  0.2392737E+04  0.7818609E-02  0.8442228E-01
        1   -1    0    0  501    0  0.00000000000E+00  0.00000000000E+00  0.17005217474E+04  0.17005217474E+04  0.50400001928E-02 0. -1.
       -1   -1    0    0    0  501  0.00000000000E+00  0.00000000000E+00 -0.84168172531E+03  0.84168172533E+03  0.50400001928E-02 0.  1.
    10030    2    1    2    0    0  0.00000000000E+00  0.00000000000E+00  0.85884002212E+03  0.25422034728E+04  0.23927374100E+04 0.  0.
        4    1    3    3  502    0  0.46859768676E+03  0.59991011735E+03 -0.55117418396E+03  0.93982473627E+03  0.12699999809E+01 0.  1.
       -4    1    3    3    0  502 -0.46859768676E+03 -0.59991011735E+03  0.14100142061E+04  0.16023787365E+04  0.12699999809E+01 0. -1.
</event>
<event>
 5   0  0.3347728E-05  0.2399395E+04  0.7818609E-02  0.8439730E-01
       -2   -1    0    0    0  501  0.00000000000E+00  0.00000000000E+00  0.12995268389E+04  0.12995268389E+04  0.25500000920E-02 0. -1.
        2   -1    0    0  501    0  0.00000000000E+00  0.00000000000E+00 -0.11075365788E+04  0.11075365788E+04  0.25500000920E-02 0.  1.
    10030    2    1    2    0    0  0.00000000000E+00  0.00000000000E+00  0.19199026010E+03  0.24070634177E+04  0.23993945146E+04 0.  0.
        3    1    3    3  502    0  0.67478403601E+03 -0.85642304252E+03  0.59807409966E+03  0.12435781286E+04  0.10100000352E+00 0. -1.
       -3    1    3    3    0  502 -0.67478403601E+03  0.85642304252E+03 -0.40608383955E+03  0.11634852891E+04  0.10100000352E+00 0.  1.
</event>
<event>
 5   0  0.3215208E-05  0.2395027E+04  0.7818609E-02  0.8441368E-01
       -2   -1    0    0    0  501  0.00000000000E+00  0.00000000000E+00  0.17968122697E+04  0.17968122697E+04  0.25500000920E-02 0. -1.
        2   -1    0    0  501    0  0.00000000000E+00  0.00000000000E+00 -0.79810149605E+03  0.79810149605E+03  0.25500000920E-02 0.  1.
    10030    2    1    2    0    0  0.00000000000E+00  0.00000000000E+00  0.99871077362E+03  0.25949137657E+04  0.23950269815E+04 0.  0.
        1    1    3    3  502    0 -0.52913532304E+03  0.10389146692E+04  0.79550001930E+03  0.14114347880E+04  0.50400001928E-02 0.  1.
       -1    1    3    3    0  502  0.52913532304E+03 -0.10389146692E+04  0.20321075432E+03  0.11834789777E+04  0.50400001928E-02 0. -1.
</event>
<event>
 5   0  0.1393026E-05  0.2390701E+04  0.7818609E-02  0.8442993E-01
       -1   -1    0    0    0  501  0.00000000000E+00  0.00000000000E+00  0.90869148621E+03  0.90869148622E+03  0.50400001928E-02 0. -1.
        1   -1    0    0  501    0  0.00000000000E+00  0.00000000000E+00 -0.15724400330E+04  0.15724400330E+04  0.50400001928E-02 0.  1.
    10030    2    1    2    0    0  0.00000000000E+00  0.00000000000E+00 -0.66374854679E+03  0.24811315192E+04  0.23907010441E+04 0.  0.
        4    1    3    3  502    0 -0.19471853538E+03  0.49442119291E+03 -0.14431206001E+04  0.15378446941E+04  0.12699999809E+01 0.  1.
       -4    1    3    3    0  502  0.19471853538E+03 -0.49442119291E+03  0.77937205329E+03  0.94328682509E+03  0.12699999809E+01 0. -1.
</event>
<event>
 5   0  0.3215208E-05  0.2325289E+04  0.7818609E-02  0.8468016E-01
       -2   -1    0    0    0  501  0.00000000000E+00  0.00000000000E+00  0.83595915845E+03  0.83595915845E+03  0.25500000920E-02 0.  1.
        2   -1    0    0  501    0  0.00000000000E+00  0.00000000000E+00 -0.16169953117E+04  0.16169953117E+04  0.25500000920E-02 0. -1.
    10030    2    1    2    0    0  0.00000000000E+00  0.00000000000E+00 -0.78103615328E+03  0.24529544702E+04  0.23252888337E+04 0.  0.
        1    1    3    3  502    0 -0.25861278332E+03  0.57948526446E+03  0.63716457730E+03  0.89925660520E+03  0.50400001928E-02 0.  1.
       -1    1    3    3    0  502  0.25861278332E+03 -0.57948526446E+03 -0.14182007306E+04  0.15536978650E+04  0.50400001928E-02 0. -1.
</event>
<event>
 5   0  0.3215208E-05  0.2425821E+04  0.7818609E-02  0.8429899E-01
       -2   -1    0    0    0  501  0.00000000000E+00  0.00000000000E+00  0.76057861762E+03  0.76057861763E+03  0.25500000920E-02 0. -1.
        2   -1    0    0  501    0  0.00000000000E+00  0.00000000000E+00 -0.19342534195E+04  0.19342534195E+04  0.25500000920E-02 0.  1.
    10030    2    1    2    0    0  0.00000000000E+00  0.00000000000E+00 -0.11736748019E+04  0.26948320371E+04  0.24258209266E+04 0.  0.
        1    1    3    3  502    0 -0.11848257302E+04 -0.24944106324E+03 -0.66631831588E+03  0.13820321823E+04  0.50400001928E-02 0. -1.
       -1    1    3    3    0  502  0.11848257302E+04  0.24944106324E+03 -0.50735648599E+03  0.13127998548E+04  0.50400001928E-02 0.  1.
</event>
<event>
 5   0  0.1401596E-05  0.2415861E+04  0.7818609E-02  0.8433589E-01
       -1   -1    0    0    0  501  0.00000000000E+00  0.00000000000E+00  0.10500733292E+04  0.10500733292E+04  0.50400001928E-02 0.  1.
        1   -1    0    0  501    0  0.00000000000E+00  0.00000000000E+00 -0.13895183422E+04  0.13895183422E+04  0.50400001928E-02 0. -1.
    10030    2    1    2    0    0  0.00000000000E+00  0.00000000000E+00 -0.33944501299E+03  0.24395916714E+04  0.24158610487E+04 0.  0.
        2    1    3    3  502    0  0.92636106060E+03  0.35879454579E+03 -0.86365363911E+03  0.13163494783E+04  0.25500000920E-02 0. -1.
       -2    1    3    3    0  502 -0.92636106060E+03 -0.35879454579E+03  0.52420862612E+03  0.11232421931E+04  0.25500000920E-02 0.  1.
</event>
<event>
 5   0  0.3215208E-05  0.2415991E+04  0.7818609E-02  0.8433541E-01
        2   -1    0    0  501    0  0.00000000000E+00  0.00000000000E+00  0.16509969253E+04  0.16509969253E+04  0.25500000920E-02 0. -1.
       -2   -1    0    0    0  501  0.00000000000E+00  0.00000000000E+00 -0.88386199028E+03  0.88386199028E+03  0.25500000920E-02 0.  1.
    10030    2    1    2    0    0  0.00000000000E+00  0.00000000000E+00  0.76713493499E+03  0.25348589156E+04  0.24159912486E+04 0.  0.
        1    1    3    3  502    0 -0.93944730158E+03 -0.42792632937E+03 -0.27465108651E+03  0.10682300291E+04  0.50400001928E-02 0.  1.
       -1    1    3    3    0  502  0.93944730158E+03  0.42792632937E+03  0.10417860215E+04  0.14666288864E+04  0.50400001928E-02 0. -1.
</event>
<event>
 5   0  0.1393026E-05  0.2391270E+04  0.7818609E-02  0.8442779E-01
        1   -1    0    0  501    0  0.00000000000E+00  0.00000000000E+00  0.20830399391E+04  0.20830399391E+04  0.50400001928E-02 0.  1.
       -1   -1    0    0    0  501  0.00000000000E+00  0.00000000000E+00 -0.68627725640E+03  0.68627725642E+03  0.50400001928E-02 0. -1.
    10030    2    1    2    0    0  0.00000000000E+00  0.00000000000E+00  0.13967626827E+04  0.27693171955E+04  0.23912699006E+04 0.  0.
        4    1    3    3  502    0 -0.47055231172E+03  0.10918962577E+04  0.55242277334E+03  0.13110413605E+04  0.12699999809E+01 0. -1.
       -4    1    3    3    0  502  0.47055231172E+03 -0.10918962577E+04  0.84433990937E+03  0.14582758350E+04  0.12699999809E+01 0.  1.
</event>
<event>
 5   0  0.1401596E-05  0.2259402E+04  0.7818609E-02  0.8494102E-01
        1   -1    0    0  501    0  0.00000000000E+00  0.00000000000E+00  0.90155029989E+03  0.90155029990E+03  0.50400001928E-02 0.  1.
       -1   -1    0    0    0  501  0.00000000000E+00  0.00000000000E+00 -0.14155891483E+04  0.14155891483E+04  0.50400001928E-02 0. -1.
    10030    2    1    2    0    0  0.00000000000E+00  0.00000000000E+00 -0.51403884838E+03  0.23171394482E+04  0.22594024176E+04 0.  0.
        2    1    3    3  502    0  0.69027456793E+03  0.88182857175E+03 -0.40956249620E+03  0.11924101842E+04  0.25500000920E-02 0. -1.
       -2    1    3    3    0  502 -0.69027456793E+03 -0.88182857175E+03 -0.10447635218E+03  0.11247292640E+04  0.25500000920E-02 0.  1.
</event>
<event>
 5   0  0.1393026E-05  0.2384397E+04  0.7818609E-02  0.8445368E-01
        1   -1    0    0  501    0  0.00000000000E+00  0.00000000000E+00  0.17746308998E+04  0.17746308998E+04  0.50400001928E-02 0.  1.
       -1   -1    0    0    0  501  0.00000000000E+00  0.00000000000E+00 -0.80091976860E+03  0.80091976862E+03  0.50400001928E-02 0. -1.
    10030    2    1    2    0    0  0.00000000000E+00  0.00000000000E+00  0.97371113119E+03  0.25755506684E+04  0.23843967536E+04 0.  0.
        4    1    3    3  502    0 -0.55798100703E+03 -0.68561895824E+03 -0.37722481734E+03  0.96110162616E+03  0.12699999809E+01 0. -1.
       -4    1    3    3    0  502  0.55798100703E+03  0.68561895824E+03  0.13509359485E+04  0.16144490423E+04  0.12699999809E+01 0.  1.
</event>
<event>
 5   0  0.3215208E-05  0.2402228E+04  0.7818609E-02  0.8438670E-01
       -2   -1    0    0    0  501  0.00000000000E+00  0.00000000000E+00  0.85200970698E+03  0.85200970698E+03  0.25500000920E-02 0. -1.
        2   -1    0    0  501    0  0.00000000000E+00  0.00000000000E+00 -0.16932616317E+04  0.16932616317E+04  0.25500000920E-02 0.  1.
    10030    2    1    2    0    0  0.00000000000E+00  0.00000000000E+00 -0.84125192475E+03  0.25452713387E+04  0.24022284210E+04 0.  0.
        1    1    3    3  502    0 -0.65538053676E+03  0.10033311311E+04 -0.33534508586E+03  0.12444490079E+04  0.50400001928E-02 0.  1.
       -1    1    3    3    0  502  0.65538053676E+03 -0.10033311311E+04 -0.50590683888E+03  0.13008223308E+04  0.50400001928E-02 0. -1.
</event>
<event>
 5   0  0.1407158E-05  0.2390643E+04  0.7818609E-02  0.8443015E-01
        1   -1    0    0  501    0  0.00000000000E+00  0.00000000000E+00  0.13762470574E+04  0.13762470574E+04  0.50400001928E-02 0. -1.
       -1   -1    0    0    0  501  0.00000000000E+00  0.00000000000E+00 -0.10381812330E+04  0.10381812330E+04  0.50400001928E-02 0.  1.
    10030    2    1    2    0    0  0.00000000000E+00  0.00000000000E+00  0.33806582447E+03  0.24144282904E+04  0.23906433167E+04 0.  0.
        1    1    3    3  502    0 -0.10111165949E+04 -0.56341703491E+03 -0.13226109102E+03  0.11650272614E+04  0.50400001928E-02 0.  1.
       -1    1    3    3    0  502  0.10111165949E+04  0.56341703491E+03  0.47032691549E+03  0.12494010290E+04  0.50400001928E-02 0. -1.
</event>
<event>
 5   0  0.1393026E-05  0.2348632E+04  0.7818609E-02  0.8458989E-01
        1   -1    0    0  501    0  0.00000000000E+00  0.00000000000E+00  0.16776693121E+04  0.16776693121E+04  0.50400001928E-02 0. -1.
       -1   -1    0    0    0  501  0.00000000000E+00  0.00000000000E+00 -0.82198473109E+03  0.82198473110E+03  0.50400001928E-02 0.  1.
    10030    2    1    2    0    0  0.00000000000E+00  0.00000000000E+00  0.85568458099E+03  0.24996540432E+04  0.23486324177E+04 0.  0.
        4    1    3    3  502    0 -0.11704702725E+04 -0.34977512281E+02  0.33388871830E+03  0.12176647217E+04  0.12699999809E+01 0.  1.
       -4    1    3    3    0  502  0.11704702725E+04  0.34977512281E+02  0.52179586270E+03  0.12819893215E+04  0.12699999809E+01 0. -1.
</event>
<event>
 5   0  0.3310037E-05  0.2375106E+04  0.7818609E-02  0.8448883E-01
       -2   -1    0    0    0  501  0.00000000000E+00  0.00000000000E+00  0.12241129221E+04  0.12241129221E+04  0.25500000920E-02 0. -1.
        2   -1    0    0  501    0  0.00000000000E+00  0.00000000000E+00 -0.11520846792E+04  0.11520846792E+04  0.25500000920E-02 0.  1.
    10030    2    1    2    0    0  0.00000000000E+00  0.00000000000E+00  0.72028242947E+02  0.23761976013E+04  0.23751056761E+04 0.  0.
        2    1    3    3  502    0 -0.11036932508E+04 -0.24032307895E+03 -0.33074378721E+03  0.11769814897E+04  0.25500000920E-02 0.  1.
       -2    1    3    3    0  502  0.11036932508E+04  0.24032307895E+03  0.40277203016E+03  0.11992161117E+04  0.25500000920E-02 0. -1.
</event>
<event>
 5   0  0.3310037E-05  0.2400657E+04  0.7818609E-02  0.8439257E-01
       -2   -1    0    0    0  501  0.00000000000E+00  0.00000000000E+00  0.92549111069E+03  0.92549111069E+03  0.25500000920E-02 0.  1.
        2   -1    0    0  501    0  0.00000000000E+00  0.00000000000E+00 -0.15567831814E+04  0.15567831814E+04  0.25500000920E-02 0. -1.
    10030    2    1    2    0    0  0.00000000000E+00  0.00000000000E+00 -0.63129207073E+03  0.24822742921E+04  0.24006574064E+04 0.  0.
        2    1    3    3  502    0  0.79450237494E+02 -0.22205534983E+03  0.90129859704E+03  0.93164375147E+03  0.25500000920E-02 0.  1.
       -2    1    3    3    0  502 -0.79450237494E+02  0.22205534983E+03 -0.15325906678E+04  0.15506305406E+04  0.25500000920E-02 0. -1.
</event>
<event>
 5   0  0.3320780E-05  0.2487985E+04  0.7818609E-02  0.8407278E-01
        2   -1    0    0  501    0  0.00000000000E+00  0.00000000000E+00  0.56680567475E+03  0.56680567475E+03  0.25500000920E-02 0.  1.
       -2   -1    0    0    0  501  0.00000000000E+00  0.00000000000E+00 -0.27302437756E+04  0.27302437756E+04  0.25500000920E-02 0. -1.
    10030    2    1    2    0    0  0.00000000000E+00  0.00000000000E+00 -0.21634381008E+04  0.32970494503E+04  0.24879852616E+04 0.  0.
        5    1    3    3  502    0  0.80428586350E+02  0.23036983068E+03 -0.26982081621E+04  0.27092228391E+04  0.46999998093E+01 0. -1.
       -5    1    3    3    0  502 -0.80428586350E+02 -0.23036983068E+03  0.53477006124E+03  0.58782661116E+03  0.46999998093E+01 0.  1.
</event>
<event>
 5   0  0.3215208E-05  0.2377939E+04  0.7818609E-02  0.8447809E-01
       -2   -1    0    0    0  501  0.00000000000E+00  0.00000000000E+00  0.63726805131E+03  0.63726805132E+03  0.25500000920E-02 0. -1.
        2   -1    0    0  501    0  0.00000000000E+00  0.00000000000E+00 -0.22182957256E+04  0.22182957256E+04  0.25500000920E-02 0.  1.
    10030    2    1    2    0    0  0.00000000000E+00  0.00000000000E+00 -0.15810276743E+04  0.28555637769E+04  0.23779394394E+04 0.  0.
        1    1    3    3  502    0  0.69291675251E+03  0.94114951444E+03 -0.52809728685E+03  0.12824908494E+04  0.50400001928E-02 0. -1.
       -1    1    3    3    0  502 -0.69291675251E+03 -0.94114951444E+03 -0.10529303874E+04  0.15730729275E+04  0.50400001928E-02 0.  1.
</event>
<event>
 5   0  0.1506985E-05  0.2138201E+04  0.7818609E-02  0.8544600E-01
       -1   -1    0    0    0  501  0.00000000000E+00  0.00000000000E+00  0.11089656702E+04  0.11089656703E+04  0.50400001928E-02 0.  1.
        1   -1    0    0  501    0  0.00000000000E+00  0.00000000000E+00 -0.10306687300E+04  0.10306687300E+04  0.50400001928E-02 0. -1.
    10030    2    1    2    0    0  0.00000000000E+00  0.00000000000E+00  0.78296940209E+02  0.21396344003E+04  0.21382013367E+04 0.  0.
        3    1    3    3  502    0 -0.91890152476E+03  0.53167026145E+03 -0.87122273118E+02  0.10651964982E+04  0.10100000352E+00 0. -1.
       -3    1    3    3    0  502  0.91890152476E+03 -0.53167026145E+03  0.16541921333E+03  0.10744379021E+04  0.10100000352E+00 0.  1.
</event>
<event>
 5   0  0.3345974E-05  0.2421908E+04  0.7818609E-02  0.8431347E-01
        2   -1    0    0  501    0  0.00000000000E+00  0.00000000000E+00  0.25980144382E+04  0.25980144382E+04  0.25500000920E-02 0. -1.
       -2   -1    0    0    0  501  0.00000000000E+00  0.00000000000E+00 -0.56443486677E+03  0.56443486677E+03  0.25500000920E-02 0.  1.
    10030    2    1    2    0    0  0.00000000000E+00  0.00000000000E+00  0.20335795714E+04  0.31624493050E+04  0.24219082834E+04 0.  0.
        4    1    3    3  502    0 -0.11463887919E+04  0.37739243719E+03  0.88768372800E+03  0.14982043678E+04  0.12699999809E+01 0. -1.
       -4    1    3    3    0  502  0.11463887919E+04 -0.37739243719E+03  0.11458958434E+04  0.16642449372E+04  0.12699999809E+01 0.  1.
</event>
<event>
 5   0  0.3320780E-05  0.2398335E+04  0.7818609E-02  0.8440127E-01
       -2   -1    0    0    0  501  0.00000000000E+00  0.00000000000E+00  0.10119104120E+04  0.10119104120E+04  0.25500000920E-02 0. -1.
        2   -1    0    0  501    0  0.00000000000E+00  0.00000000000E+00 -0.14210775259E+04  0.14210775259E+04  0.25500000920E-02 0.  1.
    10030    2    1    2    0    0  0.00000000000E+00  0.00000000000E+00 -0.40916711388E+03  0.24329879379E+04  0.23983353766E+04 0.  0.
        5    1    3    3  502    0 -0.40046157824E+03  0.25926214395E+03 -0.13206590000E+04  0.14041896664E+04  0.46999998093E+01 0.  1.
       -5    1    3    3    0  502  0.40046157824E+03 -0.25926214395E+03  0.91149188612E+03  0.10287982715E+04  0.46999998093E+01 0. -1.
</event>
<event>
 5   0  0.3215208E-05  0.2470235E+04  0.7818609E-02  0.8413667E-01
        2   -1    0    0  501    0  0.00000000000E+00  0.00000000000E+00  0.24661935720E+04  0.24661935720E+04  0.25500000920E-02 0.  1.
       -2   -1    0    0    0  501  0.00000000000E+00  0.00000000000E+00 -0.61857079235E+03  0.61857079236E+03  0.25500000920E-02 0. -1.
    10030    2    1    2    0    0  0.00000000000E+00  0.00000000000E+00  0.18476227796E+04  0.30847643643E+04  0.24702350592E+04 0.  0.
        1    1    3    3  502    0 -0.11914665699E+03  0.42698847444E+02 -0.61045130436E+03  0.62343396801E+03  0.50400001928E-02 0. -1.
       -1    1    3    3    0  502  0.11914665699E+03 -0.42698847444E+02  0.24580740840E+04  0.24613303963E+04  0.50400001928E-02 0.  1.
</event>
<event>
 5   0  0.1407158E-05  0.2399619E+04  0.7818609E-02  0.8439646E-01
       -1   -1    0    0    0  501  0.00000000000E+00  0.00000000000E+00  0.18627333849E+04  0.18627333849E+04  0.50400001928E-02 0. -1.
        1   -1    0    0  501    0  0.00000000000E+00  0.00000000000E+00 -0.77281206576E+03  0.77281206577E+03  0.50400001928E-02 0.  1.
    10030    2    1    2    0    0  0.00000000000E+00  0.00000000000E+00  0.10899213191E+04  0.26355454507E+04  0.23996189991E+04 0.  0.
        1    1    3    3  502    0 -0.28796557322E+03  0.89922982638E+03 -0.26809491980E+03  0.98153621332E+03  0.50400001928E-02 0.  1.
       -1    1    3    3    0  502  0.28796557322E+03 -0.89922982638E+03  0.13580162389E+04  0.16540092374E+04  0.50400001928E-02 0. -1.
</event>
<event>
 5   0  0.1147362E-05  0.2408133E+04  0.7818609E-02  0.8436465E-01
        4   -1    0    0  501    0  0.00000000000E+00  0.00000000000E+00  0.88129693708E+03  0.88129785215E+03  0.12699999809E+01 0. -1.
       -4   -1    0    0    0  501  0.00000000000E+00  0.00000000000E+00 -0.16450464193E+04  0.16450469096E+04  0.12699999809E+01 0.  1.
    10030    2    1    2    0    0  0.00000000000E+00  0.00000000000E+00 -0.76374948225E+03  0.25263447617E+04  0.24081330078E+04 0.  0.
        5    1    3    3  502    0  0.73194517064E+03  0.39265189867E+03 -0.12963495348E+04  0.15396309469E+04  0.46999998093E+01 0.  1.
       -5    1    3    3    0  502 -0.73194517064E+03 -0.39265189867E+03  0.53260005253E+03  0.98671381479E+03  0.46999998093E+01 0. -1.
</event>
<event>
 5   0  0.1401596E-05  0.2383187E+04  0.7818609E-02  0.8445825E-01
       -1   -1    0    0    0  501  0.00000000000E+00  0.00000000000E+00  0.10862168209E+04  0.10862168209E+04  0.50400001928E-02 0.  1.
        1   -1    0    0  501    0  0.00000000000E+00  0.00000000000E+00 -0.13071933306E+04  0.13071933306E+04  0.50400001928E-02 0. -1.
    10030    2    1    2    0    0  0.00000000000E+00  0.00000000000E+00 -0.22097650967E+03  0.23934101515E+04  0.23831872640E+04 0.  0.
        2    1    3    3  502    0  0.26490393190E+03  0.11326152563E+04  0.14927930214E+03  0.11727215023E+04  0.25500000920E-02 0. -1.
       -2    1    3    3    0  502 -0.26490393190E+03 -0.11326152563E+04 -0.37025581181E+03  0.12206886491E+04  0.25500000920E-02 0.  1.
</event>
<event>
 5   0  0.3310037E-05  0.2415286E+04  0.7818609E-02  0.8433803E-01
       -2   -1    0    0    0  501  0.00000000000E+00  0.00000000000E+00  0.11058242734E+04  0.11058242734E+04  0.25500000920E-02 0.  1.
        2   -1    0    0  501    0  0.00000000000E+00  0.00000000000E+00 -0.13188365780E+04  0.13188365780E+04  0.25500000920E-02 0. -1.
    10030    2    1    2    0    0  0.00000000000E+00  0.00000000000E+00 -0.21301230462E+03  0.24246608514E+04  0.24152859049E+04 0.  0.
        2    1    3    3  502    0  0.23269996437E+03  0.69788907163E+03 -0.10679306932E+04  0.12967938908E+04  0.25500000920E-02 0. -1.
       -2    1    3    3    0  502 -0.23269996437E+03 -0.69788907163E+03  0.85491838859E+03  0.11278669606E+04  0.25500000920E-02 0.  1.
</event>
<event>
 5   0  0.3345974E-05  0.2347006E+04  0.7818609E-02  0.8459614E-01
       -2   -1    0    0    0  501  0.00000000000E+00  0.00000000000E+00  0.78244674569E+03  0.78244674569E+03  0.25500000920E-02 0. -1.
        2   -1    0    0  501    0  0.00000000000E+00  0.00000000000E+00 -0.17600041902E+04  0.17600041902E+04  0.25500000920E-02 0.  1.
    10030    2    1    2    0    0  0.00000000000E+00  0.00000000000E+00 -0.97755744449E+03  0.25424509359E+04  0.23470062216E+04 0.  0.
        4    1    3    3  502    0  0.91248651387E+03  0.42017822386E+03  0.16830227862E+03  0.10185816843E+04  0.12699999809E+01 0. -1.
       -4    1    3    3    0  502 -0.91248651387E+03 -0.42017822386E+03 -0.11458597231E+04  0.15238692515E+04  0.12699999809E+01 0.  1.
</event>
<event>
 5   0  0.3320780E-05  0.2508926E+04  0.7818609E-02  0.8399813E-01
       -2   -1    0    0    0  501  0.00000000000E+00  0.00000000000E+00  0.11136907344E+04  0.11136907344E+04  0.25500000920E-02 0.  1.
        2   -1    0    0  501    0  0.00000000000E+00  0.00000000000E+00 -0.14130286011E+04  0.14130286011E+04  0.25500000920E-02 0. -1.
    10030    2    1    2    0    0  0.00000000000E+00  0.00000000000E+00 -0.29933786672E+03  0.25267193354E+04  0.25089255552E+04 0.  0.
        5    1    3    3  502    0 -0.57472770247E+03 -0.93326346247E+03  0.46487366466E+03  0.11905554319E+04  0.46999998093E+01 0.  1.
       -5    1    3    3    0  502  0.57472770247E+03  0.93326346247E+03 -0.76421153139E+03  0.13361639035E+04  0.46999998093E+01 0. -1.
</event>
<event>
 5   0  0.1393026E-05  0.2427641E+04  0.7818609E-02  0.8429227E-01
        1   -1    0    0  501    0  0.00000000000E+00  0.00000000000E+00  0.10900268466E+04  0.10900268467E+04  0.50400001928E-02 0.  1.
       -1   -1    0    0    0  501  0.00000000000E+00  0.00000000000E+00 -0.13516732867E+04  0.13516732867E+04  0.50400001928E-02 0. -1.
    10030    2    1    2    0    0  0.00000000000E+00  0.00000000000E+00 -0.26164644004E+03  0.24417001334E+04  0.24276409705E+04 0.  0.
        4    1    3    3  502    0  0.77277413121E+03 -0.36545466027E+03 -0.99756883758E+03  0.13137283453E+04  0.12699999809E+01 0. -1.
       -4    1    3    3    0  502 -0.77277413121E+03  0.36545466027E+03  0.73592239755E+03  0.11279717881E+04  0.12699999809E+01 0.  1.
</event>
<event>
 5   0  0.1393026E-05  0.2396372E+04  0.7818609E-02  0.8440863E-01
        1   -1    0    0  501    0  0.00000000000E+00  0.00000000000E+00  0.10086935309E+04  0.10086935309E+04  0.50400001928E-02 0.  1.
       -1   -1    0    0    0  501  0.00000000000E+00  0.00000000000E+00 -0.14232759956E+04  0.14232759956E+04  0.50400001928E-02 0. -1.
    10030    2    1    2    0    0  0.00000000000E+00  0.00000000000E+00 -0.41458246468E+03  0.24319695265E+04  0.23963716652E+04 0.  0.
        4    1    3    3  502    0  0.94126085259E+03 -0.73658842946E+03 -0.29288369681E+03  0.12305758732E+04  0.12699999809E+01 0.  1.
       -4    1    3    3    0  502 -0.94126085259E+03  0.73658842946E+03 -0.12169876787E+03  0.12013936532E+04  0.12699999809E+01 0. -1.
</event>
<event>
 5   0  0.3310037E-05  0.2395738E+04  0.7818609E-02  0.8441101E-01
       -2   -1    0    0    0  501  0.00000000000E+00  0.00000000000E+00  0.74968053399E+03  0.74968053400E+03  0.25500000920E-02 0.  1.
        2   -1    0    0  501    0  0.00000000000E+00  0.00000000000E+00 -0.19140027300E+04  0.19140027300E+04  0.25500000920E-02 0. -1.
    10030    2    1    2    0    0  0.00000000000E+00  0.00000000000E+00 -0.11643221960E+04  0.26636832640E+04  0.23957383736E+04 0.  0.
        2    1    3    3  502    0  0.10243890242E+04 -0.29121905497E+03 -0.11918615745E+04  0.15983477167E+04  0.25500000920E-02 0. -1.
       -2    1    3    3    0  502 -0.10243890242E+04  0.29121905497E+03  0.27539378471E+02  0.10653355473E+04  0.25500000920E-02 0.  1.
</event>
<event>
 5   0  0.3215208E-05  0.2405814E+04  0.7818609E-02  0.8437330E-01
        2   -1    0    0  501    0  0.00000000000E+00  0.00000000000E+00  0.24474415566E+04  0.24474415566E+04  0.25500000920E-02 0.  1.
       -2   -1    0    0    0  501  0.00000000000E+00  0.00000000000E+00 -0.59122375379E+03  0.59122375380E+03  0.25500000920E-02 0. -1.
    10030    2    1    2    0    0  0.00000000000E+00  0.00000000000E+00  0.18562178028E+04  0.30386653104E+04  0.24058142773E+04 0.  0.
        1    1    3    3  502    0  0.90954563513E+03  0.43411602775E+02 -0.64674430680E+02  0.91287491566E+03  0.50400001928E-02 0. -1.
       -1    1    3    3    0  502 -0.90954563513E+03 -0.43411602775E+02  0.19208922334E+04  0.21257903947E+04  0.50400001928E-02 0.  1.
</event>
<event>
 5   0  0.3215208E-05  0.2427074E+04  0.7818609E-02  0.8429437E-01
       -2   -1    0    0    0  501  0.00000000000E+00  0.00000000000E+00  0.73457410346E+03  0.73457410347E+03  0.25500000920E-02 0. -1.
        2   -1    0    0  501    0  0.00000000000E+00  0.00000000000E+00 -0.20047969833E+04  0.20047969833E+04  0.25500000920E-02 0.  1.
    10030    2    1    2    0    0  0.00000000000E+00  0.00000000000E+00 -0.12702228799E+04  0.27393710868E+04  0.24270739145E+04 0.  0.
        1    1    3    3  502    0  0.53903297029E+03  0.10787110100E+04 -0.48160387246E+03  0.12985054009E+04  0.50400001928E-02 0. -1.
       -1    1    3    3    0  502 -0.53903297029E+03 -0.10787110100E+04 -0.78861900741E+03  0.14408656859E+04  0.50400001928E-02 0.  1.
</event>
<event>
 5   0  0.1401596E-05  0.2431257E+04  0.7818609E-02  0.8427893E-01
        1   -1    0    0  501    0  0.00000000000E+00  0.00000000000E+00  0.12476502024E+04  0.12476502024E+04  0.50400001928E-02 0. -1.
       -1   -1    0    0    0  501  0.00000000000E+00  0.00000000000E+00 -0.11844284710E+04  0.11844284710E+04  0.50400001928E-02 0.  1.
    10030    2    1    2    0    0  0.00000000000E+00  0.00000000000E+00  0.63221731358E+02  0.24320786734E+04  0.24312568121E+04 0.  0.
        2    1    3    3  502    0  0.76327948004E+03 -0.87809064890E+03  0.38402765602E+03  0.12252003889E+04  0.25500000920E-02 0.  1.
       -2    1    3    3    0  502 -0.76327948004E+03  0.87809064890E+03 -0.32080592466E+03  0.12068782845E+04  0.25500000920E-02 0. -1.
</event>
<event>
 5   0  0.3320780E-05  0.2339955E+04  0.7818609E-02  0.8462332E-01
        2   -1    0    0  501    0  0.00000000000E+00  0.00000000000E+00  0.16853608382E+04  0.16853608383E+04  0.25500000920E-02 0. -1.
       -2   -1    0    0    0  501  0.00000000000E+00  0.00000000000E+00 -0.81219833717E+03  0.81219833717E+03  0.25500000920E-02 0.  1.
    10030    2    1    2    0    0  0.00000000000E+00  0.00000000000E+00  0.87316250108E+03  0.24975591754E+04  0.23399549315E+04 0.  0.
        5    1    3    3  502    0  0.96876459642E+03 -0.25217190498E+03  0.10829514367E+04  0.14747546973E+04  0.46999998093E+01 0. -1.
       -5    1    3    3    0  502 -0.96876459642E+03  0.25217190498E+03 -0.20978893565E+03  0.10228044781E+04  0.46999998093E+01 0.  1.
</event>
<event>
 5   0  0.1393026E-05  0.2357698E+04  0.7818609E-02  0.8455513E-01
       -1   -1    0    0    0  501  0.00000000000E+00  0.00000000000E+00  0.17716753041E+04  0.17716753041E+04  0.50400001928E-02 0. -1.
        1   -1    0    0  501    0  0.00000000000E+00  0.00000000000E+00 -0.78439016239E+03  0.78439016240E+03  0.50400001928E-02 0.  1.
    10030    2    1    2    0    0  0.00000000000E+00  0.00000000000E+00  0.98728514168E+03  0.25560654665E+04  0.23576977580E+04 0.  0.
        4    1    3    3  502    0  0.34948525561E+03  0.57218062533E+03 -0.55755169821E+03  0.87200695007E+03  0.12699999809E+01 0.  1.
       -4    1    3    3    0  502 -0.34948525561E+03 -0.57218062533E+03  0.15448368399E+04  0.16840585164E+04  0.12699999809E+01 0. -1.
</event>
<event>
 5   0  0.1407158E-05  0.2385682E+04  0.7818609E-02  0.8444883E-01
        1   -1    0    0  501    0  0.00000000000E+00  0.00000000000E+00  0.27410857362E+04  0.27410857362E+04  0.50400001928E-02 0.  1.
       -1   -1    0    0    0  501  0.00000000000E+00  0.00000000000E+00 -0.51908991088E+03  0.51908991091E+03  0.50400001928E-02 0. -1.
    10030    2    1    2    0    0  0.00000000000E+00  0.00000000000E+00  0.22219958253E+04  0.32601756471E+04  0.23856822509E+04 0.  0.
        1    1    3    3  502    0  0.32375239476E+03 -0.92193754362E+03  0.20459535294E+04  0.22673134525E+04  0.50400001928E-02 0.  1.
       -1    1    3    3    0  502 -0.32375239476E+03  0.92193754362E+03  0.17604229589E+03  0.99286219457E+03  0.50400001928E-02 0. -1.
</event>
<event>
 5   0  0.1407158E-05  0.2408566E+04  0.7818609E-02  0.8436304E-01
        1   -1    0    0  501    0  0.00000000000E+00  0.00000000000E+00  0.14400590887E+04  0.14400590887E+04  0.50400001928E-02 0.  1.
       -1   -1    0    0    0  501  0.00000000000E+00  0.00000000000E+00 -0.10071096393E+04  0.10071096393E+04  0.50400001928E-02 0. -1.
    10030    2    1    2    0    0  0.00000000000E+00  0.00000000000E+00  0.43294944940E+03  0.24471687280E+04  0.24085658716E+04 0.  0.
        1    1    3    3  502    0  0.34132633946E+03  0.11447585884E+04  0.61313368391E+02  0.11961334478E+04  0.50400001928E-02 0. -1.
       -1    1    3    3    0  502 -0.34132633946E+03 -0.11447585884E+04  0.37163608101E+03  0.12510352803E+04  0.50400001928E-02 0.  1.
</event>
<event>
 5   0  0.1401596E-05  0.2340061E+04  0.7818609E-02  0.8462291E-01
        1   -1    0    0  501    0  0.00000000000E+00  0.00000000000E+00  0.13100665758E+04  0.13100665758E+04  0.50400001928E-02 0. -1.
       -1   -1    0    0    0  501  0.00000000000E+00  0.00000000000E+00 -0.10449628688E+04  0.10449628688E+04  0.50400001928E-02 0.  1.
    10030    2    1    2    0    0  0.00000000000E+00  0.00000000000E+00  0.26510370704E+03  0.23550294446E+04  0.23400606209E+04 0.  0.
        2    1    3    3  502    0 -0.38340768189E+03 -0.62736504805E+03  0.10485291518E+04  0.12806255254E+04  0.25500000920E-02 0. -1.
       -2    1    3    3    0  502  0.38340768189E+03  0.62736504805E+03 -0.78342544480E+03  0.10744039192E+04  0.25500000920E-02 0.  1.
</event>
<event>
 5   0  0.1407158E-05  0.2258744E+04  0.7818609E-02  0.8494368E-01
        1   -1    0    0  501    0  0.00000000000E+00  0.00000000000E+00  0.18065077298E+04  0.18065077298E+04  0.50400001928E-02 0.  1.
       -1   -1    0    0    0  501  0.00000000000E+00  0.00000000000E+00 -0.70604800301E+03  0.70604800303E+03  0.50400001928E-02 0. -1.
    10030    2    1    2    0    0  0.00000000000E+00  0.00000000000E+00  0.11004597268E+04  0.25125557329E+04  0.22587440538E+04 0.  0.
        1    1    3    3  502    0  0.22178790592E+03 -0.23683831900E+03 -0.65308290873E+03  0.72924587778E+03  0.50400001928E-02 0. -1.
       -1    1    3    3    0  502 -0.22178790592E+03  0.23683831900E+03  0.17535426356E+04  0.17833098551E+04  0.50400001928E-02 0.  1.
</event>
<event>
 5   0  0.3347728E-05  0.2408740E+04  0.7818609E-02  0.8436239E-01
        2   -1    0    0  501    0  0.00000000000E+00  0.00000000000E+00  0.10733091444E+04  0.10733091444E+04  0.25500000920E-02 0.  1.
       -2   -1    0    0    0  501  0.00000000000E+00  0.00000000000E+00 -0.13514346694E+04  0.13514346694E+04  0.25500000920E-02 0. -1.
    10030    2    1    2    0    0  0.00000000000E+00  0.00000000000E+00 -0.27812552498E+03  0.24247438138E+04  0.24087400762E+04 0.  0.
        3    1    3    3  502    0  0.55112633357E+03 -0.82546356660E+03  0.54765504003E+03  0.11336032765E+04  0.10100000352E+00 0. -1.
       -3    1    3    3    0  502 -0.55112633357E+03  0.82546356660E+03 -0.82578056501E+03  0.12911405373E+04  0.10100000352E+00 0.  1.
</event>
<event>
 5   0  0.1506985E-05  0.2380602E+04  0.7818609E-02  0.8446802E-01
       -1   -1    0    0    0  501  0.00000000000E+00  0.00000000000E+00  0.10499198009E+04  0.10499198009E+04  0.50400001928E-02 0. -1.
        1   -1    0    0  501    0  0.00000000000E+00  0.00000000000E+00 -0.13494518089E+04  0.13494518089E+04  0.50400001928E-02 0.  1.
    10030    2    1    2    0    0  0.00000000000E+00  0.00000000000E+00 -0.29953200801E+03  0.23993716097E+04  0.23806017512E+04 0.  0.
        3    1    3    3  502    0  0.67874262716E+03 -0.92666376193E+03  0.16481488772E+03  0.11604142532E+04  0.10100000352E+00 0.  1.
       -3    1    3    3    0  502 -0.67874262716E+03  0.92666376193E+03 -0.46434689572E+03  0.12389573566E+04  0.10100000352E+00 0. -1.
</event>
<event>
 5   0  0.3345974E-05  0.2449890E+04  0.7818609E-02  0.8421058E-01
       -2   -1    0    0    0  501  0.00000000000E+00  0.00000000000E+00  0.57384996644E+03  0.57384996644E+03  0.25500000920E-02 0.  1.
        2   -1    0    0  501    0  0.00000000000E+00  0.00000000000E+00 -0.26147789471E+04  0.26147789471E+04  0.25500000920E-02 0. -1.
    10030    2    1    2    0    0  0.00000000000E+00  0.00000000000E+00 -0.20409289807E+04  0.31886289135E+04  0.24498904555E+04 0.  0.
        4    1    3    3  502    0  0.71970172347E+03  0.88195536468E+03 -0.16092918429E+04  0.19712020912E+04  0.12699999809E+01 0. -1.
       -4    1    3    3    0  502 -0.71970172347E+03 -0.88195536468E+03 -0.43163713778E+03  0.12174268223E+04  0.12699999809E+01 0.  1.
</event>
<event>
 5   0  0.3347728E-05  0.2425199E+04  0.7818609E-02  0.8430129E-01
        2   -1    0    0  501    0  0.00000000000E+00  0.00000000000E+00  0.12089462332E+04  0.12089462332E+04  0.25500000920E-02 0. -1.
       -2   -1    0    0    0  501  0.00000000000E+00  0.00000000000E+00 -0.12162641265E+04  0.12162641265E+04  0.25500000920E-02 0.  1.
    10030    2    1    2    0    0  0.00000000000E+00  0.00000000000E+00 -0.73178932427E+01  0.24252103597E+04  0.24251993191E+04 0.  0.
        3    1    3    3  502    0 -0.59196730752E+03 -0.63448497317E+03  0.84334045224E+03  0.12100494217E+04  0.10100000352E+00 0. -1.
       -3    1    3    3    0  502  0.59196730752E+03  0.63448497317E+03 -0.85065834549E+03  0.12151609380E+04  0.10100000352E+00 0.  1.
</event>
<event>
 5   0  0.3310037E-05  0.2394740E+04  0.7818609E-02  0.8441475E-01
       -2   -1    0    0    0  501  0.00000000000E+00  0.00000000000E+00  0.92837138335E+03  0.92837138335E+03  0.25500000920E-02 0. -1.
        2   -1    0    0  501    0  0.00000000000E+00  0.00000000000E+00 -0.15443116864E+04  0.15443116864E+04  0.25500000920E-02 0.  1.
    10030    2    1    2    0    0  0.00000000000E+00  0.00000000000E+00 -0.61594030303E+03  0.24726830697E+04  0.23947398828E+04 0.  0.
        2    1    3    3  502    0 -0.52332671727E+03  0.57256324153E+03 -0.12497958441E+04  0.14709483915E+04  0.25500000920E-02 0.  1.
       -2    1    3    3    0  502  0.52332671727E+03 -0.57256324153E+03  0.63385554108E+03  0.10017346782E+04  0.25500000920E-02 0. -1.
</event>
<event>
 5   0  0.1434943E-05  0.2378172E+04  0.7818609E-02  0.8447721E-01
       -1   -1    0    0    0  501  0.00000000000E+00  0.00000000000E+00  0.15500169256E+04  0.15500169256E+04  0.50400001928E-02 0.  1.
        1   -1    0    0  501    0  0.00000000000E+00  0.00000000000E+00 -0.91219981947E+03  0.91219981949E+03  0.50400001928E-02 0. -1.
    10030    2    1    2    0    0  0.00000000000E+00  0.00000000000E+00  0.63781710610E+03  0.24622167451E+04  0.23781717009E+04 0.  0.
        5    1    3    3  502    0 -0.74413588986E+03  0.55227585306E+03  0.10903281765E+04  0.14309383155E+04  0.46999998093E+01 0.  1.
       -5    1    3    3    0  502  0.74413588986E+03 -0.55227585306E+03 -0.45251107036E+03  0.10312784295E+04  0.46999998093E+01 0. -1.
</event>
<event>
 5   0  0.1407158E-05  0.2419019E+04  0.7818609E-02  0.8432417E-01
        1   -1    0    0  501    0  0.00000000000E+00  0.00000000000E+00  0.11814703218E+04  0.11814703218E+04  0.50400001928E-02 0. -1.
       -1   -1    0    0    0  501  0.00000000000E+00  0.00000000000E+00 -0.12382142485E+04  0.12382142485E+04  0.50400001928E-02 0.  1.
    10030    2    1    2    0    0  0.00000000000E+00  0.00000000000E+00 -0.56743926733E+02  0.24196845703E+04  0.24190191290E+04 0.  0.
        1    1    3    3  502    0  0.79283565916E+02  0.11606672119E+04  0.30259535661E+03  0.12020807837E+04  0.50400001928E-02 0. -1.
       -1    1    3    3    0  502 -0.79283565916E+02 -0.11606672119E+04 -0.35933928334E+03  0.12176037866E+04  0.50400001928E-02 0.  1.
</event>
<event>
 5   0  0.3345974E-05  0.2395281E+04  0.7818609E-02  0.8441272E-01
       -2   -1    0    0    0  501  0.00000000000E+00  0.00000000000E+00  0.16356852546E+04  0.16356852546E+04  0.25500000920E-02 0. -1.
        2   -1    0    0  501    0  0.00000000000E+00  0.00000000000E+00 -0.87690639850E+03  0.87690639850E+03  0.25500000920E-02 0.  1.
    10030    2    1    2    0    0  0.00000000000E+00  0.00000000000E+00  0.75877885611E+03  0.25125916531E+04  0.23952810822E+04 0.  0.
        4    1    3    3  502    0 -0.11181577942E+04 -0.26754885681E+03  0.27580415526E+02  0.11500528404E+04  0.12699999809E+01 0.  1.
       -4    1    3    3    0  502  0.11181577942E+04  0.26754885681E+03  0.73119844059E+03  0.13625388127E+04  0.12699999809E+01 0. -1.
</event>
<event>
 5   0  0.3345974E-05  0.2401051E+04  0.7818609E-02  0.8439110E-01
       -2   -1    0    0    0  501  0.00000000000E+00  0.00000000000E+00  0.12570762985E+04  0.12570762985E+04  0.25500000920E-02 0. -1.
        2   -1    0    0  501    0  0.00000000000E+00  0.00000000000E+00 -0.11465185791E+04  0.11465185791E+04  0.25500000920E-02 0.  1.
    10030    2    1    2    0    0  0.00000000000E+00  0.00000000000E+00  0.11055771944E+03  0.24035948776E+04  0.24010508796E+04 0.  0.
        4    1    3    3  502    0  0.10191956719E+04 -0.53323769539E+03  0.39938346296E+03  0.12176251561E+04  0.12699999809E+01 0. -1.
       -4    1    3    3    0  502 -0.10191956719E+04  0.53323769539E+03 -0.28882574352E+03  0.11859697215E+04  0.12699999809E+01 0.  1.
</event>
<event>
 5   0  0.3320780E-05  0.2400717E+04  0.7818609E-02  0.8439235E-01
       -2   -1    0    0    0  501  0.00000000000E+00  0.00000000000E+00  0.12412397124E+04  0.12412397125E+04  0.25500000920E-02 0. -1.
        2   -1    0    0  501    0  0.00000000000E+00  0.00000000000E+00 -0.11608239343E+04  0.11608239343E+04  0.25500000920E-02 0.  1.
    10030    2    1    2    0    0  0.00000000000E+00  0.00000000000E+00  0.80415778171E+02  0.24020636467E+04  0.24007171982E+04 0.  0.
        5    1    3    3  502    0  0.89693666033E+03 -0.22171165929E+03  0.80691909913E+03  0.12266996189E+04  0.46999998093E+01 0. -1.
       -5    1    3    3    0  502 -0.89693666033E+03  0.22171165929E+03 -0.72650332096E+03  0.11753640278E+04  0.46999998093E+01 0.  1.
</event>
<event>
 5   0  0.3347728E-05  0.2410139E+04  0.7818609E-02  0.8435717E-01
       -2   -1    0    0    0  501  0.00000000000E+00  0.00000000000E+00  0.92690468037E+03  0.92690468037E+03  0.25500000920E-02 0. -1.
        2   -1    0    0  501    0  0.00000000000E+00  0.00000000000E+00 -0.15667119293E+04  0.15667119293E+04  0.25500000920E-02 0.  1.
    10030    2    1    2    0    0  0.00000000000E+00  0.00000000000E+00 -0.63980724891E+03  0.24936166096E+04  0.24101390998E+04 0.  0.
        3    1    3    3  502    0 -0.80745067155E+03 -0.17455876772E+03  0.58783556440E+03  0.10139023678E+04  0.10100000352E+00 0. -1.
       -3    1    3    3    0  502  0.80745067155E+03  0.17455876772E+03 -0.12276428133E+04  0.14797142419E+04  0.10100000352E+00 0.  1.
</event>
<event>
 5   0  0.3345974E-05  0.2396085E+04  0.7818609E-02  0.8440971E-01
       -2   -1    0    0    0  501  0.00000000000E+00  0.00000000000E+00  0.89361803926E+03  0.89361803926E+03  0.25500000920E-02 0.  1.
        2   -1    0    0  501    0  0.00000000000E+00  0.00000000000E+00 -0.16061742146E+04  0.16061742146E+04  0.25500000920E-02 0. -1.
    10030    2    1    2    0    0  0.00000000000E+00  0.00000000000E+00 -0.71255617534E+03  0.24997922539E+04  0.23960853510E+04 0.  0.
        4    1    3    3  502    0  0.11189589532E+04  0.28040686914E+03 -0.69370756648E+03  0.13460791031E+04  0.12699999809E+01 0. -1.
       -4    1    3    3    0  502 -0.11189589532E+04 -0.28040686914E+03 -0.18848608859E+02  0.11537131507E+04  0.12699999809E+01 0.  1.
</event>
<event>
 5   0  0.1434943E-05  0.2393365E+04  0.7818609E-02  0.8441992E-01
        1   -1    0    0  501    0  0.00000000000E+00  0.00000000000E+00  0.63911868445E+03  0.63911868447E+03  0.50400001928E-02 0. -1.
       -1   -1    0    0    0  501  0.00000000000E+00  0.00000000000E+00 -0.22406628122E+04  0.22406628123E+04  0.50400001928E-02 0.  1.
    10030    2    1    2    0    0  0.00000000000E+00  0.00000000000E+00 -0.16015441278E+04  0.28797814967E+04  0.23933653870E+04 0.  0.
        5    1    3    3  502    0  0.14183791170E+03 -0.11184643096E+04 -0.31805579207E+03  0.11714358634E+04  0.46999998093E+01 0. -1.
       -5    1    3    3    0  502 -0.14183791170E+03  0.11184643096E+04 -0.12834883357E+04  0.17083456334E+04  0.46999998093E+01 0.  1.
</event>
<event>
 5   0  0.1401596E-05  0.2390480E+04  0.7818609E-02  0.8443076E-01
       -1   -1    0    0    0  501  0.00000000000E+00  0.00000000000E+00  0.73662538939E+03  0.73662538940E+03  0.50400001928E-02 0.  1.
        1   -1    0    0  501    0  0.00000000000E+00  0.00000000000E+00 -0.19393825090E+04  0.19393825090E+04  0.50400001928E-02 0. -1.
    10030    2    1    2    0    0  0.00000000000E+00  0.00000000000E+00 -0.12027571196E+04  0.26760078984E+04  0.23904797810E+04 0.  0.
        2    1    3    3  502    0  0.55177473181E+03  0.10776854552E+03  0.57937151804E+03  0.80730463271E+03  0.25500000920E-02 0.  1.
       -2    1    3    3    0  502 -0.55177473181E+03 -0.10776854552E+03 -0.17821286376E+04  0.18687032657E+04  0.25500000920E-02 0. -1.
</event>
<event>
 5   0  0.3345974E-05  0.2365615E+04  0.7818609E-02  0.8452490E-01
        2   -1    0    0  501    0  0.00000000000E+00  0.00000000000E+00  0.12949988550E+04  0.12949988551E+04  0.25500000920E-02 0. -1.
       -2   -1    0    0    0  501  0.00000000000E+00  0.00000000000E+00 -0.10803353623E+04  0.10803353623E+04  0.25500000920E-02 0.  1.
    10030    2    1    2    0    0  0.00000000000E+00  0.00000000000E+00  0.21466349272E+03  0.23753342174E+04  0.23656145563E+04 0.  0.
        4    1    3    3  502    0 -0.89494799341E+03 -0.77277483051E+03  0.13776460423E+03  0.11904173842E+04  0.12699999809E+01 0. -1.
       -4    1    3    3    0  502  0.89494799341E+03  0.77277483051E+03  0.76898888490E+02  0.11849168332E+04  0.12699999809E+01 0.  1.
</event>
<event>
 5   0  0.3347728E-05  0.2401295E+04  0.7818609E-02  0.8439019E-01
       -2   -1    0    0    0  501  0.00000000000E+00  0.00000000000E+00  0.73316181417E+03  0.73316181417E+03  0.25500000920E-02 0.  1.
        2   -1    0    0  501    0  0.00000000000E+00  0.00000000000E+00 -0.19662154488E+04  0.19662154488E+04  0.25500000920E-02 0. -1.
    10030    2    1    2    0    0  0.00000000000E+00  0.00000000000E+00 -0.12330536347E+04  0.26993772630E+04  0.24012947220E+04 0.  0.
        3    1    3    3  502    0  0.66524606424E+02 -0.11304439364E+04 -0.10650902103E+04  0.15545887504E+04  0.10100000352E+00 0. -1.
       -3    1    3    3    0  502 -0.66524606424E+02  0.11304439364E+04 -0.16796342440E+03  0.11447885126E+04  0.10100000352E+00 0.  1.
</event>
<event>
 5   0  0.1147362E-05  0.2396321E+04  0.7818609E-02  0.8440882E-01
        3   -1    0    0  501    0  0.00000000000E+00  0.00000000000E+00  0.14405271509E+04  0.14405271545E+04  0.10100000352E+00 0. -1.
       -3   -1    0    0    0  501  0.00000000000E+00  0.00000000000E+00 -0.99657194181E+03  0.99657194693E+03  0.10100000352E+00 0.  1.
    10030    2    1    2    0    0  0.00000000000E+00  0.00000000000E+00  0.44395520912E+03  0.24370991014E+04  0.23963213062E+04 0.  0.
        1    1    3    3  502    0  0.19586337189E+03 -0.45509524709E+03 -0.88751029369E+03  0.10164392091E+04  0.50400001928E-02 0.  1.
       -1    1    3    3    0  502 -0.19586337189E+03  0.45509524709E+03  0.13314655028E+04  0.14206598923E+04  0.50400001928E-02 0. -1.
</event>
<event>
 5   0  0.3310037E-05  0.2398184E+04  0.7818609E-02  0.8440184E-01
        2   -1    0    0  501    0  0.00000000000E+00  0.00000000000E+00  0.18938779554E+04  0.18938779554E+04  0.25500000920E-02 0.  1.
       -2   -1    0    0    0  501  0.00000000000E+00  0.00000000000E+00 -0.75919460712E+03  0.75919460712E+03  0.25500000920E-02 0. -1.
    10030    2    1    2    0    0  0.00000000000E+00  0.00000000000E+00  0.11346833482E+04  0.26530725625E+04  0.23981842550E+04 0.  0.
        2    1    3    3  502    0 -0.65664777303E+03  0.10033123048E+04  0.56759263888E+03  0.13266436155E+04  0.25500000920E-02 0.  1.
       -2    1    3    3    0  502  0.65664777303E+03 -0.10033123048E+04  0.56709070937E+03  0.13264289470E+04  0.25500000920E-02 0. -1.
</event>
<event>
 5   0  0.3345974E-05  0.2400948E+04  0.7818609E-02  0.8439149E-01
        2   -1    0    0  501    0  0.00000000000E+00  0.00000000000E+00  0.18926248457E+04  0.18926248457E+04  0.25500000920E-02 0.  1.
       -2   -1    0    0    0  501  0.00000000000E+00  0.00000000000E+00 -0.76144945078E+03  0.76144945078E+03  0.25500000920E-02 0. -1.
    10030    2    1    2    0    0  0.00000000000E+00  0.00000000000E+00  0.11311753949E+04  0.26540742965E+04  0.24009482704E+04 0.  0.
        4    1    3    3  502    0  0.17380686059E+03  0.29708665577E+03 -0.70573432452E+03  0.78519542505E+03  0.12699999809E+01 0. -1.
       -4    1    3    3    0  502 -0.17380686059E+03 -0.29708665577E+03  0.18369097194E+04  0.18688788714E+04  0.12699999809E+01 0.  1.
</event>
<event>
 5   0  0.1407158E-05  0.2407131E+04  0.7818609E-02  0.8436839E-01
        1   -1    0    0  501    0  0.00000000000E+00  0.00000000000E+00  0.13371867574E+04  0.13371867574E+04  0.50400001928E-02 0. -1.
       -1   -1    0    0    0  501  0.00000000000E+00  0.00000000000E+00 -0.10832962510E+04  0.10832962510E+04  0.50400001928E-02 0.  1.
    10030    2    1    2    0    0  0.00000000000E+00  0.00000000000E+00  0.25389050635E+03  0.24204830084E+04  0.24071305749E+04 0.  0.
        1    1    3    3  502    0  0.63595017346E+03  0.22971291636E+02 -0.90029331602E+03  0.11024918858E+04  0.50400001928E-02 0.  1.
       -1    1    3    3    0  502 -0.63595017346E+03 -0.22971291636E+02  0.11541838224E+04  0.13179911226E+04  0.50400001928E-02 0. -1.
</event>
<event>
 5   0  0.3310037E-05  0.2080600E+04  0.7818609E-02  0.8569838E-01
       -2   -1    0    0    0  501  0.00000000000E+00  0.00000000000E+00  0.89058218184E+03  0.89058218185E+03  0.25500000920E-02 0. -1.
        2   -1    0    0  501    0  0.00000000000E+00  0.00000000000E+00 -0.12151869322E+04  0.12151869322E+04  0.25500000920E-02 0.  1.
    10030    2    1    2    0    0  0.00000000000E+00  0.00000000000E+00 -0.32460475034E+03  0.21057691140E+04  0.20805997495E+04 0.  0.
        2    1    3    3  502    0  0.38438126134E+03  0.50834902229E+02 -0.11393251684E+04  0.12034928254E+04  0.25500000920E-02 0.  1.
       -2    1    3    3    0  502 -0.38438126134E+03 -0.50834902229E+02  0.81472041810E+03  0.90227628863E+03  0.25500000920E-02 0. -1.
</event>
<event>
 5   0  0.1434943E-05  0.2397006E+04  0.7818609E-02  0.8440625E-01
       -1   -1    0    0    0  501  0.00000000000E+00  0.00000000000E+00  0.11249402843E+04  0.11249402843E+04  0.50400001928E-02 0.  1.
        1   -1    0    0  501    0  0.00000000000E+00  0.00000000000E+00 -0.12768764596E+04  0.12768764596E+04  0.50400001928E-02 0. -1.
    10030    2    1    2    0    0  0.00000000000E+00  0.00000000000E+00 -0.15193617530E+03  0.24018167439E+04  0.23970062724E+04 0.  0.
        5    1    3    3  502    0  0.10593159907E+03 -0.46153538620E+03 -0.11791550140E+04  0.12706947129E+04  0.46999998093E+01 0. -1.
       -5    1    3    3    0  502 -0.10593159907E+03  0.46153538620E+03  0.10272188387E+04  0.11311220310E+04  0.46999998093E+01 0.  1.
</event>
<event>
 5   0  0.1506985E-05  0.2422207E+04  0.7818609E-02  0.8431236E-01
       -1   -1    0    0    0  501  0.00000000000E+00  0.00000000000E+00  0.87950649316E+03  0.87950649318E+03  0.50400001928E-02 0.  1.
        1   -1    0    0  501    0  0.00000000000E+00  0.00000000000E+00 -0.16677209181E+04  0.16677209181E+04  0.50400001928E-02 0. -1.
    10030    2    1    2    0    0  0.00000000000E+00  0.00000000000E+00 -0.78821442491E+03  0.25472274113E+04  0.24222067428E+04 0.  0.
        3    1    3    3  502    0 -0.82294505622E+03 -0.88655455391E+03 -0.45679810236E+03  0.12930127838E+04  0.10100000352E+00 0. -1.
       -3    1    3    3    0  502  0.82294505622E+03  0.88655455391E+03 -0.33141632256E+03  0.12542146274E+04  0.10100000352E+00 0.  1.
</event>
<event>
 5   0  0.3320780E-05  0.2433403E+04  0.7818609E-02  0.8427103E-01
       -2   -1    0    0    0  501  0.00000000000E+00  0.00000000000E+00  0.88498805249E+03  0.88498805249E+03  0.25500000920E-02 0.  1.
        2   -1    0    0  501    0  0.00000000000E+00  0.00000000000E+00 -0.16727482396E+04  0.16727482396E+04  0.25500000920E-02 0. -1.
    10030    2    1    2    0    0  0.00000000000E+00  0.00000000000E+00 -0.78776018712E+03  0.25577362921E+04  0.24334027261E+04 0.  0.
        5    1    3    3  502    0 -0.61898239286E+02 -0.12138512893E+04 -0.33560571885E+03  0.12609201533E+04  0.46999998093E+01 0. -1.
       -5    1    3    3    0  502  0.61898239286E+02  0.12138512893E+04 -0.45215446827E+03  0.12968161388E+04  0.46999998093E+01 0.  1.
</event>
<event>
 5   0  0.1434943E-05  0.2425350E+04  0.7818609E-02  0.8430073E-01
       -1   -1    0    0    0  501  0.00000000000E+00  0.00000000000E+00  0.76065373936E+03  0.76065373938E+03  0.50400001928E-02 0.  1.
        1   -1    0    0  501    0  0.00000000000E+00  0.00000000000E+00 -0.19333121183E+04  0.19333121183E+04  0.50400001928E-02 0. -1.
    10030    2    1    2    0    0  0.00000000000E+00  0.00000000000E+00 -0.11726583790E+04  0.26939658577E+04  0.24253503600E+04 0.  0.
        5    1    3    3  502    0  0.66401085734E+03 -0.95429582610E+03 -0.20321098185E+03  0.11802151226E+04  0.46999998093E+01 0. -1.
       -5    1    3    3    0  502 -0.66401085734E+03  0.95429582610E+03 -0.96944739710E+03  0.15137507351E+04  0.46999998093E+01 0.  1.
</event>
<event>
 5   0  0.3347728E-05  0.2408760E+04  0.7818609E-02  0.8436231E-01
        2   -1    0    0  501    0  0.00000000000E+00  0.00000000000E+00  0.18795042917E+04  0.18795042917E+04  0.25500000920E-02 0. -1.
       -2   -1    0    0    0  501  0.00000000000E+00  0.00000000000E+00 -0.77176251147E+03  0.77176251147E+03  0.25500000920E-02 0.  1.
    10030    2    1    2    0    0  0.00000000000E+00  0.00000000000E+00  0.11077417803E+04  0.26512668032E+04  0.24087598075E+04 0.  0.
        3    1    3    3  502    0 -0.96242335688E+03  0.68942387121E+03  0.79743397509E+03  0.14273979637E+04  0.10100000352E+00 0. -1.
       -3    1    3    3    0  502  0.96242335688E+03 -0.68942387121E+03  0.31030780518E+03  0.12238688395E+04  0.10100000352E+00 0.  1.
</event>
<event>
 5   0  0.1407158E-05  0.2372275E+04  0.7818609E-02  0.8449957E-01
        1   -1    0    0  501    0  0.00000000000E+00  0.00000000000E+00  0.11796202296E+04  0.11796202296E+04  0.50400001928E-02 0.  1.
       -1   -1    0    0    0  501  0.00000000000E+00  0.00000000000E+00 -0.11926910479E+04  0.11926910479E+04  0.50400001928E-02 0. -1.
    10030    2    1    2    0    0  0.00000000000E+00  0.00000000000E+00 -0.13070818312E+02  0.23723112775E+04  0.23722752689E+04 0.  0.
        1    1    3    3  502    0 -0.52508901332E+03 -0.56869691904E+03 -0.90531922805E+03  0.11911077039E+04  0.50400001928E-02 0. -1.
       -1    1    3    3    0  502  0.52508901332E+03  0.56869691904E+03  0.89224840974E+03  0.11812035736E+04  0.50400001928E-02 0.  1.
</event>
<event>
 5   0  0.1434943E-05  0.2393354E+04  0.7818609E-02  0.8441996E-01
       -1   -1    0    0    0  501  0.00000000000E+00  0.00000000000E+00  0.14002803290E+04  0.14002803290E+04  0.50400001928E-02 0.  1.
        1   -1    0    0  501    0  0.00000000000E+00  0.00000000000E+00 -0.10226781908E+04  0.10226781908E+04  0.50400001928E-02 0. -1.
    10030    2    1    2    0    0  0.00000000000E+00  0.00000000000E+00  0.37760213826E+03  0.24229585198E+04  0.23933542600E+04 0.  0.
        5    1    3    3  502    0 -0.18896318763E+03 -0.92291944279E+03 -0.55824704526E+03  0.10950567281E+04  0.46999998093E+01 0. -1.
       -5    1    3    3    0  502  0.18896318763E+03  0.92291944279E+03  0.93584918352E+03  0.13279017917E+04  0.46999998093E+01 0.  1.
</event>
<event>
 5   0  0.3347728E-05  0.2369674E+04  0.7818609E-02  0.8450945E-01
       -2   -1    0    0    0  501  0.00000000000E+00  0.00000000000E+00  0.15881847561E+04  0.15881847561E+04  0.25500000920E-02 0.  1.
        2   -1    0    0  501    0  0.00000000000E+00  0.00000000000E+00 -0.88392641747E+03  0.88392641748E+03  0.25500000920E-02 0. -1.
    10030    2    1    2    0    0  0.00000000000E+00  0.00000000000E+00  0.70425833863E+03  0.24721111736E+04  0.23696737849E+04 0.  0.
        3    1    3    3  502    0 -0.56932537339E+03 -0.47230817804E+03  0.13176832296E+04  0.15111239193E+04  0.10100000352E+00 0.  1.
       -3    1    3    3    0  502  0.56932537339E+03  0.47230817804E+03 -0.61342489095E+03  0.96098725427E+03  0.10100000352E+00 0. -1.
</event>
<event>
 5   0  0.3320780E-05  0.2393897E+04  0.7818609E-02  0.8441792E-01
       -2   -1    0    0    0  501  0.00000000000E+00  0.00000000000E+00  0.11340403886E+04  0.11340403886E+04  0.25500000920E-02 0. -1.
        2   -1    0    0  501    0  0.00000000000E+00  0.00000000000E+00 -0.12633460217E+04  0.12633460217E+04  0.25500000920E-02 0.  1.
    10030    2    1    2    0    0  0.00000000000E+00  0.00000000000E+00 -0.12930563310E+03  0.23973864104E+04  0.23938967509E+04 0.  0.
        5    1    3    3  502    0 -0.26863114833E+01  0.68089186398E+02  0.11320870653E+04  0.11341457432E+04  0.46999998093E+01 0. -1.
       -5    1    3    3    0  502  0.26863114833E+01 -0.68089186398E+02 -0.12613926984E+04  0.12632406671E+04  0.46999998093E+01 0.  1.
</event>
<event>
 5   0  0.3320780E-05  0.2400652E+04  0.7818609E-02  0.8439259E-01
       -2   -1    0    0    0  501  0.00000000000E+00  0.00000000000E+00  0.64831015662E+03  0.64831015662E+03  0.25500000920E-02 0.  1.
        2   -1    0    0  501    0  0.00000000000E+00  0.00000000000E+00 -0.22223662870E+04  0.22223662870E+04  0.25500000920E-02 0. -1.
    10030    2    1    2    0    0  0.00000000000E+00  0.00000000000E+00 -0.15740561304E+04  0.28706764436E+04  0.24006521078E+04 0.  0.
        5    1    3    3  502    0 -0.16759565926E+02 -0.12000144616E+04 -0.81225199861E+03  0.14491690689E+04  0.46999998093E+01 0. -1.
       -5    1    3    3    0  502  0.16759565926E+02  0.12000144616E+04 -0.76180413179E+03  0.14215073747E+04  0.46999998093E+01 0.  1.
</event>
<event>
 5   0  0.1393026E-05  0.2367457E+04  0.7818609E-02  0.8451789E-01
       -1   -1    0    0    0  501  0.00000000000E+00  0.00000000000E+00  0.77631489570E+03  0.77631489571E+03  0.50400001928E-02 0.  1.
        1   -1    0    0  501    0  0.00000000000E+00  0.00000000000E+00 -0.18049540242E+04  0.18049540242E+04  0.50400001928E-02 0. -1.
    10030    2    1    2    0    0  0.00000000000E+00  0.00000000000E+00 -0.10286391285E+04  0.25812689199E+04  0.23674566058E+04 0.  0.
        4    1    3    3  502    0 -0.59998991974E+03  0.86675834676E+03 -0.11014236978E+04  0.15245962450E+04  0.12699999809E+01 0. -1.
       -4    1    3    3    0  502  0.59998991974E+03 -0.86675834676E+03  0.72784569249E+02  0.10566726749E+04  0.12699999809E+01 0.  1.
</event>
<event>
 5   0  0.1147362E-05  0.2408099E+04  0.7818609E-02  0.8436478E-01
        3   -1    0    0  501    0  0.00000000000E+00  0.00000000000E+00  0.16912941048E+04  0.16912941079E+04  0.10100000352E+00 0. -1.
       -3   -1    0    0    0  501  0.00000000000E+00  0.00000000000E+00 -0.85717485645E+03  0.85717486240E+03  0.10100000352E+00 0.  1.
    10030    2    1    2    0    0  0.00000000000E+00  0.00000000000E+00  0.83411924839E+03  0.25484689703E+04  0.24080986632E+04 0.  0.
        2    1    3    3  502    0  0.24042012661E+03  0.49121138576E+03 -0.71814884983E+03  0.90267836647E+03  0.25500000920E-02 0.  1.
       -2    1    3    3    0  502 -0.24042012661E+03 -0.49121138576E+03  0.15522680982E+04  0.16457906038E+04  0.25500000920E-02 0. -1.
</event>
<event>
 5   0  0.1393026E-05  0.2238859E+04  0.7818609E-02  0.8502426E-01
        1   -1    0    0  501    0  0.00000000000E+00  0.00000000000E+00  0.16910091420E+04  0.16910091420E+04  0.50400001928E-02 0.  1.
       -1   -1    0    0    0  501  0.00000000000E+00  0.00000000000E+00 -0.74105028054E+03  0.74105028055E+03  0.50400001928E-02 0. -1.
    10030    2    1    2    0    0  0.00000000000E+00  0.00000000000E+00  0.94995886142E+03  0.24320594225E+04  0.22388593516E+04 0.  0.
        4    1    3    3  502    0 -0.65709259116E+03  0.71162823465E+03 -0.13463938708E+03  0.97791349063E+03  0.12699999809E+01 0. -1.
       -4    1    3    3    0  502  0.65709259116E+03 -0.71162823465E+03  0.10845982485E+04  0.14541459319E+04  0.12699999809E+01 0.  1.
</event>
<event>
 5   0  0.1506985E-05  0.2320272E+04  0.7818609E-02  0.8469971E-01
        1   -1    0    0  501    0  0.00000000000E+00  0.00000000000E+00  0.13130334141E+04  0.13130334141E+04  0.50400001928E-02 0. -1.
       -1   -1    0    0    0  501  0.00000000000E+00  0.00000000000E+00 -0.10250428140E+04  0.10250428140E+04  0.50400001928E-02 0.  1.
    10030    2    1    2    0    0  0.00000000000E+00  0.00000000000E+00  0.28799060016E+03  0.23380762281E+04  0.23202719372E+04 0.  0.
        3    1    3    3  502    0 -0.55261128526E+03  0.27865678067E+03  0.11327927897E+04  0.12908324247E+04  0.10100000352E+00 0. -1.
       -3    1    3    3    0  502  0.55261128526E+03 -0.27865678067E+03 -0.84480218957E+03  0.10472438034E+04  0.10100000352E+00 0.  1.
</event>
<event>
 5   0  0.1393026E-05  0.2385727E+04  0.7818609E-02  0.8444866E-01
        1   -1    0    0  501    0  0.00000000000E+00  0.00000000000E+00  0.90164310947E+03  0.90164310948E+03  0.50400001928E-02 0. -1.
       -1   -1    0    0    0  501  0.00000000000E+00  0.00000000000E+00 -0.15781449011E+04  0.15781449011E+04  0.50400001928E-02 0.  1.
    10030    2    1    2    0    0  0.00000000000E+00  0.00000000000E+00 -0.67650179160E+03  0.24797880106E+04  0.23857271225E+04 0.  0.
        4    1    3    3  502    0  0.49320161750E+03  0.48378252582E+03  0.67252310690E+03  0.96414848960E+03  0.12699999809E+01 0. -1.
       -4    1    3    3    0  502 -0.49320161750E+03 -0.48378252582E+03 -0.13490248985E+04  0.15156395209E+04  0.12699999809E+01 0.  1.
</event>
<event>
 5   0  0.3347728E-05  0.2420560E+04  0.7818609E-02  0.8431846E-01
       -2   -1    0    0    0  501  0.00000000000E+00  0.00000000000E+00  0.11685754182E+04  0.11685754182E+04  0.25500000920E-02 0.  1.
        2   -1    0    0  501    0  0.00000000000E+00  0.00000000000E+00 -0.12534734659E+04  0.12534734659E+04  0.25500000920E-02 0. -1.
    10030    2    1    2    0    0  0.00000000000E+00  0.00000000000E+00 -0.84898047750E+02  0.24220488841E+04  0.24205604967E+04 0.  0.
        3    1    3    3  502    0 -0.34755953317E+03  0.20370287435E+03 -0.11844157713E+04  0.12510528445E+04  0.10100000352E+00 0. -1.
       -3    1    3    3    0  502  0.34755953317E+03 -0.20370287435E+03  0.10995177236E+04  0.11709960396E+04  0.10100000352E+00 0.  1.
</event>
<event>
 5   0  0.3320780E-05  0.2365284E+04  0.7818609E-02  0.8452616E-01
        2   -1    0    0  501    0  0.00000000000E+00  0.00000000000E+00  0.20316874529E+04  0.20316874529E+04  0.25500000920E-02 0.  1.
       -2   -1    0    0    0  501  0.00000000000E+00  0.00000000000E+00 -0.68841374096E+03  0.68841374097E+03  0.25500000920E-02 0. -1.
    10030    2    1    2    0    0  0.00000000000E+00  0.00000000000E+00  0.13432737119E+04  0.27201011939E+04  0.23652835432E+04 0.  0.
        5    1    3    3  502    0  0.58594604069E+03 -0.92684009073E+03  0.11810982497E+04  0.16116390669E+04  0.46999998093E+01 0.  1.
       -5    1    3    3    0  502 -0.58594604069E+03  0.92684009073E+03  0.16217546218E+03  0.11084621270E+04  0.46999998093E+01 0. -1.
</event>
<event>
 5   0  0.3320780E-05  0.2391245E+04  0.7818609E-02  0.8442789E-01
       -2   -1    0    0    0  501  0.00000000000E+00  0.00000000000E+00  0.65879994683E+03  0.65879994684E+03  0.25500000920E-02 0.  1.
        2   -1    0    0  501    0  0.00000000000E+00  0.00000000000E+00 -0.21698744067E+04  0.21698744067E+04  0.25500000920E-02 0. -1.
    10030    2    1    2    0    0  0.00000000000E+00  0.00000000000E+00 -0.15110744598E+04  0.28286743535E+04  0.23912449843E+04 0.  0.
        5    1    3    3  502    0  0.37926528281E+02  0.10743739486E+04 -0.13744855480E+04  0.17449786287E+04  0.46999998093E+01 0. -1.
       -5    1    3    3    0  502 -0.37926528281E+02 -0.10743739486E+04 -0.13658891178E+03  0.10836957247E+04  0.46999998093E+01 0.  1.
</event>
<event>
 5   0  0.1407158E-05  0.2319574E+04  0.7818609E-02  0.8470243E-01
       -1   -1    0    0    0  501  0.00000000000E+00  0.00000000000E+00  0.15830212623E+04  0.15830212624E+04  0.50400001928E-02 0.  1.
        1   -1    0    0  501    0  0.00000000000E+00  0.00000000000E+00 -0.84970787746E+03  0.84970787747E+03  0.50400001928E-02 0. -1.
    10030    2    1    2    0    0  0.00000000000E+00  0.00000000000E+00  0.73331338489E+03  0.24327291398E+04  0.23195737857E+04 0.  0.
        1    1    3    3  502    0  0.29996704661E+03  0.44907878652E+03  0.14431052537E+04  0.15408454688E+04  0.50400001928E-02 0.  1.
       -1    1    3    3    0  502 -0.29996704661E+03 -0.44907878652E+03 -0.70979186880E+03  0.89188367100E+03  0.50400001928E-02 0. -1.
</event>
<event>
 5   0  0.3215208E-05  0.2251818E+04  0.7818609E-02  0.8497165E-01
        2   -1    0    0  501    0  0.00000000000E+00  0.00000000000E+00  0.15630240589E+04  0.15630240589E+04  0.25500000920E-02 0.  1.
       -2   -1    0    0    0  501  0.00000000000E+00  0.00000000000E+00 -0.81103732794E+03  0.81103732795E+03  0.25500000920E-02 0. -1.
    10030    2    1    2    0    0  0.00000000000E+00  0.00000000000E+00  0.75198673099E+03  0.23740613869E+04  0.22518178046E+04 0.  0.
        1    1    3    3  502    0  0.76686152553E+03  0.43839025096E+03  0.11120396613E+04  0.14201742216E+04  0.50400001928E-02 0. -1.
       -1    1    3    3    0  502 -0.76686152553E+03 -0.43839025096E+03 -0.36005293026E+03  0.95388716528E+03  0.50400001928E-02 0.  1.
</event>
<event>
 5   0  0.3215208E-05  0.2406300E+04  0.7818609E-02  0.8437149E-01
        2   -1    0    0  501    0  0.00000000000E+00  0.00000000000E+00  0.10993734852E+04  0.10993734852E+04  0.25500000920E-02 0. -1.
       -2   -1    0    0    0  501  0.00000000000E+00  0.00000000000E+00 -0.13167229463E+04  0.13167229463E+04  0.25500000920E-02 0.  1.
    10030    2    1    2    0    0  0.00000000000E+00  0.00000000000E+00 -0.21734946114E+03  0.24160964315E+04  0.24063003092E+04 0.  0.
        1    1    3    3  502    0  0.54100329536E+03  0.51640506772E+03 -0.10549612243E+04  0.12931751407E+04  0.50400001928E-02 0.  1.
       -1    1    3    3    0  502 -0.54100329536E+03 -0.51640506772E+03  0.83761176319E+03  0.11229212908E+04  0.50400001928E-02 0. -1.
</event>
<event>
 5   0  0.1506985E-05  0.2319679E+04  0.7818609E-02  0.8470202E-01
       -1   -1    0    0    0  501  0.00000000000E+00  0.00000000000E+00  0.11830789407E+04  0.11830789407E+04  0.50400001928E-02 0. -1.
        1   -1    0    0  501    0  0.00000000000E+00  0.00000000000E+00 -0.11370564619E+04  0.11370564619E+04  0.50400001928E-02 0.  1.
    10030    2    1    2    0    0  0.00000000000E+00  0.00000000000E+00  0.46022478798E+02  0.23201354027E+04  0.23196789041E+04 0.  0.
        3    1    3    3  502    0 -0.18279039937E+03 -0.24562545679E+03 -0.10959060793E+04  0.11378727258E+04  0.10100000352E+00 0.  1.
       -3    1    3    3    0  502  0.18279039937E+03  0.24562545679E+03  0.11419285581E+04  0.11822626769E+04  0.10100000352E+00 0. -1.
</event>
<event>
 5   0  0.3345974E-05  0.2254293E+04  0.7818609E-02  0.8496164E-01
        2   -1    0    0  501    0  0.00000000000E+00  0.00000000000E+00  0.70038452859E+03  0.70038452860E+03  0.25500000920E-02 0. -1.
       -2   -1    0    0    0  501  0.00000000000E+00  0.00000000000E+00 -0.18139445316E+04  0.18139445316E+04  0.25500000920E-02 0.  1.
    10030    2    1    2    0    0  0.00000000000E+00  0.00000000000E+00 -0.11135600030E+04  0.25143290602E+04  0.22542925149E+04 0.  0.
        4    1    3    3  502    0  0.92394123662E+03 -0.11859291486E+01 -0.12768414891E+04  0.15760693564E+04  0.12699999809E+01 0. -1.
       -4    1    3    3    0  502 -0.92394123662E+03  0.11859291486E+01  0.16328148605E+03  0.93825970379E+03  0.12699999809E+01 0.  1.
</event>
<event>
 5   0  0.1401596E-05  0.2373537E+04  0.7818609E-02  0.8449478E-01
        1   -1    0    0  501    0  0.00000000000E+00  0.00000000000E+00  0.11209288087E+04  0.11209288087E+04  0.50400001928E-02 0.  1.
       -1   -1    0    0    0  501  0.00000000000E+00  0.00000000000E+00 -0.12564758035E+04  0.12564758035E+04  0.50400001928E-02 0. -1.
    10030    2    1    2    0    0  0.00000000000E+00  0.00000000000E+00 -0.13554699477E+03  0.23774046122E+04  0.23735373817E+04 0.  0.
        2    1    3    3  502    0 -0.11183329105E+04 -0.14096025968E+03  0.30415566553E+03  0.11674968789E+04  0.25500000920E-02 0.  1.
       -2    1    3    3    0  502  0.11183329105E+04  0.14096025968E+03 -0.43970266030E+03  0.12099077332E+04  0.25500000920E-02 0. -1.
</event>
<event>
 5   0  0.3310037E-05  0.2389952E+04  0.7818609E-02  0.8443275E-01
        2   -1    0    0  501    0  0.00000000000E+00  0.00000000000E+00  0.12595333911E+04  0.12595333911E+04  0.25500000920E-02 0. -1.
       -2   -1    0    0    0  501  0.00000000000E+00  0.00000000000E+00 -0.11337278780E+04  0.11337278780E+04  0.25500000920E-02 0.  1.
    10030    2    1    2    0    0  0.00000000000E+00  0.00000000000E+00  0.12580551315E+03  0.23932612691E+04  0.23899524002E+04 0.  0.
        2    1    3    3  502    0 -0.46052299393E+03  0.89241627936E+03 -0.58566660127E+03  0.11625375742E+04  0.25500000920E-02 0.  1.
       -2    1    3    3    0  502  0.46052299393E+03 -0.89241627936E+03  0.71147211442E+03  0.12307236949E+04  0.25500000920E-02 0. -1.
</event>
<event>
 5   0  0.1407158E-05  0.2388402E+04  0.7818609E-02  0.8443858E-01
       -1   -1    0    0    0  501  0.00000000000E+00  0.00000000000E+00  0.11954829654E+04  0.11954829654E+04  0.50400001928E-02 0.  1.
        1   -1    0    0  501    0  0.00000000000E+00  0.00000000000E+00 -0.11929205616E+04  0.11929205617E+04  0.50400001928E-02 0. -1.
    10030    2    1    2    0    0  0.00000000000E+00  0.00000000000E+00  0.25624037417E+01  0.23884035271E+04  0.23884021525E+04 0.  0.
        1    1    3    3  502    0  0.11664742370E+04  0.11153813262E+03  0.23152752825E+03  0.11944487838E+04  0.50400001928E-02 0.  1.
       -1    1    3    3    0  502 -0.11664742370E+04 -0.11153813262E+03 -0.22896512451E+03  0.11939547433E+04  0.50400001928E-02 0. -1.
</event>
<event>
 5   0  0.3310037E-05  0.2409416E+04  0.7818609E-02  0.8435987E-01
        2   -1    0    0  501    0  0.00000000000E+00  0.00000000000E+00  0.20398201960E+04  0.20398201960E+04  0.25500000920E-02 0.  1.
       -2   -1    0    0    0  501  0.00000000000E+00  0.00000000000E+00 -0.71149494403E+03  0.71149494403E+03  0.25500000920E-02 0. -1.
    10030    2    1    2    0    0  0.00000000000E+00  0.00000000000E+00  0.13283252520E+04  0.27513151400E+04  0.24094163245E+04 0.  0.
        2    1    3    3  502    0  0.16858182274E+03 -0.52643994466E+03 -0.55813190683E+03  0.78553807783E+03  0.25500000920E-02 0. -1.
       -2    1    3    3    0  502 -0.16858182274E+03  0.52643994466E+03  0.18864571588E+04  0.19657770622E+04  0.25500000920E-02 0.  1.
</event>
<event>
 5   0  0.3320780E-05  0.2374985E+04  0.7818609E-02  0.8448929E-01
        2   -1    0    0  501    0  0.00000000000E+00  0.00000000000E+00  0.14459549469E+04  0.14459549469E+04  0.25500000920E-02 0. -1.
       -2   -1    0    0    0  501  0.00000000000E+00  0.00000000000E+00 -0.97522956671E+03  0.97522956671E+03  0.25500000920E-02 0.  1.
    10030    2    1    2    0    0  0.00000000000E+00  0.00000000000E+00  0.47072538022E+03  0.24211845136E+04  0.23749846453E+04 0.  0.
        5    1    3    3  502    0  0.87991357932E+03 -0.75914100772E+03 -0.13460946692E+02  0.11622161003E+04  0.46999998093E+01 0.  1.
       -5    1    3    3    0  502 -0.87991357932E+03  0.75914100772E+03  0.48418632691E+03  0.12589684134E+04  0.46999998093E+01 0. -1.
</event>
<event>
 5   0  0.3320780E-05  0.2393860E+04  0.7818609E-02  0.8441806E-01
       -2   -1    0    0    0  501  0.00000000000E+00  0.00000000000E+00  0.13105907991E+04  0.13105907991E+04  0.25500000920E-02 0. -1.
        2   -1    0    0  501    0  0.00000000000E+00  0.00000000000E+00 -0.10931265070E+04  0.10931265070E+04  0.25500000920E-02 0.  1.
    10030    2    1    2    0    0  0.00000000000E+00  0.00000000000E+00  0.21746429212E+03  0.24037173060E+04  0.23938600980E+04 0.  0.
        5    1    3    3  502    0  0.68371089493E+03  0.90875630793E+03 -0.26606188202E+03  0.11679510393E+04  0.46999998093E+01 0. -1.
       -5    1    3    3    0  502 -0.68371089493E+03 -0.90875630793E+03  0.48352617414E+03  0.12357662668E+04  0.46999998093E+01 0.  1.
</event>
<event>
 5   0  0.3320780E-05  0.2467372E+04  0.7818609E-02  0.8414702E-01
       -2   -1    0    0    0  501  0.00000000000E+00  0.00000000000E+00  0.94982083760E+03  0.94982083761E+03  0.25500000920E-02 0.  1.
        2   -1    0    0  501    0  0.00000000000E+00  0.00000000000E+00 -0.16023880718E+04  0.16023880718E+04  0.25500000920E-02 0. -1.
    10030    2    1    2    0    0  0.00000000000E+00  0.00000000000E+00 -0.65256723417E+03  0.25522089094E+04  0.24673723517E+04 0.  0.
        5    1    3    3  502    0 -0.38129152087E+03  0.99024295735E+03  0.32463465220E+03  0.11096729635E+04  0.46999998093E+01 0. -1.
       -5    1    3    3    0  502  0.38129152087E+03 -0.99024295735E+03 -0.97720188637E+03  0.14425359459E+04  0.46999998093E+01 0.  1.
</event>
<event>
 5   0  0.1407158E-05  0.2414112E+04  0.7818609E-02  0.8434239E-01
       -1   -1    0    0    0  501  0.00000000000E+00  0.00000000000E+00  0.12400701794E+04  0.12400701794E+04  0.50400001928E-02 0. -1.
        1   -1    0    0  501    0  0.00000000000E+00  0.00000000000E+00 -0.11749204901E+04  0.11749204901E+04  0.50400001928E-02 0.  1.
    10030    2    1    2    0    0  0.00000000000E+00  0.00000000000E+00  0.65149689343E+02  0.24149906695E+04  0.24141117314E+04 0.  0.
        1    1    3    3  502    0 -0.87732299501E+03 -0.20116638240E+03  0.83711905773E+03  0.12291996859E+04  0.50400001928E-02 0. -1.
       -1    1    3    3    0  502  0.87732299501E+03  0.20116638240E+03 -0.77196936839E+03  0.11857909836E+04  0.50400001928E-02 0.  1.
</event>
<event>
 5   0  0.1506985E-05  0.2400203E+04  0.7818609E-02  0.8439428E-01
        1   -1    0    0  501    0  0.00000000000E+00  0.00000000000E+00  0.10919971002E+04  0.10919971002E+04  0.50400001928E-02 0. -1.
       -1   -1    0    0    0  501  0.00000000000E+00  0.00000000000E+00 -0.13189074069E+04  0.13189074069E+04  0.50400001928E-02 0.  1.
    10030    2    1    2    0    0  0.00000000000E+00  0.00000000000E+00 -0.22691030666E+03  0.24109045071E+04  0.24002025446E+04 0.  0.
        3    1    3    3  502    0  0.63692935303E+03  0.10094187849E+04 -0.23906379606E+03  0.12172743293E+04  0.10100000352E+00 0.  1.
       -3    1    3    3    0  502 -0.63692935303E+03 -0.10094187849E+04  0.12153489397E+02  0.11936301778E+04  0.10100000352E+00 0. -1.
</event>
<event>
 5   0  0.1506985E-05  0.2381882E+04  0.7818609E-02  0.8446318E-01
        1   -1    0    0  501    0  0.00000000000E+00  0.00000000000E+00  0.14894444600E+04  0.14894444600E+04  0.50400001928E-02 0. -1.
       -1   -1    0    0    0  501  0.00000000000E+00  0.00000000000E+00 -0.95226106336E+03  0.95226106337E+03  0.50400001928E-02 0.  1.
    10030    2    1    2    0    0  0.00000000000E+00  0.00000000000E+00  0.53718339661E+03  0.24417055233E+04  0.23818815800E+04 0.  0.
        3    1    3    3  502    0  0.42542482063E+03 -0.56792132201E+03 -0.71189277204E+03  0.10051428929E+04  0.10100000352E+00 0.  1.
       -3    1    3    3    0  502 -0.42542482063E+03  0.56792132201E+03  0.12490761686E+04  0.14365626305E+04  0.10100000352E+00 0. -1.
</event>
<event>
 5   0  0.3215208E-05  0.2208784E+04  0.7818609E-02  0.8514781E-01
        2   -1    0    0  501    0  0.00000000000E+00  0.00000000000E+00  0.15098517234E+04  0.15098517234E+04  0.25500000920E-02 0. -1.
       -2   -1    0    0    0  501  0.00000000000E+00  0.00000000000E+00 -0.80781538527E+03  0.80781538527E+03  0.25500000920E-02 0.  1.
    10030    2    1    2    0    0  0.00000000000E+00  0.00000000000E+00  0.70203633817E+03  0.23176671087E+04  0.22087837845E+04 0.  0.
        1    1    3    3  502    0 -0.13384831159E+03 -0.70869112745E+03  0.12286226685E+04  0.14246656261E+04  0.50400001928E-02 0. -1.
       -1    1    3    3    0  502  0.13384831159E+03  0.70869112745E+03 -0.52658633033E+03  0.89300148261E+03  0.50400001928E-02 0.  1.
</event>
<event>
 5   0  0.1434943E-05  0.2450854E+04  0.7818609E-02  0.8420706E-01
        1   -1    0    0  501    0  0.00000000000E+00  0.00000000000E+00  0.85726561517E+03  0.85726561518E+03  0.50400001928E-02 0.  1.
       -1   -1    0    0    0  501  0.00000000000E+00  0.00000000000E+00 -0.17516983067E+04  0.17516983067E+04  0.50400001928E-02 0. -1.
    10030    2    1    2    0    0  0.00000000000E+00  0.00000000000E+00 -0.89443269150E+03  0.26089639219E+04  0.24508535056E+04 0.  0.
        5    1    3    3  502    0  0.11165776020E+04  0.37060117368E+02 -0.98321671985E+03  0.14882392959E+04  0.46999998093E+01 0.  1.
       -5    1    3    3    0  502 -0.11165776020E+04 -0.37060117368E+02  0.88784028352E+02  0.11207246260E+04  0.46999998093E+01 0. -1.
</event>
<event>
 5   0  0.3215208E-05  0.2429847E+04  0.7818609E-02  0.8428413E-01
       -2   -1    0    0    0  501  0.00000000000E+00  0.00000000000E+00  0.10206825051E+04  0.10206825051E+04  0.25500000920E-02 0.  1.
        2   -1    0    0  501    0  0.00000000000E+00  0.00000000000E+00 -0.14461298932E+04  0.14461298932E+04  0.25500000920E-02 0. -1.
    10030    2    1    2    0    0  0.00000000000E+00  0.00000000000E+00 -0.42544738818E+03  0.24668123983E+04  0.24298473056E+04 0.  0.
        1    1    3    3  502    0 -0.11960186273E+03  0.32660929030E+03 -0.13945036031E+04  0.14372259854E+04  0.50400001928E-02 0. -1.
       -1    1    3    3    0  502  0.11960186273E+03 -0.32660929030E+03  0.96905621488E+03  0.10295864129E+04  0.50400001928E-02 0.  1.
</event>
<event>
 5   0  0.3347728E-05  0.2372356E+04  0.7818609E-02  0.8449926E-01
       -2   -1    0    0    0  501  0.00000000000E+00  0.00000000000E+00  0.83356866663E+03  0.83356866663E+03  0.25500000920E-02 0.  1.
        2   -1    0    0  501    0  0.00000000000E+00  0.00000000000E+00 -0.16879452011E+04  0.16879452011E+04  0.25500000920E-02 0. -1.
    10030    2    1    2    0    0  0.00000000000E+00  0.00000000000E+00 -0.85437653444E+03  0.25215138677E+04  0.23723559856E+04 0.  0.
        3    1    3    3  502    0 -0.83986636338E+03 -0.45055748154E+03  0.32335433880E+03  0.10064470136E+04  0.10100000352E+00 0.  1.
       -3    1    3    3    0  502  0.83986636338E+03  0.45055748154E+03 -0.11777308732E+04  0.15150668541E+04  0.10100000352E+00 0. -1.
</event>
<event>
 5   0  0.3310037E-05  0.2387917E+04  0.7818609E-02  0.8444041E-01
       -2   -1    0    0    0  501  0.00000000000E+00  0.00000000000E+00  0.94119221983E+03  0.94119221983E+03  0.25500000920E-02 0. -1.
        2   -1    0    0  501    0  0.00000000000E+00  0.00000000000E+00 -0.15146077883E+04  0.15146077883E+04  0.25500000920E-02 0.  1.
    10030    2    1    2    0    0  0.00000000000E+00  0.00000000000E+00 -0.57341556845E+03  0.24558000081E+04  0.23879171396E+04 0.  0.
        2    1    3    3  502    0  0.75654839416E+03  0.86590834824E+03  0.43951019003E+02  0.11506930226E+04  0.25500000920E-02 0. -1.
       -2    1    3    3    0  502 -0.75654839416E+03 -0.86590834824E+03 -0.61736658746E+03  0.13051069855E+04  0.25500000920E-02 0.  1.
</event>
<event>
 5   0  0.1401596E-05  0.1935538E+04  0.7818609E-02  0.8637366E-01
       -1   -1    0    0    0  501  0.00000000000E+00  0.00000000000E+00  0.68594095366E+03  0.68594095368E+03  0.50400001928E-02 0. -1.
        1   -1    0    0  501    0  0.00000000000E+00  0.00000000000E+00 -0.13653892883E+04  0.13653892884E+04  0.50400001928E-02 0.  1.
    10030    2    1    2    0    0  0.00000000000E+00  0.00000000000E+00 -0.67944833469E+03  0.20513302420E+04  0.19355375797E+04 0.  0.
        2    1    3    3  502    0  0.40453305849E+03  0.79194718118E+03  0.64886111802E+02  0.89164877654E+03  0.25500000920E-02 0.  1.
       -2    1    3    3    0  502 -0.40453305849E+03 -0.79194718118E+03 -0.74433444649E+03  0.11596814655E+04  0.25500000920E-02 0. -1.
</event>
<event>
 5   0  0.3320780E-05  0.2414865E+04  0.7818609E-02  0.8433959E-01
       -2   -1    0    0    0  501  0.00000000000E+00  0.00000000000E+00  0.90414719673E+03  0.90414719673E+03  0.25500000920E-02 0. -1.
        2   -1    0    0  501    0  0.00000000000E+00  0.00000000000E+00 -0.16124513653E+04  0.16124513653E+04  0.25500000920E-02 0.  1.
    10030    2    1    2    0    0  0.00000000000E+00  0.00000000000E+00 -0.70830416861E+03  0.25165985621E+04  0.24148651158E+04 0.  0.
        5    1    3    3  502    0 -0.33217848695E+03  0.25955002823E+03 -0.15332601807E+04  0.15901627703E+04  0.46999998093E+01 0.  1.
       -5    1    3    3    0  502  0.33217848695E+03 -0.25955002823E+03  0.82495601210E+03  0.92643579175E+03  0.46999998093E+01 0. -1.
</event>
<event>
 5   0  0.1147362E-05  0.2405174E+04  0.7818609E-02  0.8437569E-01
       -3   -1    0    0    0  501  0.00000000000E+00  0.00000000000E+00  0.98195285770E+03  0.98195286289E+03  0.10100000352E+00 0.  1.
        3   -1    0    0  501    0  0.00000000000E+00  0.00000000000E+00 -0.14727955830E+04  0.14727955864E+04  0.10100000352E+00 0. -1.
    10030    2    1    2    0    0  0.00000000000E+00  0.00000000000E+00 -0.49084272526E+03  0.24547484493E+04  0.24051742907E+04 0.  0.
        5    1    3    3  502    0  0.76655042612E+03  0.36877953634E+03 -0.11129986479E+04  0.14008518774E+04  0.46999998093E+01 0.  1.
       -5    1    3    3    0  502 -0.76655042612E+03 -0.36877953634E+03  0.62215592264E+03  0.10538965719E+04  0.46999998093E+01 0. -1.
</event>
<event>
 5   0  0.3320780E-05  0.2388531E+04  0.7818609E-02  0.8443810E-01
       -2   -1    0    0    0  501  0.00000000000E+00  0.00000000000E+00  0.20879716174E+04  0.20879716174E+04  0.25500000920E-02 0. -1.
        2   -1    0    0  501    0  0.00000000000E+00  0.00000000000E+00 -0.68308857121E+03  0.68308857122E+03  0.25500000920E-02 0.  1.
    10030    2    1    2    0    0  0.00000000000E+00  0.00000000000E+00  0.14048830462E+04  0.27710601886E+04  0.23885305515E+04 0.  0.
        5    1    3    3  502    0 -0.15832764902E+03  0.11792842014E+04  0.58373920796E+03  0.13253499255E+04  0.46999998093E+01 0.  1.
       -5    1    3    3    0  502  0.15832764902E+03 -0.11792842014E+04  0.82114383826E+03  0.14457102632E+04  0.46999998093E+01 0. -1.
</event>
<event>
 5   0  0.3215208E-05  0.2404203E+04  0.7818609E-02  0.8437932E-01
       -2   -1    0    0    0  501  0.00000000000E+00  0.00000000000E+00  0.93845122303E+03  0.93845122304E+03  0.25500000920E-02 0.  1.
        2   -1    0    0  501    0  0.00000000000E+00  0.00000000000E+00 -0.15398217730E+04  0.15398217730E+04  0.25500000920E-02 0. -1.
    10030    2    1    2    0    0  0.00000000000E+00  0.00000000000E+00 -0.60137054997E+03  0.24782729960E+04  0.24042026754E+04 0.  0.
        1    1    3    3  502    0  0.90127082494E+03  0.77348123162E+03 -0.10926182496E+03  0.11926862379E+04  0.50400001928E-02 0.  1.
       -1    1    3    3    0  502 -0.90127082494E+03 -0.77348123162E+03 -0.49210872502E+03  0.12855867582E+04  0.50400001928E-02 0. -1.
</event>
<event>
 5   0  0.3345974E-05  0.2398768E+04  0.7818609E-02  0.8439965E-01
       -2   -1    0    0    0  501  0.00000000000E+00  0.00000000000E+00  0.82433897233E+03  0.82433897233E+03  0.25500000920E-02 0.  1.
        2   -1    0    0  501    0  0.00000000000E+00  0.00000000000E+00 -0.17450609465E+04  0.17450609465E+04  0.25500000920E-02 0. -1.
    10030    2    1    2    0    0  0.00000000000E+00  0.00000000000E+00 -0.92072197414E+03  0.25693999188E+04  0.23987678064E+04 0.  0.
        4    1    3    3  502    0 -0.11598370585E+04  0.11874487045E+03 -0.15892158459E+03  0.11766817876E+04  0.12699999809E+01 0. -1.
       -4    1    3    3    0  502  0.11598370585E+04 -0.11874487045E+03 -0.76180038955E+03  0.13927181312E+04  0.12699999809E+01 0.  1.
</event>
<event>
 5   0  0.1401596E-05  0.2435124E+04  0.7818609E-02  0.8426470E-01
       -1   -1    0    0    0  501  0.00000000000E+00  0.00000000000E+00  0.88137158846E+03  0.88137158848E+03  0.50400001928E-02 0.  1.
        1   -1    0    0  501    0  0.00000000000E+00  0.00000000000E+00 -0.16819883926E+04  0.16819883926E+04  0.50400001928E-02 0. -1.
    10030    2    1    2    0    0  0.00000000000E+00  0.00000000000E+00 -0.80061680415E+03  0.25633599811E+04  0.24351236366E+04 0.  0.
        2    1    3    3  502    0  0.13722921376E+03 -0.21825101541E+03  0.85231030797E+03  0.89044832748E+03  0.25500000920E-02 0.  1.
       -2    1    3    3    0  502 -0.13722921376E+03  0.21825101541E+03 -0.16529271121E+04  0.16729116536E+04  0.25500000920E-02 0. -1.
</event>
<event>
 5   0  0.1401596E-05  0.2400023E+04  0.7818609E-02  0.8439495E-01
        1   -1    0    0  501    0  0.00000000000E+00  0.00000000000E+00  0.82290120248E+03  0.82290120249E+03  0.50400001928E-02 0. -1.
       -1   -1    0    0    0  501  0.00000000000E+00  0.00000000000E+00 -0.17499403387E+04  0.17499403387E+04  0.50400001928E-02 0.  1.
    10030    2    1    2    0    0  0.00000000000E+00  0.00000000000E+00 -0.92703913621E+03  0.25728415412E+04  0.24000233407E+04 0.  0.
        2    1    3    3  502    0  0.12328028868E+03 -0.10448341450E+04 -0.10822742789E+04  0.15093687538E+04  0.25500000920E-02 0.  1.
       -2    1    3    3    0  502 -0.12328028868E+03  0.10448341450E+04  0.15523514269E+03  0.10634727874E+04  0.25500000920E-02 0. -1.
</event>
<event>
 5   0  0.3320780E-05  0.2375678E+04  0.7818609E-02  0.8448666E-01
       -2   -1    0    0    0  501  0.00000000000E+00  0.00000000000E+00  0.16735077494E+04  0.16735077494E+04  0.25500000920E-02 0.  1.
        2   -1    0    0  501    0  0.00000000000E+00  0.00000000000E+00 -0.84311639234E+03  0.84311639234E+03  0.25500000920E-02 0. -1.
    10030    2    1    2    0    0  0.00000000000E+00  0.00000000000E+00  0.83039135709E+03  0.25166241418E+04  0.23756782747E+04 0.  0.
        5    1    3    3  502    0 -0.11434617070E+02 -0.84666580572E+03 -0.46727406807E+03  0.96713022998E+03  0.46999998093E+01 0. -1.
       -5    1    3    3    0  502  0.11434617070E+02  0.84666580572E+03  0.12976654252E+04  0.15494939118E+04  0.46999998093E+01 0.  1.
</event>
<event>
 5   0  0.3347728E-05  0.2502175E+04  0.7818609E-02  0.8402211E-01
        2   -1    0    0  501    0  0.00000000000E+00  0.00000000000E+00  0.74809403885E+03  0.74809403885E+03  0.25500000920E-02 0.  1.
       -2   -1    0    0    0  501  0.00000000000E+00  0.00000000000E+00 -0.20922776951E+04  0.20922776951E+04  0.25500000920E-02 0. -1.
    10030    2    1    2    0    0  0.00000000000E+00  0.00000000000E+00 -0.13441836562E+04  0.28403717339E+04  0.25021754305E+04 0.  0.
        3    1    3    3  502    0  0.68638600268E+03  0.10440416299E+04 -0.59965653965E+03  0.13859064345E+04  0.10100000352E+00 0.  1.
       -3    1    3    3    0  502 -0.68638600268E+03 -0.10440416299E+04 -0.74452711657E+03  0.14544652994E+04  0.10100000352E+00 0. -1.
</event>
<event>
 5   0  0.1401596E-05  0.2419473E+04  0.7818609E-02  0.8432249E-01
        1   -1    0    0  501    0  0.00000000000E+00  0.00000000000E+00  0.10053814041E+04  0.10053814041E+04  0.50400001928E-02 0.  1.
       -1   -1    0    0    0  501  0.00000000000E+00  0.00000000000E+00 -0.14556292011E+04  0.14556292011E+04  0.50400001928E-02 0. -1.
    10030    2    1    2    0    0  0.00000000000E+00  0.00000000000E+00 -0.45024779694E+03  0.24610106052E+04  0.24194731080E+04 0.  0.
        2    1    3    3  502    0  0.43209718627E+03 -0.98619056447E+03 -0.78612014685E+03  0.13331409127E+04  0.25500000920E-02 0. -1.
       -2    1    3    3    0  502 -0.43209718627E+03  0.98619056447E+03  0.33587234991E+03  0.11278696925E+04  0.25500000920E-02 0.  1.
</event>
<event>
 5   0  0.3345974E-05  0.2374682E+04  0.7818609E-02  0.8449044E-01
        2   -1    0    0  501    0  0.00000000000E+00  0.00000000000E+00  0.17798362134E+04  0.17798362134E+04  0.25500000920E-02 0. -1.
       -2   -1    0    0    0  501  0.00000000000E+00  0.00000000000E+00 -0.79208316688E+03  0.79208316688E+03  0.25500000920E-02 0.  1.
    10030    2    1    2    0    0  0.00000000000E+00  0.00000000000E+00  0.98775304652E+03  0.25719193803E+04  0.23746817087E+04 0.  0.
        4    1    3    3  502    0  0.11707711154E+04 -0.93893686157E+02  0.30548763705E+03  0.12136083957E+04  0.12699999809E+01 0.  1.
       -4    1    3    3    0  502 -0.11707711154E+04  0.93893686157E+02  0.68226540947E+03  0.13583109846E+04  0.12699999809E+01 0. -1.
</event>
<event>
 5   0  0.1393026E-05  0.2438669E+04  0.7818609E-02  0.8425167E-01
        1   -1    0    0  501    0  0.00000000000E+00  0.00000000000E+00  0.17126839537E+04  0.17126839537E+04  0.50400001928E-02 0.  1.
       -1   -1    0    0    0  501  0.00000000000E+00  0.00000000000E+00 -0.86809766301E+03  0.86809766302E+03  0.50400001928E-02 0. -1.
    10030    2    1    2    0    0  0.00000000000E+00  0.00000000000E+00  0.84458629071E+03  0.25807816168E+04  0.24386692582E+04 0.  0.
        4    1    3    3  502    0 -0.78692962138E+03  0.30389204801E+03  0.13540356593E+04  0.15953127548E+04  0.12699999809E+01 0.  1.
       -4    1    3    3    0  502  0.78692962138E+03 -0.30389204801E+03 -0.50944936863E+03  0.98546886199E+03  0.12699999809E+01 0. -1.
</event>
<event>
 5   0  0.1506985E-05  0.2293427E+04  0.7818609E-02  0.8480517E-01
        1   -1    0    0  501    0  0.00000000000E+00  0.00000000000E+00  0.80405550814E+03  0.80405550816E+03  0.50400001928E-02 0. -1.
       -1   -1    0    0    0  501  0.00000000000E+00  0.00000000000E+00 -0.16353992105E+04  0.16353992105E+04  0.50400001928E-02 0.  1.
    10030    2    1    2    0    0  0.00000000000E+00  0.00000000000E+00 -0.83134370238E+03  0.24394547187E+04  0.22934269060E+04 0.  0.
        3    1    3    3  502    0  0.93245473494E+03  0.23112193480E+03 -0.10816891951E+04  0.14466999366E+04  0.10100000352E+00 0.  1.
       -3    1    3    3    0  502 -0.93245473494E+03 -0.23112193480E+03  0.25034549273E+03  0.99275478211E+03  0.10100000352E+00 0. -1.
</event>
<event>
 5   0  0.3215208E-05  0.2387923E+04  0.7818609E-02  0.8444039E-01
       -2   -1    0    0    0  501  0.00000000000E+00  0.00000000000E+00  0.11889773245E+04  0.11889773245E+04  0.25500000920E-02 0.  1.
        2   -1    0    0  501    0  0.00000000000E+00  0.00000000000E+00 -0.11989664171E+04  0.11989664171E+04  0.25500000920E-02 0. -1.
    10030    2    1    2    0    0  0.00000000000E+00  0.00000000000E+00 -0.99890926147E+01  0.23879437416E+04  0.23879228487E+04 0.  0.
        1    1    3    3  502    0 -0.11000799919E+02  0.11550737923E+04 -0.30703592749E+03  0.11952353509E+04  0.50400001928E-02 0. -1.
       -1    1    3    3    0  502  0.11000799919E+02 -0.11550737923E+04  0.29704683488E+03  0.11927083908E+04  0.50400001928E-02 0.  1.
</event>
<event>
 5   0  0.1401596E-05  0.2406802E+04  0.7818609E-02  0.8436961E-01
        1   -1    0    0  501    0  0.00000000000E+00  0.00000000000E+00  0.14035116513E+04  0.14035116513E+04  0.50400001928E-02 0. -1.
       -1   -1    0    0    0  501  0.00000000000E+00  0.00000000000E+00 -0.10318221400E+04  0.10318221400E+04  0.50400001928E-02 0.  1.
    10030    2    1    2    0    0  0.00000000000E+00  0.00000000000E+00  0.37168951136E+03  0.24353337913E+04  0.24068023563E+04 0.  0.
        2    1    3    3  502    0 -0.84935886213E+03 -0.18121565886E+03  0.10287412984E+04  0.13463128354E+04  0.25500000920E-02 0. -1.
       -2    1    3    3    0  502  0.84935886213E+03  0.18121565886E+03 -0.65705178702E+03  0.10890209560E+04  0.25500000920E-02 0.  1.
</event>
<event>
 5   0  0.3215208E-05  0.2203565E+04  0.7818609E-02  0.8516946E-01
       -2   -1    0    0    0  501  0.00000000000E+00  0.00000000000E+00  0.16547152373E+04  0.16547152373E+04  0.25500000920E-02 0.  1.
        2   -1    0    0  501    0  0.00000000000E+00  0.00000000000E+00 -0.73361513940E+03  0.73361513940E+03  0.25500000920E-02 0. -1.
    10030    2    1    2    0    0  0.00000000000E+00  0.00000000000E+00  0.92110009791E+03  0.23883303767E+04  0.22035645209E+04 0.  0.
        1    1    3    3  502    0 -0.17991472935E+03  0.86874793851E+03 -0.24755394678E+03  0.92107287828E+03  0.50400001928E-02 0. -1.
       -1    1    3    3    0  502  0.17991472935E+03 -0.86874793851E+03  0.11686540447E+04  0.14672574984E+04  0.50400001928E-02 0.  1.
</event>
<event>
 5   0  0.3347728E-05  0.2378042E+04  0.7818609E-02  0.8447770E-01
        2   -1    0    0  501    0  0.00000000000E+00  0.00000000000E+00  0.13585140957E+04  0.13585140957E+04  0.25500000920E-02 0. -1.
       -2   -1    0    0    0  501  0.00000000000E+00  0.00000000000E+00 -0.10406741760E+04  0.10406741760E+04  0.25500000920E-02 0.  1.
    10030    2    1    2    0    0  0.00000000000E+00  0.00000000000E+00  0.31783991968E+03  0.23991882718E+04  0.23780416626E+04 0.  0.
        3    1    3    3  502    0 -0.29368172248E+03 -0.91447074926E+03  0.86605556310E+03  0.12932741217E+04  0.10100000352E+00 0.  1.
       -3    1    3    3    0  502  0.29368172248E+03  0.91447074926E+03 -0.54821564342E+03  0.11059141500E+04  0.10100000352E+00 0. -1.
</event>
<event>
 5   0  0.1407158E-05  0.2404813E+04  0.7818609E-02  0.8437704E-01
       -1   -1    0    0    0  501  0.00000000000E+00  0.00000000000E+00  0.17260179115E+04  0.17260179116E+04  0.50400001928E-02 0. -1.
        1   -1    0    0  501    0  0.00000000000E+00  0.00000000000E+00 -0.83763963598E+03  0.83763963600E+03  0.50400001928E-02 0.  1.
    10030    2    1    2    0    0  0.00000000000E+00  0.00000000000E+00  0.88837827556E+03  0.25636575475E+04  0.24048126872E+04 0.  0.
        1    1    3    3  502    0 -0.73015240832E+03 -0.93654359590E+03  0.24320333451E+03  0.12121816317E+04  0.50400001928E-02 0. -1.
       -1    1    3    3    0  502  0.73015240832E+03  0.93654359590E+03  0.64517494105E+03  0.13514759158E+04  0.50400001928E-02 0.  1.
</event>
<event>
 5   0  0.1407158E-05  0.2390499E+04  0.7818609E-02  0.8443069E-01
        1   -1    0    0  501    0  0.00000000000E+00  0.00000000000E+00  0.16186493361E+04  0.16186493361E+04  0.50400001928E-02 0. -1.
       -1   -1    0    0    0  501  0.00000000000E+00  0.00000000000E+00 -0.88260110329E+03  0.88260110330E+03  0.50400001928E-02 0.  1.
    10030    2    1    2    0    0  0.00000000000E+00  0.00000000000E+00  0.73604823285E+03  0.25012504394E+04  0.23904992700E+04 0.  0.
        1    1    3    3  502    0  0.16857551058E+03 -0.10177551489E+04  0.99962815892E+03  0.14364886711E+04  0.50400001928E-02 0. -1.
       -1    1    3    3    0  502 -0.16857551058E+03  0.10177551489E+04 -0.26357992607E+03  0.10647617684E+04  0.50400001928E-02 0.  1.
</event>
<event>
 5   0  0.3215208E-05  0.2403234E+04  0.7818609E-02  0.8438294E-01
       -2   -1    0    0    0  501  0.00000000000E+00  0.00000000000E+00  0.59842044496E+03  0.59842044496E+03  0.25500000920E-02 0.  1.
        2   -1    0    0  501    0  0.00000000000E+00  0.00000000000E+00 -0.24128236842E+04  0.24128236842E+04  0.25500000920E-02 0. -1.
    10030    2    1    2    0    0  0.00000000000E+00  0.00000000000E+00 -0.18144032393E+04  0.30112441292E+04  0.24032336738E+04 0.  0.
        1    1    3    3  502    0 -0.75651638794E+03  0.86538619476E+03 -0.46834369210E+03  0.12411914136E+04  0.50400001928E-02 0.  1.
       -1    1    3    3    0  502  0.75651638794E+03 -0.86538619476E+03 -0.13460595472E+04  0.17700527156E+04  0.50400001928E-02 0. -1.
</event>
<event>
 5   0  0.1401596E-05  0.2410812E+04  0.7818609E-02  0.8435467E-01
       -1   -1    0    0    0  501  0.00000000000E+00  0.00000000000E+00  0.20370381297E+04  0.20370381297E+04  0.50400001928E-02 0. -1.
        1   -1    0    0  501    0  0.00000000000E+00  0.00000000000E+00 -0.71329225724E+03  0.71329225726E+03  0.50400001928E-02 0.  1.
    10030    2    1    2    0    0  0.00000000000E+00  0.00000000000E+00  0.13237458724E+04  0.27503303869E+04  0.24108119177E+04 0.  0.
        2    1    3    3  502    0 -0.35965235330E+02 -0.26251599459E+03  0.20034032709E+04  0.20208495271E+04  0.25500000920E-02 0. -1.
       -2    1    3    3    0  502  0.35965235330E+02  0.26251599459E+03 -0.67965739844E+03  0.72948085981E+03  0.25500000920E-02 0.  1.
</event>
<event>
 5   0  0.1407158E-05  0.2392377E+04  0.7818609E-02  0.8442363E-01
       -1   -1    0    0    0  501  0.00000000000E+00  0.00000000000E+00  0.65456432314E+03  0.65456432315E+03  0.50400001928E-02 0. -1.
        1   -1    0    0  501    0  0.00000000000E+00  0.00000000000E+00 -0.21859844398E+04  0.21859844398E+04  0.50400001928E-02 0.  1.
    10030    2    1    2    0    0  0.00000000000E+00  0.00000000000E+00 -0.15314201167E+04  0.28405487630E+04  0.23923774161E+04 0.  0.
        1    1    3    3  502    0 -0.36063719997E+03 -0.10058170441E+04 -0.12726008157E+03  0.10760679554E+04  0.50400001928E-02 0. -1.
       -1    1    3    3    0  502  0.36063719997E+03  0.10058170441E+04 -0.14041600351E+04  0.17644808076E+04  0.50400001928E-02 0.  1.
</event>
<event>
 5   0  0.3347728E-05  0.2398708E+04  0.7818609E-02  0.8439987E-01
        2   -1    0    0  501    0  0.00000000000E+00  0.00000000000E+00  0.10273205306E+04  0.10273205306E+04  0.25500000920E-02 0. -1.
       -2   -1    0    0    0  501  0.00000000000E+00  0.00000000000E+00 -0.14001964948E+04  0.14001964948E+04  0.25500000920E-02 0.  1.
    10030    2    1    2    0    0  0.00000000000E+00  0.00000000000E+00 -0.37287596418E+03  0.24275170254E+04  0.23987084909E+04 0.  0.
        3    1    3    3  502    0  0.46197157486E+02 -0.11672066777E+04 -0.46163212698E+03  0.12560293932E+04  0.10100000352E+00 0.  1.
       -3    1    3    3    0  502 -0.46197157486E+02  0.11672066777E+04  0.88756162800E+02  0.11714876322E+04  0.10100000352E+00 0. -1.
</event>
<event>
 5   0  0.1393026E-05  0.2412363E+04  0.7818609E-02  0.8434890E-01
        1   -1    0    0  501    0  0.00000000000E+00  0.00000000000E+00  0.18173938957E+04  0.18173938957E+04  0.50400001928E-02 0. -1.
       -1   -1    0    0    0  501  0.00000000000E+00  0.00000000000E+00 -0.80052732451E+03  0.80052732453E+03  0.50400001928E-02 0.  1.
    10030    2    1    2    0    0  0.00000000000E+00  0.00000000000E+00  0.10168665712E+04  0.26179212202E+04  0.24123627198E+04 0.  0.
        4    1    3    3  502    0  0.66767727144E+03  0.25261266475E+03 -0.54666016980E+03  0.89913572464E+03  0.12699999809E+01 0.  1.
       -4    1    3    3    0  502 -0.66767727144E+03 -0.25261266475E+03  0.15635267410E+04  0.17187854956E+04  0.12699999809E+01 0. -1.
</event>
<event>
 5   0  0.1393026E-05  0.2401041E+04  0.7818609E-02  0.8439114E-01
       -1   -1    0    0    0  501  0.00000000000E+00  0.00000000000E+00  0.12697137771E+04  0.12697137772E+04  0.50400001928E-02 0. -1.
        1   -1    0    0  501    0  0.00000000000E+00  0.00000000000E+00 -0.11350982290E+04  0.11350982290E+04  0.50400001928E-02 0.  1.
    10030    2    1    2    0    0  0.00000000000E+00  0.00000000000E+00  0.13461554815E+03  0.24048120062E+04  0.24010413239E+04 0.  0.
        4    1    3    3  502    0  0.78681932449E+03  0.89852872099E+03  0.18919414354E+03  0.12092289067E+04  0.12699999809E+01 0. -1.
       -4    1    3    3    0  502 -0.78681932449E+03 -0.89852872099E+03 -0.54578595392E+02  0.11955830995E+04  0.12699999809E+01 0.  1.
</event>
<event>
 5   0  0.1393026E-05  0.2403920E+04  0.7818609E-02  0.8438038E-01
        1   -1    0    0  501    0  0.00000000000E+00  0.00000000000E+00  0.13099103001E+04  0.13099103001E+04  0.50400001928E-02 0.  1.
       -1   -1    0    0    0  501  0.00000000000E+00  0.00000000000E+00 -0.11029055836E+04  0.11029055836E+04  0.50400001928E-02 0. -1.
    10030    2    1    2    0    0  0.00000000000E+00  0.00000000000E+00  0.20700471653E+03  0.24128158837E+04  0.24039196193E+04 0.  0.
        4    1    3    3  502    0  0.18169176364E+03  0.10111913604E+04  0.72965871496E+03  0.12601282941E+04  0.12699999809E+01 0.  1.
       -4    1    3    3    0  502 -0.18169176364E+03 -0.10111913604E+04 -0.52265399843E+03  0.11526875896E+04  0.12699999809E+01 0. -1.
</event>
<event>
 5   0  0.3310037E-05  0.2420797E+04  0.7818609E-02  0.8431758E-01
        2   -1    0    0  501    0  0.00000000000E+00  0.00000000000E+00  0.77282732875E+03  0.77282732876E+03  0.25500000920E-02 0.  1.
       -2   -1    0    0    0  501  0.00000000000E+00  0.00000000000E+00 -0.18957206385E+04  0.18957206385E+04  0.25500000920E-02 0. -1.
    10030    2    1    2    0    0  0.00000000000E+00  0.00000000000E+00 -0.11228933097E+04  0.26685479672E+04  0.24207971556E+04 0.  0.
        2    1    3    3  502    0  0.34176408540E+02 -0.84017546795E+03 -0.15211825821E+04  0.17381194700E+04  0.25500000920E-02 0. -1.
       -2    1    3    3    0  502 -0.34176408540E+02  0.84017546795E+03  0.39828927244E+03  0.93042849720E+03  0.25500000920E-02 0.  1.
</event>
<event>
 5   0  0.3345974E-05  0.2513753E+04  0.7818609E-02  0.8398102E-01
        2   -1    0    0  501    0  0.00000000000E+00  0.00000000000E+00  0.12746817554E+04  0.12746817554E+04  0.25500000920E-02 0. -1.
       -2   -1    0    0    0  501  0.00000000000E+00  0.00000000000E+00 -0.12393202821E+04  0.12393202821E+04  0.25500000920E-02 0.  1.
    10030    2    1    2    0    0  0.00000000000E+00  0.00000000000E+00  0.35361473390E+02  0.25140020375E+04  0.25137533313E+04 0.  0.
        4    1    3    3  502    0  0.46497079372E+03  0.64633777026E+02  0.11837128866E+04  0.12734022047E+04  0.12699999809E+01 0. -1.
       -4    1    3    3    0  502 -0.46497079372E+03 -0.64633777026E+02 -0.11483514132E+04  0.12405998328E+04  0.12699999809E+01 0.  1.
</event>
<event>
 5   0  0.3347728E-05  0.2370213E+04  0.7818609E-02  0.8450740E-01
       -2   -1    0    0    0  501  0.00000000000E+00  0.00000000000E+00  0.74560075177E+03  0.74560075177E+03  0.25500000920E-02 0. -1.
        2   -1    0    0  501    0  0.00000000000E+00  0.00000000000E+00 -0.18836856803E+04  0.18836856803E+04  0.25500000920E-02 0.  1.
    10030    2    1    2    0    0  0.00000000000E+00  0.00000000000E+00 -0.11380849286E+04  0.26292864321E+04  0.23702130363E+04 0.  0.
        3    1    3    3  502    0 -0.42403529084E+03  0.19596925472E+03 -0.17772508545E+04  0.18376154349E+04  0.10100000352E+00 0.  1.
       -3    1    3    3    0  502  0.42403529084E+03 -0.19596925472E+03  0.63916592594E+03  0.79167099717E+03  0.10100000352E+00 0. -1.
</event>
<event>
 5   0  0.1506985E-05  0.2085585E+04  0.7818609E-02  0.8567620E-01
        1   -1    0    0  501    0  0.00000000000E+00  0.00000000000E+00  0.15076336837E+04  0.15076336837E+04  0.50400001928E-02 0. -1.
       -1   -1    0    0    0  501  0.00000000000E+00  0.00000000000E+00 -0.72127371149E+03  0.72127371151E+03  0.50400001928E-02 0.  1.
    10030    2    1    2    0    0  0.00000000000E+00  0.00000000000E+00  0.78635997219E+03  0.22289073952E+04  0.20855853304E+04 0.  0.
        3    1    3    3  502    0  0.28433512049E+03  0.75300226520E+03 -0.31537243807E+03  0.86447594358E+03  0.10100000352E+00 0.  1.
       -3    1    3    3    0  502 -0.28433512049E+03 -0.75300226520E+03  0.11017324103E+04  0.13644314516E+04  0.10100000352E+00 0. -1.
</event>
<event>
 5   0  0.3347728E-05  0.2393583E+04  0.7818609E-02  0.8441910E-01
        2   -1    0    0  501    0  0.00000000000E+00  0.00000000000E+00  0.16032079435E+04  0.16032079435E+04  0.25500000920E-02 0.  1.
       -2   -1    0    0    0  501  0.00000000000E+00  0.00000000000E+00 -0.89340214229E+03  0.89340214229E+03  0.25500000920E-02 0. -1.
    10030    2    1    2    0    0  0.00000000000E+00  0.00000000000E+00  0.70980580124E+03  0.24966100858E+04  0.23935825963E+04 0.  0.
        3    1    3    3  502    0 -0.80748671451E+03 -0.54461748274E+03  0.10802990792E+04  0.14545408579E+04  0.10100000352E+00 0.  1.
       -3    1    3    3    0  502  0.80748671451E+03  0.54461748274E+03 -0.37049327793E+03  0.10420692279E+04  0.10100000352E+00 0. -1.
</event>
<event>
 5   0  0.3310037E-05  0.1925487E+04  0.7818609E-02  0.8642273E-01
       -2   -1    0    0    0  501  0.00000000000E+00  0.00000000000E+00  0.10337798655E+04  0.10337798655E+04  0.25500000920E-02 0.  1.
        2   -1    0    0  501    0  0.00000000000E+00  0.00000000000E+00 -0.89658842313E+03  0.89658842313E+03  0.25500000920E-02 0. -1.
    10030    2    1    2    0    0  0.00000000000E+00  0.00000000000E+00  0.13719144237E+03  0.19303682886E+04  0.19254870132E+04 0.  0.
        2    1    3    3  502    0  0.91390272160E+03 -0.24597643878E+02 -0.23391719501E+03  0.94368452502E+03  0.25500000920E-02 0. -1.
       -2    1    3    3    0  502 -0.91390272160E+03  0.24597643878E+02  0.37110863739E+03  0.98668376362E+03  0.25500000920E-02 0.  1.
</event>
<event>
 5   0  0.1506985E-05  0.2412716E+04  0.7818609E-02  0.8434758E-01
        1   -1    0    0  501    0  0.00000000000E+00  0.00000000000E+00  0.13597832155E+04  0.13597832155E+04  0.50400001928E-02 0. -1.
       -1   -1    0    0    0  501  0.00000000000E+00  0.00000000000E+00 -0.10702438231E+04  0.10702438231E+04  0.50400001928E-02 0.  1.
    10030    2    1    2    0    0  0.00000000000E+00  0.00000000000E+00  0.28953939241E+03  0.24300270387E+04  0.24127159694E+04 0.  0.
        3    1    3    3  502    0  0.28030795448E+03  0.79002546265E+03 -0.72897228788E+03  0.11109065612E+04  0.10100000352E+00 0.  1.
       -3    1    3    3    0  502 -0.28030795448E+03 -0.79002546265E+03  0.10185116803E+04  0.13191204775E+04  0.10100000352E+00 0. -1.
</event>
<event>
 5   0  0.3320780E-05  0.2398986E+04  0.7818609E-02  0.8439883E-01
       -2   -1    0    0    0  501  0.00000000000E+00  0.00000000000E+00  0.29599776460E+04  0.29599776460E+04  0.25500000920E-02 0.  1.
        2   -1    0    0  501    0  0.00000000000E+00  0.00000000000E+00 -0.48607921018E+03  0.48607921019E+03  0.25500000920E-02 0. -1.
    10030    2    1    2    0    0  0.00000000000E+00  0.00000000000E+00  0.24738984358E+04  0.34460568562E+04  0.23989861161E+04 0.  0.
        5    1    3    3  502    0  0.39015694996E+03  0.10526088637E+04  0.62996268013E+03  0.12872773337E+04  0.46999998093E+01 0. -1.
       -5    1    3    3    0  502 -0.39015694996E+03 -0.10526088637E+04  0.18439357557E+04  0.21587795225E+04  0.46999998093E+01 0.  1.
</event>
<event>
 5   0  0.1147362E-05  0.2400825E+04  0.7818609E-02  0.8439195E-01
        3   -1    0    0  501    0  0.00000000000E+00  0.00000000000E+00  0.11551999920E+04  0.11551999964E+04  0.10100000352E+00 0.  1.
       -3   -1    0    0    0  501  0.00000000000E+00  0.00000000000E+00 -0.12473941334E+04  0.12473941375E+04  0.10100000352E+00 0. -1.
    10030    2    1    2    0    0  0.00000000000E+00  0.00000000000E+00 -0.92194141458E+02  0.24025941339E+04  0.24008246109E+04 0.  0.
        4    1    3    3  502    0  0.81086831909E+03 -0.60736782632E+03  0.59826024176E+03  0.11765713056E+04  0.12699999809E+01 0.  1.
       -4    1    3    3    0  502 -0.81086831909E+03  0.60736782632E+03 -0.69045438322E+03  0.12260228283E+04  0.12699999809E+01 0. -1.
</event>
<event>
 5   0  0.3320780E-05  0.2401835E+04  0.7818609E-02  0.8438817E-01
        2   -1    0    0  501    0  0.00000000000E+00  0.00000000000E+00  0.15566822090E+04  0.15566822090E+04  0.25500000920E-02 0.  1.
       -2   -1    0    0    0  501  0.00000000000E+00  0.00000000000E+00 -0.92645955484E+03  0.92645955485E+03  0.25500000920E-02 0. -1.
    10030    2    1    2    0    0  0.00000000000E+00  0.00000000000E+00  0.63022265418E+03  0.24831417639E+04  0.24018352203E+04 0.  0.
        5    1    3    3  502    0  0.10002540550E+04 -0.65363795783E+03  0.19091881465E+03  0.12100507585E+04  0.46999998093E+01 0. -1.
       -5    1    3    3    0  502 -0.10002540550E+04  0.65363795783E+03  0.43930383954E+03  0.12730910053E+04  0.46999998093E+01 0.  1.
</event>
<event>
 5   0  0.3215208E-05  0.2461448E+04  0.7818609E-02  0.8416850E-01
        2   -1    0    0  501    0  0.00000000000E+00  0.00000000000E+00  0.83058745529E+03  0.83058745529E+03  0.25500000920E-02 0.  1.
       -2   -1    0    0    0  501  0.00000000000E+00  0.00000000000E+00 -0.18236265681E+04  0.18236265681E+04  0.25500000920E-02 0. -1.
    10030    2    1    2    0    0  0.00000000000E+00  0.00000000000E+00 -0.99303911277E+03  0.26542140233E+04  0.24614478264E+04 0.  0.
        1    1    3    3  502    0 -0.39192066041E+03  0.49148101424E+02 -0.17534213340E+04  0.17973602072E+04  0.50400001928E-02 0. -1.
       -1    1    3    3    0  502  0.39192066041E+03 -0.49148101424E+02  0.76038222120E+03  0.85685381616E+03  0.50400001928E-02 0.  1.
</event>
<event>
 5   0  0.3345974E-05  0.2225829E+04  0.7818609E-02  0.8507754E-01
       -2   -1    0    0    0  501  0.00000000000E+00  0.00000000000E+00  0.71192837541E+03  0.71192837542E+03  0.25500000920E-02 0.  1.
        2   -1    0    0  501    0  0.00000000000E+00  0.00000000000E+00 -0.17397523547E+04  0.17397523547E+04  0.25500000920E-02 0. -1.
    10030    2    1    2    0    0  0.00000000000E+00  0.00000000000E+00 -0.10278239793E+04  0.24516807302E+04  0.22258293443E+04 0.  0.
        4    1    3    3  502    0 -0.45146079329E+03 -0.10060430047E+04 -0.34818553521E+03  0.11563624670E+04  0.12699999809E+01 0.  1.
       -4    1    3    3    0  502  0.45146079329E+03  0.10060430047E+04 -0.67963844411E+03  0.12953182632E+04  0.12699999809E+01 0. -1.
</event>
<event>
 5   0  0.1506985E-05  0.2391646E+04  0.7818609E-02  0.8442638E-01
        1   -1    0    0  501    0  0.00000000000E+00  0.00000000000E+00  0.14523194321E+04  0.14523194321E+04  0.50400001928E-02 0. -1.
       -1   -1    0    0    0  501  0.00000000000E+00  0.00000000000E+00 -0.98462669197E+03  0.98462669199E+03  0.50400001928E-02 0.  1.
    10030    2    1    2    0    0  0.00000000000E+00  0.00000000000E+00  0.46769274011E+03  0.24369461241E+04  0.23916458585E+04 0.  0.
        3    1    3    3  502    0  0.38933536535E+03 -0.61958181938E+03 -0.72986331156E+03  0.10335202569E+04  0.10100000352E+00 0.  1.
       -3    1    3    3    0  502 -0.38933536535E+03  0.61958181938E+03  0.11975560517E+04  0.14034258672E+04  0.10100000352E+00 0. -1.
</event>
<event>
 5   0  0.1393026E-05  0.2492516E+04  0.7818609E-02  0.8405657E-01
        1   -1    0    0  501    0  0.00000000000E+00  0.00000000000E+00  0.12147513500E+04  0.12147513500E+04  0.50400001928E-02 0.  1.
       -1   -1    0    0    0  501  0.00000000000E+00  0.00000000000E+00 -0.12785813433E+04  0.12785813433E+04  0.50400001928E-02 0. -1.
    10030    2    1    2    0    0  0.00000000000E+00  0.00000000000E+00 -0.63829993312E+02  0.24933326933E+04  0.24925155268E+04 0.  0.
        4    1    3    3  502    0 -0.46683615361E+03 -0.51262663961E+03 -0.10678387586E+04  0.12731862760E+04  0.12699999809E+01 0. -1.
       -4    1    3    3    0  502  0.46683615361E+03  0.51262663961E+03  0.10040087653E+04  0.12201464173E+04  0.12699999809E+01 0.  1.
</event>
<event>
 5   0  0.3215208E-05  0.2395301E+04  0.7818609E-02  0.8441265E-01
       -2   -1    0    0    0  501  0.00000000000E+00  0.00000000000E+00  0.82660218761E+03  0.82660218762E+03  0.25500000920E-02 0.  1.
        2   -1    0    0  501    0  0.00000000000E+00  0.00000000000E+00 -0.17352560192E+04  0.17352560192E+04  0.25500000920E-02 0. -1.
    10030    2    1    2    0    0  0.00000000000E+00  0.00000000000E+00 -0.90865383160E+03  0.25618582068E+04  0.23953007507E+04 0.  0.
        1    1    3    3  502    0 -0.64250937597E+03 -0.50761150151E+02  0.62530581326E+03  0.89799908279E+03  0.50400001928E-02 0.  1.
       -1    1    3    3    0  502  0.64250937597E+03  0.50761150151E+02 -0.15339596449E+04  0.16638591240E+04  0.50400001928E-02 0. -1.
</event>
<event>
 5   0  0.1407158E-05  0.2418605E+04  0.7818609E-02  0.8432571E-01
        1   -1    0    0  501    0  0.00000000000E+00  0.00000000000E+00  0.18998483686E+04  0.18998483687E+04  0.50400001928E-02 0.  1.
       -1   -1    0    0    0  501  0.00000000000E+00  0.00000000000E+00 -0.76975222139E+03  0.76975222141E+03  0.50400001928E-02 0. -1.
    10030    2    1    2    0    0  0.00000000000E+00  0.00000000000E+00  0.11300961473E+04  0.26696005901E+04  0.24186049716E+04 0.  0.
        1    1    3    3  502    0  0.84374455083E+03 -0.86027561108E+03  0.45230327245E+03  0.12870731309E+04  0.50400001928E-02 0. -1.
       -1    1    3    3    0  502 -0.84374455083E+03  0.86027561108E+03  0.67779287480E+03  0.13825274591E+04  0.50400001928E-02 0.  1.
</event>
<event>
 5   0  0.3345974E-05  0.2422455E+04  0.7818609E-02  0.8431144E-01
       -2   -1    0    0    0  501  0.00000000000E+00  0.00000000000E+00  0.75925184604E+03  0.75925184604E+03  0.25500000920E-02 0. -1.
        2   -1    0    0  501    0  0.00000000000E+00  0.00000000000E+00 -0.19322599475E+04  0.19322599475E+04  0.25500000920E-02 0.  1.
    10030    2    1    2    0    0  0.00000000000E+00  0.00000000000E+00 -0.11730081014E+04  0.26915117935E+04  0.24224548971E+04 0.  0.
        4    1    3    3  502    0  0.11705480262E+04 -0.20669659519E+03 -0.32792307232E+03  0.12330617658E+04  0.12699999809E+01 0. -1.
       -4    1    3    3    0  502 -0.11705480262E+04  0.20669659519E+03 -0.84508502910E+03  0.14584500277E+04  0.12699999809E+01 0.  1.
</event>
<event>
 5   0  0.3320780E-05  0.2394914E+04  0.7818609E-02  0.8441410E-01
       -2   -1    0    0    0  501  0.00000000000E+00  0.00000000000E+00  0.14457248903E+04  0.14457248903E+04  0.25500000920E-02 0. -1.
        2   -1    0    0  501    0  0.00000000000E+00  0.00000000000E+00 -0.99182273539E+03  0.99182273539E+03  0.25500000920E-02 0.  1.
    10030    2    1    2    0    0  0.00000000000E+00  0.00000000000E+00  0.45390215489E+03  0.24375476257E+04  0.23949136229E+04 0.  0.
        5    1    3    3  502    0  0.76031797979E+03 -0.89796567482E+03  0.45329461690E+03  0.12609218387E+04  0.46999998093E+01 0. -1.
       -5    1    3    3    0  502 -0.76031797979E+03  0.89796567482E+03  0.60753799031E+00  0.11766257870E+04  0.46999998093E+01 0.  1.
</event>
<event>
 5   0  0.3320780E-05  0.2360596E+04  0.7818609E-02  0.8454405E-01
        2   -1    0    0  501    0  0.00000000000E+00  0.00000000000E+00  0.68447275669E+03  0.68447275669E+03  0.25500000920E-02 0. -1.
       -2   -1    0    0    0  501  0.00000000000E+00  0.00000000000E+00 -0.20352942442E+04  0.20352942442E+04  0.25500000920E-02 0.  1.
    10030    2    1    2    0    0  0.00000000000E+00  0.00000000000E+00 -0.13508214876E+04  0.27197670009E+04  0.23605960790E+04 0.  0.
        5    1    3    3  502    0 -0.63534593986E+03  0.70041234152E+02 -0.18186057925E+04  0.19276720043E+04  0.46999998093E+01 0.  1.
       -5    1    3    3    0  502  0.63534593986E+03 -0.70041234152E+02  0.46778430491E+03  0.79209499664E+03  0.46999998093E+01 0. -1.
</event>
<event>
 5   0  0.1393026E-05  0.2467694E+04  0.7818609E-02  0.8414586E-01
       -1   -1    0    0    0  501  0.00000000000E+00  0.00000000000E+00  0.49512568039E+03  0.49512568042E+03  0.50400001928E-02 0.  1.
        1   -1    0    0  501    0  0.00000000000E+00  0.00000000000E+00 -0.30747301564E+04  0.30747301564E+04  0.50400001928E-02 0. -1.
    10030    2    1    2    0    0  0.00000000000E+00  0.00000000000E+00 -0.25796044760E+04  0.35698558369E+04  0.24676935473E+04 0.  0.
        4    1    3    3  502    0  0.28978255448E+03 -0.95262480730E+03 -0.23573283183E+03  0.10232494971E+04  0.12699999809E+01 0. -1.
       -4    1    3    3    0  502 -0.28978255448E+03  0.95262480730E+03 -0.23438716442E+04  0.25466063398E+04  0.12699999809E+01 0.  1.
</event>
<event>
 5   0  0.1393026E-05  0.2418629E+04  0.7818609E-02  0.8432562E-01
       -1   -1    0    0    0  501  0.00000000000E+00  0.00000000000E+00  0.74714564961E+03  0.74714564963E+03  0.50400001928E-02 0. -1.
        1   -1    0    0  501    0  0.00000000000E+00  0.00000000000E+00 -0.19573707824E+04  0.19573707824E+04  0.50400001928E-02 0.  1.
    10030    2    1    2    0    0  0.00000000000E+00  0.00000000000E+00 -0.12102251328E+04  0.27045164320E+04  0.24186285905E+04 0.  0.
        4    1    3    3  502    0  0.24365670618E+03 -0.14352166449E+03 -0.19198792059E+04  0.19405939392E+04  0.12699999809E+01 0.  1.
       -4    1    3    3    0  502 -0.24365670618E+03  0.14352166449E+03  0.70965407313E+03  0.76392249283E+03  0.12699999809E+01 0. -1.
</event>
<event>
 5   0  0.1407158E-05  0.2353294E+04  0.7818609E-02  0.8457199E-01
        1   -1    0    0  501    0  0.00000000000E+00  0.00000000000E+00  0.16666674056E+04  0.16666674056E+04  0.50400001928E-02 0. -1.
       -1   -1    0    0    0  501  0.00000000000E+00  0.00000000000E+00 -0.83069878712E+03  0.83069878713E+03  0.50400001928E-02 0.  1.
    10030    2    1    2    0    0  0.00000000000E+00  0.00000000000E+00  0.83596861844E+03  0.24973661927E+04  0.23532943652E+04 0.  0.
        1    1    3    3  502    0 -0.43414776769E+02  0.11512936840E+04  0.67165084640E+03  0.13335954593E+04  0.50400001928E-02 0. -1.
       -1    1    3    3    0  502  0.43414776769E+02 -0.11512936840E+04  0.16431777204E+03  0.11637707334E+04  0.50400001928E-02 0.  1.
</event>
<event>
 5   0  0.3320780E-05  0.2372491E+04  0.7818609E-02  0.8449875E-01
        2   -1    0    0  501    0  0.00000000000E+00  0.00000000000E+00  0.11390240696E+04  0.11390240696E+04  0.25500000920E-02 0. -1.
       -2   -1    0    0    0  501  0.00000000000E+00  0.00000000000E+00 -0.12354247177E+04  0.12354247177E+04  0.25500000920E-02 0.  1.
    10030    2    1    2    0    0  0.00000000000E+00  0.00000000000E+00 -0.96400648047E+02  0.23744487873E+04  0.23724910872E+04 0.  0.
        5    1    3    3  502    0 -0.72252716914E+03  0.50171890242E+03  0.74831381054E+03  0.11548865815E+04  0.46999998093E+01 0. -1.
       -5    1    3    3    0  502  0.72252716914E+03 -0.50171890242E+03 -0.84471445859E+03  0.12195622058E+04  0.46999998093E+01 0.  1.
</event>
<event>
 5   0  0.3345974E-05  0.2373297E+04  0.7818609E-02  0.8449569E-01
        2   -1    0    0  501    0  0.00000000000E+00  0.00000000000E+00  0.10082537970E+04  0.10082537970E+04  0.25500000920E-02 0. -1.
       -2   -1    0    0    0  501  0.00000000000E+00  0.00000000000E+00 -0.13966068434E+04  0.13966068434E+04  0.25500000920E-02 0.  1.
    10030    2    1    2    0    0  0.00000000000E+00  0.00000000000E+00 -0.38835304646E+03  0.24048606404E+04  0.23732965704E+04 0.  0.
        4    1    3    3  502    0 -0.92644551583E+03  0.73687077001E+03 -0.27805860834E+03  0.12159761626E+04  0.12699999809E+01 0. -1.
       -4    1    3    3    0  502  0.92644551583E+03 -0.73687077001E+03 -0.11029443813E+03  0.11888844778E+04  0.12699999809E+01 0.  1.
</event>
<event>
 5   0  0.3215208E-05  0.1983311E+04  0.7818609E-02  0.8614463E-01
       -2   -1    0    0    0  501  0.00000000000E+00  0.00000000000E+00  0.81481215988E+03  0.81481215988E+03  0.25500000920E-02 0. -1.
        2   -1    0    0  501    0  0.00000000000E+00  0.00000000000E+00 -0.12068801413E+04  0.12068801413E+04  0.25500000920E-02 0.  1.
    10030    2    1    2    0    0  0.00000000000E+00  0.00000000000E+00 -0.39206798145E+03  0.20216923012E+04  0.19833109839E+04 0.  0.
        1    1    3    3  502    0  0.32907227420E+03 -0.43450887655E+03  0.64842656636E+03  0.84707941625E+03  0.50400001928E-02 0. -1.
       -1    1    3    3    0  502 -0.32907227420E+03  0.43450887655E+03 -0.10404945478E+04  0.11746128850E+04  0.50400001928E-02 0.  1.
</event>
<event>
 5   0  0.3215208E-05  0.2415205E+04  0.7818609E-02  0.8433833E-01
        2   -1    0    0  501    0  0.00000000000E+00  0.00000000000E+00  0.89617450197E+03  0.89617450197E+03  0.25500000920E-02 0. -1.
       -2   -1    0    0    0  501  0.00000000000E+00  0.00000000000E+00 -0.16272541665E+04  0.16272541665E+04  0.25500000920E-02 0.  1.
    10030    2    1    2    0    0  0.00000000000E+00  0.00000000000E+00 -0.73107966449E+03  0.25234286684E+04  0.24152049124E+04 0.  0.
        1    1    3    3  502    0  0.91185138445E+03 -0.66173610752E+03 -0.81968477967E+03  0.13932877525E+04  0.50400001928E-02 0.  1.
       -1    1    3    3    0  502 -0.91185138445E+03  0.66173610752E+03  0.88605115183E+02  0.11301409159E+04  0.50400001928E-02 0. -1.
</event>
<event>
 5   0  0.1401596E-05  0.2199739E+04  0.7818609E-02  0.8518537E-01
        1   -1    0    0  501    0  0.00000000000E+00  0.00000000000E+00  0.10887355022E+04  0.10887355022E+04  0.50400001928E-02 0.  1.
       -1   -1    0    0    0  501  0.00000000000E+00  0.00000000000E+00 -0.11111173106E+04  0.11111173107E+04  0.50400001928E-02 0. -1.
    10030    2    1    2    0    0  0.00000000000E+00  0.00000000000E+00 -0.22381808447E+02  0.21998528129E+04  0.21997389511E+04 0.  0.
        2    1    3    3  502    0  0.15873679202E+03 -0.75190764842E+03 -0.79809272801E+03  0.11079325266E+04  0.25500000920E-02 0. -1.
       -2    1    3    3    0  502 -0.15873679202E+03  0.75190764842E+03  0.77571091956E+03  0.10919202863E+04  0.25500000920E-02 0.  1.
</event>
<event>
 5   0  0.1434943E-05  0.2411901E+04  0.7818609E-02  0.8435061E-01
        1   -1    0    0  501    0  0.00000000000E+00  0.00000000000E+00  0.20306280724E+04  0.20306280724E+04  0.50400001928E-02 0.  1.
       -1   -1    0    0    0  501  0.00000000000E+00  0.00000000000E+00 -0.71619044196E+03  0.71619044198E+03  0.50400001928E-02 0. -1.
    10030    2    1    2    0    0  0.00000000000E+00  0.00000000000E+00  0.13144376304E+04  0.27468185144E+04  0.24119008410E+04 0.  0.
        5    1    3    3  502    0 -0.61268560375E+03  0.98467917294E+03  0.10337626743E+04  0.15535971420E+04  0.46999998093E+01 0. -1.
       -5    1    3    3    0  502  0.61268560375E+03 -0.98467917294E+03  0.28067495612E+03  0.11932213724E+04  0.46999998093E+01 0.  1.
</event>
<event>
 5   0  0.3320780E-05  0.2413096E+04  0.7818609E-02  0.8434617E-01
       -2   -1    0    0    0  501  0.00000000000E+00  0.00000000000E+00  0.16002457411E+04  0.16002457411E+04  0.25500000920E-02 0.  1.
        2   -1    0    0  501    0  0.00000000000E+00  0.00000000000E+00 -0.90970910370E+03  0.90970910370E+03  0.25500000920E-02 0. -1.
    10030    2    1    2    0    0  0.00000000000E+00  0.00000000000E+00  0.69053663741E+03  0.25099548448E+04  0.24130960353E+04 0.  0.
        5    1    3    3  502    0 -0.32488405086E+03  0.98581960395E+03 -0.29451944226E+03  0.10789595590E+04  0.46999998093E+01 0.  1.
       -5    1    3    3    0  502  0.32488405086E+03 -0.98581960395E+03  0.98505607966E+03  0.14309952858E+04  0.46999998093E+01 0. -1.
</event>
<event>
 5   0  0.1393026E-05  0.2458505E+04  0.7818609E-02  0.8417919E-01
       -1   -1    0    0    0  501  0.00000000000E+00  0.00000000000E+00  0.13091133254E+04  0.13091133254E+04  0.50400001928E-02 0.  1.
        1   -1    0    0  501    0  0.00000000000E+00  0.00000000000E+00 -0.11542633723E+04  0.11542633723E+04  0.50400001928E-02 0. -1.
    10030    2    1    2    0    0  0.00000000000E+00  0.00000000000E+00  0.15484995307E+03  0.24633766977E+04  0.24585048804E+04 0.  0.
        4    1    3    3  502    0  0.14895109273E+03  0.11095129580E+03  0.12949721410E+04  0.13082243985E+04  0.12699999809E+01 0.  1.
       -4    1    3    3    0  502 -0.14895109273E+03 -0.11095129580E+03 -0.11401221879E+04  0.11551522992E+04  0.12699999809E+01 0. -1.
</event>
<event>
 5   0  0.3310037E-05  0.2395188E+04  0.7818609E-02  0.8441307E-01
        2   -1    0    0  501    0  0.00000000000E+00  0.00000000000E+00  0.12373298967E+04  0.12373298967E+04  0.25500000920E-02 0. -1.
       -2   -1    0    0    0  501  0.00000000000E+00  0.00000000000E+00 -0.11591340222E+04  0.11591340222E+04  0.25500000920E-02 0.  1.
    10030    2    1    2    0    0  0.00000000000E+00  0.00000000000E+00  0.78195874449E+02  0.23964639189E+04  0.23951878255E+04 0.  0.
        2    1    3    3  502    0  0.40995374338E+03 -0.36070758827E+03 -0.10273306781E+04  0.11634347245E+04  0.25500000920E-02 0.  1.
       -2    1    3    3    0  502 -0.40995374338E+03  0.36070758827E+03  0.11055265525E+04  0.12330291944E+04  0.25500000920E-02 0. -1.
</event>
<event>
 5   0  0.1407158E-05  0.2410770E+04  0.7818609E-02  0.8435482E-01
        1   -1    0    0  501    0  0.00000000000E+00  0.00000000000E+00  0.18714253825E+04  0.18714253825E+04  0.50400001928E-02 0.  1.
       -1   -1    0    0    0  501  0.00000000000E+00  0.00000000000E+00 -0.77638866449E+03  0.77638866451E+03  0.50400001928E-02 0. -1.
    10030    2    1    2    0    0  0.00000000000E+00  0.00000000000E+00  0.10950367180E+04  0.26478140471E+04  0.24107703777E+04 0.  0.
        1    1    3    3  502    0 -0.23640853273E+03 -0.11802909778E+04  0.47824825500E+03  0.12952595030E+04  0.50400001928E-02 0. -1.
       -1    1    3    3    0  502  0.23640853273E+03  0.11802909778E+04  0.61678846305E+03  0.13525545441E+04  0.50400001928E-02 0.  1.
</event>
<event>
 5   0  0.3347728E-05  0.2207586E+04  0.7818609E-02  0.8515277E-01
        2   -1    0    0  501    0  0.00000000000E+00  0.00000000000E+00  0.20112240651E+04  0.20112240651E+04  0.25500000920E-02 0. -1.
       -2   -1    0    0    0  501  0.00000000000E+00  0.00000000000E+00 -0.60577981048E+03  0.60577981048E+03  0.25500000920E-02 0.  1.
    10030    2    1    2    0    0  0.00000000000E+00  0.00000000000E+00  0.14054442546E+04  0.26170038756E+04  0.22075859512E+04 0.  0.
        3    1    3    3  502    0  0.27938352517E+03  0.24920046982E+03 -0.52821817413E+03  0.64743376339E+03  0.10100000352E+00 0.  1.
       -3    1    3    3    0  502 -0.27938352517E+03 -0.24920046982E+03  0.19336624288E+04  0.19695701122E+04  0.10100000352E+00 0. -1.
</event>
<event>
 5   0  0.3320780E-05  0.2414578E+04  0.7818609E-02  0.8434066E-01
        2   -1    0    0  501    0  0.00000000000E+00  0.00000000000E+00  0.13680373324E+04  0.13680373324E+04  0.25500000920E-02 0. -1.
       -2   -1    0    0    0  501  0.00000000000E+00  0.00000000000E+00 -0.10654290007E+04  0.10654290007E+04  0.25500000920E-02 0.  1.
    10030    2    1    2    0    0  0.00000000000E+00  0.00000000000E+00  0.30260833178E+03  0.24334663331E+04  0.24145779325E+04 0.  0.
        5    1    3    3  502    0  0.53718566041E+03 -0.77368689318E+03  0.91243697079E+03  0.13113821556E+04  0.46999998093E+01 0. -1.
       -5    1    3    3    0  502 -0.53718566041E+03  0.77368689318E+03 -0.60982863901E+03  0.11220841775E+04  0.46999998093E+01 0.  1.
</event>
<event>
 5   0  0.1407158E-05  0.2394151E+04  0.7818609E-02  0.8441696E-01
        1   -1    0    0  501    0  0.00000000000E+00  0.00000000000E+00  0.11473938789E+04  0.11473938789E+04  0.50400001928E-02 0.  1.
       -1   -1    0    0    0  501  0.00000000000E+00  0.00000000000E+00 -0.12489085304E+04  0.12489085304E+04  0.50400001928E-02 0. -1.
    10030    2    1    2    0    0  0.00000000000E+00  0.00000000000E+00 -0.10151465154E+03  0.23963024093E+04  0.23941512091E+04 0.  0.
        1    1    3    3  502    0 -0.60760888666E+03  0.36144750193E+03 -0.10176258934E+04  0.12391106951E+04  0.50400001928E-02 0. -1.
       -1    1    3    3    0  502  0.60760888666E+03 -0.36144750193E+03  0.91611124187E+03  0.11571917142E+04  0.50400001928E-02 0.  1.
</event>
<event>
 5   0  0.1393026E-05  0.2430216E+04  0.7818609E-02  0.8428277E-01
        1   -1    0    0  501    0  0.00000000000E+00  0.00000000000E+00  0.21452201177E+04  0.21452201177E+04  0.50400001928E-02 0. -1.
       -1   -1    0    0    0  501  0.00000000000E+00  0.00000000000E+00 -0.68826878126E+03  0.68826878127E+03  0.50400001928E-02 0.  1.
    10030    2    1    2    0    0  0.00000000000E+00  0.00000000000E+00  0.14569513365E+04  0.28334888990E+04  0.24302164809E+04 0.  0.
        4    1    3    3  502    0 -0.11982716207E+03 -0.42595237192E+03  0.20479440221E+04  0.20952017331E+04  0.12699999809E+01 0. -1.
       -4    1    3    3    0  502  0.11982716207E+03  0.42595237192E+03 -0.59099268564E+03  0.73828716588E+03  0.12699999809E+01 0.  1.
</event>
<event>
 5   0  0.1147362E-05  0.2422467E+04  0.7818609E-02  0.8431140E-01
        3   -1    0    0  501    0  0.00000000000E+00  0.00000000000E+00  0.13196320996E+04  0.13196321035E+04  0.10100000352E+00 0. -1.
       -3   -1    0    0    0  501  0.00000000000E+00  0.00000000000E+00 -0.11117390202E+04  0.11117390248E+04  0.10100000352E+00 0.  1.
    10030    2    1    2    0    0  0.00000000000E+00  0.00000000000E+00  0.20789307941E+03  0.24313711282E+04  0.24224669308E+04 0.  0.
        2    1    3    3  502    0  0.10084266273E+04 -0.53997845620E+03  0.50363826038E+03  0.12498609895E+04  0.25500000920E-02 0. -1.
       -2    1    3    3    0  502 -0.10084266273E+04  0.53997845620E+03 -0.29574518097E+03  0.11815101387E+04  0.25500000920E-02 0.  1.
</event>
<event>
 5   0  0.1434943E-05  0.2375638E+04  0.7818609E-02  0.8448681E-01
       -1   -1    0    0    0  501  0.00000000000E+00  0.00000000000E+00  0.12735860174E+04  0.12735860174E+04  0.50400001928E-02 0.  1.
        1   -1    0    0  501    0  0.00000000000E+00  0.00000000000E+00 -0.11078273399E+04  0.11078273399E+04  0.50400001928E-02 0. -1.
    10030    2    1    2    0    0  0.00000000000E+00  0.00000000000E+00  0.16575867751E+03  0.23814133573E+04  0.23756375227E+04 0.  0.
        5    1    3    3  502    0  0.11217702638E+04 -0.36624810602E+03 -0.53042062318E+02  0.11812458467E+04  0.46999998093E+01 0.  1.
       -5    1    3    3    0  502 -0.11217702638E+04  0.36624810602E+03  0.21880073983E+03  0.12001675106E+04  0.46999998093E+01 0. -1.
</event>
<event>
 5   0  0.3320780E-05  0.2377420E+04  0.7818609E-02  0.8448006E-01
        2   -1    0    0  501    0  0.00000000000E+00  0.00000000000E+00  0.11305502813E+04  0.11305502813E+04  0.25500000920E-02 0.  1.
       -2   -1    0    0    0  501  0.00000000000E+00  0.00000000000E+00 -0.12498619599E+04  0.12498619599E+04  0.25500000920E-02 0. -1.
    10030    2    1    2    0    0  0.00000000000E+00  0.00000000000E+00 -0.11931167858E+03  0.23804122412E+04  0.23774202745E+04 0.  0.
        5    1    3    3  502    0 -0.72477975931E+03  0.37031638056E+03  0.80778876500E+03  0.11467278230E+04  0.46999998093E+01 0.  1.
       -5    1    3    3    0  502  0.72477975931E+03 -0.37031638056E+03 -0.92710044359E+03  0.12336844182E+04  0.46999998093E+01 0. -1.
</event>
<event>
 5   0  0.3320780E-05  0.2393703E+04  0.7818609E-02  0.8441865E-01
        2   -1    0    0  501    0  0.00000000000E+00  0.00000000000E+00  0.11777257814E+04  0.11777257814E+04  0.25500000920E-02 0. -1.
       -2   -1    0    0    0  501  0.00000000000E+00  0.00000000000E+00 -0.12162882512E+04  0.12162882512E+04  0.25500000920E-02 0.  1.
    10030    2    1    2    0    0  0.00000000000E+00  0.00000000000E+00 -0.38562469776E+02  0.23940140326E+04  0.23937034328E+04 0.  0.
        5    1    3    3  502    0  0.34388907708E+03 -0.32737258545E+03 -0.11180590503E+04  0.12147059878E+04  0.46999998093E+01 0.  1.
       -5    1    3    3    0  502 -0.34388907708E+03  0.32737258545E+03  0.10794965805E+04  0.11793080447E+04  0.46999998093E+01 0. -1.
</event>
<event>
 5   0  0.3347728E-05  0.2245848E+04  0.7818609E-02  0.8499584E-01
       -2   -1    0    0    0  501  0.00000000000E+00  0.00000000000E+00  0.11346505905E+04  0.11346505905E+04  0.25500000920E-02 0. -1.
        2   -1    0    0  501    0  0.00000000000E+00  0.00000000000E+00 -0.11113189541E+04  0.11113189541E+04  0.25500000920E-02 0.  1.
    10030    2    1    2    0    0  0.00000000000E+00  0.00000000000E+00  0.23331636373E+02  0.22459695447E+04  0.22458483543E+04 0.  0.
        3    1    3    3  502    0  0.94541936003E+03  0.54720136975E+02  0.61514401901E+03  0.11292538395E+04  0.10100000352E+00 0. -1.
       -3    1    3    3    0  502 -0.94541936003E+03 -0.54720136975E+02 -0.59181238263E+03  0.11167157052E+04  0.10100000352E+00 0.  1.
</event>
<event>
 5   0  0.3320780E-05  0.1998579E+04  0.7818609E-02  0.8607285E-01
        2   -1    0    0  501    0  0.00000000000E+00  0.00000000000E+00  0.14937039717E+04  0.14937039717E+04  0.25500000920E-02 0.  1.
       -2   -1    0    0    0  501  0.00000000000E+00  0.00000000000E+00 -0.66852548597E+03  0.66852548597E+03  0.25500000920E-02 0. -1.
    10030    2    1    2    0    0  0.00000000000E+00  0.00000000000E+00  0.82517848573E+03  0.21622294577E+04  0.19985786685E+04 0.  0.
        5    1    3    3  502    0  0.74211368288E+03  0.64956319362E+03  0.23850337294E+03  0.10146777862E+04  0.46999998093E+01 0. -1.
       -5    1    3    3    0  502 -0.74211368288E+03 -0.64956319362E+03  0.58667511279E+03  0.11475516715E+04  0.46999998093E+01 0.  1.
</event>
<event>
 5   0  0.1401596E-05  0.2401509E+04  0.7818609E-02  0.8438939E-01
       -1   -1    0    0    0  501  0.00000000000E+00  0.00000000000E+00  0.90177684408E+03  0.90177684410E+03  0.50400001928E-02 0.  1.
        1   -1    0    0  501    0  0.00000000000E+00  0.00000000000E+00 -0.15988554451E+04  0.15988554451E+04  0.50400001928E-02 0. -1.
    10030    2    1    2    0    0  0.00000000000E+00  0.00000000000E+00 -0.69707860098E+03  0.25006322892E+04  0.24015085404E+04 0.  0.
        2    1    3    3  502    0  0.78953989864E+03  0.40137527906E+03  0.49568767848E+03  0.10149786406E+04  0.25500000920E-02 0.  1.
       -2    1    3    3    0  502 -0.78953989864E+03 -0.40137527906E+03 -0.11927662795E+04  0.14856536486E+04  0.25500000920E-02 0. -1.
</event>
<event>
 5   0  0.3347728E-05  0.2377870E+04  0.7818609E-02  0.8447835E-01
        2   -1    0    0  501    0  0.00000000000E+00  0.00000000000E+00  0.17843836472E+04  0.17843836472E+04  0.25500000920E-02 0. -1.
       -2   -1    0    0    0  501  0.00000000000E+00  0.00000000000E+00 -0.79218750839E+03  0.79218750839E+03  0.25500000920E-02 0.  1.
    10030    2    1    2    0    0  0.00000000000E+00  0.00000000000E+00  0.99219613880E+03  0.25765711556E+04  0.23778700011E+04 0.  0.
        3    1    3    3  502    0  0.19054395938E+03 -0.89994769683E+03  0.13122686341E+04  0.16025797439E+04  0.10100000352E+00 0. -1.
       -3    1    3    3    0  502 -0.19054395938E+03  0.89994769683E+03 -0.32007249529E+03  0.97399141163E+03  0.10100000352E+00 0.  1.
</event>
<event>
 5   0  0.3345974E-05  0.2418528E+04  0.7818609E-02  0.8432599E-01
       -2   -1    0    0    0  501  0.00000000000E+00  0.00000000000E+00  0.15226805125E+04  0.15226805125E+04  0.25500000920E-02 0. -1.
        2   -1    0    0  501    0  0.00000000000E+00  0.00000000000E+00 -0.96035875770E+03  0.96035875771E+03  0.25500000920E-02 0.  1.
    10030    2    1    2    0    0  0.00000000000E+00  0.00000000000E+00  0.56232175483E+03  0.24830392702E+04  0.24185281188E+04 0.  0.
        4    1    3    3  502    0 -0.43867667845E+03  0.83652225319E+03  0.10563581756E+04  0.14170747745E+04  0.12699999809E+01 0. -1.
       -4    1    3    3    0  502  0.43867667845E+03 -0.83652225319E+03 -0.49403642078E+03  0.10659644958E+04  0.12699999809E+01 0.  1.
</event>
<event>
 5   0  0.3347728E-05  0.2432381E+04  0.7818609E-02  0.8427479E-01
       -2   -1    0    0    0  501  0.00000000000E+00  0.00000000000E+00  0.11645320142E+04  0.11645320142E+04  0.25500000920E-02 0. -1.
        2   -1    0    0  501    0  0.00000000000E+00  0.00000000000E+00 -0.12701400759E+04  0.12701400759E+04  0.25500000920E-02 0.  1.
    10030    2    1    2    0    0  0.00000000000E+00  0.00000000000E+00 -0.10560806177E+03  0.24346720901E+04  0.24323805466E+04 0.  0.
        3    1    3    3  502    0 -0.78667942472E+03 -0.75119127080E+03 -0.59734406546E+03  0.12409563995E+04  0.10100000352E+00 0.  1.
       -3    1    3    3    0  502  0.78667942472E+03  0.75119127080E+03  0.49173600370E+03  0.11937156907E+04  0.10100000352E+00 0. -1.
</event>
<event>
 5   0  0.1401596E-05  0.2403019E+04  0.7818609E-02  0.8438374E-01
       -1   -1    0    0    0  501  0.00000000000E+00  0.00000000000E+00  0.84987541960E+03  0.84987541961E+03  0.50400001928E-02 0.  1.
        1   -1    0    0  501    0  0.00000000000E+00  0.00000000000E+00 -0.16986315200E+04  0.16986315200E+04  0.50400001928E-02 0. -1.
    10030    2    1    2    0    0  0.00000000000E+00  0.00000000000E+00 -0.84875610037E+03  0.25485069396E+04  0.24030190809E+04 0.  0.
        2    1    3    3  502    0  0.76285154575E+03 -0.92188835857E+03 -0.30915130193E+03  0.12358782926E+04  0.25500000920E-02 0. -1.
       -2    1    3    3    0  502 -0.76285154575E+03  0.92188835857E+03 -0.53960479844E+03  0.13126286470E+04  0.25500000920E-02 0.  1.
</event>
<event>
 5   0  0.3310037E-05  0.2215494E+04  0.7818609E-02  0.8512007E-01
        2   -1    0    0  501    0  0.00000000000E+00  0.00000000000E+00  0.15943266309E+04  0.15943266309E+04  0.25500000920E-02 0. -1.
       -2   -1    0    0    0  501  0.00000000000E+00  0.00000000000E+00 -0.76966866956E+03  0.76966866957E+03  0.25500000920E-02 0.  1.
    10030    2    1    2    0    0  0.00000000000E+00  0.00000000000E+00  0.82465796137E+03  0.23639953005E+04  0.22154938564E+04 0.  0.
        2    1    3    3  502    0  0.29054963280E+03 -0.28649435061E+03 -0.68655774084E+03  0.79866115065E+03  0.25500000920E-02 0.  1.
       -2    1    3    3    0  502 -0.29054963280E+03  0.28649435061E+03  0.15112157022E+04  0.15653341498E+04  0.25500000920E-02 0. -1.
</event>
<event>
 5   0  0.1393026E-05  0.2400844E+04  0.7818609E-02  0.8439188E-01
        1   -1    0    0  501    0  0.00000000000E+00  0.00000000000E+00  0.12824073982E+04  0.12824073982E+04  0.50400001928E-02 0.  1.
       -1   -1    0    0    0  501  0.00000000000E+00  0.00000000000E+00 -0.11236776972E+04  0.11236776972E+04  0.50400001928E-02 0. -1.
    10030    2    1    2    0    0  0.00000000000E+00  0.00000000000E+00  0.15872970102E+03  0.24060850954E+04  0.24008436784E+04 0.  0.
        4    1    3    3  502    0 -0.96719785272E+03 -0.70581180647E+03  0.16539506115E+03  0.12087179703E+04  0.12699999809E+01 0.  1.
       -4    1    3    3    0  502  0.96719785272E+03  0.70581180647E+03 -0.66653601291E+01  0.11973671251E+04  0.12699999809E+01 0. -1.
</event>
<event>
 5   0  0.1393026E-05  0.2384467E+04  0.7818609E-02  0.8445342E-01
       -1   -1    0    0    0  501  0.00000000000E+00  0.00000000000E+00  0.11455446414E+04  0.11455446414E+04  0.50400001928E-02 0.  1.
        1   -1    0    0  501    0  0.00000000000E+00  0.00000000000E+00 -0.12408250886E+04  0.12408250886E+04  0.50400001928E-02 0. -1.
    10030    2    1    2    0    0  0.00000000000E+00  0.00000000000E+00 -0.95280447190E+02  0.23863697301E+04  0.23844668429E+04 0.  0.
        4    1    3    3  502    0  0.36277300652E+03  0.10902303836E+04 -0.36603303326E+03  0.12058973165E+04  0.12699999809E+01 0. -1.
       -4    1    3    3    0  502 -0.36277300652E+03 -0.10902303836E+04  0.27075258607E+03  0.11804724136E+04  0.12699999809E+01 0.  1.
</event>
<event>
 5   0  0.3345974E-05  0.2331996E+04  0.7818609E-02  0.8465411E-01
       -2   -1    0    0    0  501  0.00000000000E+00  0.00000000000E+00  0.76370594741E+03  0.76370594741E+03  0.25500000920E-02 0.  1.
        2   -1    0    0  501    0  0.00000000000E+00  0.00000000000E+00 -0.17802025012E+04  0.17802025012E+04  0.25500000920E-02 0. -1.
    10030    2    1    2    0    0  0.00000000000E+00  0.00000000000E+00 -0.10164965538E+04  0.25439084486E+04  0.23319959157E+04 0.  0.
        4    1    3    3  502    0 -0.83443286759E+03 -0.30074076801E+03 -0.13338777856E+04  0.16018597878E+04  0.12699999809E+01 0. -1.
       -4    1    3    3    0  502  0.83443286759E+03  0.30074076801E+03  0.31738123182E+03  0.94204866078E+03  0.12699999809E+01 0.  1.
</event>
<event>
 5   0  0.1506985E-05  0.2445814E+04  0.7818609E-02  0.8422548E-01
        1   -1    0    0  501    0  0.00000000000E+00  0.00000000000E+00  0.11191269279E+04  0.11191269279E+04  0.50400001928E-02 0. -1.
       -1   -1    0    0    0  501  0.00000000000E+00  0.00000000000E+00 -0.13363112857E+04  0.13363112858E+04  0.50400001928E-02 0.  1.
    10030    2    1    2    0    0  0.00000000000E+00  0.00000000000E+00 -0.21718435787E+03  0.24554382136E+04  0.24458143379E+04 0.  0.
        3    1    3    3  502    0 -0.45326489805E+03 -0.11071330910E+04 -0.36318258015E+03  0.12502377157E+04  0.10100000352E+00 0.  1.
       -3    1    3    3    0  502  0.45326489805E+03  0.11071330910E+04  0.14599822228E+03  0.12052004979E+04  0.10100000352E+00 0. -1.
</event>
<event>
 5   0  0.1401596E-05  0.2419830E+04  0.7818609E-02  0.8432117E-01
       -1   -1    0    0    0  501  0.00000000000E+00  0.00000000000E+00  0.13904871025E+04  0.13904871025E+04  0.50400001928E-02 0. -1.
        1   -1    0    0  501    0  0.00000000000E+00  0.00000000000E+00 -0.10527920242E+04  0.10527920243E+04  0.50400001928E-02 0.  1.
    10030    2    1    2    0    0  0.00000000000E+00  0.00000000000E+00  0.33769507830E+03  0.24432791268E+04  0.24198295241E+04 0.  0.
        2    1    3    3  502    0  0.47642909414E+03  0.94552735103E+03 -0.42239254886E+03  0.11399219792E+04  0.25500000920E-02 0.  1.
       -2    1    3    3    0  502 -0.47642909414E+03 -0.94552735103E+03  0.76008762716E+03  0.13033571476E+04  0.25500000920E-02 0. -1.
</event>
<event>
 5   0  0.3215208E-05  0.2403433E+04  0.7818609E-02  0.8438219E-01
       -2   -1    0    0    0  501  0.00000000000E+00  0.00000000000E+00  0.18300230322E+04  0.18300230322E+04  0.25500000920E-02 0.  1.
        2   -1    0    0  501    0  0.00000000000E+00  0.00000000000E+00 -0.78912807438E+03  0.78912807438E+03  0.25500000920E-02 0. -1.
    10030    2    1    2    0    0  0.00000000000E+00  0.00000000000E+00  0.10408949578E+04  0.26191511065E+04  0.24034330042E+04 0.  0.
        1    1    3    3  502    0  0.95466581640E+03  0.43735432942E+03 -0.11634290145E+03  0.10565042836E+04  0.50400001928E-02 0. -1.
       -1    1    3    3    0  502 -0.95466581640E+03 -0.43735432942E+03  0.11572378592E+04  0.15626468230E+04  0.50400001928E-02 0.  1.
</event>
<event>
 5   0  0.3347728E-05  0.2387668E+04  0.7818609E-02  0.8444135E-01
       -2   -1    0    0    0  501  0.00000000000E+00  0.00000000000E+00  0.54935442655E+03  0.54935442656E+03  0.25500000920E-02 0. -1.
        2   -1    0    0  501    0  0.00000000000E+00  0.00000000000E+00 -0.25943893133E+04  0.25943893133E+04  0.25500000920E-02 0.  1.
    10030    2    1    2    0    0  0.00000000000E+00  0.00000000000E+00 -0.20450348868E+04  0.31437437399E+04  0.23876676934E+04 0.  0.
        3    1    3    3  502    0  0.43287323194E+02  0.91542649443E+03 -0.20298774280E+04  0.22271690196E+04  0.10100000352E+00 0.  1.
       -3    1    3    3    0  502 -0.43287323194E+02 -0.91542649443E+03 -0.15157458765E+02  0.91657472025E+03  0.10100000352E+00 0. -1.
</event>
<event>
 5   0  0.3345974E-05  0.2404066E+04  0.7818609E-02  0.8437983E-01
        2   -1    0    0  501    0  0.00000000000E+00  0.00000000000E+00  0.18412046690E+04  0.18412046690E+04  0.25500000920E-02 0.  1.
       -2   -1    0    0    0  501  0.00000000000E+00  0.00000000000E+00 -0.78474870529E+03  0.78474870530E+03  0.25500000920E-02 0. -1.
    10030    2    1    2    0    0  0.00000000000E+00  0.00000000000E+00  0.10564559637E+04  0.26259533743E+04  0.24040657064E+04 0.  0.
        4    1    3    3  502    0 -0.11872808604E+04 -0.15581128064E+03  0.64262421884E+03  0.13589998146E+04  0.12699999809E+01 0. -1.
       -4    1    3    3    0  502  0.11872808604E+04  0.15581128064E+03  0.41383174490E+03  0.12669535597E+04  0.12699999809E+01 0.  1.
</event>
<event>
 5   0  0.1407158E-05  0.2357513E+04  0.7818609E-02  0.8455584E-01
       -1   -1    0    0    0  501  0.00000000000E+00  0.00000000000E+00  0.14459916375E+04  0.14459916375E+04  0.50400001928E-02 0. -1.
        1   -1    0    0  501    0  0.00000000000E+00  0.00000000000E+00 -0.96090936797E+03  0.96090936798E+03  0.50400001928E-02 0.  1.
    10030    2    1    2    0    0  0.00000000000E+00  0.00000000000E+00  0.48508226956E+03  0.24069010055E+04  0.23575130206E+04 0.  0.
        1    1    3    3  502    0 -0.88933362854E+03 -0.19656844241E+03 -0.52140824093E+03  0.10494855926E+04  0.50400001928E-02 0.  1.
       -1    1    3    3    0  502  0.88933362854E+03  0.19656844241E+03  0.10064905105E+04  0.13574154129E+04  0.50400001928E-02 0. -1.
</event>
<event>
 5   0  0.3345974E-05  0.2383860E+04  0.7818609E-02  0.8445571E-01
       -2   -1    0    0    0  501  0.00000000000E+00  0.00000000000E+00  0.59188886268E+03  0.59188886269E+03  0.25500000920E-02 0.  1.
        2   -1    0    0  501    0  0.00000000000E+00  0.00000000000E+00 -0.24002771762E+04  0.24002771762E+04  0.25500000920E-02 0. -1.
    10030    2    1    2    0    0  0.00000000000E+00  0.00000000000E+00 -0.18083883135E+04  0.29921660388E+04  0.23838601703E+04 0.  0.
        4    1    3    3  502    0 -0.53665818087E+03  0.37075486360E+03  0.34798835070E+03  0.73929606863E+03  0.12699999809E+01 0.  1.
       -4    1    3    3    0  502  0.53665818087E+03 -0.37075486360E+03 -0.21563766642E+04  0.22528699702E+04  0.12699999809E+01 0. -1.
</event>
<event>
 5   0  0.1506985E-05  0.2389881E+04  0.7818609E-02  0.8443302E-01
        1   -1    0    0  501    0  0.00000000000E+00  0.00000000000E+00  0.13964084217E+04  0.13964084217E+04  0.50400001928E-02 0. -1.
       -1   -1    0    0    0  501  0.00000000000E+00  0.00000000000E+00 -0.10225395342E+04  0.10225395342E+04  0.50400001928E-02 0.  1.
    10030    2    1    2    0    0  0.00000000000E+00  0.00000000000E+00  0.37386888748E+03  0.24189479559E+04  0.23898810156E+04 0.  0.
        3    1    3    3  502    0  0.87287525966E+03  0.31361289662E+03  0.94950236324E+03  0.13273353065E+04  0.10100000352E+00 0. -1.
       -3    1    3    3    0  502 -0.87287525966E+03 -0.31361289662E+03 -0.57563347576E+03  0.10916126495E+04  0.10100000352E+00 0.  1.
</event>
<event>
 5   0  0.3347728E-05  0.2398095E+04  0.7818609E-02  0.8440217E-01
       -2   -1    0    0    0  501  0.00000000000E+00  0.00000000000E+00  0.94138381664E+03  0.94138381664E+03  0.25500000920E-02 0.  1.
        2   -1    0    0  501    0  0.00000000000E+00  0.00000000000E+00 -0.15272353249E+04  0.15272353249E+04  0.25500000920E-02 0. -1.
    10030    2    1    2    0    0  0.00000000000E+00  0.00000000000E+00 -0.58585150822E+03  0.24686191415E+04  0.23980947596E+04 0.  0.
        3    1    3    3  502    0 -0.52796327756E+03 -0.27200356611E+03  0.77933227814E+03  0.97984180988E+03  0.10100000352E+00 0.  1.
       -3    1    3    3    0  502  0.52796327756E+03  0.27200356611E+03 -0.13651837864E+04  0.14887773316E+04  0.10100000352E+00 0. -1.
</event>
<event>
 5   0  0.3347728E-05  0.2371665E+04  0.7818609E-02  0.8450189E-01
        2   -1    0    0  501    0  0.00000000000E+00  0.00000000000E+00  0.21460491187E+04  0.21460491187E+04  0.25500000920E-02 0.  1.
       -2   -1    0    0    0  501  0.00000000000E+00  0.00000000000E+00 -0.65525006248E+03  0.65525006249E+03  0.25500000920E-02 0. -1.
    10030    2    1    2    0    0  0.00000000000E+00  0.00000000000E+00  0.14907990562E+04  0.28012991811E+04  0.23716650852E+04 0.  0.
        3    1    3    3  502    0  0.78255984109E+03 -0.80671327675E+03  0.29872285281E+03  0.11629366142E+04  0.10100000352E+00 0. -1.
       -3    1    3    3    0  502 -0.78255984109E+03  0.80671327675E+03  0.11920762034E+04  0.16383625669E+04  0.10100000352E+00 0.  1.
</event>
<event>
 5   0  0.1393026E-05  0.2401873E+04  0.7818609E-02  0.8438803E-01
       -1   -1    0    0    0  501  0.00000000000E+00  0.00000000000E+00  0.85629604042E+03  0.85629604043E+03  0.50400001928E-02 0.  1.
        1   -1    0    0  501    0  0.00000000000E+00  0.00000000000E+00 -0.16842873407E+04  0.16842873407E+04  0.50400001928E-02 0. -1.
    10030    2    1    2    0    0  0.00000000000E+00  0.00000000000E+00 -0.82799130030E+03  0.25405833812E+04  0.24018730864E+04 0.  0.
        4    1    3    3  502    0 -0.93834574450E+03  0.58301465393E+02  0.37638931111E+03  0.10127005103E+04  0.12699999809E+01 0.  1.
       -4    1    3    3    0  502  0.93834574450E+03 -0.58301465393E+02 -0.12043806114E+04  0.15278828709E+04  0.12699999809E+01 0. -1.
</event>
<event>
 5   0  0.1407158E-05  0.2376648E+04  0.7818609E-02  0.8448298E-01
       -1   -1    0    0    0  501  0.00000000000E+00  0.00000000000E+00  0.77701502301E+03  0.77701502303E+03  0.50400001928E-02 0. -1.
        1   -1    0    0  501    0  0.00000000000E+00  0.00000000000E+00 -0.18173567956E+04  0.18173567956E+04  0.50400001928E-02 0.  1.
    10030    2    1    2    0    0  0.00000000000E+00  0.00000000000E+00 -0.10403417726E+04  0.25943718186E+04  0.23766476662E+04 0.  0.
        1    1    3    3  502    0 -0.10055012549E+04  0.63316334882E+03 -0.53501567553E+03  0.13031386622E+04  0.50400001928E-02 0. -1.
       -1    1    3    3    0  502  0.10055012549E+04 -0.63316334882E+03 -0.50532609702E+03  0.12912331564E+04  0.50400001928E-02 0.  1.
</event>
<event>
 5   0  0.3215208E-05  0.2415316E+04  0.7818609E-02  0.8433792E-01
       -2   -1    0    0    0  501  0.00000000000E+00  0.00000000000E+00  0.68663690114E+03  0.68663690115E+03  0.25500000920E-02 0.  1.
        2   -1    0    0  501    0  0.00000000000E+00  0.00000000000E+00 -0.21240308627E+04  0.21240308627E+04  0.25500000920E-02 0. -1.
    10030    2    1    2    0    0  0.00000000000E+00  0.00000000000E+00 -0.14373939616E+04  0.28106677639E+04  0.24153161031E+04 0.  0.
        1    1    3    3  502    0 -0.91342374474E+03 -0.44137292345E+03  0.43747771763E+02  0.10154146259E+04  0.50400001928E-02 0. -1.
       -1    1    3    3    0  502  0.91342374474E+03  0.44137292345E+03 -0.14811417334E+04  0.17952531380E+04  0.50400001928E-02 0.  1.
</event>
<event>
 5   0  0.1393026E-05  0.2400229E+04  0.7818609E-02  0.8439418E-01
       -1   -1    0    0    0  501  0.00000000000E+00  0.00000000000E+00  0.71141434447E+03  0.71141434448E+03  0.50400001928E-02 0.  1.
        1   -1    0    0  501    0  0.00000000000E+00  0.00000000000E+00 -0.20245229515E+04  0.20245229515E+04  0.50400001928E-02 0. -1.
    10030    2    1    2    0    0  0.00000000000E+00  0.00000000000E+00 -0.13131086071E+04  0.27359372960E+04  0.24002288795E+04 0.  0.
        4    1    3    3  502    0  0.80183330738E+03  0.67170879142E+03 -0.13271823313E+04  0.16898354674E+04  0.12699999809E+01 0. -1.
       -4    1    3    3    0  502 -0.80183330738E+03 -0.67170879142E+03  0.14073724265E+02  0.10461018287E+04  0.12699999809E+01 0.  1.
</event>
<event>
 5   0  0.3320780E-05  0.2391898E+04  0.7818609E-02  0.8442543E-01
       -2   -1    0    0    0  501  0.00000000000E+00  0.00000000000E+00  0.10093915180E+04  0.10093915180E+04  0.25500000920E-02 0. -1.
        2   -1    0    0  501    0  0.00000000000E+00  0.00000000000E+00 -0.14169858470E+04  0.14169858470E+04  0.25500000920E-02 0.  1.
    10030    2    1    2    0    0  0.00000000000E+00  0.00000000000E+00 -0.40759432895E+03  0.24263773650E+04  0.23918975690E+04 0.  0.
        5    1    3    3  502    0  0.64252760028E+03 -0.20938187803E+02 -0.12267942187E+04  0.13850365590E+04  0.46999998093E+01 0.  1.
       -5    1    3    3    0  502 -0.64252760028E+03  0.20938187803E+02  0.81919988975E+03  0.10413408060E+04  0.46999998093E+01 0. -1.
</event>
<event>
 5   0  0.1401596E-05  0.2369221E+04  0.7818609E-02  0.8451118E-01
       -1   -1    0    0    0  501  0.00000000000E+00  0.00000000000E+00  0.13941084779E+04  0.13941084779E+04  0.50400001928E-02 0.  1.
        1   -1    0    0  501    0  0.00000000000E+00  0.00000000000E+00 -0.10065941784E+04  0.10065941784E+04  0.50400001928E-02 0. -1.
    10030    2    1    2    0    0  0.00000000000E+00  0.00000000000E+00  0.38751429951E+03  0.24007026563E+04  0.23692205283E+04 0.  0.
        2    1    3    3  502    0 -0.23068297086E+03  0.30369245394E+02 -0.98321272598E+03  0.10103683430E+04  0.25500000920E-02 0. -1.
       -2    1    3    3    0  502  0.23068297086E+03 -0.30369245394E+02  0.13707270255E+04  0.13903343132E+04  0.25500000920E-02 0.  1.
</event>
<event>
 5   0  0.1434943E-05  0.2602010E+04  0.7818609E-02  0.8367519E-01
       -1   -1    0    0    0  501  0.00000000000E+00  0.00000000000E+00  0.94715214314E+03  0.94715214315E+03  0.50400001928E-02 0.  1.
        1   -1    0    0  501    0  0.00000000000E+00  0.00000000000E+00 -0.17870560141E+04  0.17870560141E+04  0.50400001928E-02 0. -1.
    10030    2    1    2    0    0  0.00000000000E+00  0.00000000000E+00 -0.83990387091E+03  0.27342081572E+04  0.26020099413E+04 0.  0.
        5    1    3    3  502    0 -0.55145787490E+03 -0.25413164084E+03 -0.16290199531E+04  0.17385099299E+04  0.46999998093E+01 0. -1.
       -5    1    3    3    0  502  0.55145787490E+03  0.25413164084E+03  0.78911608222E+03  0.99569822731E+03  0.46999998093E+01 0.  1.
</event>
<event>
 5   0  0.1407158E-05  0.2385434E+04  0.7818609E-02  0.8444977E-01
        1   -1    0    0  501    0  0.00000000000E+00  0.00000000000E+00  0.11315053906E+04  0.11315053906E+04  0.50400001928E-02 0. -1.
       -1   -1    0    0    0  501  0.00000000000E+00  0.00000000000E+00 -0.12572394806E+04  0.12572394806E+04  0.50400001928E-02 0.  1.
    10030    2    1    2    0    0  0.00000000000E+00  0.00000000000E+00 -0.12573409004E+03  0.23887448712E+04  0.23854335032E+04 0.  0.
        1    1    3    3  502    0  0.10148640241E+03  0.86864404897E+02 -0.12497246702E+04  0.12568439307E+04  0.50400001928E-02 0.  1.
       -1    1    3    3    0  502 -0.10148640241E+03 -0.86864404897E+02  0.11239905802E+04  0.11319009405E+04  0.50400001928E-02 0. -1.
</event>
<event>
 5   0  0.3320780E-05  0.2373642E+04  0.7818609E-02  0.8449438E-01
       -2   -1    0    0    0  501  0.00000000000E+00  0.00000000000E+00  0.15335637957E+04  0.15335637957E+04  0.25500000920E-02 0.  1.
        2   -1    0    0  501    0  0.00000000000E+00  0.00000000000E+00 -0.91847748407E+03  0.91847748407E+03  0.25500000920E-02 0. -1.
    10030    2    1    2    0    0  0.00000000000E+00  0.00000000000E+00  0.61508631160E+03  0.24520412797E+04  0.23736417731E+04 0.  0.
        5    1    3    3  502    0 -0.41468948013E+03  0.89918758885E+02 -0.83742840021E+03  0.93880837428E+03  0.46999998093E+01 0. -1.
       -5    1    3    3    0  502  0.41468948013E+03 -0.89918758885E+02  0.14525147118E+04  0.15132329055E+04  0.46999998093E+01 0.  1.
</event>
<event>
 5   0  0.1401596E-05  0.2412632E+04  0.7818609E-02  0.8434789E-01
        1   -1    0    0  501    0  0.00000000000E+00  0.00000000000E+00  0.97267106863E+03  0.97267106865E+03  0.50400001928E-02 0. -1.
       -1   -1    0    0    0  501  0.00000000000E+00  0.00000000000E+00 -0.14960846957E+04  0.14960846957E+04  0.50400001928E-02 0.  1.
    10030    2    1    2    0    0  0.00000000000E+00  0.00000000000E+00 -0.52341362707E+03  0.24687557644E+04  0.24126320066E+04 0.  0.
        2    1    3    3  502    0  0.58385076685E+03 -0.98435202856E+03  0.12843360929E+03  0.11516622014E+04  0.25500000920E-02 0.  1.
       -2    1    3    3    0  502 -0.58385076685E+03  0.98435202856E+03 -0.65184723636E+03  0.13170935630E+04  0.25500000920E-02 0. -1.
</event>
<event>
 5   0  0.1506985E-05  0.2572390E+04  0.7818609E-02  0.8377640E-01
       -1   -1    0    0    0  501  0.00000000000E+00  0.00000000000E+00  0.24496313204E+04  0.24496313204E+04  0.50400001928E-02 0.  1.
        1   -1    0    0  501    0  0.00000000000E+00  0.00000000000E+00 -0.67532533232E+03  0.67532533233E+03  0.50400001928E-02 0. -1.
    10030    2    1    2    0    0  0.00000000000E+00  0.00000000000E+00  0.17743059880E+04  0.31249566527E+04  0.25723903946E+04 0.  0.
        3    1    3    3  502    0  0.51798421813E+03 -0.10759647650E+04  0.30672172633E+03  0.12329176993E+04  0.10100000352E+00 0.  1.
       -3    1    3    3    0  502 -0.51798421813E+03  0.10759647650E+04  0.14675842617E+04  0.18920389534E+04  0.10100000352E+00 0. -1.
</event>
<event>
 5   0  0.3347728E-05  0.2394633E+04  0.7818609E-02  0.8441515E-01
       -2   -1    0    0    0  501  0.00000000000E+00  0.00000000000E+00  0.77330532213E+03  0.77330532213E+03  0.25500000920E-02 0. -1.
        2   -1    0    0  501    0  0.00000000000E+00  0.00000000000E+00 -0.18538180520E+04  0.18538180520E+04  0.25500000920E-02 0.  1.
    10030    2    1    2    0    0  0.00000000000E+00  0.00000000000E+00 -0.10805127298E+04  0.26271233741E+04  0.23946334716E+04 0.  0.
        3    1    3    3  502    0 -0.70550351089E+03  0.46220108683E+03 -0.14725889337E+04  0.16970218697E+04  0.10100000352E+00 0.  1.
       -3    1    3    3    0  502  0.70550351089E+03 -0.46220108683E+03  0.39207620387E+03  0.93010150434E+03  0.10100000352E+00 0. -1.
</event>
<event>
 5   0  0.3320780E-05  0.2522935E+04  0.7818609E-02  0.8394860E-01
        2   -1    0    0  501    0  0.00000000000E+00  0.00000000000E+00  0.19726107889E+04  0.19726107889E+04  0.25500000920E-02 0.  1.
       -2   -1    0    0    0  501  0.00000000000E+00  0.00000000000E+00 -0.80669734194E+03  0.80669734194E+03  0.25500000920E-02 0. -1.
    10030    2    1    2    0    0  0.00000000000E+00  0.00000000000E+00  0.11659134469E+04  0.27793081308E+04  0.25229347039E+04 0.  0.
        5    1    3    3  502    0  0.39198663354E+03 -0.32529025733E+03 -0.68835457711E+03  0.85634186294E+03  0.46999998093E+01 0. -1.
       -5    1    3    3    0  502 -0.39198663354E+03  0.32529025733E+03  0.18542680241E+04  0.19229662679E+04  0.46999998093E+01 0.  1.
</event>
<event>
 5   0  0.3215208E-05  0.2409429E+04  0.7818609E-02  0.8435982E-01
        2   -1    0    0  501    0  0.00000000000E+00  0.00000000000E+00  0.18529173845E+04  0.18529173845E+04  0.25500000920E-02 0.  1.
       -2   -1    0    0    0  501  0.00000000000E+00  0.00000000000E+00 -0.78327144031E+03  0.78327144031E+03  0.25500000920E-02 0. -1.
    10030    2    1    2    0    0  0.00000000000E+00  0.00000000000E+00  0.10696459442E+04  0.26361888248E+04  0.24094292009E+04 0.  0.
        1    1    3    3  502    0 -0.15450704070E+02 -0.47700929125E+03 -0.67542705592E+03  0.82702980363E+03  0.50400001928E-02 0. -1.
       -1    1    3    3    0  502  0.15450704070E+02  0.47700929125E+03  0.17450730001E+04  0.18091590212E+04  0.50400001928E-02 0.  1.
</event>
<event>
 5   0  0.1393026E-05  0.2391786E+04  0.7818609E-02  0.8442585E-01
        1   -1    0    0  501    0  0.00000000000E+00  0.00000000000E+00  0.14165134928E+04  0.14165134928E+04  0.50400001928E-02 0.  1.
       -1   -1    0    0    0  501  0.00000000000E+00  0.00000000000E+00 -0.10096336345E+04  0.10096336345E+04  0.50400001928E-02 0. -1.
    10030    2    1    2    0    0  0.00000000000E+00  0.00000000000E+00  0.40687985830E+03  0.24261471274E+04  0.23917856644E+04 0.  0.
        4    1    3    3  502    0 -0.10944670374E+04 -0.25019159567E+02  0.69168011582E+03  0.12949544586E+04  0.12699999809E+01 0.  1.
       -4    1    3    3    0  502  0.10944670374E+04  0.25019159567E+02 -0.28480025753E+03  0.11311926688E+04  0.12699999809E+01 0. -1.
</event>
<event>
 5   0  0.1434943E-05  0.2391084E+04  0.7818609E-02  0.8442849E-01
       -1   -1    0    0    0  501  0.00000000000E+00  0.00000000000E+00  0.14858259692E+04  0.14858259692E+04  0.50400001928E-02 0.  1.
        1   -1    0    0  501    0  0.00000000000E+00  0.00000000000E+00 -0.96197013870E+03  0.96197013872E+03  0.50400001928E-02 0. -1.
    10030    2    1    2    0    0  0.00000000000E+00  0.00000000000E+00  0.52385583050E+03  0.24477961079E+04  0.23910836152E+04 0.  0.
        5    1    3    3  502    0  0.17154545268E+03 -0.11162528297E+03 -0.94389323947E+03  0.96583879797E+03  0.46999998093E+01 0. -1.
       -5    1    3    3    0  502 -0.17154545268E+03  0.11162528297E+03  0.14677490700E+04  0.14819573100E+04  0.46999998093E+01 0.  1.
</event>
<event>
 5   0  0.1407158E-05  0.2357058E+04  0.7818609E-02  0.8455758E-01
       -1   -1    0    0    0  501  0.00000000000E+00  0.00000000000E+00  0.86092015626E+03  0.86092015627E+03  0.50400001928E-02 0.  1.
        1   -1    0    0  501    0  0.00000000000E+00  0.00000000000E+00 -0.16133093072E+04  0.16133093072E+04  0.50400001928E-02 0. -1.
    10030    2    1    2    0    0  0.00000000000E+00  0.00000000000E+00 -0.75238915091E+03  0.24742294634E+04  0.23570579126E+04 0.  0.
        1    1    3    3  502    0  0.90410467468E+03 -0.68212448133E+03 -0.71832857541E+03  0.13411543584E+04  0.50400001928E-02 0. -1.
       -1    1    3    3    0  502 -0.90410467468E+03  0.68212448133E+03 -0.34060575500E+02  0.11330751050E+04  0.50400001928E-02 0.  1.
</event>
<event>
 5   0  0.3310037E-05  0.2379044E+04  0.7818609E-02  0.8447391E-01
        2   -1    0    0  501    0  0.00000000000E+00  0.00000000000E+00  0.12449212528E+04  0.12449212528E+04  0.25500000920E-02 0.  1.
       -2   -1    0    0    0  501  0.00000000000E+00  0.00000000000E+00 -0.11365877047E+04  0.11365877047E+04  0.25500000920E-02 0. -1.
    10030    2    1    2    0    0  0.00000000000E+00  0.00000000000E+00  0.10833354813E+03  0.23815089575E+04  0.23790436644E+04 0.  0.
        2    1    3    3  502    0 -0.49137216325E+03 -0.60494604533E+03  0.95373911778E+03  0.12316755357E+04  0.25500000920E-02 0.  1.
       -2    1    3    3    0  502  0.49137216325E+03  0.60494604533E+03 -0.84540556965E+03  0.11498334218E+04  0.25500000920E-02 0. -1.
</event>
<event>
 5   0  0.1407158E-05  0.2393777E+04  0.7818609E-02  0.8441837E-01
       -1   -1    0    0    0  501  0.00000000000E+00  0.00000000000E+00  0.64434718746E+03  0.64434718748E+03  0.50400001928E-02 0.  1.
        1   -1    0    0  501    0  0.00000000000E+00  0.00000000000E+00 -0.22232455838E+04  0.22232455838E+04  0.50400001928E-02 0. -1.
    10030    2    1    2    0    0  0.00000000000E+00  0.00000000000E+00 -0.15788983964E+04  0.28675927713E+04  0.23937769646E+04 0.  0.
        1    1    3    3  502    0 -0.10218463637E+04 -0.58648249536E+03 -0.53699895298E+03  0.12947971207E+04  0.50400001928E-02 0.  1.
       -1    1    3    3    0  502  0.10218463637E+04  0.58648249536E+03 -0.10418994434E+04  0.15727956506E+04  0.50400001928E-02 0. -1.
</event>
<event>
 5   0  0.1147362E-05  0.2423204E+04  0.7818609E-02  0.8430867E-01
        4   -1    0    0  501    0  0.00000000000E+00  0.00000000000E+00  0.20311587728E+04  0.20311591698E+04  0.12699999809E+01 0. -1.
       -4   -1    0    0    0  501  0.00000000000E+00  0.00000000000E+00 -0.72272910644E+03  0.72273022228E+03  0.12699999809E+01 0.  1.
    10030    2    1    2    0    0  0.00000000000E+00  0.00000000000E+00  0.13084296663E+04  0.27538893921E+04  0.24232041994E+04 0.  0.
        5    1    3    3  502    0  0.83721616288E+03  0.25365711464E+03  0.16068722127E+04  0.18295718716E+04  0.46999998093E+01 0. -1.
       -5    1    3    3    0  502 -0.83721616288E+03 -0.25365711464E+03 -0.29844254642E+03  0.92431752050E+03  0.46999998093E+01 0.  1.
</event>
<event>
 5   0  0.1393026E-05  0.2471685E+04  0.7818609E-02  0.8413143E-01
        1   -1    0    0  501    0  0.00000000000E+00  0.00000000000E+00  0.17237100801E+04  0.17237100801E+04  0.50400001928E-02 0.  1.
       -1   -1    0    0    0  501  0.00000000000E+00  0.00000000000E+00 -0.88605740319E+03  0.88605740321E+03  0.50400001928E-02 0. -1.
    10030    2    1    2    0    0  0.00000000000E+00  0.00000000000E+00  0.83765267691E+03  0.26097674833E+04  0.24716845086E+04 0.  0.
        4    1    3    3  502    0 -0.41610052071E+03  0.90600234668E+03  0.11899154590E+04  0.15523789189E+04  0.12699999809E+01 0.  1.
       -4    1    3    3    0  502  0.41610052071E+03 -0.90600234668E+03 -0.35226278208E+03  0.10573885644E+04  0.12699999809E+01 0. -1.
</event>
<event>
 5   0  0.3215208E-05  0.2390068E+04  0.7818609E-02  0.8443231E-01
       -2   -1    0    0    0  501  0.00000000000E+00  0.00000000000E+00  0.16524966341E+04  0.16524966341E+04  0.25500000920E-02 0. -1.
        2   -1    0    0  501    0  0.00000000000E+00  0.00000000000E+00 -0.86421102899E+03  0.86421102900E+03  0.25500000920E-02 0.  1.
    10030    2    1    2    0    0  0.00000000000E+00  0.00000000000E+00  0.78828560507E+03  0.25167076631E+04  0.23900676279E+04 0.  0.
        1    1    3    3  502    0  0.37206598204E+03 -0.21784523901E+03  0.15677456958E+04  0.16259508633E+04  0.50400001928E-02 0. -1.
       -1    1    3    3    0  502 -0.37206598204E+03  0.21784523901E+03 -0.77946009076E+03  0.89075679973E+03  0.50400001928E-02 0.  1.
</event>
<event>
 5   0  0.3347728E-05  0.2408735E+04  0.7818609E-02  0.8436241E-01
        2   -1    0    0  501    0  0.00000000000E+00  0.00000000000E+00  0.12675615197E+04  0.12675615197E+04  0.25500000920E-02 0.  1.
       -2   -1    0    0    0  501  0.00000000000E+00  0.00000000000E+00 -0.11443238325E+04  0.11443238325E+04  0.25500000920E-02 0. -1.
    10030    2    1    2    0    0  0.00000000000E+00  0.00000000000E+00  0.12323768721E+03  0.24118853523E+04  0.24087348183E+04 0.  0.
        3    1    3    3  502    0  0.11466543873E+04 -0.30107231928E+03 -0.15088508344E+03  0.11950845761E+04  0.10100000352E+00 0.  1.
       -3    1    3    3    0  502 -0.11466543873E+04  0.30107231928E+03  0.27412277065E+03  0.12168007762E+04  0.10100000352E+00 0. -1.
</event>
<event>
 5   0  0.1401596E-05  0.2271597E+04  0.7818609E-02  0.8489205E-01
        1   -1    0    0  501    0  0.00000000000E+00  0.00000000000E+00  0.91004795148E+03  0.91004795149E+03  0.50400001928E-02 0. -1.
       -1   -1    0    0    0  501  0.00000000000E+00  0.00000000000E+00 -0.14175500867E+04  0.14175500867E+04  0.50400001928E-02 0.  1.
    10030    2    1    2    0    0  0.00000000000E+00  0.00000000000E+00 -0.50750213519E+03  0.23275980382E+04  0.22715972817E+04 0.  0.
        2    1    3    3  502    0  0.33558736386E+02  0.11139750301E+03  0.90392633275E+03  0.91138268993E+03  0.25500000920E-02 0. -1.
       -2    1    3    3    0  502 -0.33558736386E+02 -0.11139750301E+03 -0.14114284679E+04  0.14162153482E+04  0.25500000920E-02 0.  1.
</event>
<event>
 5   0  0.1434943E-05  0.2407392E+04  0.7818609E-02  0.8436741E-01
       -1   -1    0    0    0  501  0.00000000000E+00  0.00000000000E+00  0.64992062034E+03  0.64992062036E+03  0.50400001928E-02 0.  1.
        1   -1    0    0  501    0  0.00000000000E+00  0.00000000000E+00 -0.22293239958E+04  0.22293239958E+04  0.50400001928E-02 0. -1.
    10030    2    1    2    0    0  0.00000000000E+00  0.00000000000E+00 -0.15794033755E+04  0.28792446162E+04  0.24073916460E+04 0.  0.
        5    1    3    3  502    0 -0.87768565262E+03 -0.43678052099E+03  0.45577075867E+02  0.98143195800E+03  0.46999998093E+01 0.  1.
       -5    1    3    3    0  502  0.87768565262E+03  0.43678052099E+03 -0.16249804514E+04  0.18978126582E+04  0.46999998093E+01 0. -1.
</event>
<event>
 5   0  0.3320780E-05  0.2233216E+04  0.7818609E-02  0.8504729E-01
       -2   -1    0    0    0  501  0.00000000000E+00  0.00000000000E+00  0.10153092016E+04  0.10153092016E+04  0.25500000920E-02 0. -1.
        2   -1    0    0  501    0  0.00000000000E+00  0.00000000000E+00 -0.12280137074E+04  0.12280137074E+04  0.25500000920E-02 0.  1.
    10030    2    1    2    0    0  0.00000000000E+00  0.00000000000E+00 -0.21270450578E+03  0.22433229090E+04  0.22332161712E+04 0.  0.
        5    1    3    3  502    0  0.63191457917E+03 -0.88282812998E+03  0.15576924724E+03  0.10968079553E+04  0.46999998093E+01 0. -1.
       -5    1    3    3    0  502 -0.63191457917E+03  0.88282812998E+03 -0.36847375302E+03  0.11465149537E+04  0.46999998093E+01 0.  1.
</event>
<event>
 5   0  0.3215208E-05  0.2426214E+04  0.7818609E-02  0.8429754E-01
        2   -1    0    0  501    0  0.00000000000E+00  0.00000000000E+00  0.12822051025E+04  0.12822051025E+04  0.25500000920E-02 0. -1.
       -2   -1    0    0    0  501  0.00000000000E+00  0.00000000000E+00 -0.11477322547E+04  0.11477322547E+04  0.25500000920E-02 0.  1.
    10030    2    1    2    0    0  0.00000000000E+00  0.00000000000E+00  0.13447284782E+03  0.24299373573E+04  0.24262136372E+04 0.  0.
        1    1    3    3  502    0  0.67571890124E+03 -0.29362681741E+03 -0.89799342779E+03  0.11615528132E+04  0.50400001928E-02 0.  1.
       -1    1    3    3    0  502 -0.67571890124E+03  0.29362681741E+03  0.10324662756E+04  0.12683845441E+04  0.50400001928E-02 0. -1.
</event>
<event>
 5   0  0.1147362E-05  0.2381073E+04  0.7818609E-02  0.8446624E-01
        3   -1    0    0  501    0  0.00000000000E+00  0.00000000000E+00  0.85565129388E+03  0.85565129984E+03  0.10100000352E+00 0. -1.
       -3   -1    0    0    0  501  0.00000000000E+00  0.00000000000E+00 -0.16564894567E+04  0.16564894598E+04  0.10100000352E+00 0.  1.
    10030    2    1    2    0    0  0.00000000000E+00  0.00000000000E+00 -0.80083816282E+03  0.25121407596E+04  0.23810731684E+04 0.  0.
        2    1    3    3  502    0  0.10022408623E+04  0.62070757999E+03 -0.22510138189E+03  0.12001813522E+04  0.25500000920E-02 0. -1.
       -2    1    3    3    0  502 -0.10022408623E+04 -0.62070757999E+03 -0.57573678093E+03  0.13119594075E+04  0.25500000920E-02 0.  1.
</event>
<event>
 5   0  0.1393026E-05  0.2447005E+04  0.7818609E-02  0.8422112E-01
        1   -1    0    0  501    0  0.00000000000E+00  0.00000000000E+00  0.14306862167E+04  0.14306862167E+04  0.50400001928E-02 0.  1.
       -1   -1    0    0    0  501  0.00000000000E+00  0.00000000000E+00 -0.10463215472E+04  0.10463215472E+04  0.50400001928E-02 0. -1.
    10030    2    1    2    0    0  0.00000000000E+00  0.00000000000E+00  0.38436466949E+03  0.24770077639E+04  0.24470045491E+04 0.  0.
        4    1    3    3  502    0 -0.56649139314E+03 -0.35198591384E+03 -0.84613795982E+03  0.10773846305E+04  0.12699999809E+01 0. -1.
       -4    1    3    3    0  502  0.56649139314E+03  0.35198591384E+03  0.12305026293E+04  0.13996231335E+04  0.12699999809E+01 0.  1.
</event>
<event>
 5   0  0.3345974E-05  0.2186341E+04  0.7818609E-02  0.8524135E-01
        2   -1    0    0  501    0  0.00000000000E+00  0.00000000000E+00  0.23917769868E+04  0.23917769868E+04  0.25500000920E-02 0.  1.
       -2   -1    0    0    0  501  0.00000000000E+00  0.00000000000E+00 -0.49963782565E+03  0.49963782566E+03  0.25500000920E-02 0. -1.
    10030    2    1    2    0    0  0.00000000000E+00  0.00000000000E+00  0.18921391612E+04  0.28914148125E+04  0.21863414675E+04 0.  0.
        4    1    3    3  502    0 -0.13704513805E+03 -0.33631642769E+03  0.23096655371E+04  0.23380433306E+04  0.12699999809E+01 0.  1.
       -4    1    3    3    0  502  0.13704513805E+03  0.33631642769E+03 -0.41752637599E+03  0.55337148187E+03  0.12699999809E+01 0. -1.
</event>
<event>
 5   0  0.3215208E-05  0.2402074E+04  0.7818609E-02  0.8438728E-01
       -2   -1    0    0    0  501  0.00000000000E+00  0.00000000000E+00  0.85280208663E+03  0.85280208664E+03  0.25500000920E-02 0.  1.
        2   -1    0    0  501    0  0.00000000000E+00  0.00000000000E+00 -0.16914706244E+04  0.16914706244E+04  0.25500000920E-02 0. -1.
    10030    2    1    2    0    0  0.00000000000E+00  0.00000000000E+00 -0.83866853773E+03  0.25442727110E+04  0.24020738356E+04 0.  0.
        1    1    3    3  502    0  0.55757599216E+03 -0.58591742181E+03  0.52108804052E+03  0.96214497775E+03  0.50400001928E-02 0.  1.
       -1    1    3    3    0  502 -0.55757599216E+03  0.58591742181E+03 -0.13597565782E+04  0.15821277333E+04  0.50400001928E-02 0. -1.
</event>
<event>
 5   0  0.3320780E-05  0.2393669E+04  0.7818609E-02  0.8441877E-01
       -2   -1    0    0    0  501  0.00000000000E+00  0.00000000000E+00  0.89515474065E+03  0.89515474065E+03  0.25500000920E-02 0. -1.
        2   -1    0    0  501    0  0.00000000000E+00  0.00000000000E+00 -0.16001852285E+04  0.16001852285E+04  0.25500000920E-02 0.  1.
    10030    2    1    2    0    0  0.00000000000E+00  0.00000000000E+00 -0.70503048783E+03  0.24953399691E+04  0.23936694786E+04 0.  0.
        5    1    3    3  502    0 -0.10308327758E+04 -0.51194264110E+03 -0.10415401835E+02  0.11510134882E+04  0.46999998093E+01 0. -1.
       -5    1    3    3    0  502  0.10308327758E+04  0.51194264110E+03 -0.69461508599E+03  0.13443264809E+04  0.46999998093E+01 0.  1.
</event>
<event>
 5   0  0.3320780E-05  0.2399317E+04  0.7818609E-02  0.8439759E-01
       -2   -1    0    0    0  501  0.00000000000E+00  0.00000000000E+00  0.11042443975E+04  0.11042443975E+04  0.25500000920E-02 0. -1.
        2   -1    0    0  501    0  0.00000000000E+00  0.00000000000E+00 -0.13033174263E+04  0.13033174263E+04  0.25500000920E-02 0.  1.
    10030    2    1    2    0    0  0.00000000000E+00  0.00000000000E+00 -0.19907302884E+03  0.24075618238E+04  0.23993173747E+04 0.  0.
        5    1    3    3  502    0 -0.76879017280E+02  0.57906657134E+03 -0.11509587422E+04  0.12907194093E+04  0.46999998093E+01 0.  1.
       -5    1    3    3    0  502  0.76879017280E+02 -0.57906657134E+03  0.95188571338E+03  0.11168424144E+04  0.46999998093E+01 0. -1.
</event>
<event>
 5   0  0.3320780E-05  0.2401471E+04  0.7818609E-02  0.8438953E-01
       -2   -1    0    0    0  501  0.00000000000E+00  0.00000000000E+00  0.80762105035E+03  0.80762105035E+03  0.25500000920E-02 0. -1.
        2   -1    0    0  501    0  0.00000000000E+00  0.00000000000E+00 -0.17852015067E+04  0.17852015067E+04  0.25500000920E-02 0.  1.
    10030    2    1    2    0    0  0.00000000000E+00  0.00000000000E+00 -0.97758045638E+03  0.25928225571E+04  0.24014714789E+04 0.  0.
        5    1    3    3  502    0  0.87229441684E+03  0.82401641059E+03 -0.53514905217E+03  0.13138900991E+04  0.46999998093E+01 0.  1.
       -5    1    3    3    0  502 -0.87229441684E+03 -0.82401641059E+03 -0.44243140421E+03  0.12789324579E+04  0.46999998093E+01 0. -1.
</event>
<event>
 5   0  0.1434943E-05  0.2254834E+04  0.7818609E-02  0.8495945E-01
       -1   -1    0    0    0  501  0.00000000000E+00  0.00000000000E+00  0.88762514363E+03  0.88762514365E+03  0.50400001928E-02 0.  1.
        1   -1    0    0  501    0  0.00000000000E+00  0.00000000000E+00 -0.14319882811E+04  0.14319882811E+04  0.50400001928E-02 0. -1.
    10030    2    1    2    0    0  0.00000000000E+00  0.00000000000E+00 -0.54436313747E+03  0.23196134248E+04  0.22548337444E+04 0.  0.
        5    1    3    3  502    0  0.29186442769E+03  0.75708418576E+03  0.53304826214E+03  0.97083667434E+03  0.46999998093E+01 0.  1.
       -5    1    3    3    0  502 -0.29186442769E+03 -0.75708418576E+03 -0.10774113996E+04  0.13487767504E+04  0.46999998093E+01 0. -1.
</event>
<event>
 5   0  0.3215208E-05  0.2396597E+04  0.7818609E-02  0.8440779E-01
        2   -1    0    0  501    0  0.00000000000E+00  0.00000000000E+00  0.20600678147E+04  0.20600678147E+04  0.25500000920E-02 0.  1.
       -2   -1    0    0    0  501  0.00000000000E+00  0.00000000000E+00 -0.69702546535E+03  0.69702546535E+03  0.25500000920E-02 0. -1.
    10030    2    1    2    0    0  0.00000000000E+00  0.00000000000E+00  0.13630423494E+04  0.27570932801E+04  0.23965973606E+04 0.  0.
        1    1    3    3  502    0 -0.17538616302E+03 -0.71805662558E+02  0.20427179866E+04  0.20514904660E+04  0.50400001928E-02 0.  1.
       -1    1    3    3    0  502  0.17538616302E+03  0.71805662558E+02 -0.67967563722E+03  0.70560281406E+03  0.50400001928E-02 0. -1.
</event>
<event>
 5   0  0.1401596E-05  0.2396121E+04  0.7818609E-02  0.8440957E-01
        1   -1    0    0  501    0  0.00000000000E+00  0.00000000000E+00  0.27989257663E+04  0.27989257663E+04  0.50400001928E-02 0. -1.
       -1   -1    0    0    0  501  0.00000000000E+00  0.00000000000E+00 -0.51282131654E+03  0.51282131657E+03  0.50400001928E-02 0.  1.
    10030    2    1    2    0    0  0.00000000000E+00  0.00000000000E+00  0.22861044498E+04  0.33117470829E+04  0.23961208621E+04 0.  0.
        2    1    3    3  502    0  0.11277118101E+03 -0.73807948941E+02  0.27884145106E+04  0.27916698292E+04  0.25500000920E-02 0. -1.
       -2    1    3    3    0  502 -0.11277118101E+03  0.73807948941E+02 -0.50231006080E+03  0.52007725367E+03  0.25500000920E-02 0.  1.
</event>
<event>
 5   0  0.1401596E-05  0.2449901E+04  0.7818609E-02  0.8421054E-01
        1   -1    0    0  501    0  0.00000000000E+00  0.00000000000E+00  0.16626224290E+04  0.16626224290E+04  0.50400001928E-02 0.  1.
       -1   -1    0    0    0  501  0.00000000000E+00  0.00000000000E+00 -0.90249192230E+03  0.90249192232E+03  0.50400001928E-02 0. -1.
    10030    2    1    2    0    0  0.00000000000E+00  0.00000000000E+00  0.76013050670E+03  0.25651143513E+04  0.24499006609E+04 0.  0.
        2    1    3    3  502    0 -0.58783879351E+02 -0.56969262991E+03 -0.75367697960E+03  0.94659084436E+03  0.25500000920E-02 0. -1.
       -2    1    3    3    0  502  0.58783879351E+02  0.56969262991E+03  0.15138074863E+04  0.16185235070E+04  0.25500000920E-02 0.  1.
</event>
<event>
 5   0  0.1506985E-05  0.2391183E+04  0.7818609E-02  0.8442812E-01
        1   -1    0    0  501    0  0.00000000000E+00  0.00000000000E+00  0.18915422287E+04  0.18915422287E+04  0.50400001928E-02 0.  1.
       -1   -1    0    0    0  501  0.00000000000E+00  0.00000000000E+00 -0.75570007214E+03  0.75570007216E+03  0.50400001928E-02 0. -1.
    10030    2    1    2    0    0  0.00000000000E+00  0.00000000000E+00  0.11358421566E+04  0.26472423009E+04  0.23911826352E+04 0.  0.
        3    1    3    3  502    0 -0.11171721911E+04  0.27210355546E+03  0.93060680279E+03  0.14792373308E+04  0.10100000352E+00 0. -1.
       -3    1    3    3    0  502  0.11171721911E+04 -0.27210355546E+03  0.20523535379E+03  0.11680049700E+04  0.10100000352E+00 0.  1.
</event>
<event>
 5   0  0.3215208E-05  0.2406463E+04  0.7818609E-02  0.8437088E-01
       -2   -1    0    0    0  501  0.00000000000E+00  0.00000000000E+00  0.59826942585E+03  0.59826942586E+03  0.25500000920E-02 0. -1.
        2   -1    0    0  501    0  0.00000000000E+00  0.00000000000E+00 -0.24199233813E+04  0.24199233813E+04  0.25500000920E-02 0.  1.
    10030    2    1    2    0    0  0.00000000000E+00  0.00000000000E+00 -0.18216539554E+04  0.30181928071E+04  0.24064631075E+04 0.  0.
        1    1    3    3  502    0  0.17099214488E+03  0.88146540588E+03  0.93746884993E+02  0.90277796487E+03  0.50400001928E-02 0. -1.
       -1    1    3    3    0  502 -0.17099214488E+03 -0.88146540588E+03 -0.19154008404E+04  0.21154148423E+04  0.50400001928E-02 0.  1.
</event>
<event>
 5   0  0.1393026E-05  0.2420785E+04  0.7818609E-02  0.8431763E-01
       -1   -1    0    0    0  501  0.00000000000E+00  0.00000000000E+00  0.11592860801E+04  0.11592860802E+04  0.50400001928E-02 0.  1.
        1   -1    0    0  501    0  0.00000000000E+00  0.00000000000E+00 -0.12637516580E+04  0.12637516580E+04  0.50400001928E-02 0. -1.
    10030    2    1    2    0    0  0.00000000000E+00  0.00000000000E+00 -0.10446557784E+03  0.24230377381E+04  0.24207847537E+04 0.  0.
        4    1    3    3  502    0  0.26411323334E+03 -0.82262082329E+03  0.79625141903E+03  0.11749377661E+04  0.12699999809E+01 0.  1.
       -4    1    3    3    0  502 -0.26411323334E+03  0.82262082329E+03 -0.90071699688E+03  0.12480999721E+04  0.12699999809E+01 0. -1.
</event>
<event>
 5   0  0.1393026E-05  0.2403005E+04  0.7818609E-02  0.8438379E-01
       -1   -1    0    0    0  501  0.00000000000E+00  0.00000000000E+00  0.95416395578E+03  0.95416395579E+03  0.50400001928E-02 0. -1.
        1   -1    0    0  501    0  0.00000000000E+00  0.00000000000E+00 -0.15129559135E+04  0.15129559135E+04  0.50400001928E-02 0.  1.
    10030    2    1    2    0    0  0.00000000000E+00  0.00000000000E+00 -0.55879195772E+03  0.24671198693E+04  0.24030047852E+04 0.  0.
        4    1    3    3  502    0  0.59523706491E+03  0.10431977239E+04 -0.31246932816E+03  0.12410509049E+04  0.12699999809E+01 0. -1.
       -4    1    3    3    0  502 -0.59523706491E+03 -0.10431977239E+04 -0.24632262956E+03  0.12260689644E+04  0.12699999809E+01 0.  1.
</event>
<event>
 5   0  0.1434943E-05  0.2400643E+04  0.7818609E-02  0.8439263E-01
       -1   -1    0    0    0  501  0.00000000000E+00  0.00000000000E+00  0.88103682058E+03  0.88103682060E+03  0.50400001928E-02 0.  1.
        1   -1    0    0  501    0  0.00000000000E+00  0.00000000000E+00 -0.16353143313E+04  0.16353143313E+04  0.50400001928E-02 0. -1.
    10030    2    1    2    0    0  0.00000000000E+00  0.00000000000E+00 -0.75427751067E+03  0.25163511519E+04  0.24006433630E+04 0.  0.
        5    1    3    3  502    0  0.10411501139E+04  0.47556223869E+03  0.16615121701E+01  0.11446300071E+04  0.46999998093E+01 0.  1.
       -5    1    3    3    0  502 -0.10411501139E+04 -0.47556223869E+03 -0.75593902284E+03  0.13717211447E+04  0.46999998093E+01 0. -1.
</event>
<event>
 5   0  0.3310037E-05  0.2380988E+04  0.7818609E-02  0.8446656E-01
       -2   -1    0    0    0  501  0.00000000000E+00  0.00000000000E+00  0.74363615321E+03  0.74363615322E+03  0.25500000920E-02 0. -1.
        2   -1    0    0  501    0  0.00000000000E+00  0.00000000000E+00 -0.19058733936E+04  0.19058733936E+04  0.25500000920E-02 0.  1.
    10030    2    1    2    0    0  0.00000000000E+00  0.00000000000E+00 -0.11622372404E+04  0.26495095468E+04  0.23809883317E+04 0.  0.
        2    1    3    3  502    0  0.90040793151E+03  0.74910074094E+03 -0.34404223731E+03  0.12207585446E+04  0.25500000920E-02 0.  1.
       -2    1    3    3    0  502 -0.90040793151E+03 -0.74910074094E+03 -0.81819500307E+03  0.14287510022E+04  0.25500000920E-02 0. -1.
</event>
<event>
 5   0  0.3345974E-05  0.2417420E+04  0.7818609E-02  0.8433010E-01
        2   -1    0    0  501    0  0.00000000000E+00  0.00000000000E+00  0.13311358373E+04  0.13311358373E+04  0.25500000920E-02 0.  1.
       -2   -1    0    0    0  501  0.00000000000E+00  0.00000000000E+00 -0.10975437850E+04  0.10975437850E+04  0.25500000920E-02 0. -1.
    10030    2    1    2    0    0  0.00000000000E+00  0.00000000000E+00  0.23359205222E+03  0.24286796223E+04  0.24174200009E+04 0.  0.
        4    1    3    3  502    0  0.45460842650E+03  0.47310030464E+03  0.11366525242E+04  0.13124303004E+04  0.12699999809E+01 0.  1.
       -4    1    3    3    0  502 -0.45460842650E+03 -0.47310030464E+03 -0.90306047200E+03  0.11162493219E+04  0.12699999809E+01 0. -1.
</event>
<event>
 5   0  0.3320780E-05  0.2411402E+04  0.7818609E-02  0.8435247E-01
       -2   -1    0    0    0  501  0.00000000000E+00  0.00000000000E+00  0.11345530463E+04  0.11345530463E+04  0.25500000920E-02 0.  1.
        2   -1    0    0  501    0  0.00000000000E+00  0.00000000000E+00 -0.12813111490E+04  0.12813111490E+04  0.25500000920E-02 0. -1.
    10030    2    1    2    0    0  0.00000000000E+00  0.00000000000E+00 -0.14675810270E+03  0.24158641953E+04  0.24114024694E+04 0.  0.
        5    1    3    3  502    0 -0.20450106853E+03 -0.36182680572E+03  0.10605074681E+04  0.11390511421E+04  0.46999998093E+01 0.  1.
       -5    1    3    3    0  502  0.20450106853E+03  0.36182680572E+03 -0.12072655708E+04  0.12768130532E+04  0.46999998093E+01 0. -1.
</event>
<event>
 5   0  0.3347728E-05  0.2391799E+04  0.7818609E-02  0.8442580E-01
        2   -1    0    0  501    0  0.00000000000E+00  0.00000000000E+00  0.11066171799E+04  0.11066171799E+04  0.25500000920E-02 0.  1.
       -2   -1    0    0    0  501  0.00000000000E+00  0.00000000000E+00 -0.12923853822E+04  0.12923853822E+04  0.25500000920E-02 0. -1.
    10030    2    1    2    0    0  0.00000000000E+00  0.00000000000E+00 -0.18576820234E+03  0.23990025621E+04  0.23917992115E+04 0.  0.
        3    1    3    3  502    0 -0.15329503610E+03 -0.17015121744E+03 -0.12701844458E+04  0.12906662394E+04  0.10100000352E+00 0. -1.
       -3    1    3    3    0  502  0.15329503610E+03  0.17015121744E+03  0.10844162435E+04  0.11083363227E+04  0.10100000352E+00 0.  1.
</event>
<event>
 5   0  0.3320780E-05  0.2401926E+04  0.7818609E-02  0.8438783E-01
        2   -1    0    0  501    0  0.00000000000E+00  0.00000000000E+00  0.22859854682E+04  0.22859854682E+04  0.25500000920E-02 0. -1.
       -2   -1    0    0    0  501  0.00000000000E+00  0.00000000000E+00 -0.63093692904E+03  0.63093692904E+03  0.25500000920E-02 0.  1.
    10030    2    1    2    0    0  0.00000000000E+00  0.00000000000E+00  0.16550485391E+04  0.29169223972E+04  0.24019264361E+04 0.  0.
        5    1    3    3  502    0  0.52740910812E+03  0.97923403993E+03  0.13776811339E+04  0.17706177083E+04  0.46999998093E+01 0.  1.
       -5    1    3    3    0  502 -0.52740910812E+03 -0.97923403993E+03  0.27736740520E+03  0.11463046889E+04  0.46999998093E+01 0. -1.
</event>
<event>
 5   0  0.3310037E-05  0.2301376E+04  0.7818609E-02  0.8477379E-01
       -2   -1    0    0    0  501  0.00000000000E+00  0.00000000000E+00  0.91011889858E+03  0.91011889859E+03  0.25500000920E-02 0.  1.
        2   -1    0    0  501    0  0.00000000000E+00  0.00000000000E+00 -0.14548457650E+04  0.14548457650E+04  0.25500000920E-02 0. -1.
    10030    2    1    2    0    0  0.00000000000E+00  0.00000000000E+00 -0.54472686638E+03  0.23649646635E+04  0.23013757844E+04 0.  0.
        2    1    3    3  502    0 -0.99143621215E+03  0.30607949000E+03 -0.78355394455E+03  0.13002258269E+04  0.25500000920E-02 0. -1.
       -2    1    3    3    0  502  0.99143621215E+03 -0.30607949000E+03  0.23882707817E+03  0.10647388366E+04  0.25500000920E-02 0.  1.
</event>
<event>
 5   0  0.1407158E-05  0.2397806E+04  0.7818609E-02  0.8440325E-01
       -1   -1    0    0    0  501  0.00000000000E+00  0.00000000000E+00  0.53539639274E+03  0.53539639277E+03  0.50400001928E-02 0. -1.
        1   -1    0    0  501    0  0.00000000000E+00  0.00000000000E+00 -0.26846808428E+04  0.26846808428E+04  0.50400001928E-02 0.  1.
    10030    2    1    2    0    0  0.00000000000E+00  0.00000000000E+00 -0.21492844500E+04  0.32200772356E+04  0.23978060296E+04 0.  0.
        1    1    3    3  502    0 -0.95562444428E+03  0.46664798263E+03 -0.18179857259E+04  0.21061933714E+04  0.50400001928E-02 0.  1.
       -1    1    3    3    0  502  0.95562444428E+03 -0.46664798263E+03 -0.33129872418E+03  0.11138838642E+04  0.50400001928E-02 0. -1.
</event>
<event>
 5   0  0.1393026E-05  0.2385602E+04  0.7818609E-02  0.8444914E-01
       -1   -1    0    0    0  501  0.00000000000E+00  0.00000000000E+00  0.14812333791E+04  0.14812333791E+04  0.50400001928E-02 0.  1.
        1   -1    0    0  501    0  0.00000000000E+00  0.00000000000E+00 -0.96053351626E+03  0.96053351627E+03  0.50400001928E-02 0. -1.
    10030    2    1    2    0    0  0.00000000000E+00  0.00000000000E+00  0.52069986280E+03  0.24417668953E+04  0.23856020674E+04 0.  0.
        4    1    3    3  502    0  0.68947155528E+03 -0.90718948252E+03  0.62137049687E+03  0.12978700590E+04  0.12699999809E+01 0.  1.
       -4    1    3    3    0  502 -0.68947155528E+03  0.90718948252E+03 -0.10067063407E+03  0.11438968364E+04  0.12699999809E+01 0. -1.
</event>
<event>
 5   0  0.3345974E-05  0.2379635E+04  0.7818609E-02  0.8447167E-01
        2   -1    0    0  501    0  0.00000000000E+00  0.00000000000E+00  0.10195941399E+04  0.10195941399E+04  0.25500000920E-02 0.  1.
       -2   -1    0    0    0  501  0.00000000000E+00  0.00000000000E+00 -0.13884605049E+04  0.13884605049E+04  0.25500000920E-02 0. -1.
    10030    2    1    2    0    0  0.00000000000E+00  0.00000000000E+00 -0.36886636503E+03  0.24080546448E+04  0.23796354294E+04 0.  0.
        4    1    3    3  502    0  0.59818604962E+03 -0.49093335298E+03 -0.10990090778E+04  0.13441222686E+04  0.12699999809E+01 0. -1.
       -4    1    3    3    0  502 -0.59818604962E+03  0.49093335298E+03  0.73014271279E+03  0.10639323761E+04  0.12699999809E+01 0.  1.
</event>
<event>
 5   0  0.3345974E-05  0.2450315E+04  0.7818609E-02  0.8420903E-01
        2   -1    0    0  501    0  0.00000000000E+00  0.00000000000E+00  0.22504075971E+04  0.22504075971E+04  0.25500000920E-02 0. -1.
       -2   -1    0    0    0  501  0.00000000000E+00  0.00000000000E+00 -0.66699511904E+03  0.66699511905E+03  0.25500000920E-02 0.  1.
    10030    2    1    2    0    0  0.00000000000E+00  0.00000000000E+00  0.15834124781E+04  0.29174027162E+04  0.24503149864E+04 0.  0.
        4    1    3    3  502    0  0.99164168797E+03  0.62352883821E+03  0.36429424119E+03  0.12267246457E+04  0.12699999809E+01 0.  1.
       -4    1    3    3    0  502 -0.99164168797E+03 -0.62352883821E+03  0.12191182369E+04  0.16906780704E+04  0.12699999809E+01 0. -1.
</event>
<event>
 5   0  0.1401596E-05  0.2405237E+04  0.7818609E-02  0.8437545E-01
        1   -1    0    0  501    0  0.00000000000E+00  0.00000000000E+00  0.18397314534E+04  0.18397314534E+04  0.50400001928E-02 0. -1.
       -1   -1    0    0    0  501  0.00000000000E+00  0.00000000000E+00 -0.78614278303E+03  0.78614278305E+03  0.50400001928E-02 0.  1.
    10030    2    1    2    0    0  0.00000000000E+00  0.00000000000E+00  0.10535886703E+04  0.26258742364E+04  0.24052372896E+04 0.  0.
        2    1    3    3  502    0  0.10791639353E+04 -0.52507593938E+03  0.44228509592E+03  0.12790291817E+04  0.25500000920E-02 0. -1.
       -2    1    3    3    0  502 -0.10791639353E+04  0.52507593938E+03  0.61130357442E+03  0.13468450548E+04  0.25500000920E-02 0.  1.
</event>
<event>
 5   0  0.1401596E-05  0.2378679E+04  0.7818609E-02  0.8447529E-01
       -1   -1    0    0    0  501  0.00000000000E+00  0.00000000000E+00  0.12817235937E+04  0.12817235937E+04  0.50400001928E-02 0. -1.
        1   -1    0    0  501    0  0.00000000000E+00  0.00000000000E+00 -0.11036146503E+04  0.11036146503E+04  0.50400001928E-02 0.  1.
    10030    2    1    2    0    0  0.00000000000E+00  0.00000000000E+00  0.17810894335E+03  0.23853382440E+04  0.23786794115E+04 0.  0.
        2    1    3    3  502    0  0.61412703330E+03 -0.10007148890E+04  0.27918119792E+03  0.12068655448E+04  0.25500000920E-02 0. -1.
       -2    1    3    3    0  502 -0.61412703330E+03  0.10007148890E+04 -0.10107225456E+03  0.11784726992E+04  0.25500000920E-02 0.  1.
</event>
<event>
 5   0  0.3310037E-05  0.2096927E+04  0.7818609E-02  0.8562598E-01
       -2   -1    0    0    0  501  0.00000000000E+00  0.00000000000E+00  0.57947999765E+03  0.57947999765E+03  0.25500000920E-02 0. -1.
        2   -1    0    0  501    0  0.00000000000E+00  0.00000000000E+00 -0.18970043025E+04  0.18970043025E+04  0.25500000920E-02 0.  1.
    10030    2    1    2    0    0  0.00000000000E+00  0.00000000000E+00 -0.13175243049E+04  0.24764843002E+04  0.20969273223E+04 0.  0.
        2    1    3    3  502    0  0.65917943264E+03 -0.26220735082E+03  0.25299137966E+03  0.75317651147E+03  0.25500000920E-02 0. -1.
       -2    1    3    3    0  502 -0.65917943264E+03  0.26220735082E+03 -0.15705156846E+04  0.17233077887E+04  0.25500000920E-02 0.  1.
</event>
<event>
 5   0  0.3347728E-05  0.2408691E+04  0.7818609E-02  0.8436257E-01
        2   -1    0    0  501    0  0.00000000000E+00  0.00000000000E+00  0.14041736459E+04  0.14041736459E+04  0.25500000920E-02 0. -1.
       -2   -1    0    0    0  501  0.00000000000E+00  0.00000000000E+00 -0.10329547689E+04  0.10329547689E+04  0.25500000920E-02 0.  1.
    10030    2    1    2    0    0  0.00000000000E+00  0.00000000000E+00  0.37121887695E+03  0.24371284148E+04  0.24086908178E+04 0.  0.
        3    1    3    3  502    0 -0.19062450940E+03 -0.61766511483E+03  0.12137758386E+04  0.13751726052E+04  0.10100000352E+00 0. -1.
       -3    1    3    3    0  502  0.19062450940E+03  0.61766511483E+03 -0.84255696165E+03  0.10619558096E+04  0.10100000352E+00 0.  1.
</event>
<event>
 5   0  0.3310037E-05  0.2387602E+04  0.7818609E-02  0.8444160E-01
        2   -1    0    0  501    0  0.00000000000E+00  0.00000000000E+00  0.18996822261E+04  0.18996822261E+04  0.25500000920E-02 0. -1.
       -2   -1    0    0    0  501  0.00000000000E+00  0.00000000000E+00 -0.75021004410E+03  0.75021004410E+03  0.25500000920E-02 0.  1.
    10030    2    1    2    0    0  0.00000000000E+00  0.00000000000E+00  0.11494721820E+04  0.26498922702E+04  0.23876018819E+04 0.  0.
        2    1    3    3  502    0  0.24623273843E+03 -0.93020172274E+03  0.13589372235E+04  0.16651174685E+04  0.25500000920E-02 0. -1.
       -2    1    3    3    0  502 -0.24623273843E+03  0.93020172274E+03 -0.20946504151E+03  0.98477480171E+03  0.25500000920E-02 0.  1.
</event>
<event>
 5   0  0.3215208E-05  0.2397927E+04  0.7818609E-02  0.8440280E-01
       -2   -1    0    0    0  501  0.00000000000E+00  0.00000000000E+00  0.13032397132E+04  0.13032397132E+04  0.25500000920E-02 0. -1.
        2   -1    0    0  501    0  0.00000000000E+00  0.00000000000E+00 -0.11030311331E+04  0.11030311331E+04  0.25500000920E-02 0.  1.
    10030    2    1    2    0    0  0.00000000000E+00  0.00000000000E+00  0.20020858008E+03  0.24062708463E+04  0.23979274197E+04 0.  0.
        1    1    3    3  502    0 -0.10132164126E+04 -0.20828928942E+02 -0.54280630051E+03  0.11496434330E+04  0.50400001928E-02 0. -1.
       -1    1    3    3    0  502  0.10132164126E+04  0.20828928942E+02  0.74301488059E+03  0.12566274133E+04  0.50400001928E-02 0.  1.
</event>
<event>
 5   0  0.1434943E-05  0.2420451E+04  0.7818609E-02  0.8431886E-01
        1   -1    0    0  501    0  0.00000000000E+00  0.00000000000E+00  0.76894018304E+03  0.76894018306E+03  0.50400001928E-02 0. -1.
       -1   -1    0    0    0  501  0.00000000000E+00  0.00000000000E+00 -0.19047595270E+04  0.19047595270E+04  0.50400001928E-02 0.  1.
    10030    2    1    2    0    0  0.00000000000E+00  0.00000000000E+00 -0.11358193440E+04  0.26736997101E+04  0.24204513128E+04 0.  0.
        5    1    3    3  502    0  0.12898004709E+03  0.54577531432E+03 -0.17525523762E+04  0.18401001244E+04  0.46999998093E+01 0.  1.
       -5    1    3    3    0  502 -0.12898004709E+03 -0.54577531432E+03  0.61673303224E+03  0.83359958573E+03  0.46999998093E+01 0. -1.
</event>
<event>
 5   0  0.3320780E-05  0.2122926E+04  0.7818609E-02  0.8551211E-01
        2   -1    0    0  501    0  0.00000000000E+00  0.00000000000E+00  0.16795822479E+04  0.16795822479E+04  0.25500000920E-02 0. -1.
       -2   -1    0    0    0  501  0.00000000000E+00  0.00000000000E+00 -0.67082408618E+03  0.67082408618E+03  0.25500000920E-02 0.  1.
    10030    2    1    2    0    0  0.00000000000E+00  0.00000000000E+00  0.10087581617E+04  0.23504063341E+04  0.21229264958E+04 0.  0.
        5    1    3    3  502    0  0.27272094747E+03 -0.63595627482E+03  0.13955279562E+04  0.15576705253E+04  0.46999998093E+01 0. -1.
       -5    1    3    3    0  502 -0.27272094747E+03  0.63595627482E+03 -0.38676979450E+03  0.79273580883E+03  0.46999998093E+01 0.  1.
</event>
<event>
 5   0  0.3345974E-05  0.2397848E+04  0.7818609E-02  0.8440310E-01
       -2   -1    0    0    0  501  0.00000000000E+00  0.00000000000E+00  0.99828702969E+03  0.99828702970E+03  0.25500000920E-02 0.  1.
        2   -1    0    0  501    0  0.00000000000E+00  0.00000000000E+00 -0.14398855185E+04  0.14398855185E+04  0.25500000920E-02 0. -1.
    10030    2    1    2    0    0  0.00000000000E+00  0.00000000000E+00 -0.44159848880E+03  0.24381725482E+04  0.23978482332E+04 0.  0.
        4    1    3    3  502    0 -0.38262260648E+03 -0.98381299588E+03  0.35720489932E+03  0.11143989514E+04  0.12699999809E+01 0.  1.
       -4    1    3    3    0  502  0.38262260648E+03  0.98381299588E+03 -0.79880338812E+03  0.13237735968E+04  0.12699999809E+01 0. -1.
</event>
<event>
 5   0  0.3310037E-05  0.2343902E+04  0.7818609E-02  0.8460809E-01
        2   -1    0    0  501    0  0.00000000000E+00  0.00000000000E+00  0.18170563611E+04  0.18170563611E+04  0.25500000920E-02 0. -1.
       -2   -1    0    0    0  501  0.00000000000E+00  0.00000000000E+00 -0.75587606904E+03  0.75587606904E+03  0.25500000920E-02 0.  1.
    10030    2    1    2    0    0  0.00000000000E+00  0.00000000000E+00  0.10611802921E+04  0.25729324302E+04  0.23439022330E+04 0.  0.
        2    1    3    3  502    0 -0.10478240585E+04 -0.10180586951E+03  0.10958535362E+04  0.15196034566E+04  0.25500000920E-02 0.  1.
       -2    1    3    3    0  502  0.10478240585E+04  0.10180586951E+03 -0.34673244079E+02  0.10533289735E+04  0.25500000920E-02 0. -1.
</event>
<event>
 5   0  0.1506985E-05  0.2393860E+04  0.7818609E-02  0.8441806E-01
        1   -1    0    0  501    0  0.00000000000E+00  0.00000000000E+00  0.13074138611E+04  0.13074138611E+04  0.50400001928E-02 0. -1.
       -1   -1    0    0    0  501  0.00000000000E+00  0.00000000000E+00 -0.10957829484E+04  0.10957829484E+04  0.50400001928E-02 0.  1.
    10030    2    1    2    0    0  0.00000000000E+00  0.00000000000E+00  0.21163091264E+03  0.24031968095E+04  0.23938603263E+04 0.  0.
        3    1    3    3  502    0  0.48859617099E+03  0.61718553375E+03  0.10109959039E+04  0.12813106295E+04  0.10100000352E+00 0. -1.
       -3    1    3    3    0  502 -0.48859617099E+03 -0.61718553375E+03 -0.79936499126E+03  0.11218861800E+04  0.10100000352E+00 0.  1.
</event>
<event>
 5   0  0.1434943E-05  0.2404457E+04  0.7818609E-02  0.8437837E-01
       -1   -1    0    0    0  501  0.00000000000E+00  0.00000000000E+00  0.22031774751E+04  0.22031774751E+04  0.50400001928E-02 0. -1.
        1   -1    0    0  501    0  0.00000000000E+00  0.00000000000E+00 -0.65603148099E+03  0.65603148101E+03  0.50400001928E-02 0.  1.
    10030    2    1    2    0    0  0.00000000000E+00  0.00000000000E+00  0.15471459941E+04  0.28592089561E+04  0.24044573458E+04 0.  0.
        5    1    3    3  502    0  0.82388359769E+03 -0.18545284153E+03 -0.24391726460E+03  0.87903052333E+03  0.46999998093E+01 0.  1.
       -5    1    3    3    0  502 -0.82388359769E+03  0.18545284153E+03  0.17910632587E+04  0.19801784328E+04  0.46999998093E+01 0. -1.
</event>
<event>
 5   0  0.3215208E-05  0.2383822E+04  0.7818609E-02  0.8445585E-01
       -2   -1    0    0    0  501  0.00000000000E+00  0.00000000000E+00  0.14576700005E+04  0.14576700005E+04  0.25500000920E-02 0.  1.
        2   -1    0    0  501    0  0.00000000000E+00  0.00000000000E+00 -0.97460437239E+03  0.97460437239E+03  0.25500000920E-02 0. -1.
    10030    2    1    2    0    0  0.00000000000E+00  0.00000000000E+00  0.48306562811E+03  0.24322743729E+04  0.23838217685E+04 0.  0.
        1    1    3    3  502    0 -0.10299953815E+04  0.41036244068E+03  0.68787568726E+03  0.13047838058E+04  0.50400001928E-02 0.  1.
       -1    1    3    3    0  502  0.10299953815E+04 -0.41036244068E+03 -0.20481005915E+03  0.11274905671E+04  0.50400001928E-02 0. -1.
</event>
<event>
 5   0  0.3320780E-05  0.2408198E+04  0.7818609E-02  0.8436441E-01
       -2   -1    0    0    0  501  0.00000000000E+00  0.00000000000E+00  0.15669981282E+04  0.15669981282E+04  0.25500000920E-02 0.  1.
        2   -1    0    0  501    0  0.00000000000E+00  0.00000000000E+00 -0.92524355472E+03  0.92524355472E+03  0.25500000920E-02 0. -1.
    10030    2    1    2    0    0  0.00000000000E+00  0.00000000000E+00  0.64175457352E+03  0.24922416830E+04  0.24081984290E+04 0.  0.
        5    1    3    3  502    0  0.71119841964E+03 -0.59871744793E+02  0.13244863854E+04  0.15045511267E+04  0.46999998093E+01 0.  1.
       -5    1    3    3    0  502 -0.71119841964E+03  0.59871744793E+02 -0.68273181185E+03  0.98769055622E+03  0.46999998093E+01 0. -1.
</event>
<event>
 5   0  0.3320780E-05  0.2399549E+04  0.7818609E-02  0.8439672E-01
       -2   -1    0    0    0  501  0.00000000000E+00  0.00000000000E+00  0.14774030846E+04  0.14774030846E+04  0.25500000920E-02 0. -1.
        2   -1    0    0  501    0  0.00000000000E+00  0.00000000000E+00 -0.97431707510E+03  0.97431707510E+03  0.25500000920E-02 0.  1.
    10030    2    1    2    0    0  0.00000000000E+00  0.00000000000E+00  0.50308600948E+03  0.24517201597E+04  0.23995491678E+04 0.  0.
        5    1    3    3  502    0  0.13535452163E+03 -0.51092843932E+03  0.13520251846E+04  0.14516758958E+04  0.46999998093E+01 0. -1.
       -5    1    3    3    0  502 -0.13535452163E+03  0.51092843932E+03 -0.84893917513E+03  0.10000442639E+04  0.46999998093E+01 0.  1.
</event>
<event>
 5   0  0.1393026E-05  0.2496840E+04  0.7818609E-02  0.8404112E-01
        1   -1    0    0  501    0  0.00000000000E+00  0.00000000000E+00  0.14726175608E+04  0.14726175608E+04  0.50400001928E-02 0.  1.
       -1   -1    0    0    0  501  0.00000000000E+00  0.00000000000E+00 -0.10583551714E+04  0.10583551714E+04  0.50400001928E-02 0. -1.
    10030    2    1    2    0    0  0.00000000000E+00  0.00000000000E+00  0.41426238936E+03  0.25309727322E+04  0.24968399316E+04 0.  0.
        4    1    3    3  502    0 -0.24832975460E+03 -0.18723524376E+03  0.14327195331E+04  0.14660871655E+04  0.12699999809E+01 0.  1.
       -4    1    3    3    0  502  0.24832975460E+03  0.18723524376E+03 -0.10184571438E+04  0.10648855667E+04  0.12699999809E+01 0. -1.
</event>
<event>
 5   0  0.1393026E-05  0.2399462E+04  0.7818609E-02  0.8439705E-01
       -1   -1    0    0    0  501  0.00000000000E+00  0.00000000000E+00  0.54004732723E+03  0.54004732726E+03  0.50400001928E-02 0.  1.
        1   -1    0    0  501    0  0.00000000000E+00  0.00000000000E+00 -0.26652370632E+04  0.26652370632E+04  0.50400001928E-02 0. -1.
    10030    2    1    2    0    0  0.00000000000E+00  0.00000000000E+00 -0.21251897359E+04  0.32052843904E+04  0.23994617333E+04 0.  0.
        4    1    3    3  502    0 -0.10845435516E+04 -0.50701298261E+03 -0.11665470171E+04  0.16715652652E+04  0.12699999809E+01 0. -1.
       -4    1    3    3    0  502  0.10845435516E+04  0.50701298261E+03 -0.95864271886E+03  0.15337191252E+04  0.12699999809E+01 0.  1.
</event>
<event>
 5   0  0.1401596E-05  0.2425486E+04  0.7818609E-02  0.8430023E-01
       -1   -1    0    0    0  501  0.00000000000E+00  0.00000000000E+00  0.24223911049E+04  0.24223911049E+04  0.50400001928E-02 0.  1.
        1   -1    0    0  501    0  0.00000000000E+00  0.00000000000E+00 -0.60714603699E+03  0.60714603701E+03  0.50400001928E-02 0. -1.
    10030    2    1    2    0    0  0.00000000000E+00  0.00000000000E+00  0.18152450679E+04  0.30295371419E+04  0.24254856498E+04 0.  0.
        2    1    3    3  502    0  0.98213081196E+03  0.71045055854E+03  0.86048489129E+03  0.14865245293E+04  0.25500000920E-02 0.  1.
       -2    1    3    3    0  502 -0.98213081196E+03 -0.71045055854E+03  0.95476017660E+03  0.15430126126E+04  0.25500000920E-02 0. -1.
</event>
<event>
 5   0  0.3215208E-05  0.2390720E+04  0.7818609E-02  0.8442986E-01
        2   -1    0    0  501    0  0.00000000000E+00  0.00000000000E+00  0.78712202436E+03  0.78712202436E+03  0.25500000920E-02 0.  1.
       -2   -1    0    0    0  501  0.00000000000E+00  0.00000000000E+00 -0.18153298561E+04  0.18153298561E+04  0.25500000920E-02 0. -1.
    10030    2    1    2    0    0  0.00000000000E+00  0.00000000000E+00 -0.10282078317E+04  0.26024518804E+04  0.23907204866E+04 0.  0.
        1    1    3    3  502    0  0.65808699343E+03  0.92728516251E+02  0.56747563443E+03  0.87390254854E+03  0.50400001928E-02 0.  1.
       -1    1    3    3    0  502 -0.65808699343E+03 -0.92728516251E+02 -0.15956834661E+04  0.17285493319E+04  0.50400001928E-02 0. -1.
</event>
<event>
 5   0  0.3320780E-05  0.2416437E+04  0.7818609E-02  0.8433375E-01
       -2   -1    0    0    0  501  0.00000000000E+00  0.00000000000E+00  0.10546470300E+04  0.10546470300E+04  0.25500000920E-02 0. -1.
        2   -1    0    0  501    0  0.00000000000E+00  0.00000000000E+00 -0.13841526310E+04  0.13841526310E+04  0.25500000920E-02 0.  1.
    10030    2    1    2    0    0  0.00000000000E+00  0.00000000000E+00 -0.32950560097E+03  0.24387996610E+04  0.24164374284E+04 0.  0.
        5    1    3    3  502    0  0.58964618276E+03  0.22542193329E+03  0.87496162326E+03  0.10789242796E+04  0.46999998093E+01 0. -1.
       -5    1    3    3    0  502 -0.58964618276E+03 -0.22542193329E+03 -0.12044672242E+04  0.13598753815E+04  0.46999998093E+01 0.  1.
</event>
<event>
 5   0  0.3347728E-05  0.2496132E+04  0.7818609E-02  0.8404365E-01
       -2   -1    0    0    0  501  0.00000000000E+00  0.00000000000E+00  0.79136516199E+03  0.79136516200E+03  0.25500000920E-02 0.  1.
        2   -1    0    0  501    0  0.00000000000E+00  0.00000000000E+00 -0.19683315546E+04  0.19683315546E+04  0.25500000920E-02 0. -1.
    10030    2    1    2    0    0  0.00000000000E+00  0.00000000000E+00 -0.11769663926E+04  0.27596967166E+04  0.24961322237E+04 0.  0.
        3    1    3    3  502    0 -0.10760705417E+04  0.62089881136E+03 -0.45661711312E+03  0.13236095885E+04  0.10100000352E+00 0. -1.
       -3    1    3    3    0  502  0.10760705417E+04 -0.62089881136E+03 -0.72034927944E+03  0.14360871280E+04  0.10100000352E+00 0.  1.
</event>
<event>
 5   0  0.1393026E-05  0.2430715E+04  0.7818609E-02  0.8428093E-01
       -1   -1    0    0    0  501  0.00000000000E+00  0.00000000000E+00  0.15837179990E+04  0.15837179990E+04  0.50400001928E-02 0.  1.
        1   -1    0    0  501    0  0.00000000000E+00  0.00000000000E+00 -0.93267449037E+03  0.93267449039E+03  0.50400001928E-02 0. -1.
    10030    2    1    2    0    0  0.00000000000E+00  0.00000000000E+00  0.65104350863E+03  0.25163924894E+04  0.24307146090E+04 0.  0.
        4    1    3    3  502    0 -0.35210118243E+03 -0.11011217952E+04 -0.62727053398E+02  0.11577481361E+04  0.12699999809E+01 0.  1.
       -4    1    3    3    0  502  0.35210118243E+03  0.11011217952E+04  0.71377056203E+03  0.13586443533E+04  0.12699999809E+01 0. -1.
</event>
<event>
 5   0  0.3215208E-05  0.2384231E+04  0.7818609E-02  0.8445431E-01
        2   -1    0    0  501    0  0.00000000000E+00  0.00000000000E+00  0.99456510176E+03  0.99456510176E+03  0.25500000920E-02 0.  1.
       -2   -1    0    0    0  501  0.00000000000E+00  0.00000000000E+00 -0.14289048618E+04  0.14289048618E+04  0.25500000920E-02 0. -1.
    10030    2    1    2    0    0  0.00000000000E+00  0.00000000000E+00 -0.43433976004E+03  0.24234699636E+04  0.23842306174E+04 0.  0.
        1    1    3    3  502    0 -0.11434652072E+04  0.33707557509E+03 -0.21462146871E+03  0.12112782498E+04  0.50400001928E-02 0.  1.
       -1    1    3    3    0  502  0.11434652072E+04 -0.33707557509E+03 -0.21971829134E+03  0.12121917138E+04  0.50400001928E-02 0. -1.
</event>
<event>
 5   0  0.1393026E-05  0.2402351E+04  0.7818609E-02  0.8438624E-01
       -1   -1    0    0    0  501  0.00000000000E+00  0.00000000000E+00  0.11247808459E+04  0.11247808459E+04  0.50400001928E-02 0.  1.
        1   -1    0    0  501    0  0.00000000000E+00  0.00000000000E+00 -0.12827584063E+04  0.12827584063E+04  0.50400001928E-02 0. -1.
    10030    2    1    2    0    0  0.00000000000E+00  0.00000000000E+00 -0.15797756043E+03  0.24075392522E+04  0.24023505866E+04 0.  0.
        4    1    3    3  502    0 -0.52806513334E+03 -0.94646514776E+03  0.43998238560E+03  0.11697158516E+04  0.12699999809E+01 0.  1.
       -4    1    3    3    0  502  0.52806513334E+03  0.94646514776E+03 -0.59795994603E+03  0.12378234005E+04  0.12699999809E+01 0. -1.
</event>
<event>
 5   0  0.3347728E-05  0.2388024E+04  0.7818609E-02  0.8444001E-01
        2   -1    0    0  501    0  0.00000000000E+00  0.00000000000E+00  0.11926329988E+04  0.11926329988E+04  0.25500000920E-02 0. -1.
       -2   -1    0    0    0  501  0.00000000000E+00  0.00000000000E+00 -0.11953922656E+04  0.11953922656E+04  0.25500000920E-02 0.  1.
    10030    2    1    2    0    0  0.00000000000E+00  0.00000000000E+00 -0.27592668294E+01  0.23880252644E+04  0.23880236703E+04 0.  0.
        3    1    3    3  502    0  0.60943238684E+03 -0.37900928162E+03 -0.95563829771E+03  0.11951152396E+04  0.10100000352E+00 0.  1.
       -3    1    3    3    0  502 -0.60943238684E+03  0.37900928162E+03  0.95287903088E+03  0.11929100248E+04  0.10100000352E+00 0. -1.
</event>
<event>
 5   0  0.3345974E-05  0.2356207E+04  0.7818609E-02  0.8456083E-01
       -2   -1    0    0    0  501  0.00000000000E+00  0.00000000000E+00  0.80001638444E+03  0.80001638445E+03  0.25500000920E-02 0. -1.
        2   -1    0    0  501    0  0.00000000000E+00  0.00000000000E+00 -0.17348741276E+04  0.17348741276E+04  0.25500000920E-02 0.  1.
    10030    2    1    2    0    0  0.00000000000E+00  0.00000000000E+00 -0.93485774317E+03  0.25348905121E+04  0.23562068899E+04 0.  0.
        4    1    3    3  502    0 -0.75750521677E+02 -0.36332012618E+03  0.73548125097E+03  0.82381669020E+03  0.12699999809E+01 0. -1.
       -4    1    3    3    0  502  0.75750521677E+02  0.36332012618E+03 -0.16703389941E+04  0.17110738219E+04  0.12699999809E+01 0.  1.
</event>
<event>
 5   0  0.1407158E-05  0.2336198E+04  0.7818609E-02  0.8463784E-01
        1   -1    0    0  501    0  0.00000000000E+00  0.00000000000E+00  0.15110690309E+04  0.15110690309E+04  0.50400001928E-02 0.  1.
       -1   -1    0    0    0  501  0.00000000000E+00  0.00000000000E+00 -0.90297312147E+03  0.90297312148E+03  0.50400001928E-02 0. -1.
    10030    2    1    2    0    0  0.00000000000E+00  0.00000000000E+00  0.60809590943E+03  0.24140421524E+04  0.23361975256E+04 0.  0.
        1    1    3    3  502    0  0.11493110707E+04 -0.18172000290E+03  0.41001563758E+03  0.12337142781E+04  0.50400001928E-02 0. -1.
       -1    1    3    3    0  502 -0.11493110707E+04  0.18172000290E+03  0.19808027185E+03  0.11803278743E+04  0.50400001928E-02 0.  1.
</event>
<event>
 5   0  0.3215208E-05  0.2388492E+04  0.7818609E-02  0.8443824E-01
       -2   -1    0    0    0  501  0.00000000000E+00  0.00000000000E+00  0.11826022682E+04  0.11826022682E+04  0.25500000920E-02 0. -1.
        2   -1    0    0  501    0  0.00000000000E+00  0.00000000000E+00 -0.12060048093E+04  0.12060048093E+04  0.25500000920E-02 0.  1.
    10030    2    1    2    0    0  0.00000000000E+00  0.00000000000E+00 -0.23402541178E+02  0.23886070775E+04  0.23884924308E+04 0.  0.
        1    1    3    3  502    0  0.30024845144E+03 -0.78351989204E+03 -0.86154878556E+03  0.12026299779E+04  0.50400001928E-02 0.  1.
       -1    1    3    3    0  502 -0.30024845144E+03  0.78351989204E+03  0.83814624438E+03  0.11859770996E+04  0.50400001928E-02 0. -1.
</event>
<event>
 5   0  0.1434943E-05  0.2401777E+04  0.7818609E-02  0.8438839E-01
        1   -1    0    0  501    0  0.00000000000E+00  0.00000000000E+00  0.12758023090E+04  0.12758023090E+04  0.50400001928E-02 0. -1.
       -1   -1    0    0    0  501  0.00000000000E+00  0.00000000000E+00 -0.11303736385E+04  0.11303736385E+04  0.50400001928E-02 0.  1.
    10030    2    1    2    0    0  0.00000000000E+00  0.00000000000E+00  0.14542867048E+03  0.24061759475E+04  0.24017770904E+04 0.  0.
        5    1    3    3  502    0  0.78275230975E+03 -0.49905281949E+03 -0.69049212828E+03  0.11569599666E+04  0.46999998093E+01 0.  1.
       -5    1    3    3    0  502 -0.78275230975E+03  0.49905281949E+03  0.83592079876E+03  0.12492159809E+04  0.46999998093E+01 0. -1.
</event>
<event>
 5   0  0.1434943E-05  0.2412688E+04  0.7818609E-02  0.8434769E-01
        1   -1    0    0  501    0  0.00000000000E+00  0.00000000000E+00  0.12829045437E+04  0.12829045437E+04  0.50400001928E-02 0.  1.
       -1   -1    0    0    0  501  0.00000000000E+00  0.00000000000E+00 -0.11343526498E+04  0.11343526498E+04  0.50400001928E-02 0. -1.
    10030    2    1    2    0    0  0.00000000000E+00  0.00000000000E+00  0.14855189391E+03  0.24172571936E+04  0.24126882672E+04 0.  0.
        5    1    3    3  502    0 -0.56779049929E+03 -0.35834795999E+03  0.10783937781E+04  0.12703363894E+04  0.46999998093E+01 0.  1.
       -5    1    3    3    0  502  0.56779049929E+03  0.35834795999E+03 -0.92984188419E+03  0.11469208042E+04  0.46999998093E+01 0. -1.
</event>
<event>
 5   0  0.1393026E-05  0.2414659E+04  0.7818609E-02  0.8434036E-01
       -1   -1    0    0    0  501  0.00000000000E+00  0.00000000000E+00  0.79265114272E+03  0.79265114274E+03  0.50400001928E-02 0. -1.
        1   -1    0    0  501    0  0.00000000000E+00  0.00000000000E+00 -0.18389478358E+04  0.18389478358E+04  0.50400001928E-02 0.  1.
    10030    2    1    2    0    0  0.00000000000E+00  0.00000000000E+00 -0.10462966931E+04  0.26315989785E+04  0.24146586537E+04 0.  0.
        4    1    3    3  502    0 -0.10329925591E+04  0.10593197848E+03 -0.11943954896E+04  0.15826804509E+04  0.12699999809E+01 0.  1.
       -4    1    3    3    0  502  0.10329925591E+04 -0.10593197848E+03  0.14809879654E+03  0.10489185276E+04  0.12699999809E+01 0. -1.
</event>
<event>
 5   0  0.1506985E-05  0.2390302E+04  0.7818609E-02  0.8443143E-01
        1   -1    0    0  501    0  0.00000000000E+00  0.00000000000E+00  0.17432377847E+04  0.17432377847E+04  0.50400001928E-02 0. -1.
       -1   -1    0    0    0  501  0.00000000000E+00  0.00000000000E+00 -0.81938650250E+03  0.81938650252E+03  0.50400001928E-02 0.  1.
    10030    2    1    2    0    0  0.00000000000E+00  0.00000000000E+00  0.92385128223E+03  0.25626242873E+04  0.23903016642E+04 0.  0.
        3    1    3    3  502    0 -0.55152029443E+03 -0.10587985536E+04  0.52215862235E+03  0.13030267263E+04  0.10100000352E+00 0. -1.
       -3    1    3    3    0  502  0.55152029443E+03  0.10587985536E+04  0.40169265988E+03  0.12595975610E+04  0.10100000352E+00 0.  1.
</event>
<event>
 5   0  0.1506985E-05  0.2388483E+04  0.7818609E-02  0.8443828E-01
       -1   -1    0    0    0  501  0.00000000000E+00  0.00000000000E+00  0.74226966667E+03  0.74226966669E+03  0.50400001928E-02 0.  1.
        1   -1    0    0  501    0  0.00000000000E+00  0.00000000000E+00 -0.19214216617E+04  0.19214216617E+04  0.50400001928E-02 0. -1.
    10030    2    1    2    0    0  0.00000000000E+00  0.00000000000E+00 -0.11791519950E+04  0.26636913284E+04  0.23884832144E+04 0.  0.
        3    1    3    3  502    0 -0.60109046655E+03 -0.49184941848E+03  0.42213925684E+03  0.88398368865E+03  0.10100000352E+00 0.  1.
       -3    1    3    3    0  502  0.60109046655E+03  0.49184941848E+03 -0.16012912519E+04  0.17797076397E+04  0.10100000352E+00 0. -1.
</event>
<event>
 5   0  0.1393026E-05  0.2381531E+04  0.7818609E-02  0.8446451E-01
        1   -1    0    0  501    0  0.00000000000E+00  0.00000000000E+00  0.19069332794E+04  0.19069332794E+04  0.50400001928E-02 0. -1.
       -1   -1    0    0    0  501  0.00000000000E+00  0.00000000000E+00 -0.74356163450E+03  0.74356163451E+03  0.50400001928E-02 0.  1.
    10030    2    1    2    0    0  0.00000000000E+00  0.00000000000E+00  0.11633716449E+04  0.26504949139E+04  0.23815309581E+04 0.  0.
        4    1    3    3  502    0  0.84115205689E+03 -0.57278891983E+02 -0.35417686517E+03  0.91447280933E+03  0.12699999809E+01 0.  1.
       -4    1    3    3    0  502 -0.84115205689E+03  0.57278891983E+02  0.15175485100E+04  0.17360221046E+04  0.12699999809E+01 0. -1.
</event>
<event>
 5   0  0.1506985E-05  0.2372496E+04  0.7818609E-02  0.8449873E-01
       -1   -1    0    0    0  501  0.00000000000E+00  0.00000000000E+00  0.60462291740E+03  0.60462291742E+03  0.50400001928E-02 0.  1.
        1   -1    0    0  501    0  0.00000000000E+00  0.00000000000E+00 -0.23273756441E+04  0.23273756441E+04  0.50400001928E-02 0. -1.
    10030    2    1    2    0    0  0.00000000000E+00  0.00000000000E+00 -0.17227527267E+04  0.29319985615E+04  0.23724962819E+04 0.  0.
        3    1    3    3  502    0 -0.11792479965E+04  0.10763933097E+02 -0.70290602797E+03  0.13728869560E+04  0.10100000352E+00 0.  1.
       -3    1    3    3    0  502  0.11792479965E+04 -0.10763933097E+02 -0.10198466987E+04  0.15591116056E+04  0.10100000352E+00 0. -1.
</event>
<event>
 5   0  0.1407158E-05  0.2409062E+04  0.7818609E-02  0.8436119E-01
        1   -1    0    0  501    0  0.00000000000E+00  0.00000000000E+00  0.26778766998E+04  0.26778766998E+04  0.50400001928E-02 0.  1.
       -1   -1    0    0    0  501  0.00000000000E+00  0.00000000000E+00 -0.54180789697E+03  0.54180789699E+03  0.50400001928E-02 0. -1.
    10030    2    1    2    0    0  0.00000000000E+00  0.00000000000E+00  0.21360688028E+04  0.32196845968E+04  0.24090618449E+04 0.  0.
        1    1    3    3  502    0 -0.65235394212E+03  0.77793053945E+03  0.19343361564E+04  0.21845818721E+04  0.50400001928E-02 0.  1.
       -1    1    3    3    0  502  0.65235394212E+03 -0.77793053945E+03  0.20173264645E+03  0.10351027247E+04  0.50400001928E-02 0. -1.
</event>
<event>
 5   0  0.1434943E-05  0.2404914E+04  0.7818609E-02  0.8437666E-01
       -1   -1    0    0    0  501  0.00000000000E+00  0.00000000000E+00  0.12306344025E+04  0.12306344025E+04  0.50400001928E-02 0. -1.
        1   -1    0    0  501    0  0.00000000000E+00  0.00000000000E+00 -0.11749243686E+04  0.11749243686E+04  0.50400001928E-02 0.  1.
    10030    2    1    2    0    0  0.00000000000E+00  0.00000000000E+00  0.55710033965E+02  0.24055587711E+04  0.24049135937E+04 0.  0.
        5    1    3    3  502    0 -0.45401400626E+03  0.98670084570E+03 -0.48820294065E+03  0.11908280640E+04  0.46999998093E+01 0.  1.
       -5    1    3    3    0  502  0.45401400626E+03 -0.98670084570E+03  0.54391297461E+03  0.12147307071E+04  0.46999998093E+01 0. -1.
</event>
<event>
 5   0  0.3347728E-05  0.2377022E+04  0.7818609E-02  0.8448156E-01
       -2   -1    0    0    0  501  0.00000000000E+00  0.00000000000E+00  0.67531748409E+03  0.67531748409E+03  0.25500000920E-02 0.  1.
        2   -1    0    0  501    0  0.00000000000E+00  0.00000000000E+00 -0.20916961466E+04  0.20916961466E+04  0.25500000920E-02 0. -1.
    10030    2    1    2    0    0  0.00000000000E+00  0.00000000000E+00 -0.14163786625E+04  0.27670136307E+04  0.23770224897E+04 0.  0.
        3    1    3    3  502    0  0.29385583433E+03 -0.10057583812E+04 -0.55213275538E+02  0.10492614968E+04  0.10100000352E+00 0.  1.
       -3    1    3    3    0  502 -0.29385583433E+03  0.10057583812E+04 -0.13611653869E+04  0.17177521339E+04  0.10100000352E+00 0. -1.
</event>
<event>
 5   0  0.3310037E-05  0.2438681E+04  0.7818609E-02  0.8425162E-01
        2   -1    0    0  501    0  0.00000000000E+00  0.00000000000E+00  0.14115197754E+04  0.14115197754E+04  0.25500000920E-02 0. -1.
       -2   -1    0    0    0  501  0.00000000000E+00  0.00000000000E+00 -0.10533269638E+04  0.10533269638E+04  0.25500000920E-02 0.  1.
    10030    2    1    2    0    0  0.00000000000E+00  0.00000000000E+00  0.35819281153E+03  0.24648467392E+04  0.24386814793E+04 0.  0.
        2    1    3    3  502    0  0.20709514892E+03  0.33700017986E+03  0.13448727482E+04  0.14018345947E+04  0.25500000920E-02 0. -1.
       -2    1    3    3    0  502 -0.20709514892E+03 -0.33700017986E+03 -0.98667993669E+03  0.10630121445E+04  0.25500000920E-02 0.  1.
</event>
<event>
 5   0  0.1434943E-05  0.2405109E+04  0.7818609E-02  0.8437593E-01
        1   -1    0    0  501    0  0.00000000000E+00  0.00000000000E+00  0.17399950341E+04  0.17399950341E+04  0.50400001928E-02 0.  1.
       -1   -1    0    0    0  501  0.00000000000E+00  0.00000000000E+00 -0.83111606361E+03  0.83111606363E+03  0.50400001928E-02 0. -1.
    10030    2    1    2    0    0  0.00000000000E+00  0.00000000000E+00  0.90887897053E+03  0.25711110978E+04  0.24051094141E+04 0.  0.
        5    1    3    3  502    0 -0.51334496651E+03  0.11507691542E+03  0.16104406227E+04  0.16941979932E+04  0.46999998093E+01 0.  1.
       -5    1    3    3    0  502  0.51334496651E+03 -0.11507691542E+03 -0.70156165216E+03  0.87691310453E+03  0.46999998093E+01 0. -1.
</event>
<event>
 5   0  0.3347728E-05  0.2377391E+04  0.7818609E-02  0.8448017E-01
       -2   -1    0    0    0  501  0.00000000000E+00  0.00000000000E+00  0.45612304144E+03  0.45612304145E+03  0.25500000920E-02 0.  1.
        2   -1    0    0  501    0  0.00000000000E+00  0.00000000000E+00 -0.30978417303E+04  0.30978417303E+04  0.25500000920E-02 0. -1.
    10030    2    1    2    0    0  0.00000000000E+00  0.00000000000E+00 -0.26417186889E+04  0.35539647718E+04  0.23773910002E+04 0.  0.
        3    1    3    3  502    0 -0.45499112095E+03  0.38702300258E+03  0.21546955338E+03  0.63500461676E+03  0.10100000352E+00 0.  1.
       -3    1    3    3    0  502  0.45499112095E+03 -0.38702300258E+03 -0.28571882422E+04  0.29189601550E+04  0.10100000352E+00 0. -1.
</event>
<event>
 5   0  0.3215208E-05  0.2249682E+04  0.7818609E-02  0.8498029E-01
        2   -1    0    0  501    0  0.00000000000E+00  0.00000000000E+00  0.13151540988E+04  0.13151540988E+04  0.25500000920E-02 0. -1.
       -2   -1    0    0    0  501  0.00000000000E+00  0.00000000000E+00 -0.96206776191E+03  0.96206776191E+03  0.25500000920E-02 0.  1.
    10030    2    1    2    0    0  0.00000000000E+00  0.00000000000E+00  0.35308633692E+03  0.22772218607E+04  0.22496820757E+04 0.  0.
        1    1    3    3  502    0 -0.44285412606E+03  0.34659493964E+03 -0.80955867667E+03  0.98571450235E+03  0.50400001928E-02 0.  1.
       -1    1    3    3    0  502  0.44285412606E+03 -0.34659493964E+03  0.11626450136E+04  0.12915073584E+04  0.50400001928E-02 0. -1.
</event>
<event>
 5   0  0.3345974E-05  0.2400434E+04  0.7818609E-02  0.8439341E-01
       -2   -1    0    0    0  501  0.00000000000E+00  0.00000000000E+00  0.73866947673E+03  0.73866947674E+03  0.25500000920E-02 0.  1.
        2   -1    0    0  501    0  0.00000000000E+00  0.00000000000E+00 -0.19501568009E+04  0.19501568009E+04  0.25500000920E-02 0. -1.
    10030    2    1    2    0    0  0.00000000000E+00  0.00000000000E+00 -0.12114873242E+04  0.26888262776E+04  0.24004343804E+04 0.  0.
        4    1    3    3  502    0  0.44416863737E+03  0.29516101143E+03 -0.18101505066E+04  0.18870750569E+04  0.12699999809E+01 0. -1.
       -4    1    3    3    0  502 -0.44416863737E+03 -0.29516101143E+03  0.59866318240E+03  0.80175122073E+03  0.12699999809E+01 0.  1.
</event>
<event>
 5   0  0.3310037E-05  0.2402554E+04  0.7818609E-02  0.8438548E-01
       -2   -1    0    0    0  501  0.00000000000E+00  0.00000000000E+00  0.10369071765E+04  0.10369071766E+04  0.25500000920E-02 0. -1.
        2   -1    0    0  501    0  0.00000000000E+00  0.00000000000E+00 -0.13917029904E+04  0.13917029904E+04  0.25500000920E-02 0.  1.
    10030    2    1    2    0    0  0.00000000000E+00  0.00000000000E+00 -0.35479581388E+03  0.24286101670E+04  0.24025543227E+04 0.  0.
        2    1    3    3  502    0  0.42928856123E+03  0.73191972076E+03 -0.10369560648E+04  0.13398779895E+04  0.25500000920E-02 0.  1.
       -2    1    3    3    0  502 -0.42928856123E+03 -0.73191972076E+03  0.68216025088E+03  0.10887321775E+04  0.25500000920E-02 0. -1.
</event>
<event>
 5   0  0.1434943E-05  0.2411684E+04  0.7818609E-02  0.8435142E-01
       -1   -1    0    0    0  501  0.00000000000E+00  0.00000000000E+00  0.21637762919E+04  0.21637762919E+04  0.50400001928E-02 0. -1.
        1   -1    0    0  501    0  0.00000000000E+00  0.00000000000E+00 -0.67199882102E+03  0.67199882104E+03  0.50400001928E-02 0.  1.
    10030    2    1    2    0    0  0.00000000000E+00  0.00000000000E+00  0.14917774709E+04  0.28357751130E+04  0.24116841561E+04 0.  0.
        5    1    3    3  502    0 -0.16560116830E+03  0.11942280125E+04  0.72154173083E+03  0.14050796604E+04  0.46999998093E+01 0.  1.
       -5    1    3    3    0  502  0.16560116830E+03 -0.11942280125E+04  0.77023574007E+03  0.14306954526E+04  0.46999998093E+01 0. -1.
</event>
<event>
 5   0  0.3310037E-05  0.2380893E+04  0.7818609E-02  0.8446692E-01
       -2   -1    0    0    0  501  0.00000000000E+00  0.00000000000E+00  0.81650560880E+03  0.81650560880E+03  0.25500000920E-02 0.  1.
        2   -1    0    0  501    0  0.00000000000E+00  0.00000000000E+00 -0.17356435773E+04  0.17356435773E+04  0.25500000920E-02 0. -1.
    10030    2    1    2    0    0  0.00000000000E+00  0.00000000000E+00 -0.91913796853E+03  0.25521491861E+04  0.23808928710E+04 0.  0.
        2    1    3    3  502    0  0.77431078501E+03  0.66765340997E+03  0.19408340607E+03  0.10406664385E+04  0.25500000920E-02 0.  1.
       -2    1    3    3    0  502 -0.77431078501E+03 -0.66765340997E+03 -0.11132213746E+04  0.15114827477E+04  0.25500000920E-02 0. -1.
</event>
<event>
 5   0  0.1434943E-05  0.2444483E+04  0.7818609E-02  0.8423035E-01
       -1   -1    0    0    0  501  0.00000000000E+00  0.00000000000E+00  0.10503222754E+04  0.10503222754E+04  0.50400001928E-02 0. -1.
        1   -1    0    0  501    0  0.00000000000E+00  0.00000000000E+00 -0.14223012432E+04  0.14223012432E+04  0.50400001928E-02 0.  1.
    10030    2    1    2    0    0  0.00000000000E+00  0.00000000000E+00 -0.37197896781E+03  0.24726235186E+04  0.24444833222E+04 0.  0.
        5    1    3    3  502    0 -0.10175554740E+03  0.42926474157E+02 -0.14172347320E+04  0.14215390424E+04  0.46999998093E+01 0.  1.
       -5    1    3    3    0  502  0.10175554740E+03 -0.42926474157E+02  0.10452557642E+04  0.10510844762E+04  0.46999998093E+01 0. -1.
</event>
<event>
 5   0  0.1401596E-05  0.2169245E+04  0.7818609E-02  0.8531339E-01
        1   -1    0    0  501    0  0.00000000000E+00  0.00000000000E+00  0.10203658458E+04  0.10203658458E+04  0.50400001928E-02 0. -1.
       -1   -1    0    0    0  501  0.00000000000E+00  0.00000000000E+00 -0.11529260632E+04  0.11529260632E+04  0.50400001928E-02 0.  1.
    10030    2    1    2    0    0  0.00000000000E+00  0.00000000000E+00 -0.13256021744E+03  0.21732919090E+04  0.21692453781E+04 0.  0.
        2    1    3    3  502    0 -0.34189969921E+03 -0.91666257799E+03 -0.53538500277E+03  0.11152590674E+04  0.25500000920E-02 0.  1.
       -2    1    3    3    0  502  0.34189969921E+03  0.91666257799E+03  0.40282478533E+03  0.10580328416E+04  0.25500000920E-02 0. -1.
</event>
<event>
 5   0  0.1401596E-05  0.2388461E+04  0.7818609E-02  0.8443836E-01
       -1   -1    0    0    0  501  0.00000000000E+00  0.00000000000E+00  0.66416513336E+03  0.66416513338E+03  0.50400001928E-02 0. -1.
        1   -1    0    0  501    0  0.00000000000E+00  0.00000000000E+00 -0.21473373395E+04  0.21473373395E+04  0.50400001928E-02 0.  1.
    10030    2    1    2    0    0  0.00000000000E+00  0.00000000000E+00 -0.14831722061E+04  0.28115024729E+04  0.23884610866E+04 0.  0.
        2    1    3    3  502    0  0.51946742601E+03  0.10660117794E+04 -0.90788541445E+03  0.14934803133E+04  0.25500000920E-02 0. -1.
       -2    1    3    3    0  502 -0.51946742601E+03 -0.10660117794E+04 -0.57528679169E+03  0.13180221596E+04  0.25500000920E-02 0.  1.
</event>
<event>
 5   0  0.1393026E-05  0.2382290E+04  0.7818609E-02  0.8446164E-01
        1   -1    0    0  501    0  0.00000000000E+00  0.00000000000E+00  0.17751653519E+04  0.17751653519E+04  0.50400001928E-02 0.  1.
       -1   -1    0    0    0  501  0.00000000000E+00  0.00000000000E+00 -0.79926461816E+03  0.79926461817E+03  0.50400001928E-02 0. -1.
    10030    2    1    2    0    0  0.00000000000E+00  0.00000000000E+00  0.97590073373E+03  0.25744299701E+04  0.23822903746E+04 0.  0.
        4    1    3    3  502    0 -0.38585959136E+02 -0.90634146389E+02  0.17707554037E+04  0.17734936530E+04  0.12699999809E+01 0.  1.
       -4    1    3    3    0  502  0.38585959136E+02  0.90634146389E+02 -0.79485466995E+03  0.80093631705E+03  0.12699999809E+01 0. -1.
</event>
<event>
 5   0  0.3215208E-05  0.2402479E+04  0.7818609E-02  0.8438576E-01
        2   -1    0    0  501    0  0.00000000000E+00  0.00000000000E+00  0.12371859628E+04  0.12371859628E+04  0.25500000920E-02 0. -1.
       -2   -1    0    0    0  501  0.00000000000E+00  0.00000000000E+00 -0.11663372231E+04  0.11663372231E+04  0.25500000920E-02 0.  1.
    10030    2    1    2    0    0  0.00000000000E+00  0.00000000000E+00  0.70848739664E+02  0.24035231859E+04  0.24024787536E+04 0.  0.
        1    1    3    3  502    0 -0.95199560157E+03  0.35190616633E+03  0.67823187913E+03  0.12207096531E+04  0.50400001928E-02 0. -1.
       -1    1    3    3    0  502  0.95199560157E+03 -0.35190616633E+03 -0.60738313947E+03  0.11828135328E+04  0.50400001928E-02 0.  1.
</event>
<event>
 5   0  0.3345974E-05  0.2410913E+04  0.7818609E-02  0.8435429E-01
        2   -1    0    0  501    0  0.00000000000E+00  0.00000000000E+00  0.17427723356E+04  0.17427723356E+04  0.25500000920E-02 0.  1.
       -2   -1    0    0    0  501  0.00000000000E+00  0.00000000000E+00 -0.83380109849E+03  0.83380109850E+03  0.25500000920E-02 0. -1.
    10030    2    1    2    0    0  0.00000000000E+00  0.00000000000E+00  0.90897123711E+03  0.25765734341E+04  0.24109130950E+04 0.  0.
        4    1    3    3  502    0  0.71657228414E+03 -0.28425890693E+03 -0.53593196477E+03  0.93888425716E+03  0.12699999809E+01 0. -1.
       -4    1    3    3    0  502 -0.71657228414E+03  0.28425890693E+03  0.14449032019E+04  0.16376891769E+04  0.12699999809E+01 0.  1.
</event>
<event>
 5   0  0.1506985E-05  0.2412976E+04  0.7818609E-02  0.8434662E-01
        1   -1    0    0  501    0  0.00000000000E+00  0.00000000000E+00  0.23441729083E+04  0.23441729083E+04  0.50400001928E-02 0.  1.
       -1   -1    0    0    0  501  0.00000000000E+00  0.00000000000E+00 -0.62094947318E+03  0.62094947320E+03  0.50400001928E-02 0. -1.
    10030    2    1    2    0    0  0.00000000000E+00  0.00000000000E+00  0.17232234351E+04  0.29651223815E+04  0.24129757002E+04 0.  0.
        3    1    3    3  502    0 -0.11212931118E+04  0.24375565176E+03  0.40364126925E+03  0.12164050907E+04  0.10100000352E+00 0. -1.
       -3    1    3    3    0  502  0.11212931118E+04 -0.24375565176E+03  0.13195821658E+04  0.17487172907E+04  0.10100000352E+00 0.  1.
</event>
<event>
 5   0  0.3347728E-05  0.2444623E+04  0.7818609E-02  0.8422984E-01
       -2   -1    0    0    0  501  0.00000000000E+00  0.00000000000E+00  0.57431003628E+03  0.57431003628E+03  0.25500000920E-02 0.  1.
        2   -1    0    0  501    0  0.00000000000E+00  0.00000000000E+00 -0.26014607572E+04  0.26014607572E+04  0.25500000920E-02 0. -1.
    10030    2    1    2    0    0  0.00000000000E+00  0.00000000000E+00 -0.20271507210E+04  0.31757707935E+04  0.24446226882E+04 0.  0.
        3    1    3    3  502    0 -0.98628746360E+03 -0.63364272497E+03 -0.14631766615E+04  0.18748738669E+04  0.10100000352E+00 0. -1.
       -3    1    3    3    0  502  0.98628746360E+03  0.63364272497E+03 -0.56397405942E+03  0.13008969266E+04  0.10100000352E+00 0.  1.
</event>
<event>
 5   0  0.1506985E-05  0.2399882E+04  0.7818609E-02  0.8439548E-01
       -1   -1    0    0    0  501  0.00000000000E+00  0.00000000000E+00  0.81953919671E+03  0.81953919672E+03  0.50400001928E-02 0. -1.
        1   -1    0    0  501    0  0.00000000000E+00  0.00000000000E+00 -0.17569117361E+04  0.17569117361E+04  0.50400001928E-02 0.  1.
    10030    2    1    2    0    0  0.00000000000E+00  0.00000000000E+00 -0.93737253943E+03  0.25764509329E+04  0.23998816912E+04 0.  0.
        3    1    3    3  502    0  0.59864054563E+03  0.77172249639E+03 -0.12170620989E+04  0.15605019311E+04  0.10100000352E+00 0.  1.
       -3    1    3    3    0  502 -0.59864054563E+03 -0.77172249639E+03  0.27968955944E+03  0.10159490018E+04  0.10100000352E+00 0. -1.
</event>
<event>
 5   0  0.1401596E-05  0.2389808E+04  0.7818609E-02  0.8443329E-01
       -1   -1    0    0    0  501  0.00000000000E+00  0.00000000000E+00  0.68415477851E+03  0.68415477853E+03  0.50400001928E-02 0.  1.
        1   -1    0    0  501    0  0.00000000000E+00  0.00000000000E+00 -0.20869484596E+04  0.20869484596E+04  0.50400001928E-02 0. -1.
    10030    2    1    2    0    0  0.00000000000E+00  0.00000000000E+00 -0.14027936811E+04  0.27711032381E+04  0.23898081606E+04 0.  0.
        2    1    3    3  502    0  0.21303357356E+01 -0.11911736498E+04 -0.59202621585E+03  0.13301857925E+04  0.25500000920E-02 0. -1.
       -2    1    3    3    0  502 -0.21303357356E+01  0.11911736498E+04 -0.81076746523E+03  0.14409174456E+04  0.25500000920E-02 0.  1.
</event>
<event>
 5   0  0.3310037E-05  0.2394551E+04  0.7818609E-02  0.8441546E-01
       -2   -1    0    0    0  501  0.00000000000E+00  0.00000000000E+00  0.90222582279E+03  0.90222582280E+03  0.25500000920E-02 0. -1.
        2   -1    0    0  501    0  0.00000000000E+00  0.00000000000E+00 -0.15888133521E+04  0.15888133521E+04  0.25500000920E-02 0.  1.
    10030    2    1    2    0    0  0.00000000000E+00  0.00000000000E+00 -0.68658752928E+03  0.24910391749E+04  0.23945508421E+04 0.  0.
        2    1    3    3  502    0  0.20073944862E+03  0.94310525350E+03 -0.10816281084E+04  0.14490214665E+04  0.25500000920E-02 0.  1.
       -2    1    3    3    0  502 -0.20073944862E+03 -0.94310525350E+03  0.39504057914E+03  0.10420177084E+04  0.25500000920E-02 0. -1.
</event>
<event>
 5   0  0.1434943E-05  0.2390339E+04  0.7818609E-02  0.8443129E-01
       -1   -1    0    0    0  501  0.00000000000E+00  0.00000000000E+00  0.11075737725E+04  0.11075737725E+04  0.50400001928E-02 0. -1.
        1   -1    0    0  501    0  0.00000000000E+00  0.00000000000E+00 -0.12896931019E+04  0.12896931019E+04  0.50400001928E-02 0.  1.
    10030    2    1    2    0    0  0.00000000000E+00  0.00000000000E+00 -0.18211932944E+03  0.23972668744E+04  0.23903391008E+04 0.  0.
        5    1    3    3  502    0  0.51656582856E+03 -0.38830484363E+03  0.91723332521E+03  0.11220338541E+04  0.46999998093E+01 0. -1.
       -5    1    3    3    0  502 -0.51656582856E+03  0.38830484363E+03 -0.10993526546E+04  0.12752330203E+04  0.46999998093E+01 0.  1.
</event>
<event>
 5   0  0.1407158E-05  0.2443393E+04  0.7818609E-02  0.8423434E-01
       -1   -1    0    0    0  501  0.00000000000E+00  0.00000000000E+00  0.78705894514E+03  0.78705894515E+03  0.50400001928E-02 0.  1.
        1   -1    0    0  501    0  0.00000000000E+00  0.00000000000E+00 -0.18963536387E+04  0.18963536387E+04  0.50400001928E-02 0. -1.
    10030    2    1    2    0    0  0.00000000000E+00  0.00000000000E+00 -0.11092946935E+04  0.26834125838E+04  0.24433928006E+04 0.  0.
        1    1    3    3  502    0 -0.61686198244E+03  0.94994467231E+03 -0.10574752091E+04  0.15495700706E+04  0.50400001928E-02 0. -1.
       -1    1    3    3    0  502  0.61686198244E+03 -0.94994467231E+03 -0.51819484446E+02  0.11338425132E+04  0.50400001928E-02 0.  1.
</event>
<event>
 5   0  0.3345974E-05  0.2417655E+04  0.7818609E-02  0.8432923E-01
       -2   -1    0    0    0  501  0.00000000000E+00  0.00000000000E+00  0.72714524267E+03  0.72714524267E+03  0.25500000920E-02 0. -1.
        2   -1    0    0  501    0  0.00000000000E+00  0.00000000000E+00 -0.20095908636E+04  0.20095908636E+04  0.25500000920E-02 0.  1.
    10030    2    1    2    0    0  0.00000000000E+00  0.00000000000E+00 -0.12824456210E+04  0.27367361063E+04  0.24176554231E+04 0.  0.
        4    1    3    3  502    0 -0.97575360339E+03 -0.11643085007E+03  0.15568712994E+03  0.99493282824E+03  0.12699999809E+01 0. -1.
       -4    1    3    3    0  502  0.97575360339E+03  0.11643085007E+03 -0.14381327509E+04  0.17418032781E+04  0.12699999809E+01 0.  1.
</event>
<event>
 5   0  0.1407158E-05  0.2451358E+04  0.7818609E-02  0.8420522E-01
        1   -1    0    0  501    0  0.00000000000E+00  0.00000000000E+00  0.16446900082E+04  0.16446900082E+04  0.50400001928E-02 0.  1.
       -1   -1    0    0    0  501  0.00000000000E+00  0.00000000000E+00 -0.91341777018E+03  0.91341777019E+03  0.50400001928E-02 0. -1.
    10030    2    1    2    0    0  0.00000000000E+00  0.00000000000E+00  0.73127223799E+03  0.25581077784E+04  0.24513580562E+04 0.  0.
        1    1    3    3  502    0 -0.52904181225E+03 -0.44930182841E+03  0.14198417672E+04  0.15804138750E+04  0.50400001928E-02 0.  1.
       -1    1    3    3    0  502  0.52904181225E+03  0.44930182841E+03 -0.68856952926E+03  0.97769390341E+03  0.50400001928E-02 0. -1.
</event>
<event>
 5   0  0.3345974E-05  0.2382040E+04  0.7818609E-02  0.8446258E-01
       -2   -1    0    0    0  501  0.00000000000E+00  0.00000000000E+00  0.11095250651E+04  0.11095250651E+04  0.25500000920E-02 0.  1.
        2   -1    0    0  501    0  0.00000000000E+00  0.00000000000E+00 -0.12785010318E+04  0.12785010318E+04  0.25500000920E-02 0. -1.
    10030    2    1    2    0    0  0.00000000000E+00  0.00000000000E+00 -0.16897596666E+03  0.23880260969E+04  0.23820402520E+04 0.  0.
        4    1    3    3  502    0 -0.47484364525E+03 -0.18938251808E+03 -0.11629165650E+04  0.12703223117E+04  0.12699999809E+01 0. -1.
       -4    1    3    3    0  502  0.47484364525E+03  0.18938251808E+03  0.99394059831E+03  0.11177037852E+04  0.12699999809E+01 0.  1.
</event>
<event>
 5   0  0.3320780E-05  0.2112817E+04  0.7818609E-02  0.8555618E-01
       -2   -1    0    0    0  501  0.00000000000E+00  0.00000000000E+00  0.76318977018E+03  0.76318977018E+03  0.25500000920E-02 0. -1.
        2   -1    0    0  501    0  0.00000000000E+00  0.00000000000E+00 -0.14622828135E+04  0.14622828135E+04  0.25500000920E-02 0.  1.
    10030    2    1    2    0    0  0.00000000000E+00  0.00000000000E+00 -0.69909304328E+03  0.22254725836E+04  0.21128173460E+04 0.  0.
        5    1    3    3  502    0 -0.59965626809E+03  0.74394592416E+03  0.12495512094E+03  0.96367995215E+03  0.46999998093E+01 0. -1.
       -5    1    3    3    0  502  0.59965626809E+03 -0.74394592416E+03 -0.82404816422E+03  0.12617926315E+04  0.46999998093E+01 0.  1.
</event>
<event>
 5   0  0.1393026E-05  0.2380986E+04  0.7818609E-02  0.8446657E-01
       -1   -1    0    0    0  501  0.00000000000E+00  0.00000000000E+00  0.10226655608E+04  0.10226655609E+04  0.50400001928E-02 0. -1.
        1   -1    0    0  501    0  0.00000000000E+00  0.00000000000E+00 -0.13858621587E+04  0.13858621587E+04  0.50400001928E-02 0.  1.
    10030    2    1    2    0    0  0.00000000000E+00  0.00000000000E+00 -0.36319659782E+03  0.24085277195E+04  0.23809859317E+04 0.  0.
        4    1    3    3  502    0 -0.18574894349E+03  0.31612966604E+03  0.96412457990E+03  0.10314933127E+04  0.12699999809E+01 0. -1.
       -4    1    3    3    0  502  0.18574894349E+03 -0.31612966604E+03 -0.13273211777E+04  0.13770344068E+04  0.12699999809E+01 0.  1.
</event>
<event>
 5   0  0.3320780E-05  0.2379693E+04  0.7818609E-02  0.8447146E-01
        2   -1    0    0  501    0  0.00000000000E+00  0.00000000000E+00  0.18125797544E+04  0.18125797544E+04  0.25500000920E-02 0.  1.
       -2   -1    0    0    0  501  0.00000000000E+00  0.00000000000E+00 -0.78106061397E+03  0.78106061397E+03  0.25500000920E-02 0. -1.
    10030    2    1    2    0    0  0.00000000000E+00  0.00000000000E+00  0.10315191405E+04  0.25936403684E+04  0.23796929683E+04 0.  0.
        5    1    3    3  502    0  0.23115656557E+03  0.26606312951E+03  0.17543687364E+04  0.17894285959E+04  0.46999998093E+01 0.  1.
       -5    1    3    3    0  502 -0.23115656557E+03 -0.26606312951E+03 -0.72284959592E+03  0.80421177249E+03  0.46999998093E+01 0. -1.
</event>
<event>
 5   0  0.1401596E-05  0.2416026E+04  0.7818609E-02  0.8433528E-01
       -1   -1    0    0    0  501  0.00000000000E+00  0.00000000000E+00  0.91508536815E+03  0.91508536817E+03  0.50400001928E-02 0.  1.
        1   -1    0    0  501    0  0.00000000000E+00  0.00000000000E+00 -0.15947093623E+04  0.15947093623E+04  0.50400001928E-02 0. -1.
    10030    2    1    2    0    0  0.00000000000E+00  0.00000000000E+00 -0.67962399413E+03  0.25097947305E+04  0.24160258309E+04 0.  0.
        2    1    3    3  502    0  0.33852308753E+03 -0.66619633773E+02 -0.15424391910E+04  0.15805551918E+04  0.25500000920E-02 0. -1.
       -2    1    3    3    0  502 -0.33852308753E+03  0.66619633773E+02  0.86281519683E+03  0.92923953870E+03  0.25500000920E-02 0.  1.
</event>
<event>
 5   0  0.3310037E-05  0.2424910E+04  0.7818609E-02  0.8430236E-01
       -2   -1    0    0    0  501  0.00000000000E+00  0.00000000000E+00  0.13665013065E+04  0.13665013065E+04  0.25500000920E-02 0.  1.
        2   -1    0    0  501    0  0.00000000000E+00  0.00000000000E+00 -0.10757745875E+04  0.10757745875E+04  0.25500000920E-02 0. -1.
    10030    2    1    2    0    0  0.00000000000E+00  0.00000000000E+00  0.29072671901E+03  0.24422758940E+04  0.24249102081E+04 0.  0.
        2    1    3    3  502    0  0.71875633569E+03  0.42002856623E+03 -0.74243251648E+03  0.11154553815E+04  0.25500000920E-02 0. -1.
       -2    1    3    3    0  502 -0.71875633569E+03 -0.42002856623E+03  0.10331592355E+04  0.13268205125E+04  0.25500000920E-02 0.  1.
</event>
<event>
 5   0  0.1434943E-05  0.2282590E+04  0.7818609E-02  0.8484817E-01
        1   -1    0    0  501    0  0.00000000000E+00  0.00000000000E+00  0.15748188154E+04  0.15748188154E+04  0.50400001928E-02 0.  1.
       -1   -1    0    0    0  501  0.00000000000E+00  0.00000000000E+00 -0.82711364658E+03  0.82711364659E+03  0.50400001928E-02 0. -1.
    10030    2    1    2    0    0  0.00000000000E+00  0.00000000000E+00  0.74770516881E+03  0.24019324620E+04  0.22825898739E+04 0.  0.
        5    1    3    3  502    0 -0.70605968881E+03 -0.51594252960E+03  0.11455541602E+04  0.14411916604E+04  0.46999998093E+01 0.  1.
       -5    1    3    3    0  502  0.70605968881E+03  0.51594252960E+03 -0.39784899135E+03  0.96074080163E+03  0.46999998093E+01 0. -1.
</event>
</LesHouchesEvents>
