<LesHouchesEvents version="3.0">
<header>
<!--
#*********************************************************************
#                                                                    *
#                        MadGraph5_aMC@NLO                           *
#                                                                    *
#                           Going Beyond                             *
#                                                                    *
#                   http://madgraph.hep.uiuc.edu                     *
#                   http://madgraph.phys.ucl.ac.be                   *
#                   http://amcatnlo.cern.ch                          *
#                                                                    *
#                     The MadGraph5_aMC@NLO team                     *
#                                                                    *
#....................................................................*
#                                                                    *
# This file contains all the information necessary to reproduce      *
# the events generated:                                              *
#                                                                    *
# 1. software version                                                *
# 2. proc_card          : code generation info including model       *
# 3. param_card         : model primary parameters in the LH format  *
# 4. run_card           : running parameters (collider and cuts)     *
# 5. pythia_card        : present only if pythia has been run        *
# 6. pgs_card           : present only if pgs has been run           *
# 7. delphes_cards      : present only if delphes has been run       *
#                                                                    *
#                                                                    *
#*********************************************************************
-->
<MGVersion>
#5.2.2.3
</MGVersion>
<MG5ProcCard>
#************************************************************
#*                     MadGraph5_aMC@NLO                    *
#*                                                          *
#*                *                       *                 *
#*                  *        * *        *                   *
#*                    * * * * 5 * * * *                     *
#*                  *        * *        *                   *
#*                *                       *                 *
#*                                                          *
#*                                                          *
#*         VERSION 2.2.3                 2015-02-10         *
#*                                                          *
#*    The MadGraph5_aMC@NLO Development Team - Find us at   *
#*    https://server06.fynu.ucl.ac.be/projects/madgraph     *
#*                                                          *
#************************************************************
#*                                                          *
#*               Command File for MadGraph5_aMC@NLO         *
#*                                                          *
#*     run as ./bin/mg5_aMC  filename                       *
#*                                                          *
#************************************************************
set group_subprocesses Auto
set ignore_six_quark_processes False
set loop_optimized_output True
set gauge unitary
set complex_mass_scheme False
import model sm
define p = g u c d s u~ c~ d~ s~
define j = g u c d s u~ c~ d~ s~
define l+ = e+ mu+
define l- = e- mu-
define vl = ve vm vt
define vl~ = ve~ vm~ vt~
import model Zprime_UFO
generate p p > zph, zph > j j
add process p p > zph, zph > b b~
output Dijet_signal
</MG5ProcCard>
<MGProcCard>
#*********************************************************************
#                        MadGraph/MadEvent                           *
#                   http://madgraph.hep.uiuc.edu                     *
#                                                                    *
#                          proc_card.dat                             *
#*********************************************************************
#                                                                    *
#            This Files is generated by MADGRAPH 5                   *
#                                                                    *
# WARNING: This Files is generated for MADEVENT (compatibility issue)*
#          This files is NOT a valid MG4 proc_card.dat               *
#          Running this in MG4 will NEVER reproduce the result of MG5*
#                                                                    *
#*********************************************************************
#*********************************************************************
# Process(es) requested : mg2 input                                  *
#*********************************************************************
# Begin PROCESS # This is TAG. Do not modify this line
p p > zph , zph > j j           #Process
# Be carefull the coupling are here in MG5 convention
          
end_coup           # End the couplings input

done               # this tells MG there are no more procs
# End PROCESS  # This is TAG. Do not modify this line
#*********************************************************************
# Model information                                                  *
#*********************************************************************
# Begin MODEL  # This is TAG. Do not modify this line
Zprime_UFO
# End   MODEL  # This is TAG. Do not modify this line
#*********************************************************************
# Start multiparticle definitions                                    *
#*********************************************************************
# Begin MULTIPARTICLES # This is TAG. Do not modify this line

# End  MULTIPARTICLES # This is TAG. Do not modify this line
</MGProcCard>
<MGRunCard>
#*********************************************************************
#                       MadGraph5_aMC@NLO                            *
#                                                                    *
#                     run_card.dat MadEvent                          *
#                                                                    *
#  This file is used to set the parameters of the run.               *
#                                                                    *
#  Some notation/conventions:                                        *
#                                                                    *
#   Lines starting with a '# ' are info or comments                  *
#                                                                    *
#   mind the format:   value    = variable     ! comment             *
#*********************************************************************
#
#*******************                                                 
# Running parameters
#*******************                                                 
#                                                                    
#*********************************************************************
# Tag name for the run (one word)                                    *
#*********************************************************************
  tag_1     = run_tag ! name of the run 
#*********************************************************************
# Run to generate the grid pack                                      *
#*********************************************************************
  .false.     = gridpack  !True = setting up the grid pack
#*********************************************************************
# Number of events and rnd seed                                      *
# Warning: Do not generate more than 1M events in a single run       *
# If you want to run Pythia, avoid more than 50k events in a run.    *
#*********************************************************************
  2000 = nevents ! Number of unweighted events requested 
 1614 = iseed   ! rnd seed (0=assigned automatically=default))
#*********************************************************************
# Collider type and energy                                           *
# lpp: 0=No PDF, 1=proton, -1=antiproton, 2=photon from proton,      *
#                                         3=photon from electron     *
#*********************************************************************
        1     = lpp1    ! beam 1 type 
        1     = lpp2    ! beam 2 type
     4000     = ebeam1  ! beam 1 total energy in GeV
     4000     = ebeam2  ! beam 2 total energy in GeV
#*********************************************************************
# Beam polarization from -100 (left-handed) to 100 (right-handed)    *
#*********************************************************************
        0     = polbeam1 ! beam polarization for beam 1
        0     = polbeam2 ! beam polarization for beam 2
#*********************************************************************
# PDF CHOICE: this automatically fixes also alpha_s and its evol.    *
#*********************************************************************
 'nn23lo1'    = pdlabel     ! PDF set                                     
 230000    = lhaid     ! if pdlabel=lhapdf, this is the lhapdf number
#*********************************************************************
# Renormalization and factorization scales                           *
#*********************************************************************
 F        = fixed_ren_scale  ! if .true. use fixed ren scale
 F        = fixed_fac_scale  ! if .true. use fixed fac scale
 91.1880  = scale            ! fixed ren scale
 91.1880  = dsqrt_q2fact1    ! fixed fact scale for pdf1
 91.1880  = dsqrt_q2fact2    ! fixed fact scale for pdf2
 1        = scalefact        ! scale factor for event-by-event scales
#*********************************************************************
# Matching - Warning! ickkw > 1 is still beta
#*********************************************************************
 0        = ickkw            ! 0 no matching, 1 MLM, 2 CKKW matching
 1        = highestmult      ! for ickkw=2, highest mult group
 1        = ktscheme         ! for ickkw=1, 1 Durham kT, 2 Pythia pTE
 1        = alpsfact         ! scale factor for QCD emission vx
 F        = chcluster        ! cluster only according to channel diag
 T        = pdfwgt           ! for ickkw=1, perform pdf reweighting
 5        = asrwgtflavor     ! highest quark flavor for a_s reweight
 T        = clusinfo         ! include clustering tag in output
 3.0      = lhe_version       ! Change the way clustering information pass to shower.        
#*********************************************************************
#**********************************************************
#
#**********************************************************
# Automatic ptj and mjj cuts if xqcut > 0
# (turn off for VBF and single top processes)
#**********************************************************
   T  = auto_ptj_mjj  ! Automatic setting of ptj and mjj
#**********************************************************
#                                                                    
#**********************************
# BW cutoff (M+/-bwcutoff*Gamma)
#**********************************
  15  = bwcutoff      ! (M+/-bwcutoff*Gamma)
#**********************************************************
# Apply pt/E/eta/dr/mij cuts on decay products or not
# (note that etmiss/ptll/ptheavy/ht/sorted cuts always apply)
#**********************************************************
   T  = cut_decays    ! Cut decay products 
#*************************************************************
# Number of helicities to sum per event (0 = all helicities)
# 0 gives more stable result, but longer run time (needed for
# long decay chains e.g.).
# Use >=2 if most helicities contribute, e.g. pure QCD.
#*************************************************************
   0  = nhel          ! Number of helicities used per event
#*******************                                                 
# Standard Cuts
#*******************                                                 
#                                                                    
#*********************************************************************
# Minimum and maximum pt's (for max, -1 means no cut)                *
#*********************************************************************
 20  = ptj       ! minimum pt for the jets 
  0  = ptb       ! minimum pt for the b 
 10  = pta       ! minimum pt for the photons 
 10  = ptl       ! minimum pt for the charged leptons 
  0  = misset    ! minimum missing Et (sum of neutrino's momenta)
  0  = ptheavy   ! minimum pt for one heavy final state
 1.0 = ptonium   ! minimum pt for the quarkonium states
 -1  = ptjmax    ! maximum pt for the jets
 -1  = ptbmax    ! maximum pt for the b
 -1  = ptamax    ! maximum pt for the photons
 -1  = ptlmax    ! maximum pt for the charged leptons
 -1  = missetmax ! maximum missing Et (sum of neutrino's momenta)
#*********************************************************************
# Minimum and maximum E's (in the center of mass frame)              *
#*********************************************************************
  0  = ej     ! minimum E for the jets 
  0  = eb     ! minimum E for the b 
  0  = ea     ! minimum E for the photons 
  0  = el     ! minimum E for the charged leptons 
 -1   = ejmax ! maximum E for the jets
 -1   = ebmax ! maximum E for the b
 -1   = eamax ! maximum E for the photons
 -1   = elmax ! maximum E for the charged leptons
#*********************************************************************
# Maximum and minimum absolute rapidity (for max, -1 means no cut)   *
#*********************************************************************
   5  = etaj    ! max rap for the jets 
  -1  = etab    ! max rap for the b
 2.5  = etaa    ! max rap for the photons 
 2.5  = etal    ! max rap for the charged leptons 
 0.6  = etaonium ! max rap for the quarkonium states
   0  = etajmin ! min rap for the jets
   0  = etabmin ! min rap for the b
   0  = etaamin ! min rap for the photons
   0  = etalmin ! main rap for the charged leptons
#*********************************************************************
# Minimum and maximum DeltaR distance                                *
#*********************************************************************
 0.4 = drjj    ! min distance between jets 
 0   = drbb    ! min distance between b's 
 0.4 = drll    ! min distance between leptons 
 0.4 = draa    ! min distance between gammas 
 0   = drbj    ! min distance between b and jet 
 0.4 = draj    ! min distance between gamma and jet 
 0.4 = drjl    ! min distance between jet and lepton 
 0   = drab    ! min distance between gamma and b 
 0   = drbl    ! min distance between b and lepton 
 0.4 = dral    ! min distance between gamma and lepton 
 -1  = drjjmax ! max distance between jets
 -1  = drbbmax ! max distance between b's
 -1  = drllmax ! max distance between leptons
 -1  = draamax ! max distance between gammas
 -1  = drbjmax ! max distance between b and jet
 -1  = drajmax ! max distance between gamma and jet
 -1  = drjlmax ! max distance between jet and lepton
 -1  = drabmax ! max distance between gamma and b
 -1  = drblmax ! max distance between b and lepton
 -1  = dralmax ! maxdistance between gamma and lepton
#*********************************************************************
# Minimum and maximum invariant mass for pairs                       *
# WARNING: for four lepton final state mmll cut require to have      *
#          different lepton masses for each flavor!                  *           
#*********************************************************************
 0   = mmjj    ! min invariant mass of a jet pair 
 0   = mmbb    ! min invariant mass of a b pair 
 0   = mmaa    ! min invariant mass of gamma gamma pair
 0   = mmll    ! min invariant mass of l+l- (same flavour) lepton pair
 -1  = mmjjmax ! max invariant mass of a jet pair
 -1  = mmbbmax ! max invariant mass of a b pair
 -1  = mmaamax ! max invariant mass of gamma gamma pair
 -1  = mmllmax ! max invariant mass of l+l- (same flavour) lepton pair
#*********************************************************************
# Minimum and maximum invariant mass for all letpons                 *
#*********************************************************************
 0   = mmnl    ! min invariant mass for all letpons (l+- and vl) 
 -1  = mmnlmax ! max invariant mass for all letpons (l+- and vl) 
#*********************************************************************
# Minimum and maximum pt for 4-momenta sum of leptons                *
#*********************************************************************
 0   = ptllmin  ! Minimum pt for 4-momenta sum of leptons(l and vl)
 -1  = ptllmax  ! Maximum pt for 4-momenta sum of leptons(l and vl)
#*********************************************************************
# Inclusive cuts                                                     *
#*********************************************************************
 0  = xptj ! minimum pt for at least one jet  
 0  = xptb ! minimum pt for at least one b 
 0  = xpta ! minimum pt for at least one photon 
 0  = xptl ! minimum pt for at least one charged lepton 
#*********************************************************************
# Control the pt's of the jets sorted by pt                          *
#*********************************************************************
 0   = ptj1min ! minimum pt for the leading jet in pt
 0   = ptj2min ! minimum pt for the second jet in pt
 0   = ptj3min ! minimum pt for the third jet in pt
 0   = ptj4min ! minimum pt for the fourth jet in pt
 -1  = ptj1max ! maximum pt for the leading jet in pt 
 -1  = ptj2max ! maximum pt for the second jet in pt
 -1  = ptj3max ! maximum pt for the third jet in pt
 -1  = ptj4max ! maximum pt for the fourth jet in pt
 0   = cutuse  ! reject event if fails any (0) / all (1) jet pt cuts
#*********************************************************************
# Control the pt's of leptons sorted by pt                           *
#*********************************************************************
 0   = ptl1min ! minimum pt for the leading lepton in pt
 0   = ptl2min ! minimum pt for the second lepton in pt
 0   = ptl3min ! minimum pt for the third lepton in pt
 0   = ptl4min ! minimum pt for the fourth lepton in pt
 -1  = ptl1max ! maximum pt for the leading lepton in pt 
 -1  = ptl2max ! maximum pt for the second lepton in pt
 -1  = ptl3max ! maximum pt for the third lepton in pt
 -1  = ptl4max ! maximum pt for the fourth lepton in pt
#*********************************************************************
# Control the Ht(k)=Sum of k leading jets                            *
#*********************************************************************
 0   = htjmin ! minimum jet HT=Sum(jet pt)
 -1  = htjmax ! maximum jet HT=Sum(jet pt)
 0   = ihtmin  !inclusive Ht for all partons (including b)
 -1  = ihtmax  !inclusive Ht for all partons (including b)
 0   = ht2min ! minimum Ht for the two leading jets
 0   = ht3min ! minimum Ht for the three leading jets
 0   = ht4min ! minimum Ht for the four leading jets
 -1  = ht2max ! maximum Ht for the two leading jets
 -1  = ht3max ! maximum Ht for the three leading jets
 -1  = ht4max ! maximum Ht for the four leading jets
#***********************************************************************
# Photon-isolation cuts, according to hep-ph/9801442                   *
# When ptgmin=0, all the other parameters are ignored                  *
# When ptgmin>0, pta and draj are not going to be used                 *
#***********************************************************************
   0 = ptgmin ! Min photon transverse momentum
 0.4 = R0gamma ! Radius of isolation code
 1.0 = xn ! n parameter of eq.(3.4) in hep-ph/9801442
 1.0 = epsgamma ! epsilon_gamma parameter of eq.(3.4) in hep-ph/9801442
 .true. = isoEM ! isolate photons from EM energy (photons and leptons)
#*********************************************************************
# WBF cuts                                                           *
#*********************************************************************
 0   = xetamin ! minimum rapidity for two jets in the WBF case  
 0   = deltaeta ! minimum rapidity for two jets in the WBF case 
#*********************************************************************
# KT DURHAM CUT                                                      *
#*********************************************************************
 -1    =  ktdurham        
 0.4  =  dparameter 
#*********************************************************************
# maximal pdg code for quark to be considered as a light jet         *
# (otherwise b cuts are applied)                                     *
#*********************************************************************
 4 = maxjetflavor    ! Maximum jet pdg code
#*********************************************************************
# Jet measure cuts                                                   *
#*********************************************************************
 0   = xqcut   ! minimum kt jet measure between partons
#*********************************************************************
#
#*********************************************************************
# Store info for systematics studies                                 *
# WARNING: If use_syst is T, matched Pythia output is                *
#          meaningful ONLY if plotted taking matchscale              *
#          reweighting into account!                                 *
#*********************************************************************
   F  = use_syst      ! Enable systematics studies
#
#**************************************
# Parameter of the systematics study
#  will be used by SysCalc (if installed)
#**************************************                                  
#
0.5 1 2 = sys_scalefact  # factorization/renormalization scale factor
0.5 1 2 = sys_alpsfact  # \alpha_s emission scale factors
30 50 = sys_matchscale # variation of merging scale
# PDF sets and number of members (0 or none for all members).
CT10nlo.LHgrid = sys_pdf # matching scales
# MSTW2008nlo68cl.LHgrid 1  = sys_pdf
</MGRunCard>
<slha>
######################################################################
## PARAM_CARD AUTOMATICALY GENERATED BY MG5 FOLLOWING UFO MODEL   ####
######################################################################
##                                                                  ##
##  Width set on Auto will be computed following the information    ##
##        present in the decay.py files of the model.               ##
##        See  arXiv:1402.1178 for more details.                    ##
##                                                                  ##
######################################################################

###################################
## INFORMATION FOR CKMBLOCK
###################################
Block ckmblock 
    1 2.277360e-01 # cabi 

###################################
## INFORMATION FOR FRBLOCK
###################################
Block frblock 
    1 8.000000e-01 # gz 

###################################
## INFORMATION FOR MASS
###################################
Block mass 
    1 5.040000e-03 # MD 
    2 2.550000e-03 # MU 
    3 1.010000e-01 # MS 
    4 1.270000e+00 # MC 
    5 4.700000e+00 # MB 
    6 1.720000e+02 # MT 
   11 5.110000e-04 # Me 
   13 1.056600e-01 # MM 
   15 1.777000e+00 # MTA 
   23 9.118760e+01 # MZ 
   25 1.200000e+02 # MH 
  10030 2.100000e+03 # MZph 
  10031 3.000000e+02 # MZpl 
## Dependent parameters, given by model restrictions.
## Those values should be edited following the 
## analytical expression. MG5 ignores those values 
## but they are important for interfacing the output of MG5
## to external program such as Pythia.
  12 0.000000 # ve : 0.0 
  14 0.000000 # vm : 0.0 
  16 0.000000 # vt : 0.0 
  21 0.000000 # g : 0.0 
  22 0.000000 # a : 0.0 
  24 79.824360 # w+ : cmath.sqrt(MZ__exp__2/2. + cmath.sqrt(MZ__exp__4/4. - (aEW*cmath.pi*MZ__exp__2)/(Gf*sqrt__2))) 

###################################
## INFORMATION FOR SMINPUTS
###################################
Block sminputs 
    1 1.279000e+02 # aEWM1 
    2 1.166370e-05 # Gf 
    3 1.184000e-01 # aS 

###################################
## INFORMATION FOR YUKAWA
###################################
Block yukawa 
    1 5.040000e-03 # ymdo 
    2 2.550000e-03 # ymup 
    3 1.010000e-01 # yms 
    4 1.270000e+00 # ymc 
    5 4.700000e+00 # ymb 
    6 1.720000e+02 # ymt 
   11 5.110000e-04 # yme 
   13 1.056600e-01 # ymm 
   15 1.777000e+00 # ymtau 

###################################
## INFORMATION FOR DECAY
###################################
DECAY   6 1.508336e+00 # WT 
DECAY  23 2.495200e+00 # WZ 
DECAY  24 2.085000e+00 # WW 
DECAY  25 5.753088e-03 # WH 
## Dependent parameters, given by model restrictions.
## Those values should be edited following the 
## analytical expression. MG5 ignores those values 
## but they are important for interfacing the output of MG5
## to external program such as Pythia.
DECAY  1 0.000000 # d : 0.0 
DECAY  2 0.000000 # u : 0.0 
DECAY  3 0.000000 # s : 0.0 
DECAY  4 0.000000 # c : 0.0 
DECAY  5 0.000000 # b : 0.0 
DECAY  11 0.000000 # e- : 0.0 
DECAY  12 0.000000 # ve : 0.0 
DECAY  13 0.000000 # mu- : 0.0 
DECAY  14 0.000000 # vm : 0.0 
DECAY  15 0.000000 # ta- : 0.0 
DECAY  16 0.000000 # vt : 0.0 
DECAY  21 0.000000 # g : 0.0 
DECAY  22 0.000000 # a : 0.0 
DECAY  10030 0.308725 # zph : (gz__exp__2*MZph*(5 + cmath.sqrt(1 - (4*MT__exp__2)/MZph__exp__2)))/(144.*cmath.pi) 
DECAY  10031 0.132629 # zpl : (5*gz__exp__2*MZpl)/(144.*cmath.pi) 
#===========================================================
# QUANTUM NUMBERS OF NEW STATE(S) (NON SM PDG CODE)
#===========================================================

Block QNUMBERS 10030  # zph 
        1 0  # 3 times electric charge
        2 3  # number of spin states (2S+1)
        3 1  # colour rep (1: singlet, 3: triplet, 8: octet)
        4 0  # Particle/Antiparticle distinction (0=own anti)
Block QNUMBERS 10031  # zpl 
        1 0  # 3 times electric charge
        2 3  # number of spin states (2S+1)
        3 1  # colour rep (1: singlet, 3: triplet, 8: octet)
        4 0  # Particle/Antiparticle distinction (0=own anti)
</slha>
## END BANNER##
<MGGenerationInfo>
#  Number of Events        :         3896
#  Integrated weight (pb)  :  0.16142E-01
#  Max wgt                 :  0.59670E-05
#  Average wgt             :  0.41432E-05
</MGGenerationInfo>
</header>
<init>
     2212     2212  0.40000000000E+04  0.40000000000E+04 0 0  247000  247000 2   1
  0.16143635340E-01  0.31953236843E-04  0.59670460000E-05   0
</init>
<event>
 5   0  0.5462851E-05  0.2103832E+04  0.7818609E-02  0.8559557E-01
        2   -1    0    0  501    0  0.00000000000E+00  0.00000000000E+00  0.18853878521E+04  0.18853878522E+04  0.25500000920E-02 0.  1.
       -2   -1    0    0    0  501  0.00000000000E+00  0.00000000000E+00 -0.58689643626E+03  0.58689643627E+03  0.25500000920E-02 0. -1.
    10030    2    1    2    0    0  0.00000000000E+00  0.00000000000E+00  0.12984914159E+04  0.24722842884E+04  0.21038321334E+04 0.  0.
        1    1    3    3  502    0 -0.21207852780E+03 -0.36940718001E+03  0.17795072557E+04  0.18297773197E+04  0.50400001928E-02 0.  1.
       -1    1    3    3    0  502  0.21207852780E+03  0.36940718001E+03 -0.48101583985E+03  0.64250696868E+03  0.50400001928E-02 0. -1.
</event>
<event>
 5   0  0.5462851E-05  0.2089420E+04  0.7818609E-02  0.8565918E-01
       -2   -1    0    0    0  501  0.00000000000E+00  0.00000000000E+00  0.60898714387E+03  0.60898714388E+03  0.25500000920E-02 0. -1.
        2   -1    0    0  501    0  0.00000000000E+00  0.00000000000E+00 -0.17921866592E+04  0.17921866592E+04  0.25500000920E-02 0.  1.
    10030    2    1    2    0    0  0.00000000000E+00  0.00000000000E+00 -0.11831995154E+04  0.24011738031E+04  0.20894196657E+04 0.  0.
        1    1    3    3  502    0 -0.53239884399E+03 -0.55420309223E+03 -0.14048845835E+04  0.16013401542E+04  0.50400001928E-02 0.  1.
       -1    1    3    3    0  502  0.53239884399E+03  0.55420309223E+03  0.22168506810E+03  0.79983364893E+03  0.50400001928E-02 0. -1.
</event>
<event>
 5   0  0.5506332E-05  0.2089498E+04  0.7818609E-02  0.8565884E-01
        2   -1    0    0  501    0  0.00000000000E+00  0.00000000000E+00  0.25958657892E+04  0.25958657892E+04  0.25500000920E-02 0. -1.
       -2   -1    0    0    0  501  0.00000000000E+00  0.00000000000E+00 -0.42047654750E+03  0.42047654751E+03  0.25500000920E-02 0.  1.
    10030    2    1    2    0    0  0.00000000000E+00  0.00000000000E+00  0.21753892417E+04  0.30163423367E+04  0.20894982028E+04 0.  0.
        3    1    3    3  502    0  0.63013271861E+03 -0.20626419673E+02  0.22902936827E+04  0.23754868670E+04  0.10100000352E+00 0. -1.
       -3    1    3    3    0  502 -0.63013271861E+03  0.20626419673E+02 -0.11490444099E+03  0.64085546968E+03  0.10100000352E+00 0.  1.
</event>
<event>
 5   0  0.5462851E-05  0.2102559E+04  0.7818609E-02  0.8560117E-01
        2   -1    0    0  501    0  0.00000000000E+00  0.00000000000E+00  0.25042679542E+04  0.25042679542E+04  0.25500000920E-02 0.  1.
       -2   -1    0    0    0  501  0.00000000000E+00  0.00000000000E+00 -0.44132184090E+03  0.44132184090E+03  0.25500000920E-02 0. -1.
    10030    2    1    2    0    0  0.00000000000E+00  0.00000000000E+00  0.20629461133E+04  0.29455897951E+04  0.21025585782E+04 0.  0.
        1    1    3    3  502    0 -0.84160376334E+03 -0.41850469681E+03  0.16911801393E+04  0.19348212681E+04  0.50400001928E-02 0.  1.
       -1    1    3    3    0  502  0.84160376334E+03  0.41850469681E+03  0.37176597392E+03  0.10107685270E+04  0.50400001928E-02 0. -1.
</event>
<event>
 5   0  0.5506332E-05  0.2063709E+04  0.7818609E-02  0.8577401E-01
        2   -1    0    0  501    0  0.00000000000E+00  0.00000000000E+00  0.20501058164E+04  0.20501058164E+04  0.25500000920E-02 0.  1.
       -2   -1    0    0    0  501  0.00000000000E+00  0.00000000000E+00 -0.51935047119E+03  0.51935047119E+03  0.25500000920E-02 0. -1.
    10030    2    1    2    0    0  0.00000000000E+00  0.00000000000E+00  0.15307553452E+04  0.25694562876E+04  0.20637087214E+04 0.  0.
        3    1    3    3  502    0 -0.43481885156E+03  0.70462271478E+03  0.15320427825E+04  0.17414694087E+04  0.10100000352E+00 0.  1.
       -3    1    3    3    0  502  0.43481885156E+03 -0.70462271478E+03 -0.12874373246E+01  0.82798687885E+03  0.10100000352E+00 0. -1.
</event>
<event>
 5   0  0.2602060E-05  0.2103520E+04  0.7818609E-02  0.8559694E-01
        1   -1    0    0  501    0  0.00000000000E+00  0.00000000000E+00  0.97994058045E+03  0.97994058047E+03  0.50400001928E-02 0. -1.
       -1   -1    0    0    0  501  0.00000000000E+00  0.00000000000E+00 -0.11288430668E+04  0.11288430668E+04  0.50400001928E-02 0.  1.
    10030    2    1    2    0    0  0.00000000000E+00  0.00000000000E+00 -0.14890248633E+03  0.21087836473E+04  0.21035200309E+04 0.  0.
        1    1    3    3  502    0 -0.10469196037E+04  0.90061702706E+02 -0.11981226469E+03  0.10575947927E+04  0.50400001928E-02 0.  1.
       -1    1    3    3    0  502  0.10469196037E+04 -0.90061702706E+02 -0.29090221638E+02  0.10511888545E+04  0.50400001928E-02 0. -1.
</event>
<event>
 5   0  0.2732159E-05  0.2101147E+04  0.7818609E-02  0.8560738E-01
        1   -1    0    0  501    0  0.00000000000E+00  0.00000000000E+00  0.15268292634E+04  0.15268292634E+04  0.50400001928E-02 0.  1.
       -1   -1    0    0    0  501  0.00000000000E+00  0.00000000000E+00 -0.72287397348E+03  0.72287397350E+03  0.50400001928E-02 0. -1.
    10030    2    1    2    0    0  0.00000000000E+00  0.00000000000E+00  0.80395528989E+03  0.22497032369E+04  0.21011474355E+04 0.  0.
        3    1    3    3  502    0  0.19542444157E+03  0.21308472503E+03 -0.67943654036E+03  0.73839680050E+03  0.10100000352E+00 0. -1.
       -3    1    3    3    0  502 -0.19542444157E+03 -0.21308472503E+03  0.14833918302E+04  0.15113064364E+04  0.10100000352E+00 0.  1.
</event>
<event>
 5   0  0.5462851E-05  0.2111848E+04  0.7818609E-02  0.8556042E-01
       -2   -1    0    0    0  501  0.00000000000E+00  0.00000000000E+00  0.11731375044E+04  0.11731375044E+04  0.25500000920E-02 0.  1.
        2   -1    0    0  501    0  0.00000000000E+00  0.00000000000E+00 -0.95042185099E+03  0.95042185099E+03  0.25500000920E-02 0. -1.
    10030    2    1    2    0    0  0.00000000000E+00  0.00000000000E+00  0.22271565342E+03  0.21235593554E+04  0.21118480233E+04 0.  0.
        1    1    3    3  502    0  0.12840149089E+03  0.27891214068E+03  0.11272557571E+04  0.11683254970E+04  0.50400001928E-02 0.  1.
       -1    1    3    3    0  502 -0.12840149089E+03 -0.27891214068E+03 -0.90454010365E+03  0.95523385839E+03  0.50400001928E-02 0. -1.
</event>
<event>
 5   0  0.2699285E-05  0.2084816E+04  0.7818609E-02  0.8567962E-01
        1   -1    0    0  501    0  0.00000000000E+00  0.00000000000E+00  0.16314642928E+04  0.16314642928E+04  0.50400001928E-02 0.  1.
       -1   -1    0    0    0  501  0.00000000000E+00  0.00000000000E+00 -0.66603632958E+03  0.66603632960E+03  0.50400001928E-02 0. -1.
    10030    2    1    2    0    0  0.00000000000E+00  0.00000000000E+00  0.96542796317E+03  0.22975006224E+04  0.20848160489E+04 0.  0.
        2    1    3    3  502    0 -0.16326890073E+03  0.52480831305E+03  0.14588127802E+04  0.15589147594E+04  0.25500000920E-02 0.  1.
       -2    1    3    3    0  502  0.16326890073E+03 -0.52480831305E+03 -0.49338481698E+03  0.73858586300E+03  0.25500000920E-02 0. -1.
</event>
<event>
 5   0  0.5462851E-05  0.2106829E+04  0.7818609E-02  0.8558241E-01
       -2   -1    0    0    0  501  0.00000000000E+00  0.00000000000E+00  0.53209597570E+03  0.53209597570E+03  0.25500000920E-02 0.  1.
        2   -1    0    0  501    0  0.00000000000E+00  0.00000000000E+00 -0.20854932267E+04  0.20854932267E+04  0.25500000920E-02 0. -1.
    10030    2    1    2    0    0  0.00000000000E+00  0.00000000000E+00 -0.15533972510E+04  0.26175892024E+04  0.21068294219E+04 0.  0.
        1    1    3    3  502    0  0.21590812630E+02  0.10292489426E+04 -0.10541336815E+04  0.14734372628E+04  0.50400001928E-02 0. -1.
       -1    1    3    3    0  502 -0.21590812630E+02 -0.10292489426E+04 -0.49926356958E+03  0.11441519396E+04  0.50400001928E-02 0.  1.
</event>
<event>
 5   0  0.2699285E-05  0.2088256E+04  0.7818609E-02  0.8566434E-01
        1   -1    0    0  501    0  0.00000000000E+00  0.00000000000E+00  0.85838133540E+03  0.85838133541E+03  0.50400001928E-02 0.  1.
       -1   -1    0    0    0  501  0.00000000000E+00  0.00000000000E+00 -0.12700690438E+04  0.12700690439E+04  0.50400001928E-02 0. -1.
    10030    2    1    2    0    0  0.00000000000E+00  0.00000000000E+00 -0.41168770845E+03  0.21284503793E+04  0.20882562696E+04 0.  0.
        2    1    3    3  502    0  0.27386529116E+03  0.46142084439E+03 -0.11187917929E+04  0.12408087964E+04  0.25500000920E-02 0. -1.
       -2    1    3    3    0  502 -0.27386529116E+03 -0.46142084439E+03  0.70710408447E+03  0.88764158286E+03  0.25500000920E-02 0.  1.
</event>
<event>
 5   0  0.5866610E-05  0.2018737E+04  0.7818609E-02  0.8597910E-01
        2   -1    0    0  501    0  0.00000000000E+00  0.00000000000E+00  0.11331614022E+04  0.11331614022E+04  0.25500000920E-02 0. -1.
       -2   -1    0    0    0  501  0.00000000000E+00  0.00000000000E+00 -0.89909956937E+03  0.89909956937E+03  0.25500000920E-02 0.  1.
    10030    2    1    2    0    0  0.00000000000E+00  0.00000000000E+00  0.23406183282E+03  0.20322609716E+04  0.20187371585E+04 0.  0.
        5    1    3    3  502    0 -0.37535910923E+03 -0.26623663094E+03 -0.78733373721E+03  0.91197198875E+03  0.46999998093E+01 0.  1.
       -5    1    3    3    0  502  0.37535910923E+03  0.26623663094E+03  0.10213955700E+04  0.11202889828E+04  0.46999998093E+01 0. -1.
</event>
<event>
 5   0  0.2604390E-05  0.1996676E+04  0.7818609E-02  0.8608176E-01
        1   -1    0    0  501    0  0.00000000000E+00  0.00000000000E+00  0.15765857911E+04  0.15765857911E+04  0.50400001928E-02 0.  1.
       -1   -1    0    0    0  501  0.00000000000E+00  0.00000000000E+00 -0.63217522999E+03  0.63217523001E+03  0.50400001928E-02 0. -1.
    10030    2    1    2    0    0  0.00000000000E+00  0.00000000000E+00  0.94441056114E+03  0.22087610211E+04  0.19966757224E+04 0.  0.
        5    1    3    3  502    0  0.91191271292E+02 -0.34851032779E+03  0.15021667046E+04  0.15447660648E+04  0.46999998093E+01 0.  1.
       -5    1    3    3    0  502 -0.91191271292E+02  0.34851032779E+03 -0.55775614344E+03  0.66399495637E+03  0.46999998093E+01 0. -1.
</event>
<event>
 5   0  0.2602060E-05  0.2139810E+04  0.7818609E-02  0.8543907E-01
       -1   -1    0    0    0  501  0.00000000000E+00  0.00000000000E+00  0.11156046821E+04  0.11156046821E+04  0.50400001928E-02 0. -1.
        1   -1    0    0  501    0  0.00000000000E+00  0.00000000000E+00 -0.10260768914E+04  0.10260768914E+04  0.50400001928E-02 0.  1.
    10030    2    1    2    0    0  0.00000000000E+00  0.00000000000E+00  0.89527790640E+02  0.21416815735E+04  0.21398095095E+04 0.  0.
        1    1    3    3  502    0  0.10216856575E+04  0.16567396406E+03  0.31593771171E+03  0.10821765488E+04  0.50400001928E-02 0. -1.
       -1    1    3    3    0  502 -0.10216856575E+04 -0.16567396406E+03 -0.22640992107E+03  0.10595050247E+04  0.50400001928E-02 0.  1.
</event>
<event>
 5   0  0.2732159E-05  0.2103227E+04  0.7818609E-02  0.8559823E-01
        1   -1    0    0  501    0  0.00000000000E+00  0.00000000000E+00  0.99203302505E+03  0.99203302507E+03  0.50400001928E-02 0.  1.
       -1   -1    0    0    0  501  0.00000000000E+00  0.00000000000E+00 -0.11147721928E+04  0.11147721928E+04  0.50400001928E-02 0. -1.
    10030    2    1    2    0    0  0.00000000000E+00  0.00000000000E+00 -0.12273916778E+03  0.21068052179E+04  0.21032268834E+04 0.  0.
        3    1    3    3  502    0  0.26450004643E+03  0.73294761587E+03  0.64603184057E+03  0.10121905114E+04  0.10100000352E+00 0.  1.
       -3    1    3    3    0  502 -0.26450004643E+03 -0.73294761587E+03 -0.76877100835E+03  0.10946147065E+04  0.10100000352E+00 0. -1.
</event>
<event>
 5   0  0.2732159E-05  0.2096197E+04  0.7818609E-02  0.8562920E-01
       -1   -1    0    0    0  501  0.00000000000E+00  0.00000000000E+00  0.19404248716E+04  0.19404248717E+04  0.50400001928E-02 0. -1.
        1   -1    0    0  501    0  0.00000000000E+00  0.00000000000E+00 -0.56611867750E+03  0.56611867753E+03  0.50400001928E-02 0.  1.
    10030    2    1    2    0    0  0.00000000000E+00  0.00000000000E+00  0.13743061941E+04  0.25065435492E+04  0.20961972829E+04 0.  0.
        3    1    3    3  502    0 -0.52466217946E+03  0.18608181601E+02  0.17718666616E+04  0.18480065324E+04  0.10100000352E+00 0. -1.
       -3    1    3    3    0  502  0.52466217946E+03 -0.18608181601E+02 -0.39756046748E+03  0.65853701679E+03  0.10100000352E+00 0.  1.
</event>
<event>
 5   0  0.5462851E-05  0.2102591E+04  0.7818609E-02  0.8560103E-01
        2   -1    0    0  501    0  0.00000000000E+00  0.00000000000E+00  0.12135219090E+04  0.12135219090E+04  0.25500000920E-02 0.  1.
       -2   -1    0    0    0  501  0.00000000000E+00  0.00000000000E+00 -0.91075608880E+03  0.91075608881E+03  0.25500000920E-02 0. -1.
    10030    2    1    2    0    0  0.00000000000E+00  0.00000000000E+00  0.30276582018E+03  0.21242779978E+04  0.21025912275E+04 0.  0.
        1    1    3    3  502    0 -0.23768697516E+02 -0.30895771980E+03 -0.86356953141E+03  0.91748142173E+03  0.50400001928E-02 0. -1.
       -1    1    3    3    0  502  0.23768697516E+02  0.30895771980E+03  0.11663353516E+04  0.12067965761E+04  0.50400001928E-02 0.  1.
</event>
<event>
 5   0  0.2789662E-05  0.2101309E+04  0.7818609E-02  0.8560667E-01
        1   -1    0    0  501    0  0.00000000000E+00  0.00000000000E+00  0.84469234045E+03  0.84469234046E+03  0.50400001928E-02 0. -1.
       -1   -1    0    0    0  501  0.00000000000E+00  0.00000000000E+00 -0.13068369661E+04  0.13068369661E+04  0.50400001928E-02 0.  1.
    10030    2    1    2    0    0  0.00000000000E+00  0.00000000000E+00 -0.46214462564E+03  0.21515293066E+04  0.21013092828E+04 0.  0.
        4    1    3    3  502    0  0.49176237351E+03  0.72684953892E+03 -0.82257526189E+03  0.12028184230E+04  0.12699999809E+01 0.  1.
       -4    1    3    3    0  502 -0.49176237351E+03 -0.72684953892E+03  0.36043063625E+03  0.94871088361E+03  0.12699999809E+01 0. -1.
</event>
<event>
 5   0  0.2602060E-05  0.1977540E+04  0.7818609E-02  0.8617194E-01
       -1   -1    0    0    0  501  0.00000000000E+00  0.00000000000E+00  0.64190143192E+03  0.64190143194E+03  0.50400001928E-02 0. -1.
        1   -1    0    0  501    0  0.00000000000E+00  0.00000000000E+00 -0.15230778458E+04  0.15230778458E+04  0.50400001928E-02 0.  1.
    10030    2    1    2    0    0  0.00000000000E+00  0.00000000000E+00 -0.88117641389E+03  0.21649792778E+04  0.19775397343E+04 0.  0.
        1    1    3    3  502    0 -0.43218201763E+03 -0.48056210860E+03  0.37863276381E+03  0.74905540946E+03  0.50400001928E-02 0. -1.
       -1    1    3    3    0  502  0.43218201763E+03  0.48056210860E+03 -0.12598091777E+04  0.14159238683E+04  0.50400001928E-02 0.  1.
</event>
<event>
 5   0  0.5954140E-05  0.2087496E+04  0.7818609E-02  0.8566771E-01
        2   -1    0    0  501    0  0.00000000000E+00  0.00000000000E+00  0.33646674800E+03  0.33646674800E+03  0.25500000920E-02 0. -1.
       -2   -1    0    0    0  501  0.00000000000E+00  0.00000000000E+00 -0.32377947642E+04  0.32377947642E+04  0.25500000920E-02 0.  1.
    10030    2    1    2    0    0  0.00000000000E+00  0.00000000000E+00 -0.29013280162E+04  0.35742615122E+04  0.20874963712E+04 0.  0.
        2    1    3    3  502    0  0.46478050393E+03  0.41583924906E+03 -0.28836912924E+04  0.29503590743E+04  0.25500000920E-02 0.  1.
       -2    1    3    3    0  502 -0.46478050393E+03 -0.41583924906E+03 -0.17636723806E+02  0.62390243783E+03  0.25500000920E-02 0. -1.
</event>
<event>
 5   0  0.2732159E-05  0.1904142E+04  0.7818609E-02  0.8652798E-01
       -1   -1    0    0    0  501  0.00000000000E+00  0.00000000000E+00  0.55589469965E+03  0.55589469967E+03  0.50400001928E-02 0.  1.
        1   -1    0    0  501    0  0.00000000000E+00  0.00000000000E+00 -0.16305945694E+04  0.16305945694E+04  0.50400001928E-02 0. -1.
    10030    2    1    2    0    0  0.00000000000E+00  0.00000000000E+00 -0.10746998697E+04  0.21864892690E+04  0.19041416737E+04 0.  0.
        3    1    3    3  502    0 -0.74417567621E+02  0.68799672303E+03  0.21348995777E+03  0.72419295601E+03  0.10100000352E+00 0.  1.
       -3    1    3    3    0  502  0.74417567621E+02 -0.68799672303E+03 -0.12881898275E+04  0.14622963130E+04  0.10100000352E+00 0. -1.
</event>
<event>
 5   0  0.5506332E-05  0.2101277E+04  0.7818609E-02  0.8560681E-01
        2   -1    0    0  501    0  0.00000000000E+00  0.00000000000E+00  0.15521249228E+04  0.15521249228E+04  0.25500000920E-02 0.  1.
       -2   -1    0    0    0  501  0.00000000000E+00  0.00000000000E+00 -0.71118093606E+03  0.71118093607E+03  0.25500000920E-02 0. -1.
    10030    2    1    2    0    0  0.00000000000E+00  0.00000000000E+00  0.84094398669E+03  0.22633058588E+04  0.21012773786E+04 0.  0.
        3    1    3    3  502    0  0.17350190137E+03  0.98891946161E+03  0.75381439052E+03  0.12555081668E+04  0.10100000352E+00 0. -1.
       -3    1    3    3    0  502 -0.17350190137E+03 -0.98891946161E+03  0.87129596176E+02  0.10077976920E+04  0.10100000352E+00 0.  1.
</event>
<event>
 5   0  0.2602060E-05  0.2118607E+04  0.7818609E-02  0.8553091E-01
       -1   -1    0    0    0  501  0.00000000000E+00  0.00000000000E+00  0.75060740841E+03  0.75060740843E+03  0.50400001928E-02 0.  1.
        1   -1    0    0  501    0  0.00000000000E+00  0.00000000000E+00 -0.14949538698E+04  0.14949538698E+04  0.50400001928E-02 0. -1.
    10030    2    1    2    0    0  0.00000000000E+00  0.00000000000E+00 -0.74434646140E+03  0.22455612782E+04  0.21186065703E+04 0.  0.
        1    1    3    3  502    0  0.66270331181E+03  0.74763722284E+03 -0.74539033558E+03  0.12464926189E+04  0.50400001928E-02 0. -1.
       -1    1    3    3    0  502 -0.66270331181E+03 -0.74763722284E+03  0.10438741816E+01  0.99906865938E+03  0.50400001928E-02 0.  1.
</event>
<event>
 5   0  0.5954140E-05  0.2091563E+04  0.7818609E-02  0.8564969E-01
        2   -1    0    0  501    0  0.00000000000E+00  0.00000000000E+00  0.96865893914E+03  0.96865893915E+03  0.25500000920E-02 0. -1.
       -2   -1    0    0    0  501  0.00000000000E+00  0.00000000000E+00 -0.11290443593E+04  0.11290443593E+04  0.25500000920E-02 0.  1.
    10030    2    1    2    0    0  0.00000000000E+00  0.00000000000E+00 -0.16038542019E+03  0.20977032985E+04  0.20915629671E+04 0.  0.
        2    1    3    3  502    0 -0.94844500859E+03  0.43923248208E+03 -0.45656114808E+02  0.10462110631E+04  0.25500000920E-02 0.  1.
       -2    1    3    3    0  502  0.94844500859E+03 -0.43923248208E+03 -0.11472930538E+03  0.10514922354E+04  0.25500000920E-02 0. -1.
</event>
<event>
 5   0  0.2699285E-05  0.2155527E+04  0.7818609E-02  0.8537170E-01
        1   -1    0    0  501    0  0.00000000000E+00  0.00000000000E+00  0.13951897918E+04  0.13951897918E+04  0.50400001928E-02 0. -1.
       -1   -1    0    0    0  501  0.00000000000E+00  0.00000000000E+00 -0.83255630692E+03  0.83255630693E+03  0.50400001928E-02 0.  1.
    10030    2    1    2    0    0  0.00000000000E+00  0.00000000000E+00  0.56263348486E+03  0.22277460987E+04  0.21555269059E+04 0.  0.
        2    1    3    3  502    0  0.34657968084E+03  0.58932869388E+03 -0.57975307859E+03  0.89640360148E+03  0.25500000920E-02 0.  1.
       -2    1    3    3    0  502 -0.34657968084E+03 -0.58932869388E+03  0.11423865635E+04  0.13313424972E+04  0.25500000920E-02 0. -1.
</event>
<event>
 5   0  0.5506332E-05  0.2086487E+04  0.7818609E-02  0.8567220E-01
       -2   -1    0    0    0  501  0.00000000000E+00  0.00000000000E+00  0.71499282962E+03  0.71499282962E+03  0.25500000920E-02 0.  1.
        2   -1    0    0  501    0  0.00000000000E+00  0.00000000000E+00 -0.15221923673E+04  0.15221923673E+04  0.25500000920E-02 0. -1.
    10030    2    1    2    0    0  0.00000000000E+00  0.00000000000E+00 -0.80719953771E+03  0.22371851969E+04  0.20864866431E+04 0.  0.
        3    1    3    3  502    0  0.53915244790E+03 -0.67595300343E+03  0.22230731046E+03  0.89275885625E+03  0.10100000352E+00 0. -1.
       -3    1    3    3    0  502 -0.53915244790E+03  0.67595300343E+03 -0.10295068482E+04  0.13444263407E+04  0.10100000352E+00 0.  1.
</event>
<event>
 5   0  0.5866610E-05  0.2110405E+04  0.7818609E-02  0.8556674E-01
        2   -1    0    0  501    0  0.00000000000E+00  0.00000000000E+00  0.93866289134E+03  0.93866289135E+03  0.25500000920E-02 0. -1.
       -2   -1    0    0    0  501  0.00000000000E+00  0.00000000000E+00 -0.11862105299E+04  0.11862105299E+04  0.25500000920E-02 0.  1.
    10030    2    1    2    0    0  0.00000000000E+00  0.00000000000E+00 -0.24754763858E+03  0.21248734213E+04  0.21104045165E+04 0.  0.
        5    1    3    3  502    0  0.73164197234E+03 -0.75371653338E+03 -0.22881386352E+02  0.10506827477E+04  0.46999998093E+01 0. -1.
       -5    1    3    3    0  502 -0.73164197234E+03  0.75371653338E+03 -0.22466625223E+03  0.10741906736E+04  0.46999998093E+01 0.  1.
</event>
<event>
 5   0  0.2699285E-05  0.2099133E+04  0.7818609E-02  0.8561626E-01
       -1   -1    0    0    0  501  0.00000000000E+00  0.00000000000E+00  0.82376501497E+03  0.82376501499E+03  0.50400001928E-02 0.  1.
        1   -1    0    0  501    0  0.00000000000E+00  0.00000000000E+00 -0.13372617745E+04  0.13372617746E+04  0.50400001928E-02 0. -1.
    10030    2    1    2    0    0  0.00000000000E+00  0.00000000000E+00 -0.51349675957E+03  0.21610267895E+04  0.20991326454E+04 0.  0.
        2    1    3    3  502    0  0.41270689706E+03 -0.32973569178E+03  0.67693139538E+03  0.85865518304E+03  0.25500000920E-02 0.  1.
       -2    1    3    3    0  502 -0.41270689706E+03  0.32973569178E+03 -0.11904281549E+04  0.13023716065E+04  0.25500000920E-02 0. -1.
</event>
<event>
 5   0  0.5506332E-05  0.2099048E+04  0.7818609E-02  0.8561663E-01
       -2   -1    0    0    0  501  0.00000000000E+00  0.00000000000E+00  0.89123639384E+03  0.89123639384E+03  0.25500000920E-02 0. -1.
        2   -1    0    0  501    0  0.00000000000E+00  0.00000000000E+00 -0.12359243647E+04  0.12359243647E+04  0.25500000920E-02 0.  1.
    10030    2    1    2    0    0  0.00000000000E+00  0.00000000000E+00 -0.34468797090E+03  0.21271607586E+04  0.20990481404E+04 0.  0.
        3    1    3    3  502    0  0.84621752952E+02 -0.56251558570E+03  0.72146415213E+03  0.91874651468E+03  0.10100000352E+00 0. -1.
       -3    1    3    3    0  502 -0.84621752952E+02  0.56251558570E+03 -0.10661521230E+04  0.12084142439E+04  0.10100000352E+00 0.  1.
</event>
<event>
 5   0  0.5462851E-05  0.2100182E+04  0.7818609E-02  0.8561163E-01
        2   -1    0    0  501    0  0.00000000000E+00  0.00000000000E+00  0.16097197851E+04  0.16097197851E+04  0.25500000920E-02 0. -1.
       -2   -1    0    0    0  501  0.00000000000E+00  0.00000000000E+00 -0.68502040324E+03  0.68502040324E+03  0.25500000920E-02 0.  1.
    10030    2    1    2    0    0  0.00000000000E+00  0.00000000000E+00  0.92469938183E+03  0.22947401883E+04  0.21001817981E+04 0.  0.
        1    1    3    3  502    0 -0.79659862310E+03  0.32403997469E+03 -0.19606800076E+03  0.88205098066E+03  0.50400001928E-02 0.  1.
       -1    1    3    3    0  502  0.79659862310E+03 -0.32403997469E+03  0.11207673826E+04  0.14126892077E+04  0.50400001928E-02 0. -1.
</event>
<event>
 5   0  0.2604390E-05  0.2090423E+04  0.7818609E-02  0.8565474E-01
       -1   -1    0    0    0  501  0.00000000000E+00  0.00000000000E+00  0.19654803629E+04  0.19654803629E+04  0.50400001928E-02 0.  1.
        1   -1    0    0  501    0  0.00000000000E+00  0.00000000000E+00 -0.55582711011E+03  0.55582711013E+03  0.50400001928E-02 0. -1.
    10030    2    1    2    0    0  0.00000000000E+00  0.00000000000E+00  0.14096532527E+04  0.25213074730E+04  0.20904231821E+04 0.  0.
        5    1    3    3  502    0 -0.73142799941E+03  0.74299859147E+03  0.61610191288E+03  0.12110480925E+04  0.46999998093E+01 0. -1.
       -5    1    3    3    0  502  0.73142799941E+03 -0.74299859147E+03  0.79355133985E+03  0.13102593805E+04  0.46999998093E+01 0.  1.
</event>
<event>
 5   0  0.5506332E-05  0.2101396E+04  0.7818609E-02  0.8560629E-01
       -2   -1    0    0    0  501  0.00000000000E+00  0.00000000000E+00  0.78836964395E+03  0.78836964395E+03  0.25500000920E-02 0.  1.
        2   -1    0    0  501    0  0.00000000000E+00  0.00000000000E+00 -0.14003155893E+04  0.14003155893E+04  0.25500000920E-02 0. -1.
    10030    2    1    2    0    0  0.00000000000E+00  0.00000000000E+00 -0.61194594538E+03  0.21886852333E+04  0.21013960146E+04 0.  0.
        3    1    3    3  502    0 -0.10447135952E+03 -0.96406256055E+03  0.11534893674E+03  0.97654302159E+03  0.10100000352E+00 0.  1.
       -3    1    3    3    0  502  0.10447135952E+03  0.96406256055E+03 -0.72729488212E+03  0.12121422117E+04  0.10100000352E+00 0. -1.
</event>
<event>
 5   0  0.2789662E-05  0.2271367E+04  0.7818609E-02  0.8489297E-01
       -1   -1    0    0    0  501  0.00000000000E+00  0.00000000000E+00  0.51394743501E+03  0.51394743503E+03  0.50400001928E-02 0. -1.
        1   -1    0    0  501    0  0.00000000000E+00  0.00000000000E+00 -0.25095497195E+04  0.25095497195E+04  0.50400001928E-02 0.  1.
    10030    2    1    2    0    0  0.00000000000E+00  0.00000000000E+00 -0.19956022845E+04  0.30234971546E+04  0.22713666735E+04 0.  0.
        4    1    3    3  502    0  0.21370467855E+03  0.58808211107E+03 -0.22594093282E+04  0.23444492710E+04  0.12699999809E+01 0.  1.
       -4    1    3    3    0  502 -0.21370467855E+03 -0.58808211107E+03  0.26380704367E+03  0.67904788358E+03  0.12699999809E+01 0. -1.
</event>
<event>
 5   0  0.2602060E-05  0.2105118E+04  0.7818609E-02  0.8558992E-01
        1   -1    0    0  501    0  0.00000000000E+00  0.00000000000E+00  0.95740414139E+03  0.95740414140E+03  0.50400001928E-02 0.  1.
       -1   -1    0    0    0  501  0.00000000000E+00  0.00000000000E+00 -0.11571712722E+04  0.11571712722E+04  0.50400001928E-02 0. -1.
    10030    2    1    2    0    0  0.00000000000E+00  0.00000000000E+00 -0.19976713077E+03  0.21145754136E+04  0.21051181138E+04 0.  0.
        1    1    3    3  502    0 -0.32702947471E+03 -0.63289138531E+03 -0.87820699196E+03  0.11308170956E+04  0.50400001928E-02 0. -1.
       -1    1    3    3    0  502  0.32702947471E+03  0.63289138531E+03  0.67843986119E+03  0.98375831798E+03  0.50400001928E-02 0.  1.
</event>
<event>
 5   0  0.2732159E-05  0.2084193E+04  0.7818609E-02  0.8568239E-01
        1   -1    0    0  501    0  0.00000000000E+00  0.00000000000E+00  0.19809941842E+04  0.19809941842E+04  0.50400001928E-02 0.  1.
       -1   -1    0    0    0  501  0.00000000000E+00  0.00000000000E+00 -0.54819205656E+03  0.54819205658E+03  0.50400001928E-02 0. -1.
    10030    2    1    2    0    0  0.00000000000E+00  0.00000000000E+00  0.14328021276E+04  0.25291862408E+04  0.20841931541E+04 0.  0.
        3    1    3    3  502    0  0.54459657851E+02  0.77009777146E+03 -0.13301057909E+03  0.78339533844E+03  0.10100000352E+00 0. -1.
       -3    1    3    3    0  502 -0.54459657851E+02 -0.77009777146E+03  0.15658127067E+04  0.17457909023E+04  0.10100000352E+00 0.  1.
</event>
<event>
 5   0  0.5967046E-05  0.1835628E+04  0.7818609E-02  0.8687579E-01
        2   -1    0    0  501    0  0.00000000000E+00  0.00000000000E+00  0.65586728737E+03  0.65586728738E+03  0.25500000920E-02 0.  1.
       -2   -1    0    0    0  501  0.00000000000E+00  0.00000000000E+00 -0.12843788715E+04  0.12843788715E+04  0.25500000920E-02 0. -1.
    10030    2    1    2    0    0  0.00000000000E+00  0.00000000000E+00 -0.62851158417E+03  0.19402461589E+04  0.18356275074E+04 0.  0.
        4    1    3    3  502    0  0.30427756587E+03 -0.80013998824E+03  0.35626004314E+02  0.85678449038E+03  0.12699999809E+01 0.  1.
       -4    1    3    3    0  502 -0.30427756587E+03  0.80013998824E+03 -0.66413758849E+03  0.10834616685E+04  0.12699999809E+01 0. -1.
</event>
<event>
 5   0  0.5967046E-05  0.2087017E+04  0.7818609E-02  0.8566984E-01
       -2   -1    0    0    0  501  0.00000000000E+00  0.00000000000E+00  0.46018857498E+03  0.46018857499E+03  0.25500000920E-02 0.  1.
        2   -1    0    0  501    0  0.00000000000E+00  0.00000000000E+00 -0.23662250631E+04  0.23662250631E+04  0.25500000920E-02 0. -1.
    10030    2    1    2    0    0  0.00000000000E+00  0.00000000000E+00 -0.19060364881E+04  0.28264136381E+04  0.20870167607E+04 0.  0.
        4    1    3    3  502    0 -0.71498677552E+03  0.75368863639E+03 -0.10860932991E+04  0.15029480753E+04  0.12699999809E+01 0. -1.
       -4    1    3    3    0  502  0.71498677552E+03 -0.75368863639E+03 -0.81994318903E+03  0.13234655628E+04  0.12699999809E+01 0.  1.
</event>
<event>
 5   0  0.2699285E-05  0.2104909E+04  0.7818609E-02  0.8559084E-01
        1   -1    0    0  501    0  0.00000000000E+00  0.00000000000E+00  0.22891924923E+04  0.22891924923E+04  0.50400001928E-02 0. -1.
       -1   -1    0    0    0  501  0.00000000000E+00  0.00000000000E+00 -0.48386507811E+03  0.48386507814E+03  0.50400001928E-02 0.  1.
    10030    2    1    2    0    0  0.00000000000E+00  0.00000000000E+00  0.18053274141E+04  0.27730575704E+04  0.21049088380E+04 0.  0.
        2    1    3    3  502    0  0.46483988264E+03 -0.63431214643E+03  0.18241378438E+04  0.19864306907E+04  0.25500000920E-02 0. -1.
       -2    1    3    3    0  502 -0.46483988264E+03  0.63431214643E+03 -0.18810429695E+02  0.78662687970E+03  0.25500000920E-02 0.  1.
</event>
<event>
 5   0  0.2604390E-05  0.2104795E+04  0.7818609E-02  0.8559134E-01
        1   -1    0    0  501    0  0.00000000000E+00  0.00000000000E+00  0.11403018469E+04  0.11403018469E+04  0.50400001928E-02 0. -1.
       -1   -1    0    0    0  501  0.00000000000E+00  0.00000000000E+00 -0.97126971384E+03  0.97126971385E+03  0.50400001928E-02 0.  1.
    10030    2    1    2    0    0  0.00000000000E+00  0.00000000000E+00  0.16903213304E+03  0.21115715607E+04  0.21047951430E+04 0.  0.
        5    1    3    3  502    0 -0.45036881834E+03 -0.33536506899E+03 -0.80841510336E+03  0.98430628941E+03  0.46999998093E+01 0.  1.
       -5    1    3    3    0  502  0.45036881834E+03  0.33536506899E+03  0.97744723640E+03  0.11272652713E+04  0.46999998093E+01 0. -1.
</event>
<event>
 5   0  0.2604390E-05  0.2103740E+04  0.7818609E-02  0.8559598E-01
        1   -1    0    0  501    0  0.00000000000E+00  0.00000000000E+00  0.15092077966E+04  0.15092077966E+04  0.50400001928E-02 0. -1.
       -1   -1    0    0    0  501  0.00000000000E+00  0.00000000000E+00 -0.73312023315E+03  0.73312023317E+03  0.50400001928E-02 0.  1.
    10030    2    1    2    0    0  0.00000000000E+00  0.00000000000E+00  0.77608756348E+03  0.22423280298E+04  0.21037402613E+04 0.  0.
        5    1    3    3  502    0  0.79661763411E+03  0.56841022036E+03 -0.23001846797E+02  0.97889785398E+03  0.46999998093E+01 0.  1.
       -5    1    3    3    0  502 -0.79661763411E+03 -0.56841022036E+03  0.79908941028E+03  0.12634301758E+04  0.46999998093E+01 0. -1.
</event>
<event>
 5   0  0.5954140E-05  0.2095431E+04  0.7818609E-02  0.8563259E-01
        2   -1    0    0  501    0  0.00000000000E+00  0.00000000000E+00  0.10455334933E+04  0.10455334933E+04  0.25500000920E-02 0.  1.
       -2   -1    0    0    0  501  0.00000000000E+00  0.00000000000E+00 -0.10499016301E+04  0.10499016301E+04  0.25500000920E-02 0. -1.
    10030    2    1    2    0    0  0.00000000000E+00  0.00000000000E+00 -0.43681367987E+01  0.20954351234E+04  0.20954305705E+04 0.  0.
        2    1    3    3  502    0  0.61211282163E+02 -0.34172799238E+03 -0.99071162166E+03  0.10497782428E+04  0.25500000920E-02 0. -1.
       -2    1    3    3    0  502 -0.61211282163E+02  0.34172799238E+03  0.98634348486E+03  0.10456568806E+04  0.25500000920E-02 0.  1.
</event>
<event>
 5   0  0.5506332E-05  0.2103390E+04  0.7818609E-02  0.8559751E-01
       -2   -1    0    0    0  501  0.00000000000E+00  0.00000000000E+00  0.57324116205E+03  0.57324116205E+03  0.25500000920E-02 0.  1.
        2   -1    0    0  501    0  0.00000000000E+00  0.00000000000E+00 -0.19294894053E+04  0.19294894053E+04  0.25500000920E-02 0. -1.
    10030    2    1    2    0    0  0.00000000000E+00  0.00000000000E+00 -0.13562482433E+04  0.25027305674E+04  0.21033903574E+04 0.  0.
        3    1    3    3  502    0  0.54700821421E+03 -0.44534882014E+03  0.25004643308E+03  0.74838278102E+03  0.10100000352E+00 0.  1.
       -3    1    3    3    0  502 -0.54700821421E+03  0.44534882014E+03 -0.16062946764E+04  0.17543477864E+04  0.10100000352E+00 0. -1.
</event>
<event>
 5   0  0.5462851E-05  0.2094221E+04  0.7818609E-02  0.8563793E-01
       -2   -1    0    0    0  501  0.00000000000E+00  0.00000000000E+00  0.68019778065E+03  0.68019778065E+03  0.25500000920E-02 0. -1.
        2   -1    0    0  501    0  0.00000000000E+00  0.00000000000E+00 -0.16119435125E+04  0.16119435125E+04  0.25500000920E-02 0.  1.
    10030    2    1    2    0    0  0.00000000000E+00  0.00000000000E+00 -0.93174573188E+03  0.22921412932E+04  0.20942210005E+04 0.  0.
        1    1    3    3  502    0 -0.35671270326E+03  0.31803725214E+03 -0.14856163375E+04  0.15605920507E+04  0.50400001928E-02 0.  1.
       -1    1    3    3    0  502  0.35671270326E+03 -0.31803725214E+03  0.55387060561E+03  0.73154924250E+03  0.50400001928E-02 0. -1.
</event>
<event>
 5   0  0.5954140E-05  0.2106167E+04  0.7818609E-02  0.8558532E-01
       -2   -1    0    0    0  501  0.00000000000E+00  0.00000000000E+00  0.13187072672E+04  0.13187072672E+04  0.25500000920E-02 0.  1.
        2   -1    0    0  501    0  0.00000000000E+00  0.00000000000E+00 -0.84096340788E+03  0.84096340789E+03  0.25500000920E-02 0. -1.
    10030    2    1    2    0    0  0.00000000000E+00  0.00000000000E+00  0.47774385930E+03  0.21596706751E+04  0.21061667146E+04 0.  0.
        2    1    3    3  502    0  0.41066126830E+03 -0.18244472942E+03  0.12154608411E+04  0.12958679766E+04  0.25500000920E-02 0.  1.
       -2    1    3    3    0  502 -0.41066126830E+03  0.18244472942E+03 -0.73771698181E+03  0.86380269844E+03  0.25500000920E-02 0. -1.
</event>
<event>
 5   0  0.5506332E-05  0.2093155E+04  0.7818609E-02  0.8564265E-01
        2   -1    0    0  501    0  0.00000000000E+00  0.00000000000E+00  0.11814749758E+04  0.11814749758E+04  0.25500000920E-02 0. -1.
       -2   -1    0    0    0  501  0.00000000000E+00  0.00000000000E+00 -0.92708233043E+03  0.92708233044E+03  0.25500000920E-02 0.  1.
    10030    2    1    2    0    0  0.00000000000E+00  0.00000000000E+00  0.25439264535E+03  0.21085573062E+04  0.20931551055E+04 0.  0.
        3    1    3    3  502    0 -0.40115381834E+03 -0.40933994429E+03 -0.75494193271E+03  0.94785067807E+03  0.10100000352E+00 0.  1.
       -3    1    3    3    0  502  0.40115381834E+03  0.40933994429E+03  0.10093345781E+04  0.11607066282E+04  0.10100000352E+00 0. -1.
</event>
<event>
 5   0  0.2604390E-05  0.2092568E+04  0.7818609E-02  0.8564524E-01
       -1   -1    0    0    0  501  0.00000000000E+00  0.00000000000E+00  0.86728045891E+03  0.86728045892E+03  0.50400001928E-02 0. -1.
        1   -1    0    0  501    0  0.00000000000E+00  0.00000000000E+00 -0.12622331142E+04  0.12622331142E+04  0.50400001928E-02 0.  1.
    10030    2    1    2    0    0  0.00000000000E+00  0.00000000000E+00 -0.39495265526E+03  0.21295135731E+04  0.20925679100E+04 0.  0.
        5    1    3    3  502    0 -0.87349413243E+03  0.57454134463E+03 -0.15679213383E+03  0.10572112463E+04  0.46999998093E+01 0.  1.
       -5    1    3    3    0  502  0.87349413243E+03 -0.57454134463E+03 -0.23816052143E+03  0.10723023268E+04  0.46999998093E+01 0. -1.
</event>
<event>
 5   0  0.5866610E-05  0.2098930E+04  0.7818609E-02  0.8561715E-01
       -2   -1    0    0    0  501  0.00000000000E+00  0.00000000000E+00  0.34548793174E+03  0.34548793174E+03  0.25500000920E-02 0. -1.
        2   -1    0    0  501    0  0.00000000000E+00  0.00000000000E+00 -0.31878889310E+04  0.31878889310E+04  0.25500000920E-02 0.  1.
    10030    2    1    2    0    0  0.00000000000E+00  0.00000000000E+00 -0.28424009993E+04  0.35333768627E+04  0.20989303499E+04 0.  0.
        5    1    3    3  502    0 -0.44372159734E+03  0.25698164671E+03 -0.29626328459E+04  0.30066832045E+04  0.46999998093E+01 0.  1.
       -5    1    3    3    0  502  0.44372159734E+03 -0.25698164671E+03  0.12023184662E+03  0.52669365825E+03  0.46999998093E+01 0. -1.
</event>
<event>
 5   0  0.2604390E-05  0.2095760E+04  0.7818609E-02  0.8563113E-01
        1   -1    0    0  501    0  0.00000000000E+00  0.00000000000E+00  0.13101474067E+04  0.13101474067E+04  0.50400001928E-02 0. -1.
       -1   -1    0    0    0  501  0.00000000000E+00  0.00000000000E+00 -0.83811358508E+03  0.83811358510E+03  0.50400001928E-02 0.  1.
    10030    2    1    2    0    0  0.00000000000E+00  0.00000000000E+00  0.47203382162E+03  0.21482609918E+04  0.20957598527E+04 0.  0.
        5    1    3    3  502    0 -0.59959158369E+03 -0.13749932538E+03 -0.63353469948E+03  0.88306536403E+03  0.46999998093E+01 0.  1.
       -5    1    3    3    0  502  0.59959158369E+03  0.13749932538E+03  0.11055685211E+04  0.12651956278E+04  0.46999998093E+01 0. -1.
</event>
<event>
 5   0  0.2732159E-05  0.2098864E+04  0.7818609E-02  0.8561744E-01
       -1   -1    0    0    0  501  0.00000000000E+00  0.00000000000E+00  0.86627725066E+03  0.86627725067E+03  0.50400001928E-02 0. -1.
        1   -1    0    0  501    0  0.00000000000E+00  0.00000000000E+00 -0.12713106872E+04  0.12713106872E+04  0.50400001928E-02 0.  1.
    10030    2    1    2    0    0  0.00000000000E+00  0.00000000000E+00 -0.40503343657E+03  0.21375879379E+04  0.20988640041E+04 0.  0.
        3    1    3    3  502    0 -0.51356588173E+03 -0.85543872194E+03  0.12872572364E+03  0.10060296437E+04  0.10100000352E+00 0. -1.
       -3    1    3    3    0  502  0.51356588173E+03  0.85543872194E+03 -0.53375916020E+03  0.11315582942E+04  0.10100000352E+00 0.  1.
</event>
<event>
 5   0  0.5506332E-05  0.2098419E+04  0.7818609E-02  0.8561940E-01
        2   -1    0    0  501    0  0.00000000000E+00  0.00000000000E+00  0.84659322155E+03  0.84659322156E+03  0.25500000920E-02 0.  1.
       -2   -1    0    0    0  501  0.00000000000E+00  0.00000000000E+00 -0.13003176511E+04  0.13003176511E+04  0.25500000920E-02 0. -1.
    10030    2    1    2    0    0  0.00000000000E+00  0.00000000000E+00 -0.45372442951E+03  0.21469108726E+04  0.20984185562E+04 0.  0.
        3    1    3    3  502    0  0.13092910635E+03  0.91163700433E+03 -0.74108582771E+03  0.11821305650E+04  0.10100000352E+00 0. -1.
       -3    1    3    3    0  502 -0.13092910635E+03 -0.91163700433E+03  0.28736139820E+03  0.96478030760E+03  0.10100000352E+00 0.  1.
</event>
<event>
 5   0  0.2602060E-05  0.2124939E+04  0.7818609E-02  0.8550337E-01
        1   -1    0    0  501    0  0.00000000000E+00  0.00000000000E+00  0.24130086792E+04  0.24130086792E+04  0.50400001928E-02 0. -1.
       -1   -1    0    0    0  501  0.00000000000E+00  0.00000000000E+00 -0.46781481023E+03  0.46781481026E+03  0.50400001928E-02 0.  1.
    10030    2    1    2    0    0  0.00000000000E+00  0.00000000000E+00  0.19451938689E+04  0.28808234894E+04  0.21249387731E+04 0.  0.
        1    1    3    3  502    0  0.94713793330E+03  0.40184977824E+02  0.32219552525E+03  0.10012467496E+04  0.50400001928E-02 0.  1.
       -1    1    3    3    0  502 -0.94713793330E+03 -0.40184977824E+02  0.16229983437E+04  0.18795767398E+04  0.50400001928E-02 0. -1.
</event>
<event>
 5   0  0.2732159E-05  0.2097840E+04  0.7818609E-02  0.8562195E-01
        1   -1    0    0  501    0  0.00000000000E+00  0.00000000000E+00  0.11341003845E+04  0.11341003845E+04  0.50400001928E-02 0.  1.
       -1   -1    0    0    0  501  0.00000000000E+00  0.00000000000E+00 -0.97013757973E+03  0.97013757974E+03  0.50400001928E-02 0. -1.
    10030    2    1    2    0    0  0.00000000000E+00  0.00000000000E+00  0.16396280473E+03  0.21042379642E+04  0.20978402248E+04 0.  0.
        3    1    3    3  502    0 -0.21665321507E+03 -0.97259499572E+02 -0.94281701688E+03  0.97226640556E+03  0.10100000352E+00 0. -1.
       -3    1    3    3    0  502  0.21665321507E+03  0.97259499572E+02  0.11067798216E+04  0.11319715586E+04  0.10100000352E+00 0.  1.
</event>
<event>
 5   0  0.2789662E-05  0.2107843E+04  0.7818609E-02  0.8557796E-01
        1   -1    0    0  501    0  0.00000000000E+00  0.00000000000E+00  0.19251136751E+04  0.19251136751E+04  0.50400001928E-02 0.  1.
       -1   -1    0    0    0  501  0.00000000000E+00  0.00000000000E+00 -0.57697903762E+03  0.57697903765E+03  0.50400001928E-02 0. -1.
    10030    2    1    2    0    0  0.00000000000E+00  0.00000000000E+00  0.13481346375E+04  0.25020927128E+04  0.21078427224E+04 0.  0.
        4    1    3    3  502    0 -0.29545599552E+03 -0.62300332075E+02  0.18726675805E+04  0.18968555709E+04  0.12699999809E+01 0.  1.
       -4    1    3    3    0  502  0.29545599552E+03  0.62300332075E+02 -0.52453294306E+03  0.60523714188E+03  0.12699999809E+01 0. -1.
</event>
<event>
 5   0  0.2604390E-05  0.2087854E+04  0.7818609E-02  0.8566613E-01
       -1   -1    0    0    0  501  0.00000000000E+00  0.00000000000E+00  0.11675805041E+04  0.11675805042E+04  0.50400001928E-02 0. -1.
        1   -1    0    0  501    0  0.00000000000E+00  0.00000000000E+00 -0.93336873205E+03  0.93336873207E+03  0.50400001928E-02 0.  1.
    10030    2    1    2    0    0  0.00000000000E+00  0.00000000000E+00  0.23421177209E+03  0.21009492362E+04  0.20878535722E+04 0.  0.
        5    1    3    3  502    0  0.10035290801E+04 -0.27048210357E+03  0.18872565853E+02  0.10395236634E+04  0.46999998093E+01 0.  1.
       -5    1    3    3    0  502 -0.10035290801E+04  0.27048210357E+03  0.21533920624E+03  0.10614255729E+04  0.46999998093E+01 0. -1.
</event>
<event>
 5   0  0.5967046E-05  0.2078741E+04  0.7818609E-02  0.8570667E-01
        2   -1    0    0  501    0  0.00000000000E+00  0.00000000000E+00  0.22246971272E+04  0.22246971272E+04  0.25500000920E-02 0.  1.
       -2   -1    0    0    0  501  0.00000000000E+00  0.00000000000E+00 -0.48558994363E+03  0.48558994364E+03  0.25500000920E-02 0. -1.
    10030    2    1    2    0    0  0.00000000000E+00  0.00000000000E+00  0.17391071836E+04  0.27102870709E+04  0.20787405347E+04 0.  0.
        4    1    3    3  502    0  0.44402651426E+03 -0.48826421453E+03  0.19164485050E+04  0.20269035433E+04  0.12699999809E+01 0.  1.
       -4    1    3    3    0  502 -0.44402651426E+03  0.48826421453E+03 -0.17734132143E+03  0.68338352756E+03  0.12699999809E+01 0. -1.
</event>
<event>
 5   0  0.5462851E-05  0.2089895E+04  0.7818609E-02  0.8565708E-01
       -2   -1    0    0    0  501  0.00000000000E+00  0.00000000000E+00  0.37398117551E+03  0.37398117551E+03  0.25500000920E-02 0. -1.
        2   -1    0    0  501    0  0.00000000000E+00  0.00000000000E+00 -0.29197065369E+04  0.29197065369E+04  0.25500000920E-02 0.  1.
    10030    2    1    2    0    0  0.00000000000E+00  0.00000000000E+00 -0.25457253614E+04  0.32936877124E+04  0.20898950048E+04 0.  0.
        1    1    3    3  502    0  0.44243377592E+03  0.94616061071E+03 -0.13213805273E+04  0.16843438026E+04  0.50400001928E-02 0.  1.
       -1    1    3    3    0  502 -0.44243377592E+03 -0.94616061071E+03 -0.12243448341E+04  0.16093439098E+04  0.50400001928E-02 0. -1.
</event>
<event>
 5   0  0.2789662E-05  0.2101060E+04  0.7818609E-02  0.8560777E-01
        1   -1    0    0  501    0  0.00000000000E+00  0.00000000000E+00  0.68977258213E+03  0.68977258215E+03  0.50400001928E-02 0.  1.
       -1   -1    0    0    0  501  0.00000000000E+00  0.00000000000E+00 -0.15999662209E+04  0.15999662209E+04  0.50400001928E-02 0. -1.
    10030    2    1    2    0    0  0.00000000000E+00  0.00000000000E+00 -0.91019363873E+03  0.22897388030E+04  0.21010595722E+04 0.  0.
        4    1    3    3  502    0 -0.25408270152E+03  0.96826083196E+03 -0.80233884545E+03  0.12829015137E+04  0.12699999809E+01 0.  1.
       -4    1    3    3    0  502  0.25408270152E+03 -0.96826083196E+03 -0.10785479327E+03  0.10068372894E+04  0.12699999809E+01 0. -1.
</event>
<event>
 5   0  0.5954140E-05  0.2095125E+04  0.7818609E-02  0.8563394E-01
       -2   -1    0    0    0  501  0.00000000000E+00  0.00000000000E+00  0.11696332572E+04  0.11696332572E+04  0.25500000920E-02 0. -1.
        2   -1    0    0  501    0  0.00000000000E+00  0.00000000000E+00 -0.93823215632E+03  0.93823215632E+03  0.25500000920E-02 0.  1.
    10030    2    1    2    0    0  0.00000000000E+00  0.00000000000E+00  0.23140110087E+03  0.21078654135E+04  0.20951253261E+04 0.  0.
        2    1    3    3  502    0 -0.81905493500E+03 -0.63259583182E+03  0.27904253601E+03  0.10718643617E+04  0.25500000920E-02 0. -1.
       -2    1    3    3    0  502  0.81905493500E+03  0.63259583182E+03 -0.47641435138E+02  0.10360010518E+04  0.25500000920E-02 0.  1.
</event>
<event>
 5   0  0.2604390E-05  0.2106336E+04  0.7818609E-02  0.8558458E-01
        1   -1    0    0  501    0  0.00000000000E+00  0.00000000000E+00  0.98658687780E+03  0.98658687781E+03  0.50400001928E-02 0. -1.
       -1   -1    0    0    0  501  0.00000000000E+00  0.00000000000E+00 -0.11242419603E+04  0.11242419603E+04  0.50400001928E-02 0.  1.
    10030    2    1    2    0    0  0.00000000000E+00  0.00000000000E+00 -0.13765508251E+03  0.21108288381E+04  0.21063355531E+04 0.  0.
        5    1    3    3  502    0 -0.75120655961E+03 -0.46073749914E+03 -0.64672913963E+03  0.10931015545E+04  0.46999998093E+01 0.  1.
       -5    1    3    3    0  502  0.75120655961E+03  0.46073749914E+03  0.50907405712E+03  0.10177272837E+04  0.46999998093E+01 0. -1.
</event>
<event>
 5   0  0.5954140E-05  0.2092591E+04  0.7818609E-02  0.8564514E-01
        2   -1    0    0  501    0  0.00000000000E+00  0.00000000000E+00  0.70663183030E+03  0.70663183030E+03  0.25500000920E-02 0. -1.
       -2   -1    0    0    0  501  0.00000000000E+00  0.00000000000E+00 -0.15492287380E+04  0.15492287380E+04  0.25500000920E-02 0.  1.
    10030    2    1    2    0    0  0.00000000000E+00  0.00000000000E+00 -0.84259690768E+03  0.22558605683E+04  0.20925910625E+04 0.  0.
        2    1    3    3  502    0 -0.26492029296E+03 -0.25242944025E+03 -0.14779976570E+04  0.15226228877E+04  0.25500000920E-02 0.  1.
       -2    1    3    3    0  502  0.26492029296E+03  0.25242944025E+03  0.63540074936E+03  0.73323768058E+03  0.25500000920E-02 0. -1.
</event>
<event>
 5   0  0.2789662E-05  0.2167334E+04  0.7818609E-02  0.8532149E-01
        1   -1    0    0  501    0  0.00000000000E+00  0.00000000000E+00  0.93650510972E+03  0.93650510974E+03  0.50400001928E-02 0. -1.
       -1   -1    0    0    0  501  0.00000000000E+00  0.00000000000E+00 -0.12539542243E+04  0.12539542244E+04  0.50400001928E-02 0.  1.
    10030    2    1    2    0    0  0.00000000000E+00  0.00000000000E+00 -0.31744911462E+03  0.21904593341E+04  0.21673343429E+04 0.  0.
        4    1    3    3  502    0  0.77590776703E+03  0.57786107688E+03 -0.65217225585E+03  0.11667418529E+04  0.12699999809E+01 0.  1.
       -4    1    3    3    0  502 -0.77590776703E+03 -0.57786107688E+03  0.33472314124E+03  0.10237174812E+04  0.12699999809E+01 0. -1.
</event>
<event>
 5   0  0.2789662E-05  0.2096984E+04  0.7818609E-02  0.8562573E-01
       -1   -1    0    0    0  501  0.00000000000E+00  0.00000000000E+00  0.64555347582E+03  0.64555347584E+03  0.50400001928E-02 0.  1.
        1   -1    0    0  501    0  0.00000000000E+00  0.00000000000E+00 -0.17029342006E+04  0.17029342006E+04  0.50400001928E-02 0. -1.
    10030    2    1    2    0    0  0.00000000000E+00  0.00000000000E+00 -0.10573807248E+04  0.23484876764E+04  0.20969836359E+04 0.  0.
        4    1    3    3  502    0 -0.14866823232E+03 -0.10364466387E+04 -0.59012986880E+03  0.12019062997E+04  0.12699999809E+01 0.  1.
       -4    1    3    3    0  502  0.14866823232E+03  0.10364466387E+04 -0.46725085597E+03  0.11465813768E+04  0.12699999809E+01 0. -1.
</event>
<event>
 5   0  0.2789662E-05  0.2107166E+04  0.7818609E-02  0.8558093E-01
       -1   -1    0    0    0  501  0.00000000000E+00  0.00000000000E+00  0.89141016977E+03  0.89141016978E+03  0.50400001928E-02 0.  1.
        1   -1    0    0  501    0  0.00000000000E+00  0.00000000000E+00 -0.12452592045E+04  0.12452592045E+04  0.50400001928E-02 0. -1.
    10030    2    1    2    0    0  0.00000000000E+00  0.00000000000E+00 -0.35384903476E+03  0.21366693743E+04  0.21071656023E+04 0.  0.
        4    1    3    3  502    0  0.99611081792E+02  0.23222458724E+03  0.86022840017E+03  0.89657411288E+03  0.12699999809E+01 0.  1.
       -4    1    3    3    0  502 -0.99611081792E+02 -0.23222458724E+03 -0.12140774349E+04  0.12400952614E+04  0.12699999809E+01 0. -1.
</event>
<event>
 5   0  0.5967046E-05  0.2060077E+04  0.7818609E-02  0.8579036E-01
       -2   -1    0    0    0  501  0.00000000000E+00  0.00000000000E+00  0.73725611877E+03  0.73725611877E+03  0.25500000920E-02 0. -1.
        2   -1    0    0  501    0  0.00000000000E+00  0.00000000000E+00 -0.14390922356E+04  0.14390922356E+04  0.25500000920E-02 0.  1.
    10030    2    1    2    0    0  0.00000000000E+00  0.00000000000E+00 -0.70183611678E+03  0.21763483543E+04  0.20600772375E+04 0.  0.
        4    1    3    3  502    0 -0.33873177225E+03 -0.48420647897E+03  0.54037116852E+03  0.80074823788E+03  0.12699999809E+01 0. -1.
       -4    1    3    3    0  502  0.33873177225E+03  0.48420647897E+03 -0.12422072853E+04  0.13756001164E+04  0.12699999809E+01 0.  1.
</event>
<event>
 5   0  0.2017750E-05  0.2164468E+04  0.7818609E-02  0.8533365E-01
       -3   -1    0    0    0  501  0.00000000000E+00  0.00000000000E+00  0.16132693973E+04  0.16132694005E+04  0.10100000352E+00 0. -1.
        3   -1    0    0  501    0  0.00000000000E+00  0.00000000000E+00 -0.72599778070E+03  0.72599778772E+03  0.10100000352E+00 0.  1.
    10030    2    1    2    0    0  0.00000000000E+00  0.00000000000E+00  0.88727161660E+03  0.23392671882E+04  0.21644676149E+04 0.  0.
        1    1    3    3  502    0 -0.17173179375E+03 -0.80399701040E+02 -0.70790438375E+03  0.73286051706E+03  0.50400001928E-02 0.  1.
       -1    1    3    3    0  502  0.17173179375E+03  0.80399701040E+02  0.15951760003E+04  0.16064066711E+04  0.50400001928E-02 0. -1.
</event>
<event>
 5   0  0.5866610E-05  0.2089305E+04  0.7818609E-02  0.8565969E-01
       -2   -1    0    0    0  501  0.00000000000E+00  0.00000000000E+00  0.10886158596E+04  0.10886158596E+04  0.25500000920E-02 0. -1.
        2   -1    0    0  501    0  0.00000000000E+00  0.00000000000E+00 -0.10024647067E+04  0.10024647067E+04  0.25500000920E-02 0.  1.
    10030    2    1    2    0    0  0.00000000000E+00  0.00000000000E+00  0.86151152822E+02  0.20910805663E+04  0.20893051270E+04 0.  0.
        5    1    3    3  502    0  0.71167342123E+03 -0.28954411532E+03 -0.66531259898E+03  0.10163551533E+04  0.46999998093E+01 0.  1.
       -5    1    3    3    0  502 -0.71167342123E+03  0.28954411532E+03  0.75146375180E+03  0.10747254131E+04  0.46999998093E+01 0. -1.
</event>
<event>
 5   0  0.5866610E-05  0.2102772E+04  0.7818609E-02  0.8560023E-01
        2   -1    0    0  501    0  0.00000000000E+00  0.00000000000E+00  0.96507692295E+03  0.96507692296E+03  0.25500000920E-02 0.  1.
       -2   -1    0    0    0  501  0.00000000000E+00  0.00000000000E+00 -0.11454142732E+04  0.11454142732E+04  0.25500000920E-02 0. -1.
    10030    2    1    2    0    0  0.00000000000E+00  0.00000000000E+00 -0.18033735021E+03  0.21104911961E+04  0.21027723436E+04 0.  0.
        5    1    3    3  502    0 -0.16834899404E+03 -0.42763055313E+03  0.85891419106E+03  0.97414832102E+03  0.46999998093E+01 0.  1.
       -5    1    3    3    0  502  0.16834899404E+03  0.42763055313E+03 -0.10392515413E+04  0.11363428751E+04  0.46999998093E+01 0. -1.
</event>
<event>
 5   0  0.5967046E-05  0.2087895E+04  0.7818609E-02  0.8566594E-01
       -2   -1    0    0    0  501  0.00000000000E+00  0.00000000000E+00  0.10965427597E+04  0.10965427597E+04  0.25500000920E-02 0. -1.
        2   -1    0    0  501    0  0.00000000000E+00  0.00000000000E+00 -0.99387522415E+03  0.99387522416E+03  0.25500000920E-02 0.  1.
    10030    2    1    2    0    0  0.00000000000E+00  0.00000000000E+00  0.10266753557E+03  0.20904179839E+04  0.20878952858E+04 0.  0.
        4    1    3    3  502    0  0.54427472286E+03 -0.48964838074E+03  0.79643356412E+03  0.10818033766E+04  0.12699999809E+01 0. -1.
       -4    1    3    3    0  502 -0.54427472286E+03  0.48964838074E+03 -0.69376602855E+03  0.10086146073E+04  0.12699999809E+01 0.  1.
</event>
<event>
 5   0  0.2789662E-05  0.2097527E+04  0.7818609E-02  0.8562334E-01
        1   -1    0    0  501    0  0.00000000000E+00  0.00000000000E+00  0.14955013180E+04  0.14955013180E+04  0.50400001928E-02 0. -1.
       -1   -1    0    0    0  501  0.00000000000E+00  0.00000000000E+00 -0.73547570960E+03  0.73547570962E+03  0.50400001928E-02 0.  1.
    10030    2    1    2    0    0  0.00000000000E+00  0.00000000000E+00  0.76002560837E+03  0.22309770276E+04  0.20975270135E+04 0.  0.
        4    1    3    3  502    0  0.30698990046E+03  0.82138215638E+03 -0.23190934828E+03  0.90702536046E+03  0.12699999809E+01 0.  1.
       -4    1    3    3    0  502 -0.30698990046E+03 -0.82138215638E+03  0.99193495665E+03  0.13239516671E+04  0.12699999809E+01 0. -1.
</event>
<event>
 5   0  0.2699285E-05  0.2213981E+04  0.7818609E-02  0.8512631E-01
       -1   -1    0    0    0  501  0.00000000000E+00  0.00000000000E+00  0.86035476403E+03  0.86035476404E+03  0.50400001928E-02 0.  1.
        1   -1    0    0  501    0  0.00000000000E+00  0.00000000000E+00 -0.14243285828E+04  0.14243285828E+04  0.50400001928E-02 0. -1.
    10030    2    1    2    0    0  0.00000000000E+00  0.00000000000E+00 -0.56397381879E+03  0.22846833469E+04  0.22139809229E+04 0.  0.
        2    1    3    3  502    0 -0.61917928290E+03 -0.11204135826E+03  0.65786222584E+03  0.91034002357E+03  0.25500000920E-02 0.  1.
       -2    1    3    3    0  502  0.61917928290E+03  0.11204135826E+03 -0.12218360446E+04  0.13743433233E+04  0.25500000920E-02 0. -1.
</event>
<event>
 5   0  0.5954140E-05  0.2101422E+04  0.7818609E-02  0.8560617E-01
        2   -1    0    0  501    0  0.00000000000E+00  0.00000000000E+00  0.87820783728E+03  0.87820783728E+03  0.25500000920E-02 0. -1.
       -2   -1    0    0    0  501  0.00000000000E+00  0.00000000000E+00 -0.12570978119E+04  0.12570978119E+04  0.25500000920E-02 0.  1.
    10030    2    1    2    0    0  0.00000000000E+00  0.00000000000E+00 -0.37888997462E+03  0.21353056492E+04  0.21014215671E+04 0.  0.
        2    1    3    3  502    0  0.75262368352E+03 -0.35296648465E+03  0.46354075420E+03  0.95178662477E+03  0.25500000920E-02 0. -1.
       -2    1    3    3    0  502 -0.75262368352E+03  0.35296648465E+03 -0.84243072882E+03  0.11835190244E+04  0.25500000920E-02 0.  1.
</event>
<event>
 5   0  0.2699285E-05  0.2097289E+04  0.7818609E-02  0.8562439E-01
        1   -1    0    0  501    0  0.00000000000E+00  0.00000000000E+00  0.15677648210E+04  0.15677648210E+04  0.50400001928E-02 0. -1.
       -1   -1    0    0    0  501  0.00000000000E+00  0.00000000000E+00 -0.70141572314E+03  0.70141572316E+03  0.50400001928E-02 0.  1.
    10030    2    1    2    0    0  0.00000000000E+00  0.00000000000E+00  0.86634909790E+03  0.22691805442E+04  0.20972886265E+04 0.  0.
        2    1    3    3  502    0  0.24265370593E+03 -0.35841698466E+03  0.14666076932E+04  0.15291441011E+04  0.25500000920E-02 0. -1.
       -2    1    3    3    0  502 -0.24265370593E+03  0.35841698466E+03 -0.60025859535E+03  0.74003644315E+03  0.25500000920E-02 0.  1.
</event>
<event>
 5   0  0.5506332E-05  0.2102380E+04  0.7818609E-02  0.8560196E-01
        2   -1    0    0  501    0  0.00000000000E+00  0.00000000000E+00  0.23953264322E+04  0.23953264322E+04  0.25500000920E-02 0.  1.
       -2   -1    0    0    0  501  0.00000000000E+00  0.00000000000E+00 -0.46131512265E+03  0.46131512266E+03  0.25500000920E-02 0. -1.
    10030    2    1    2    0    0  0.00000000000E+00  0.00000000000E+00  0.19340113096E+04  0.28566415549E+04  0.21023798961E+04 0.  0.
        3    1    3    3  502    0 -0.39230842223E+03 -0.19955424534E+03  0.22640914019E+04  0.23064773317E+04  0.10100000352E+00 0.  1.
       -3    1    3    3    0  502  0.39230842223E+03  0.19955424534E+03 -0.33008009233E+03  0.55016422325E+03  0.10100000352E+00 0. -1.
</event>
<event>
 5   0  0.5866610E-05  0.2103177E+04  0.7818609E-02  0.8559845E-01
        2   -1    0    0  501    0  0.00000000000E+00  0.00000000000E+00  0.12771876674E+04  0.12771876674E+04  0.25500000920E-02 0.  1.
       -2   -1    0    0    0  501  0.00000000000E+00  0.00000000000E+00 -0.86583828890E+03  0.86583828890E+03  0.25500000920E-02 0. -1.
    10030    2    1    2    0    0  0.00000000000E+00  0.00000000000E+00  0.41134937851E+03  0.21430259563E+04  0.21031766303E+04 0.  0.
        5    1    3    3  502    0 -0.31910042746E+03 -0.76975718440E+02 -0.81228649116E+03  0.87611744518E+03  0.46999998093E+01 0. -1.
       -5    1    3    3    0  502  0.31910042746E+03  0.76975718440E+02  0.12236358697E+04  0.12669085111E+04  0.46999998093E+01 0.  1.
</event>
<event>
 5   0  0.2604390E-05  0.2091161E+04  0.7818609E-02  0.8565147E-01
       -1   -1    0    0    0  501  0.00000000000E+00  0.00000000000E+00  0.49684081050E+03  0.49684081053E+03  0.50400001928E-02 0. -1.
        1   -1    0    0  501    0  0.00000000000E+00  0.00000000000E+00 -0.22003797474E+04  0.22003797474E+04  0.50400001928E-02 0.  1.
    10030    2    1    2    0    0  0.00000000000E+00  0.00000000000E+00 -0.17035389369E+04  0.26972205580E+04  0.20911608806E+04 0.  0.
        5    1    3    3  502    0  0.71698636803E+01 -0.54351794207E+03 -0.20037981577E+04  0.20762206788E+04  0.46999998093E+01 0.  1.
       -5    1    3    3    0  502 -0.71698636803E+01  0.54351794207E+03  0.30025922075E+03  0.62099987918E+03  0.46999998093E+01 0. -1.
</event>
<event>
 5   0  0.2732159E-05  0.2116188E+04  0.7818609E-02  0.8554146E-01
       -1   -1    0    0    0  501  0.00000000000E+00  0.00000000000E+00  0.17578520973E+04  0.17578520973E+04  0.50400001928E-02 0.  1.
        1   -1    0    0  501    0  0.00000000000E+00  0.00000000000E+00 -0.63689264619E+03  0.63689264621E+03  0.50400001928E-02 0. -1.
    10030    2    1    2    0    0  0.00000000000E+00  0.00000000000E+00  0.11209594511E+04  0.23947447435E+04  0.21161881522E+04 0.  0.
        3    1    3    3  502    0 -0.19187665402E+03  0.64863016941E+02  0.17357098570E+04  0.17474875047E+04  0.10100000352E+00 0.  1.
       -3    1    3    3    0  502  0.19187665402E+03 -0.64863016941E+02 -0.61475040592E+03  0.64725723874E+03  0.10100000352E+00 0. -1.
</event>
<event>
 5   0  0.5506332E-05  0.2125615E+04  0.7818609E-02  0.8550043E-01
        2   -1    0    0  501    0  0.00000000000E+00  0.00000000000E+00  0.18941218742E+04  0.18941218742E+04  0.25500000920E-02 0.  1.
       -2   -1    0    0    0  501  0.00000000000E+00  0.00000000000E+00 -0.59635017785E+03  0.59635017786E+03  0.25500000920E-02 0. -1.
    10030    2    1    2    0    0  0.00000000000E+00  0.00000000000E+00  0.12977716963E+04  0.24904720520E+04  0.21256151265E+04 0.  0.
        3    1    3    3  502    0  0.19670214242E+03 -0.23220451147E+03  0.18419829450E+04  0.18669525564E+04  0.10100000352E+00 0.  1.
       -3    1    3    3    0  502 -0.19670214242E+03  0.23220451147E+03 -0.54421124871E+03  0.62351949560E+03  0.10100000352E+00 0. -1.
</event>
<event>
 5   0  0.5462851E-05  0.2087266E+04  0.7818609E-02  0.8566873E-01
       -2   -1    0    0    0  501  0.00000000000E+00  0.00000000000E+00  0.78389838315E+03  0.78389838315E+03  0.25500000920E-02 0.  1.
        2   -1    0    0  501    0  0.00000000000E+00  0.00000000000E+00 -0.13894277922E+04  0.13894277922E+04  0.25500000920E-02 0. -1.
    10030    2    1    2    0    0  0.00000000000E+00  0.00000000000E+00 -0.60552940902E+03  0.21733261753E+04  0.20872663460E+04 0.  0.
        1    1    3    3  502    0  0.28287839448E+03 -0.48454445526E+03 -0.12190281695E+04  0.13419512633E+04  0.50400001928E-02 0. -1.
       -1    1    3    3    0  502 -0.28287839448E+03  0.48454445526E+03  0.61349876044E+03  0.83137491199E+03  0.50400001928E-02 0.  1.
</event>
<event>
 5   0  0.5462851E-05  0.2104954E+04  0.7818609E-02  0.8559064E-01
       -2   -1    0    0    0  501  0.00000000000E+00  0.00000000000E+00  0.82069243350E+03  0.82069243350E+03  0.25500000920E-02 0. -1.
        2   -1    0    0  501    0  0.00000000000E+00  0.00000000000E+00 -0.13497237833E+04  0.13497237833E+04  0.25500000920E-02 0.  1.
    10030    2    1    2    0    0  0.00000000000E+00  0.00000000000E+00 -0.52903134983E+03  0.21704162168E+04  0.21049542478E+04 0.  0.
        1    1    3    3  502    0  0.27663012788E+03  0.25698123931E+02  0.78220140221E+03  0.83007448754E+03  0.50400001928E-02 0. -1.
       -1    1    3    3    0  502 -0.27663012788E+03 -0.25698123931E+02 -0.13112327520E+04  0.13403417293E+04  0.50400001928E-02 0.  1.
</event>
<event>
 5   0  0.5954140E-05  0.2085093E+04  0.7818609E-02  0.8567839E-01
       -2   -1    0    0    0  501  0.00000000000E+00  0.00000000000E+00  0.79447784427E+03  0.79447784427E+03  0.25500000920E-02 0.  1.
        2   -1    0    0  501    0  0.00000000000E+00  0.00000000000E+00 -0.13680723391E+04  0.13680723391E+04  0.25500000920E-02 0. -1.
    10030    2    1    2    0    0  0.00000000000E+00  0.00000000000E+00 -0.57359449480E+03  0.21625501833E+04  0.20850929598E+04 0.  0.
        2    1    3    3  502    0 -0.10122694240E+04 -0.18059960829E+03 -0.46522758986E+03  0.11286019296E+04  0.25500000920E-02 0. -1.
       -2    1    3    3    0  502  0.10122694240E+04  0.18059960829E+03 -0.10836690494E+03  0.10339482537E+04  0.25500000920E-02 0.  1.
</event>
<event>
 5   0  0.2602060E-05  0.2055665E+04  0.7818609E-02  0.8581029E-01
        1   -1    0    0  501    0  0.00000000000E+00  0.00000000000E+00  0.17880889133E+04  0.17880889133E+04  0.50400001928E-02 0.  1.
       -1   -1    0    0    0  501  0.00000000000E+00  0.00000000000E+00 -0.59082061412E+03  0.59082061414E+03  0.50400001928E-02 0. -1.
    10030    2    1    2    0    0  0.00000000000E+00  0.00000000000E+00  0.11972682992E+04  0.23789095275E+04  0.20556651380E+04 0.  0.
        1    1    3    3  502    0 -0.22359532187E+03  0.72714480120E+03 -0.20121044105E+03  0.78690537645E+03  0.50400001928E-02 0. -1.
       -1    1    3    3    0  502  0.22359532187E+03 -0.72714480120E+03  0.13984787403E+04  0.15920041510E+04  0.50400001928E-02 0.  1.
</event>
<event>
 5   0  0.5462851E-05  0.2113809E+04  0.7818609E-02  0.8555185E-01
       -2   -1    0    0    0  501  0.00000000000E+00  0.00000000000E+00  0.62939684933E+03  0.62939684934E+03  0.25500000920E-02 0. -1.
        2   -1    0    0  501    0  0.00000000000E+00  0.00000000000E+00 -0.17747903175E+04  0.17747903175E+04  0.25500000920E-02 0.  1.
    10030    2    1    2    0    0  0.00000000000E+00  0.00000000000E+00 -0.11453934682E+04  0.24041871668E+04  0.21138092951E+04 0.  0.
        1    1    3    3  502    0  0.94073633256E+03  0.26234097058E+03 -0.10322284604E+04  0.14210218952E+04  0.50400001928E-02 0.  1.
       -1    1    3    3    0  502 -0.94073633256E+03 -0.26234097058E+03 -0.11316500773E+03  0.98316527158E+03  0.50400001928E-02 0. -1.
</event>
<event>
 5   0  0.5967046E-05  0.2089524E+04  0.7818609E-02  0.8565872E-01
       -2   -1    0    0    0  501  0.00000000000E+00  0.00000000000E+00  0.75587695746E+03  0.75587695746E+03  0.25500000920E-02 0. -1.
        2   -1    0    0  501    0  0.00000000000E+00  0.00000000000E+00 -0.14440548029E+04  0.14440548029E+04  0.25500000920E-02 0.  1.
    10030    2    1    2    0    0  0.00000000000E+00  0.00000000000E+00 -0.68817784549E+03  0.21999317604E+04  0.20895241093E+04 0.  0.
        4    1    3    3  502    0 -0.35471172470E+03 -0.79318935433E+03  0.26669941494E+03  0.90890040724E+03  0.12699999809E+01 0. -1.
       -4    1    3    3    0  502  0.35471172470E+03  0.79318935433E+03 -0.95487726043E+03  0.12910313532E+04  0.12699999809E+01 0.  1.
</event>
<event>
 5   0  0.5506332E-05  0.2092596E+04  0.7818609E-02  0.8564512E-01
       -2   -1    0    0    0  501  0.00000000000E+00  0.00000000000E+00  0.85147363318E+03  0.85147363318E+03  0.25500000920E-02 0. -1.
        2   -1    0    0  501    0  0.00000000000E+00  0.00000000000E+00 -0.12857002023E+04  0.12857002023E+04  0.25500000920E-02 0.  1.
    10030    2    1    2    0    0  0.00000000000E+00  0.00000000000E+00 -0.43422656911E+03  0.21371738355E+04  0.20925963036E+04 0.  0.
        3    1    3    3  502    0  0.29892598275E+03  0.10008933009E+03 -0.12360462665E+04  0.12756116181E+04  0.10100000352E+00 0.  1.
       -3    1    3    3    0  502 -0.29892598275E+03 -0.10008933009E+03  0.80181969735E+03  0.86156221738E+03  0.10100000352E+00 0. -1.
</event>
<event>
 5   0  0.2604390E-05  0.2110528E+04  0.7818609E-02  0.8556620E-01
        1   -1    0    0  501    0  0.00000000000E+00  0.00000000000E+00  0.11599346995E+04  0.11599346995E+04  0.50400001928E-02 0. -1.
       -1   -1    0    0    0  501  0.00000000000E+00  0.00000000000E+00 -0.96003830173E+03  0.96003830174E+03  0.50400001928E-02 0.  1.
    10030    2    1    2    0    0  0.00000000000E+00  0.00000000000E+00  0.19989639777E+03  0.21199730013E+04  0.21105276488E+04 0.  0.
        5    1    3    3  502    0 -0.61483870319E+03  0.81795326703E+03 -0.15905352766E+03  0.10355647216E+04  0.46999998093E+01 0.  1.
       -5    1    3    3    0  502  0.61483870319E+03 -0.81795326703E+03  0.35894992543E+03  0.10844082796E+04  0.46999998093E+01 0. -1.
</event>
<event>
 5   0  0.2699285E-05  0.2085787E+04  0.7818609E-02  0.8567530E-01
       -1   -1    0    0    0  501  0.00000000000E+00  0.00000000000E+00  0.97719904834E+03  0.97719904835E+03  0.50400001928E-02 0. -1.
        1   -1    0    0  501    0  0.00000000000E+00  0.00000000000E+00 -0.11130047110E+04  0.11130047110E+04  0.50400001928E-02 0.  1.
    10030    2    1    2    0    0  0.00000000000E+00  0.00000000000E+00 -0.13580566265E+03  0.20902037593E+04  0.20857872800E+04 0.  0.
        2    1    3    3  502    0  0.45125563634E+03 -0.47177092042E+03  0.74710127560E+03  0.99214906476E+03  0.25500000920E-02 0. -1.
       -2    1    3    3    0  502 -0.45125563634E+03  0.47177092042E+03 -0.88290693825E+03  0.10980546946E+04  0.25500000920E-02 0.  1.
</event>
<event>
 5   0  0.5462851E-05  0.2054302E+04  0.7818609E-02  0.8581645E-01
       -2   -1    0    0    0  501  0.00000000000E+00  0.00000000000E+00  0.81999199684E+03  0.81999199684E+03  0.25500000920E-02 0. -1.
        2   -1    0    0  501    0  0.00000000000E+00  0.00000000000E+00 -0.12866454907E+04  0.12866454907E+04  0.25500000920E-02 0.  1.
    10030    2    1    2    0    0  0.00000000000E+00  0.00000000000E+00 -0.46665349386E+03  0.21066374875E+04  0.20543018329E+04 0.  0.
        1    1    3    3  502    0 -0.96065245260E+02  0.10223917148E+04 -0.20981547868E+03  0.10481106263E+04  0.50400001928E-02 0.  1.
       -1    1    3    3    0  502  0.96065245260E+02 -0.10223917148E+04 -0.25683801519E+03  0.10585268612E+04  0.50400001928E-02 0. -1.
</event>
<event>
 5   0  0.5967046E-05  0.2102593E+04  0.7818609E-02  0.8560102E-01
       -2   -1    0    0    0  501  0.00000000000E+00  0.00000000000E+00  0.77429117951E+03  0.77429117952E+03  0.25500000920E-02 0.  1.
        2   -1    0    0  501    0  0.00000000000E+00  0.00000000000E+00 -0.14274009895E+04  0.14274009895E+04  0.25500000920E-02 0. -1.
    10030    2    1    2    0    0  0.00000000000E+00  0.00000000000E+00 -0.65310980995E+03  0.22016921690E+04  0.21025926812E+04 0.  0.
        4    1    3    3  502    0  0.49198803413E+03 -0.57146688903E+02  0.64446143520E+03  0.81280386572E+03  0.12699999809E+01 0.  1.
       -4    1    3    3    0  502 -0.49198803413E+03  0.57146688903E+02 -0.12975712452E+04  0.13888883033E+04  0.12699999809E+01 0. -1.
</event>
<event>
 5   0  0.5506332E-05  0.2113156E+04  0.7818609E-02  0.8555470E-01
        2   -1    0    0  501    0  0.00000000000E+00  0.00000000000E+00  0.15599875813E+04  0.15599875813E+04  0.25500000920E-02 0.  1.
       -2   -1    0    0    0  501  0.00000000000E+00  0.00000000000E+00 -0.71561948962E+03  0.71561948963E+03  0.25500000920E-02 0. -1.
    10030    2    1    2    0    0  0.00000000000E+00  0.00000000000E+00  0.84436809172E+03  0.22756070710E+04  0.21131564228E+04 0.  0.
        3    1    3    3  502    0  0.52663646352E+03 -0.45392570035E+03  0.12789353823E+04  0.14557026580E+04  0.10100000352E+00 0.  1.
       -3    1    3    3    0  502 -0.52663646352E+03  0.45392570035E+03 -0.43456729061E+03  0.81990441297E+03  0.10100000352E+00 0. -1.
</event>
<event>
 5   0  0.2732159E-05  0.2136376E+04  0.7818609E-02  0.8545386E-01
       -1   -1    0    0    0  501  0.00000000000E+00  0.00000000000E+00  0.60103137534E+03  0.60103137536E+03  0.50400001928E-02 0.  1.
        1   -1    0    0  501    0  0.00000000000E+00  0.00000000000E+00 -0.18984468738E+04  0.18984468738E+04  0.50400001928E-02 0. -1.
    10030    2    1    2    0    0  0.00000000000E+00  0.00000000000E+00 -0.12974154985E+04  0.24994782492E+04  0.21363764983E+04 0.  0.
        3    1    3    3  502    0 -0.17010354227E+03  0.37961266370E+03  0.50237332724E+03  0.65224225534E+03  0.10100000352E+00 0.  1.
       -3    1    3    3    0  502  0.17010354227E+03 -0.37961266370E+03 -0.17997888257E+04  0.18472359938E+04  0.10100000352E+00 0. -1.
</event>
<event>
 5   0  0.5954140E-05  0.2086503E+04  0.7818609E-02  0.8567212E-01
       -2   -1    0    0    0  501  0.00000000000E+00  0.00000000000E+00  0.66032397258E+03  0.66032397259E+03  0.25500000920E-02 0.  1.
        2   -1    0    0  501    0  0.00000000000E+00  0.00000000000E+00 -0.16482415163E+04  0.16482415163E+04  0.25500000920E-02 0. -1.
    10030    2    1    2    0    0  0.00000000000E+00  0.00000000000E+00 -0.98791754374E+03  0.23085654889E+04  0.20865027063E+04 0.  0.
        2    1    3    3  502    0  0.98909202711E+03  0.33032876877E+03 -0.52811950416E+03  0.11689013407E+04  0.25500000920E-02 0. -1.
       -2    1    3    3    0  502 -0.98909202711E+03 -0.33032876877E+03 -0.45979803958E+03  0.11396641482E+04  0.25500000920E-02 0.  1.
</event>
<event>
 5   0  0.2602060E-05  0.2100924E+04  0.7818609E-02  0.8560836E-01
       -1   -1    0    0    0  501  0.00000000000E+00  0.00000000000E+00  0.13486486086E+04  0.13486486086E+04  0.50400001928E-02 0. -1.
        1   -1    0    0  501    0  0.00000000000E+00  0.00000000000E+00 -0.81820477366E+03  0.81820477368E+03  0.50400001928E-02 0.  1.
    10030    2    1    2    0    0  0.00000000000E+00  0.00000000000E+00  0.53044383493E+03  0.21668533823E+04  0.21009243009E+04 0.  0.
        1    1    3    3  502    0  0.16096066087E+03 -0.20792692210E+03 -0.78371272411E+03  0.82664839759E+03  0.50400001928E-02 0.  1.
       -1    1    3    3    0  502 -0.16096066087E+03  0.20792692210E+03  0.13141565590E+04  0.13402049847E+04  0.50400001928E-02 0. -1.
</event>
<event>
 5   0  0.2699285E-05  0.2093892E+04  0.7818609E-02  0.8563939E-01
        1   -1    0    0  501    0  0.00000000000E+00  0.00000000000E+00  0.29310623394E+04  0.29310623394E+04  0.50400001928E-02 0. -1.
       -1   -1    0    0    0  501  0.00000000000E+00  0.00000000000E+00 -0.37395844008E+03  0.37395844011E+03  0.50400001928E-02 0.  1.
    10030    2    1    2    0    0  0.00000000000E+00  0.00000000000E+00  0.25571038993E+04  0.33050207795E+04  0.20938915925E+04 0.  0.
        2    1    3    3  502    0 -0.79265191185E+03 -0.68025913254E+03  0.13906742196E+04  0.17392597063E+04  0.25500000920E-02 0.  1.
       -2    1    3    3    0  502  0.79265191185E+03  0.68025913254E+03  0.11664296797E+04  0.15657610733E+04  0.25500000920E-02 0. -1.
</event>
<event>
 5   0  0.5866610E-05  0.2067316E+04  0.7818609E-02  0.8575779E-01
        2   -1    0    0  501    0  0.00000000000E+00  0.00000000000E+00  0.17095277911E+04  0.17095277911E+04  0.25500000920E-02 0.  1.
       -2   -1    0    0    0  501  0.00000000000E+00  0.00000000000E+00 -0.62499655646E+03  0.62499655647E+03  0.25500000920E-02 0. -1.
    10030    2    1    2    0    0  0.00000000000E+00  0.00000000000E+00  0.10845312347E+04  0.23345243476E+04  0.20673161177E+04 0.  0.
        5    1    3    3  502    0 -0.85999551346E+03 -0.80252681008E+01 -0.10523135651E+03  0.86645970275E+03  0.46999998093E+01 0. -1.
       -5    1    3    3    0  502  0.85999551346E+03  0.80252681008E+01  0.11897625912E+04  0.14680646449E+04  0.46999998093E+01 0.  1.
</event>
<event>
 5   0  0.2602060E-05  0.2110888E+04  0.7818609E-02  0.8556462E-01
        1   -1    0    0  501    0  0.00000000000E+00  0.00000000000E+00  0.27645597336E+04  0.27645597336E+04  0.50400001928E-02 0. -1.
       -1   -1    0    0    0  501  0.00000000000E+00  0.00000000000E+00 -0.40294362686E+03  0.40294362689E+03  0.50400001928E-02 0.  1.
    10030    2    1    2    0    0  0.00000000000E+00  0.00000000000E+00  0.23616161067E+04  0.31675033605E+04  0.21108877050E+04 0.  0.
        1    1    3    3  502    0 -0.25803630972E+03 -0.10129656804E+04  0.96191455810E+03  0.14205498316E+04  0.50400001928E-02 0.  1.
       -1    1    3    3    0  502  0.25803630972E+03  0.10129656804E+04  0.13997015486E+04  0.17469535289E+04  0.50400001928E-02 0. -1.
</event>
<event>
 5   0  0.5967046E-05  0.2057323E+04  0.7818609E-02  0.8580279E-01
       -2   -1    0    0    0  501  0.00000000000E+00  0.00000000000E+00  0.79710145132E+03  0.79710145132E+03  0.25500000920E-02 0. -1.
        2   -1    0    0  501    0  0.00000000000E+00  0.00000000000E+00 -0.13274909343E+04  0.13274909343E+04  0.25500000920E-02 0.  1.
    10030    2    1    2    0    0  0.00000000000E+00  0.00000000000E+00 -0.53038948301E+03  0.21245923856E+04  0.20573234557E+04 0.  0.
        4    1    3    3  502    0  0.40843215186E+03  0.35849957357E+03 -0.11671389753E+04  0.12874602003E+04  0.12699999809E+01 0.  1.
       -4    1    3    3    0  502 -0.40843215186E+03 -0.35849957357E+03  0.63674949225E+03  0.83713218533E+03  0.12699999809E+01 0. -1.
</event>
<event>
 5   0  0.2017750E-05  0.2057905E+04  0.7818609E-02  0.8580017E-01
        3   -1    0    0  501    0  0.00000000000E+00  0.00000000000E+00  0.19124821228E+04  0.19124821255E+04  0.10100000352E+00 0. -1.
       -3   -1    0    0    0  501  0.00000000000E+00  0.00000000000E+00 -0.55359628486E+03  0.55359629408E+03  0.10100000352E+00 0.  1.
    10030    2    1    2    0    0  0.00000000000E+00  0.00000000000E+00  0.13588858380E+04  0.24660784196E+04  0.20579047721E+04 0.  0.
        3    1    3    3  502    0 -0.96357506873E+03  0.11250437677E+03  0.10904048740E+04  0.14594920169E+04  0.10100000352E+00 0. -1.
       -3    1    3    3    0  502  0.96357506873E+03 -0.11250437677E+03  0.26848096397E+03  0.10065864027E+04  0.10100000352E+00 0.  1.
</event>
<event>
 5   0  0.5506332E-05  0.2010235E+04  0.7818609E-02  0.8601850E-01
       -2   -1    0    0    0  501  0.00000000000E+00  0.00000000000E+00  0.40179617073E+03  0.40179617074E+03  0.25500000920E-02 0.  1.
        2   -1    0    0  501    0  0.00000000000E+00  0.00000000000E+00 -0.25143625904E+04  0.25143625904E+04  0.25500000920E-02 0. -1.
    10030    2    1    2    0    0  0.00000000000E+00  0.00000000000E+00 -0.21125664197E+04  0.29161587612E+04  0.20102350715E+04 0.  0.
        3    1    3    3  502    0 -0.55599720766E+03  0.49828035628E+03 -0.20324839377E+04  0.21652730025E+04  0.10100000352E+00 0. -1.
       -3    1    3    3    0  502  0.55599720766E+03 -0.49828035628E+03 -0.80082482023E+02  0.75088575863E+03  0.10100000352E+00 0.  1.
</event>
<event>
 5   0  0.5506332E-05  0.2045355E+04  0.7818609E-02  0.8585704E-01
       -2   -1    0    0    0  501  0.00000000000E+00  0.00000000000E+00  0.75166321165E+03  0.75166321166E+03  0.25500000920E-02 0.  1.
        2   -1    0    0  501    0  0.00000000000E+00  0.00000000000E+00 -0.13914072736E+04  0.13914072736E+04  0.25500000920E-02 0. -1.
    10030    2    1    2    0    0  0.00000000000E+00  0.00000000000E+00 -0.63974406198E+03  0.21430704853E+04  0.20453553823E+04 0.  0.
        3    1    3    3  502    0  0.51783054266E+03 -0.67735007619E+03 -0.91157974256E+03  0.12481703545E+04  0.10100000352E+00 0. -1.
       -3    1    3    3    0  502 -0.51783054266E+03  0.67735007619E+03  0.27183568058E+03  0.89490013078E+03  0.10100000352E+00 0.  1.
</event>
<event>
 5   0  0.2732159E-05  0.2098144E+04  0.7818609E-02  0.8562061E-01
        1   -1    0    0  501    0  0.00000000000E+00  0.00000000000E+00  0.89205022142E+03  0.89205022143E+03  0.50400001928E-02 0. -1.
       -1   -1    0    0    0  501  0.00000000000E+00  0.00000000000E+00 -0.12337338041E+04  0.12337338041E+04  0.50400001928E-02 0.  1.
    10030    2    1    2    0    0  0.00000000000E+00  0.00000000000E+00 -0.34168358268E+03  0.21257840255E+04  0.20981444308E+04 0.  0.
        3    1    3    3  502    0 -0.36017309466E+03 -0.35292839836E+02 -0.11684869263E+04  0.12232464796E+04  0.10100000352E+00 0.  1.
       -3    1    3    3    0  502  0.36017309466E+03  0.35292839836E+02  0.82680334362E+03  0.90253754597E+03  0.10100000352E+00 0. -1.
</event>
<event>
 5   0  0.5954140E-05  0.2103778E+04  0.7818609E-02  0.8559581E-01
        2   -1    0    0  501    0  0.00000000000E+00  0.00000000000E+00  0.81323067917E+03  0.81323067918E+03  0.25500000920E-02 0. -1.
       -2   -1    0    0    0  501  0.00000000000E+00  0.00000000000E+00 -0.13605862461E+04  0.13605862461E+04  0.25500000920E-02 0.  1.
    10030    2    1    2    0    0  0.00000000000E+00  0.00000000000E+00 -0.54735556693E+03  0.21738169253E+04  0.21037780083E+04 0.  0.
        2    1    3    3  502    0  0.97210476721E+03  0.20957748681E+03 -0.62796296131E+03  0.11761155905E+04  0.25500000920E-02 0.  1.
       -2    1    3    3    0  502 -0.97210476721E+03 -0.20957748681E+03  0.80607394378E+02  0.99770133479E+03  0.25500000920E-02 0. -1.
</event>
<event>
 5   0  0.5967046E-05  0.2108011E+04  0.7818609E-02  0.8557723E-01
       -2   -1    0    0    0  501  0.00000000000E+00  0.00000000000E+00  0.60512239663E+03  0.60512239664E+03  0.25500000920E-02 0.  1.
        2   -1    0    0  501    0  0.00000000000E+00  0.00000000000E+00 -0.18358731550E+04  0.18358731550E+04  0.25500000920E-02 0. -1.
    10030    2    1    2    0    0  0.00000000000E+00  0.00000000000E+00 -0.12307507584E+04  0.24409955517E+04  0.21080113505E+04 0.  0.
        4    1    3    3  502    0  0.13753214142E+03  0.56317239237E+02  0.59292803459E+03  0.61127079798E+03  0.12699999809E+01 0.  1.
       -4    1    3    3    0  502 -0.13753214142E+03 -0.56317239237E+02 -0.18236787930E+04  0.18297247537E+04  0.12699999809E+01 0. -1.
</event>
<event>
 5   0  0.5462851E-05  0.2096230E+04  0.7818609E-02  0.8562906E-01
        2   -1    0    0  501    0  0.00000000000E+00  0.00000000000E+00  0.74028208567E+03  0.74028208568E+03  0.25500000920E-02 0.  1.
       -2   -1    0    0    0  501  0.00000000000E+00  0.00000000000E+00 -0.14839547061E+04  0.14839547061E+04  0.25500000920E-02 0. -1.
    10030    2    1    2    0    0  0.00000000000E+00  0.00000000000E+00 -0.74367262040E+03  0.22242367917E+04  0.20962300302E+04 0.  0.
        1    1    3    3  502    0 -0.52672045663E+03 -0.86664122921E+03 -0.65265524639E+03  0.12060100871E+04  0.50400001928E-02 0. -1.
       -1    1    3    3    0  502  0.52672045663E+03  0.86664122921E+03 -0.91017374013E+02  0.10182267046E+04  0.50400001928E-02 0.  1.
</event>
<event>
 5   0  0.2789662E-05  0.2094540E+04  0.7818609E-02  0.8563653E-01
        1   -1    0    0  501    0  0.00000000000E+00  0.00000000000E+00  0.20627166659E+04  0.20627166659E+04  0.50400001928E-02 0. -1.
       -1   -1    0    0    0  501  0.00000000000E+00  0.00000000000E+00 -0.53171341528E+03  0.53171341531E+03  0.50400001928E-02 0.  1.
    10030    2    1    2    0    0  0.00000000000E+00  0.00000000000E+00  0.15310032506E+04  0.25944300812E+04  0.20945396852E+04 0.  0.
        4    1    3    3  502    0  0.75665336375E+03  0.26971763728E+03  0.15978066962E+04  0.17883679062E+04  0.12699999809E+01 0. -1.
       -4    1    3    3    0  502 -0.75665336375E+03 -0.26971763728E+03 -0.66803445551E+02  0.80606217500E+03  0.12699999809E+01 0.  1.
</event>
<event>
 5   0  0.2604390E-05  0.2102916E+04  0.7818609E-02  0.8559960E-01
        1   -1    0    0  501    0  0.00000000000E+00  0.00000000000E+00  0.99245295670E+03  0.99245295671E+03  0.50400001928E-02 0.  1.
       -1   -1    0    0    0  501  0.00000000000E+00  0.00000000000E+00 -0.11139711244E+04  0.11139711244E+04  0.50400001928E-02 0. -1.
    10030    2    1    2    0    0  0.00000000000E+00  0.00000000000E+00 -0.12151816769E+03  0.21064240811E+04  0.21029160098E+04 0.  0.
        5    1    3    3  502    0 -0.92685873150E+03 -0.48465271380E+03 -0.16857918494E+03  0.10594321086E+04  0.46999998093E+01 0. -1.
       -5    1    3    3    0  502  0.92685873150E+03  0.48465271380E+03  0.47061017247E+02  0.10469919725E+04  0.46999998093E+01 0.  1.
</event>
<event>
 5   0  0.2602060E-05  0.2118153E+04  0.7818609E-02  0.8553289E-01
       -1   -1    0    0    0  501  0.00000000000E+00  0.00000000000E+00  0.65418548593E+03  0.65418548594E+03  0.50400001928E-02 0.  1.
        1   -1    0    0  501    0  0.00000000000E+00  0.00000000000E+00 -0.17145643255E+04  0.17145643255E+04  0.50400001928E-02 0. -1.
    10030    2    1    2    0    0  0.00000000000E+00  0.00000000000E+00 -0.10603788396E+04  0.23687498114E+04  0.21181530601E+04 0.  0.
        1    1    3    3  502    0  0.95084007807E+03  0.92802291520E+02 -0.10413606335E+04  0.14132024230E+04  0.50400001928E-02 0. -1.
       -1    1    3    3    0  502 -0.95084007807E+03 -0.92802291520E+02 -0.19018206089E+02  0.95554738845E+03  0.50400001928E-02 0.  1.
</event>
<event>
 5   0  0.2789662E-05  0.2116048E+04  0.7818609E-02  0.8554207E-01
        1   -1    0    0  501    0  0.00000000000E+00  0.00000000000E+00  0.12712667173E+04  0.12712667173E+04  0.50400001928E-02 0. -1.
       -1   -1    0    0    0  501  0.00000000000E+00  0.00000000000E+00 -0.88055097811E+03  0.88055097812E+03  0.50400001928E-02 0.  1.
    10030    2    1    2    0    0  0.00000000000E+00  0.00000000000E+00  0.39071573922E+03  0.21518176955E+04  0.21160483467E+04 0.  0.
        4    1    3    3  502    0  0.49168282832E+03 -0.58934799881E+03 -0.54519007186E+03  0.94144404758E+03  0.12699999809E+01 0.  1.
       -4    1    3    3    0  502 -0.49168282832E+03  0.58934799881E+03  0.93590581108E+03  0.12103736479E+04  0.12699999809E+01 0. -1.
</event>
<event>
 5   0  0.2602060E-05  0.2110537E+04  0.7818609E-02  0.8556616E-01
       -1   -1    0    0    0  501  0.00000000000E+00  0.00000000000E+00  0.12854393607E+04  0.12854393607E+04  0.50400001928E-02 0. -1.
        1   -1    0    0  501    0  0.00000000000E+00  0.00000000000E+00 -0.86631174122E+03  0.86631174123E+03  0.50400001928E-02 0.  1.
    10030    2    1    2    0    0  0.00000000000E+00  0.00000000000E+00  0.41912761945E+03  0.21517511019E+04  0.21105366245E+04 0.  0.
        1    1    3    3  502    0 -0.31958263288E+03  0.91400506298E+03 -0.21821643864E+03  0.99255061760E+03  0.50400001928E-02 0.  1.
       -1    1    3    3    0  502  0.31958263288E+03 -0.91400506298E+03  0.63734405808E+03  0.11592004843E+04  0.50400001928E-02 0. -1.
</event>
<event>
 5   0  0.5954140E-05  0.2074409E+04  0.7818609E-02  0.8572601E-01
        2   -1    0    0  501    0  0.00000000000E+00  0.00000000000E+00  0.24606132701E+04  0.24606132701E+04  0.25500000920E-02 0.  1.
       -2   -1    0    0    0  501  0.00000000000E+00  0.00000000000E+00 -0.43720545980E+03  0.43720545981E+03  0.25500000920E-02 0. -1.
    10030    2    1    2    0    0  0.00000000000E+00  0.00000000000E+00  0.20234078103E+04  0.28978187299E+04  0.20744093677E+04 0.  0.
        2    1    3    3  502    0 -0.54482544125E+03 -0.78950210842E+03  0.46058585180E+03  0.10640900655E+04  0.25500000920E-02 0. -1.
       -2    1    3    3    0  502  0.54482544125E+03  0.78950210842E+03  0.15628219585E+04  0.18337286644E+04  0.25500000920E-02 0.  1.
</event>
<event>
 5   0  0.2789662E-05  0.2089070E+04  0.7818609E-02  0.8566073E-01
       -1   -1    0    0    0  501  0.00000000000E+00  0.00000000000E+00  0.19420789220E+04  0.19420789220E+04  0.50400001928E-02 0.  1.
        1   -1    0    0  501    0  0.00000000000E+00  0.00000000000E+00 -0.56179674497E+03  0.56179674499E+03  0.50400001928E-02 0. -1.
    10030    2    1    2    0    0  0.00000000000E+00  0.00000000000E+00  0.13802821770E+04  0.25038756670E+04  0.20890702400E+04 0.  0.
        4    1    3    3  502    0  0.19290416900E+03  0.92323496787E+03  0.12281291629E+04  0.15485082105E+04  0.12699999809E+01 0.  1.
       -4    1    3    3    0  502 -0.19290416900E+03 -0.92323496787E+03  0.15215301412E+03  0.95536745649E+03  0.12699999809E+01 0. -1.
</event>
<event>
 5   0  0.5967046E-05  0.2105023E+04  0.7818609E-02  0.8559034E-01
        2   -1    0    0  501    0  0.00000000000E+00  0.00000000000E+00  0.12097530654E+04  0.12097530654E+04  0.25500000920E-02 0. -1.
       -2   -1    0    0    0  501  0.00000000000E+00  0.00000000000E+00 -0.91570776821E+03  0.91570776821E+03  0.25500000920E-02 0.  1.
    10030    2    1    2    0    0  0.00000000000E+00  0.00000000000E+00  0.29404529719E+03  0.21254608336E+04  0.21050228309E+04 0.  0.
        4    1    3    3  502    0 -0.12173930220E+02 -0.15759178287E+03 -0.90365495636E+03  0.91737520549E+03  0.12699999809E+01 0.  1.
       -4    1    3    3    0  502  0.12173930220E+02  0.15759178287E+03  0.11977002536E+04  0.12080856281E+04  0.12699999809E+01 0. -1.
</event>
<event>
 5   0  0.2602060E-05  0.2112987E+04  0.7818609E-02  0.8555544E-01
        1   -1    0    0  501    0  0.00000000000E+00  0.00000000000E+00  0.12158729781E+04  0.12158729781E+04  0.50400001928E-02 0.  1.
       -1   -1    0    0    0  501  0.00000000000E+00  0.00000000000E+00 -0.91800608380E+03  0.91800608381E+03  0.50400001928E-02 0. -1.
    10030    2    1    2    0    0  0.00000000000E+00  0.00000000000E+00  0.29786689429E+03  0.21338790619E+04  0.21129872608E+04 0.  0.
        1    1    3    3  502    0 -0.89721685218E+02  0.94141685890E+03  0.62461407997E+03  0.11333395043E+04  0.50400001928E-02 0.  1.
       -1    1    3    3    0  502  0.89721685218E+02 -0.94141685890E+03 -0.32674718569E+03  0.10005395576E+04  0.50400001928E-02 0. -1.
</event>
<event>
 5   0  0.2732159E-05  0.2094585E+04  0.7818609E-02  0.8563633E-01
        1   -1    0    0  501    0  0.00000000000E+00  0.00000000000E+00  0.17088600628E+04  0.17088600628E+04  0.50400001928E-02 0. -1.
       -1   -1    0    0    0  501  0.00000000000E+00  0.00000000000E+00 -0.64184395942E+03  0.64184395944E+03  0.50400001928E-02 0.  1.
    10030    2    1    2    0    0  0.00000000000E+00  0.00000000000E+00  0.10670161033E+04  0.23507040222E+04  0.20945849315E+04 0.  0.
        3    1    3    3  502    0  0.62836463158E+03  0.33811840423E+03 -0.32681451829E+03  0.78484005063E+03  0.10100000352E+00 0.  1.
       -3    1    3    3    0  502 -0.62836463158E+03 -0.33811840423E+03  0.13938306216E+04  0.15658639716E+04  0.10100000352E+00 0. -1.
</event>
<event>
 5   0  0.5954140E-05  0.2097521E+04  0.7818609E-02  0.8562336E-01
       -2   -1    0    0    0  501  0.00000000000E+00  0.00000000000E+00  0.33709647118E+03  0.33709647119E+03  0.25500000920E-02 0.  1.
        2   -1    0    0  501    0  0.00000000000E+00  0.00000000000E+00 -0.32628586368E+04  0.32628586368E+04  0.25500000920E-02 0. -1.
    10030    2    1    2    0    0  0.00000000000E+00  0.00000000000E+00 -0.29257621656E+04  0.35999551080E+04  0.20975205672E+04 0.  0.
        2    1    3    3  502    0 -0.65371613381E+03 -0.23938312027E+03 -0.11666014693E+03  0.70587438809E+03  0.25500000920E-02 0.  1.
       -2    1    3    3    0  502  0.65371613381E+03  0.23938312027E+03 -0.28091020187E+04  0.28940807199E+04  0.25500000920E-02 0. -1.
</event>
<event>
 5   0  0.5506332E-05  0.2099936E+04  0.7818609E-02  0.8561272E-01
        2   -1    0    0  501    0  0.00000000000E+00  0.00000000000E+00  0.95820989006E+03  0.95820989007E+03  0.25500000920E-02 0. -1.
       -2   -1    0    0    0  501  0.00000000000E+00  0.00000000000E+00 -0.11505129011E+04  0.11505129011E+04  0.25500000920E-02 0.  1.
    10030    2    1    2    0    0  0.00000000000E+00  0.00000000000E+00 -0.19230301099E+03  0.21087227911E+04  0.20999360375E+04 0.  0.
        3    1    3    3  502    0  0.27228064222E+03  0.92488544696E+03 -0.51368330808E+03  0.10924378194E+04  0.10100000352E+00 0. -1.
       -3    1    3    3    0  502 -0.27228064222E+03 -0.92488544696E+03  0.32138029709E+03  0.10162849717E+04  0.10100000352E+00 0.  1.
</event>
<event>
 5   0  0.5866610E-05  0.2091440E+04  0.7818609E-02  0.8565024E-01
        2   -1    0    0  501    0  0.00000000000E+00  0.00000000000E+00  0.11639396371E+04  0.11639396371E+04  0.25500000920E-02 0.  1.
       -2   -1    0    0    0  501  0.00000000000E+00  0.00000000000E+00 -0.93950757210E+03  0.93950757210E+03  0.25500000920E-02 0. -1.
    10030    2    1    2    0    0  0.00000000000E+00  0.00000000000E+00  0.22443206499E+03  0.21034472092E+04  0.20914397936E+04 0.  0.
        5    1    3    3  502    0  0.45033285307E+03  0.53132113028E+03 -0.67226611002E+03  0.96802150529E+03  0.46999998093E+01 0. -1.
       -5    1    3    3    0  502 -0.45033285307E+03 -0.53132113028E+03  0.89669817501E+03  0.11354257039E+04  0.46999998093E+01 0.  1.
</event>
<event>
 5   0  0.2789662E-05  0.2135329E+04  0.7818609E-02  0.8545839E-01
        1   -1    0    0  501    0  0.00000000000E+00  0.00000000000E+00  0.16270013918E+04  0.16270013918E+04  0.50400001928E-02 0.  1.
       -1   -1    0    0    0  501  0.00000000000E+00  0.00000000000E+00 -0.70061840372E+03  0.70061840374E+03  0.50400001928E-02 0. -1.
    10030    2    1    2    0    0  0.00000000000E+00  0.00000000000E+00  0.92638298811E+03  0.23276197956E+04  0.21353286567E+04 0.  0.
        4    1    3    3  502    0 -0.73264847300E+03  0.13239069687E+03 -0.37096875062E+03  0.83181759325E+03  0.12699999809E+01 0. -1.
       -4    1    3    3    0  502  0.73264847300E+03 -0.13239069687E+03  0.12973517387E+04  0.14958022023E+04  0.12699999809E+01 0.  1.
</event>
<event>
 5   0  0.2602060E-05  0.2100900E+04  0.7818609E-02  0.8560847E-01
       -1   -1    0    0    0  501  0.00000000000E+00  0.00000000000E+00  0.96667049437E+03  0.96667049438E+03  0.50400001928E-02 0.  1.
        1   -1    0    0  501    0  0.00000000000E+00  0.00000000000E+00 -0.11414906055E+04  0.11414906055E+04  0.50400001928E-02 0. -1.
    10030    2    1    2    0    0  0.00000000000E+00  0.00000000000E+00 -0.17482011113E+03  0.21081610999E+04  0.21009000814E+04 0.  0.
        1    1    3    3  502    0 -0.12931351706E+01 -0.86306186299E+03  0.51346484442E+03  0.10042527560E+04  0.50400001928E-02 0.  1.
       -1    1    3    3    0  502  0.12931351706E+01  0.86306186299E+03 -0.68828495556E+03  0.11039083438E+04  0.50400001928E-02 0. -1.
</event>
<event>
 5   0  0.2604390E-05  0.2100249E+04  0.7818609E-02  0.8561134E-01
       -1   -1    0    0    0  501  0.00000000000E+00  0.00000000000E+00  0.16925894351E+04  0.16925894351E+04  0.50400001928E-02 0.  1.
        1   -1    0    0  501    0  0.00000000000E+00  0.00000000000E+00 -0.65152315248E+03  0.65152315250E+03  0.50400001928E-02 0. -1.
    10030    2    1    2    0    0  0.00000000000E+00  0.00000000000E+00  0.10410662826E+04  0.23441125876E+04  0.21002487516E+04 0.  0.
        5    1    3    3  502    0  0.61527381861E+03  0.50491972316E+03  0.12850765555E+04  0.15116049888E+04  0.46999998093E+01 0.  1.
       -5    1    3    3    0  502 -0.61527381861E+03 -0.50491972316E+03 -0.24401027291E+03  0.83250759876E+03  0.46999998093E+01 0. -1.
</event>
<event>
 5   0  0.5506332E-05  0.2093332E+04  0.7818609E-02  0.8564187E-01
       -2   -1    0    0    0  501  0.00000000000E+00  0.00000000000E+00  0.89375726394E+03  0.89375726394E+03  0.25500000920E-02 0.  1.
        2   -1    0    0  501    0  0.00000000000E+00  0.00000000000E+00 -0.12257345935E+04  0.12257345935E+04  0.25500000920E-02 0. -1.
    10030    2    1    2    0    0  0.00000000000E+00  0.00000000000E+00 -0.33197732957E+03  0.21194918575E+04  0.20933315042E+04 0.  0.
        3    1    3    3  502    0 -0.12507820964E+03 -0.80478763668E+03 -0.83160937013E+03  0.11640025143E+04  0.10100000352E+00 0. -1.
       -3    1    3    3    0  502  0.12507820964E+03  0.80478763668E+03  0.49963204056E+03  0.95548934313E+03  0.10100000352E+00 0.  1.
</event>
<event>
 5   0  0.5954140E-05  0.2070067E+04  0.7818609E-02  0.8574545E-01
       -2   -1    0    0    0  501  0.00000000000E+00  0.00000000000E+00  0.10128401841E+04  0.10128401841E+04  0.25500000920E-02 0.  1.
        2   -1    0    0  501    0  0.00000000000E+00  0.00000000000E+00 -0.10577130167E+04  0.10577130167E+04  0.25500000920E-02 0. -1.
    10030    2    1    2    0    0  0.00000000000E+00  0.00000000000E+00 -0.44872832567E+02  0.20705532008E+04  0.20700669038E+04 0.  0.
        2    1    3    3  502    0  0.21846402572E+03  0.94230124645E+03 -0.39081096927E+03  0.10432599788E+04  0.25500000920E-02 0. -1.
       -2    1    3    3    0  502 -0.21846402572E+03 -0.94230124645E+03  0.34593813670E+03  0.10272932220E+04  0.25500000920E-02 0.  1.
</event>
<event>
 5   0  0.2699285E-05  0.2060573E+04  0.7818609E-02  0.8578813E-01
       -1   -1    0    0    0  501  0.00000000000E+00  0.00000000000E+00  0.93744339481E+03  0.93744339483E+03  0.50400001928E-02 0.  1.
        1   -1    0    0  501    0  0.00000000000E+00  0.00000000000E+00 -0.11323244119E+04  0.11323244119E+04  0.50400001928E-02 0. -1.
    10030    2    1    2    0    0  0.00000000000E+00  0.00000000000E+00 -0.19488101707E+03  0.20697678067E+04  0.20605727755E+04 0.  0.
        2    1    3    3  502    0  0.35441520771E+03  0.24602883731E+03 -0.10372167616E+04  0.11233694578E+04  0.25500000920E-02 0. -1.
       -2    1    3    3    0  502 -0.35441520771E+03 -0.24602883731E+03  0.84233574453E+03  0.94639834888E+03  0.25500000920E-02 0.  1.
</event>
<event>
 5   0  0.2699285E-05  0.2087692E+04  0.7818609E-02  0.8566684E-01
       -1   -1    0    0    0  501  0.00000000000E+00  0.00000000000E+00  0.54008990115E+03  0.54008990117E+03  0.50400001928E-02 0. -1.
        1   -1    0    0  501    0  0.00000000000E+00  0.00000000000E+00 -0.20174692240E+04  0.20174692240E+04  0.50400001928E-02 0.  1.
    10030    2    1    2    0    0  0.00000000000E+00  0.00000000000E+00 -0.14773793229E+04  0.25575591252E+04  0.20876922702E+04 0.  0.
        2    1    3    3  502    0  0.17004156856E+03 -0.92046815356E+03 -0.17271617731E+03  0.95184380791E+03  0.25500000920E-02 0. -1.
       -2    1    3    3    0  502 -0.17004156856E+03  0.92046815356E+03 -0.13046631456E+04  0.16057153173E+04  0.25500000920E-02 0.  1.
</event>
<event>
 5   0  0.5462851E-05  0.2078020E+04  0.7818609E-02  0.8570988E-01
        2   -1    0    0  501    0  0.00000000000E+00  0.00000000000E+00  0.79198496695E+03  0.79198496695E+03  0.25500000920E-02 0. -1.
       -2   -1    0    0    0  501  0.00000000000E+00  0.00000000000E+00 -0.13630833384E+04  0.13630833384E+04  0.25500000920E-02 0.  1.
    10030    2    1    2    0    0  0.00000000000E+00  0.00000000000E+00 -0.57109837146E+03  0.21550683054E+04  0.20780197427E+04 0.  0.
        1    1    3    3  502    0  0.10218258716E+04  0.11684861389E+03 -0.13256771137E+03  0.10369936878E+04  0.50400001928E-02 0.  1.
       -1    1    3    3    0  502 -0.10218258716E+04 -0.11684861389E+03 -0.43853066009E+03  0.11180746175E+04  0.50400001928E-02 0. -1.
</event>
<event>
 5   0  0.2732159E-05  0.2112117E+04  0.7818609E-02  0.8555925E-01
       -1   -1    0    0    0  501  0.00000000000E+00  0.00000000000E+00  0.67106107939E+03  0.67106107941E+03  0.50400001928E-02 0. -1.
        1   -1    0    0  501    0  0.00000000000E+00  0.00000000000E+00 -0.16619337762E+04  0.16619337762E+04  0.50400001928E-02 0.  1.
    10030    2    1    2    0    0  0.00000000000E+00  0.00000000000E+00 -0.99087269677E+03  0.23329948556E+04  0.21121165439E+04 0.  0.
        3    1    3    3  502    0  0.73794912060E+03 -0.66335923871E+03 -0.89468344491E+03  0.13360661888E+04  0.10100000352E+00 0.  1.
       -3    1    3    3    0  502 -0.73794912060E+03  0.66335923871E+03 -0.96189251865E+02  0.99692866674E+03  0.10100000352E+00 0. -1.
</event>
<event>
 5   0  0.5462851E-05  0.2106967E+04  0.7818609E-02  0.8558181E-01
       -2   -1    0    0    0  501  0.00000000000E+00  0.00000000000E+00  0.70442046758E+03  0.70442046758E+03  0.25500000920E-02 0. -1.
        2   -1    0    0  501    0  0.00000000000E+00  0.00000000000E+00 -0.15755186571E+04  0.15755186571E+04  0.25500000920E-02 0.  1.
    10030    2    1    2    0    0  0.00000000000E+00  0.00000000000E+00 -0.87109818954E+03  0.22799391247E+04  0.21069670991E+04 0.  0.
        1    1    3    3  502    0 -0.79186038874E+03  0.10357108216E+03 -0.11790184307E+04  0.14240274942E+04  0.50400001928E-02 0.  1.
       -1    1    3    3    0  502  0.79186038874E+03 -0.10357108216E+03  0.30792024113E+03  0.85591163051E+03  0.50400001928E-02 0. -1.
</event>
<event>
 5   0  0.2699285E-05  0.2104737E+04  0.7818609E-02  0.8559159E-01
       -1   -1    0    0    0  501  0.00000000000E+00  0.00000000000E+00  0.55200813436E+03  0.55200813438E+03  0.50400001928E-02 0. -1.
        1   -1    0    0  501    0  0.00000000000E+00  0.00000000000E+00 -0.20062745619E+04  0.20062745619E+04  0.50400001928E-02 0.  1.
    10030    2    1    2    0    0  0.00000000000E+00  0.00000000000E+00 -0.14542664275E+04  0.25582826962E+04  0.21047373973E+04 0.  0.
        2    1    3    3  502    0  0.44561434655E+03  0.24710568067E+03  0.39207073875E+03  0.64292521140E+03  0.25500000920E-02 0. -1.
       -2    1    3    3    0  502 -0.44561434655E+03 -0.24710568067E+03 -0.18463371662E+04  0.19153574848E+04  0.25500000920E-02 0.  1.
</event>
<event>
 5   0  0.2789662E-05  0.2106029E+04  0.7818609E-02  0.8558592E-01
        1   -1    0    0  501    0  0.00000000000E+00  0.00000000000E+00  0.10980223136E+04  0.10980223136E+04  0.50400001928E-02 0.  1.
       -1   -1    0    0    0  501  0.00000000000E+00  0.00000000000E+00 -0.10098519622E+04  0.10098519622E+04  0.50400001928E-02 0. -1.
    10030    2    1    2    0    0  0.00000000000E+00  0.00000000000E+00  0.88170351355E+02  0.21078742758E+04  0.21060294280E+04 0.  0.
        4    1    3    3  502    0  0.39651878289E+03 -0.46396668215E+03 -0.81477265154E+03  0.10180119419E+04  0.12699999809E+01 0. -1.
       -4    1    3    3    0  502 -0.39651878289E+03  0.46396668215E+03  0.90294300290E+03  0.10898623338E+04  0.12699999809E+01 0.  1.
</event>
<event>
 5   0  0.5967046E-05  0.2100162E+04  0.7818609E-02  0.8561172E-01
       -2   -1    0    0    0  501  0.00000000000E+00  0.00000000000E+00  0.28188485548E+04  0.28188485548E+04  0.25500000920E-02 0. -1.
        2   -1    0    0  501    0  0.00000000000E+00  0.00000000000E+00 -0.39117752261E+03  0.39117752262E+03  0.25500000920E-02 0.  1.
    10030    2    1    2    0    0  0.00000000000E+00  0.00000000000E+00  0.24276710321E+04  0.32100260774E+04  0.21001620835E+04 0.  0.
        4    1    3    3  502    0  0.16375404446E+02  0.53864777173E+03 -0.16370066552E+03  0.56321318934E+03  0.12699999809E+01 0.  1.
       -4    1    3    3    0  502 -0.16375404446E+02 -0.53864777173E+03  0.25913716977E+04  0.26468128880E+04  0.12699999809E+01 0. -1.
</event>
<event>
 5   0  0.5954140E-05  0.2099604E+04  0.7818609E-02  0.8561418E-01
        2   -1    0    0  501    0  0.00000000000E+00  0.00000000000E+00  0.10650426611E+04  0.10650426611E+04  0.25500000920E-02 0. -1.
       -2   -1    0    0    0  501  0.00000000000E+00  0.00000000000E+00 -0.10347796174E+04  0.10347796174E+04  0.25500000920E-02 0.  1.
    10030    2    1    2    0    0  0.00000000000E+00  0.00000000000E+00  0.30263043653E+02  0.20998222785E+04  0.20996041888E+04 0.  0.
        2    1    3    3  502    0  0.39654429128E+03  0.72997683876E+03  0.65704776722E+03  0.10591625600E+04  0.25500000920E-02 0.  1.
       -2    1    3    3    0  502 -0.39654429128E+03 -0.72997683876E+03 -0.62678472357E+03  0.10406597185E+04  0.25500000920E-02 0. -1.
</event>
<event>
 5   0  0.2604390E-05  0.2111053E+04  0.7818609E-02  0.8556390E-01
       -1   -1    0    0    0  501  0.00000000000E+00  0.00000000000E+00  0.12736402890E+04  0.12736402890E+04  0.50400001928E-02 0.  1.
        1   -1    0    0  501    0  0.00000000000E+00  0.00000000000E+00 -0.87476490011E+03  0.87476490013E+03  0.50400001928E-02 0. -1.
    10030    2    1    2    0    0  0.00000000000E+00  0.00000000000E+00  0.39887538885E+03  0.21484051891E+04  0.21110526475E+04 0.  0.
        5    1    3    3  502    0 -0.88194950747E+03 -0.33922894220E+03  0.67808119347E+03  0.11630680994E+04  0.46999998093E+01 0.  1.
       -5    1    3    3    0  502  0.88194950747E+03  0.33922894220E+03 -0.27920580462E+03  0.98533708967E+03  0.46999998093E+01 0. -1.
</event>
<event>
 5   0  0.5866610E-05  0.2095521E+04  0.7818609E-02  0.8563219E-01
       -2   -1    0    0    0  501  0.00000000000E+00  0.00000000000E+00  0.51463637024E+03  0.51463637025E+03  0.25500000920E-02 0.  1.
        2   -1    0    0  501    0  0.00000000000E+00  0.00000000000E+00 -0.21331610359E+04  0.21331610359E+04  0.25500000920E-02 0. -1.
    10030    2    1    2    0    0  0.00000000000E+00  0.00000000000E+00 -0.16185246656E+04  0.26477974061E+04  0.20955211788E+04 0.  0.
        5    1    3    3  502    0 -0.74151791974E+03  0.30261370956E+03  0.44318616372E+02  0.80212848863E+03  0.46999998093E+01 0.  1.
       -5    1    3    3    0  502  0.74151791974E+03 -0.30261370956E+03 -0.16628432820E+04  0.18456689175E+04  0.46999998093E+01 0. -1.
</event>
<event>
 5   0  0.5954140E-05  0.2100877E+04  0.7818609E-02  0.8560857E-01
       -2   -1    0    0    0  501  0.00000000000E+00  0.00000000000E+00  0.95882671059E+03  0.95882671059E+03  0.25500000920E-02 0. -1.
        2   -1    0    0  501    0  0.00000000000E+00  0.00000000000E+00 -0.11508036202E+04  0.11508036202E+04  0.25500000920E-02 0.  1.
    10030    2    1    2    0    0  0.00000000000E+00  0.00000000000E+00 -0.19197690962E+03  0.21096303308E+04  0.21008771975E+04 0.  0.
        2    1    3    3  502    0  0.14936260536E+03 -0.86714063094E+03 -0.67212029620E+03  0.11072433130E+04  0.25500000920E-02 0.  1.
       -2    1    3    3    0  502 -0.14936260536E+03  0.86714063094E+03  0.48014338658E+03  0.10023870178E+04  0.25500000920E-02 0. -1.
</event>
<event>
 5   0  0.2017750E-05  0.2099557E+04  0.7818609E-02  0.8561438E-01
       -4   -1    0    0    0  501  0.00000000000E+00  0.00000000000E+00  0.90700170916E+03  0.90700259830E+03  0.12699999809E+01 0. -1.
        4   -1    0    0  501    0  0.00000000000E+00  0.00000000000E+00 -0.12150290676E+04  0.12150297313E+04  0.12699999809E+01 0.  1.
    10030    2    1    2    0    0  0.00000000000E+00  0.00000000000E+00 -0.30802735842E+03  0.21220323296E+04  0.20995571805E+04 0.  0.
        3    1    3    3  502    0 -0.14540328157E+03 -0.36589927572E+03  0.82954829179E+03  0.91824548618E+03  0.10100000352E+00 0. -1.
       -3    1    3    3    0  502  0.14540328157E+03  0.36589927572E+03 -0.11375756502E+04  0.12037868434E+04  0.10100000352E+00 0.  1.
</event>
<event>
 5   0  0.2732159E-05  0.2090149E+04  0.7818609E-02  0.8565595E-01
        1   -1    0    0  501    0  0.00000000000E+00  0.00000000000E+00  0.12594065352E+04  0.12594065352E+04  0.50400001928E-02 0. -1.
       -1   -1    0    0    0  501  0.00000000000E+00  0.00000000000E+00 -0.86721836080E+03  0.86721836081E+03  0.50400001928E-02 0.  1.
    10030    2    1    2    0    0  0.00000000000E+00  0.00000000000E+00  0.39218817441E+03  0.21266248960E+04  0.20901487709E+04 0.  0.
        3    1    3    3  502    0 -0.22337445830E+03 -0.65343230706E+03 -0.60201245211E+03  0.91612713705E+03  0.10100000352E+00 0.  1.
       -3    1    3    3    0  502  0.22337445830E+03  0.65343230706E+03  0.99420062652E+03  0.12104977590E+04  0.10100000352E+00 0. -1.
</event>
<event>
 5   0  0.5462851E-05  0.2044809E+04  0.7818609E-02  0.8585953E-01
        2   -1    0    0  501    0  0.00000000000E+00  0.00000000000E+00  0.14539311733E+04  0.14539311733E+04  0.25500000920E-02 0.  1.
       -2   -1    0    0    0  501  0.00000000000E+00  0.00000000000E+00 -0.71895514310E+03  0.71895514310E+03  0.25500000920E-02 0. -1.
    10030    2    1    2    0    0  0.00000000000E+00  0.00000000000E+00  0.73497603018E+03  0.21728863164E+04  0.20448093258E+04 0.  0.
        1    1    3    3  502    0 -0.97766076692E+03  0.21724047386E+03  0.58603282155E+03  0.11603656607E+04  0.50400001928E-02 0. -1.
       -1    1    3    3    0  502  0.97766076692E+03 -0.21724047386E+03  0.14894320863E+03  0.10125206556E+04  0.50400001928E-02 0.  1.
</event>
<event>
 5   0  0.2732159E-05  0.2100251E+04  0.7818609E-02  0.8561133E-01
        1   -1    0    0  501    0  0.00000000000E+00  0.00000000000E+00  0.16671547195E+04  0.16671547195E+04  0.50400001928E-02 0. -1.
       -1   -1    0    0    0  501  0.00000000000E+00  0.00000000000E+00 -0.66146456013E+03  0.66146456015E+03  0.50400001928E-02 0.  1.
    10030    2    1    2    0    0  0.00000000000E+00  0.00000000000E+00  0.10056901594E+04  0.23286192797E+04  0.21002511881E+04 0.  0.
        3    1    3    3  502    0 -0.73156447485E+03  0.69139598452E+03  0.17105984906E+03  0.10210173703E+04  0.10100000352E+00 0. -1.
       -3    1    3    3    0  502  0.73156447485E+03 -0.69139598452E+03  0.83463031033E+03  0.13076019094E+04  0.10100000352E+00 0.  1.
</event>
<event>
 5   0  0.5954140E-05  0.2104467E+04  0.7818609E-02  0.8559278E-01
        2   -1    0    0  501    0  0.00000000000E+00  0.00000000000E+00  0.14818798723E+04  0.14818798723E+04  0.25500000920E-02 0. -1.
       -2   -1    0    0    0  501  0.00000000000E+00  0.00000000000E+00 -0.74715598602E+03  0.74715598603E+03  0.25500000920E-02 0.  1.
    10030    2    1    2    0    0  0.00000000000E+00  0.00000000000E+00  0.73472388624E+03  0.22290358583E+04  0.21044670747E+04 0.  0.
        2    1    3    3  502    0  0.81950383490E+03 -0.11485947794E+03  0.10557688088E+04  0.13414272298E+04  0.25500000920E-02 0. -1.
       -2    1    3    3    0  502 -0.81950383490E+03  0.11485947794E+03 -0.32104492259E+03  0.88760862852E+03  0.25500000920E-02 0.  1.
</event>
<event>
 5   0  0.5506332E-05  0.2096578E+04  0.7818609E-02  0.8562752E-01
       -2   -1    0    0    0  501  0.00000000000E+00  0.00000000000E+00  0.94156108988E+03  0.94156108989E+03  0.25500000920E-02 0.  1.
        2   -1    0    0  501    0  0.00000000000E+00  0.00000000000E+00 -0.11671150602E+04  0.11671150602E+04  0.25500000920E-02 0. -1.
    10030    2    1    2    0    0  0.00000000000E+00  0.00000000000E+00 -0.22555397029E+03  0.21086761501E+04  0.20965782867E+04 0.  0.
        3    1    3    3  502    0 -0.40263512357E+03 -0.30573492301E+01  0.86068486239E+03  0.95021199354E+03  0.10100000352E+00 0.  1.
       -3    1    3    3    0  502  0.40263512357E+03  0.30573492301E+01 -0.10862388327E+04  0.11584641565E+04  0.10100000352E+00 0. -1.
</event>
<event>
 5   0  0.5462851E-05  0.2087114E+04  0.7818609E-02  0.8566941E-01
       -2   -1    0    0    0  501  0.00000000000E+00  0.00000000000E+00  0.97733059639E+03  0.97733059639E+03  0.25500000920E-02 0. -1.
        2   -1    0    0  501    0  0.00000000000E+00  0.00000000000E+00 -0.11142709811E+04  0.11142709811E+04  0.25500000920E-02 0.  1.
    10030    2    1    2    0    0  0.00000000000E+00  0.00000000000E+00 -0.13694038467E+03  0.20916015775E+04  0.20871139140E+04 0.  0.
        1    1    3    3  502    0 -0.77865131531E+03  0.55277192847E+03  0.35333438448E+03  0.10181845918E+04  0.50400001928E-02 0. -1.
       -1    1    3    3    0  502  0.77865131531E+03 -0.55277192847E+03 -0.49027476915E+03  0.10734169856E+04  0.50400001928E-02 0.  1.
</event>
<event>
 5   0  0.5866610E-05  0.2193378E+04  0.7818609E-02  0.8521189E-01
       -2   -1    0    0    0  501  0.00000000000E+00  0.00000000000E+00  0.14969429226E+04  0.14969429226E+04  0.25500000920E-02 0.  1.
        2   -1    0    0  501    0  0.00000000000E+00  0.00000000000E+00 -0.80345564392E+03  0.80345564392E+03  0.25500000920E-02 0. -1.
    10030    2    1    2    0    0  0.00000000000E+00  0.00000000000E+00  0.69348727873E+03  0.23003985666E+04  0.21933784350E+04 0.  0.
        5    1    3    3  502    0  0.10494396103E+04 -0.10247755062E+03  0.66291584719E+03  0.12455138115E+04  0.46999998093E+01 0.  1.
       -5    1    3    3    0  502 -0.10494396103E+04  0.10247755062E+03  0.30571431541E+02  0.10548847551E+04  0.46999998093E+01 0. -1.
</event>
<event>
 5   0  0.2789662E-05  0.2098564E+04  0.7818609E-02  0.8561876E-01
       -1   -1    0    0    0  501  0.00000000000E+00  0.00000000000E+00  0.84695274896E+03  0.84695274897E+03  0.50400001928E-02 0. -1.
        1   -1    0    0  501    0  0.00000000000E+00  0.00000000000E+00 -0.12999462717E+04  0.12999462717E+04  0.50400001928E-02 0.  1.
    10030    2    1    2    0    0  0.00000000000E+00  0.00000000000E+00 -0.45299352272E+03  0.21468990207E+04  0.20985643362E+04 0.  0.
        4    1    3    3  502    0  0.20681099613E+03  0.39387581997E+03  0.74569748057E+03  0.86831750823E+03  0.12699999809E+01 0. -1.
       -4    1    3    3    0  502 -0.20681099613E+03 -0.39387581997E+03 -0.11986910033E+04  0.12785815124E+04  0.12699999809E+01 0.  1.
</event>
<event>
 5   0  0.2604390E-05  0.2092728E+04  0.7818609E-02  0.8564454E-01
        1   -1    0    0  501    0  0.00000000000E+00  0.00000000000E+00  0.95615748908E+03  0.95615748909E+03  0.50400001928E-02 0. -1.
       -1   -1    0    0    0  501  0.00000000000E+00  0.00000000000E+00 -0.11450806836E+04  0.11450806836E+04  0.50400001928E-02 0.  1.
    10030    2    1    2    0    0  0.00000000000E+00  0.00000000000E+00 -0.18892319454E+03  0.21012381727E+04  0.20927278574E+04 0.  0.
        5    1    3    3  502    0  0.64714440273E+03 -0.75677087217E+03  0.22833816787E+03  0.10215960258E+04  0.46999998093E+01 0.  1.
       -5    1    3    3    0  502 -0.64714440273E+03  0.75677087217E+03 -0.41726136241E+03  0.10796421470E+04  0.46999998093E+01 0. -1.
</event>
<event>
 5   0  0.5967046E-05  0.2101434E+04  0.7818609E-02  0.8560612E-01
        2   -1    0    0  501    0  0.00000000000E+00  0.00000000000E+00  0.11273104893E+04  0.11273104893E+04  0.25500000920E-02 0.  1.
       -2   -1    0    0    0  501  0.00000000000E+00  0.00000000000E+00 -0.97932719249E+03  0.97932719250E+03  0.25500000920E-02 0. -1.
    10030    2    1    2    0    0  0.00000000000E+00  0.00000000000E+00  0.14798329680E+03  0.21066376818E+04  0.21014336217E+04 0.  0.
        4    1    3    3  502    0 -0.91354248395E+03  0.27746888963E+03  0.51377538490E+03  0.10842119782E+04  0.12699999809E+01 0. -1.
       -4    1    3    3    0  502  0.91354248395E+03 -0.27746888963E+03 -0.36579208809E+03  0.10224257036E+04  0.12699999809E+01 0.  1.
</event>
<event>
 5   0  0.2789662E-05  0.2103944E+04  0.7818609E-02  0.8559508E-01
        1   -1    0    0  501    0  0.00000000000E+00  0.00000000000E+00  0.28280566674E+04  0.28280566674E+04  0.50400001928E-02 0. -1.
       -1   -1    0    0    0  501  0.00000000000E+00  0.00000000000E+00 -0.39130940114E+03  0.39130940117E+03  0.50400001928E-02 0.  1.
    10030    2    1    2    0    0  0.00000000000E+00  0.00000000000E+00  0.24367472662E+04  0.32193660685E+04  0.21039440686E+04 0.  0.
        4    1    3    3  502    0  0.67854851194E+03 -0.70264812918E+03  0.62082587730E+03  0.11573974509E+04  0.12699999809E+01 0.  1.
       -4    1    3    3    0  502 -0.67854851194E+03  0.70264812918E+03  0.18159213889E+04  0.20619686176E+04  0.12699999809E+01 0. -1.
</event>
<event>
 5   0  0.2732159E-05  0.2105430E+04  0.7818609E-02  0.8558855E-01
        1   -1    0    0  501    0  0.00000000000E+00  0.00000000000E+00  0.11536623015E+04  0.11536623015E+04  0.50400001928E-02 0.  1.
       -1   -1    0    0    0  501  0.00000000000E+00  0.00000000000E+00 -0.96060030892E+03  0.96060030893E+03  0.50400001928E-02 0. -1.
    10030    2    1    2    0    0  0.00000000000E+00  0.00000000000E+00  0.19306199256E+03  0.21142626104E+04  0.21054295174E+04 0.  0.
        3    1    3    3  502    0 -0.34339545170E+02  0.30035999811E+03 -0.91607098227E+03  0.96466646442E+03  0.10100000352E+00 0. -1.
       -3    1    3    3    0  502  0.34339545170E+02 -0.30035999811E+03  0.11091329748E+04  0.11495961460E+04  0.10100000352E+00 0.  1.
</event>
<event>
 5   0  0.5462851E-05  0.2108321E+04  0.7818609E-02  0.8557587E-01
       -2   -1    0    0    0  501  0.00000000000E+00  0.00000000000E+00  0.18575089940E+04  0.18575089940E+04  0.25500000920E-02 0.  1.
        2   -1    0    0  501    0  0.00000000000E+00  0.00000000000E+00 -0.59825004063E+03  0.59825004064E+03  0.25500000920E-02 0. -1.
    10030    2    1    2    0    0  0.00000000000E+00  0.00000000000E+00  0.12592589534E+04  0.24557590346E+04  0.21083214472E+04 0.  0.
        1    1    3    3  502    0  0.40622219961E+03  0.37939548145E+03 -0.41368833732E+03  0.69288920273E+03  0.50400001928E-02 0. -1.
       -1    1    3    3    0  502 -0.40622219961E+03 -0.37939548145E+03  0.16729472907E+04  0.17628698319E+04  0.50400001928E-02 0.  1.
</event>
<event>
 5   0  0.2604390E-05  0.2091090E+04  0.7818609E-02  0.8565178E-01
       -1   -1    0    0    0  501  0.00000000000E+00  0.00000000000E+00  0.11233618132E+04  0.11233618132E+04  0.50400001928E-02 0. -1.
        1   -1    0    0  501    0  0.00000000000E+00  0.00000000000E+00 -0.97311899139E+03  0.97311899140E+03  0.50400001928E-02 0.  1.
    10030    2    1    2    0    0  0.00000000000E+00  0.00000000000E+00  0.15024282182E+03  0.20964808046E+04  0.20910903516E+04 0.  0.
        5    1    3    3  502    0 -0.16160154167E+03 -0.42343494079E+02 -0.95964118896E+03  0.97408486863E+03  0.46999998093E+01 0.  1.
       -5    1    3    3    0  502  0.16160154167E+03  0.42343494079E+02  0.11098840108E+04  0.11223959360E+04  0.46999998093E+01 0. -1.
</event>
<event>
 5   0  0.5967046E-05  0.2090855E+04  0.7818609E-02  0.8565282E-01
        2   -1    0    0  501    0  0.00000000000E+00  0.00000000000E+00  0.12109147442E+04  0.12109147442E+04  0.25500000920E-02 0. -1.
       -2   -1    0    0    0  501  0.00000000000E+00  0.00000000000E+00 -0.90255660177E+03  0.90255660178E+03  0.25500000920E-02 0.  1.
    10030    2    1    2    0    0  0.00000000000E+00  0.00000000000E+00  0.30835814246E+03  0.21134713460E+04  0.20908554198E+04 0.  0.
        4    1    3    3  502    0  0.87711041177E+03  0.90884048720E+02  0.72179997418E+03  0.11395522807E+04  0.12699999809E+01 0. -1.
       -4    1    3    3    0  502 -0.87711041177E+03 -0.90884048720E+02 -0.41344183172E+03  0.97391906535E+03  0.12699999809E+01 0.  1.
</event>
<event>
 5   0  0.5462851E-05  0.2092194E+04  0.7818609E-02  0.8564690E-01
       -2   -1    0    0    0  501  0.00000000000E+00  0.00000000000E+00  0.69817853809E+03  0.69817853809E+03  0.25500000920E-02 0. -1.
        2   -1    0    0  501    0  0.00000000000E+00  0.00000000000E+00 -0.15673919909E+04  0.15673919909E+04  0.25500000920E-02 0.  1.
    10030    2    1    2    0    0  0.00000000000E+00  0.00000000000E+00 -0.86921345282E+03  0.22655705290E+04  0.20921944927E+04 0.  0.
        1    1    3    3  502    0  0.50380955454E+03  0.50605028877E+03  0.39320922210E+03  0.81518369364E+03  0.50400001928E-02 0. -1.
       -1    1    3    3    0  502 -0.50380955454E+03 -0.50605028877E+03 -0.12624226749E+04  0.14503868354E+04  0.50400001928E-02 0.  1.
</event>
<event>
 5   0  0.5506332E-05  0.2097537E+04  0.7818609E-02  0.8562329E-01
       -2   -1    0    0    0  501  0.00000000000E+00  0.00000000000E+00  0.85120663311E+03  0.85120663311E+03  0.25500000920E-02 0. -1.
        2   -1    0    0  501    0  0.00000000000E+00  0.00000000000E+00 -0.12921837522E+04  0.12921837522E+04  0.25500000920E-02 0.  1.
    10030    2    1    2    0    0  0.00000000000E+00  0.00000000000E+00 -0.44097711912E+03  0.21433903853E+04  0.20975370138E+04 0.  0.
        3    1    3    3  502    0 -0.95963004819E+03 -0.24197962909E+03  0.13418892913E+03  0.99872451115E+03  0.10100000352E+00 0. -1.
       -3    1    3    3    0  502  0.95963004819E+03  0.24197962909E+03 -0.57516604825E+03  0.11446658742E+04  0.10100000352E+00 0.  1.
</event>
<event>
 5   0  0.5954140E-05  0.2097484E+04  0.7818609E-02  0.8562353E-01
        2   -1    0    0  501    0  0.00000000000E+00  0.00000000000E+00  0.12804465994E+04  0.12804465994E+04  0.25500000920E-02 0. -1.
       -2   -1    0    0    0  501  0.00000000000E+00  0.00000000000E+00 -0.85896535277E+03  0.85896535278E+03  0.25500000920E-02 0.  1.
    10030    2    1    2    0    0  0.00000000000E+00  0.00000000000E+00  0.42148124661E+03  0.21394119522E+04  0.20974835064E+04 0.  0.
        2    1    3    3  502    0  0.32563447008E+03 -0.21091400479E+03 -0.78307542954E+03  0.87391627395E+03  0.25500000920E-02 0.  1.
       -2    1    3    3    0  502 -0.32563447008E+03  0.21091400479E+03  0.12045566761E+04  0.12654956782E+04  0.25500000920E-02 0. -1.
</event>
<event>
 5   0  0.5462851E-05  0.2094321E+04  0.7818609E-02  0.8563749E-01
       -2   -1    0    0    0  501  0.00000000000E+00  0.00000000000E+00  0.89051685748E+03  0.89051685748E+03  0.25500000920E-02 0. -1.
        2   -1    0    0  501    0  0.00000000000E+00  0.00000000000E+00 -0.12313581762E+04  0.12313581763E+04  0.25500000920E-02 0.  1.
    10030    2    1    2    0    0  0.00000000000E+00  0.00000000000E+00 -0.34084131877E+03  0.21218750337E+04  0.20943210963E+04 0.  0.
        1    1    3    3  502    0  0.35525252001E+03  0.19378286417E+03  0.80809607639E+03  0.90375628359E+03  0.50400001928E-02 0. -1.
       -1    1    3    3    0  502 -0.35525252001E+03 -0.19378286417E+03 -0.11489373952E+04  0.12181187501E+04  0.50400001928E-02 0.  1.
</event>
<event>
 5   0  0.5866610E-05  0.2105032E+04  0.7818609E-02  0.8559030E-01
        2   -1    0    0  501    0  0.00000000000E+00  0.00000000000E+00  0.90184252699E+03  0.90184252699E+03  0.25500000920E-02 0.  1.
       -2   -1    0    0    0  501  0.00000000000E+00  0.00000000000E+00 -0.12283630065E+04  0.12283630065E+04  0.25500000920E-02 0. -1.
    10030    2    1    2    0    0  0.00000000000E+00  0.00000000000E+00 -0.32652047948E+03  0.21302055335E+04  0.21050320642E+04 0.  0.
        5    1    3    3  502    0  0.20430828355E+03  0.15122080015E+03  0.87030501803E+03  0.90667663449E+03  0.46999998093E+01 0.  1.
       -5    1    3    3    0  502 -0.20430828355E+03 -0.15122080015E+03 -0.11968254975E+04  0.12235288990E+04  0.46999998093E+01 0. -1.
</event>
<event>
 5   0  0.5954140E-05  0.2164578E+04  0.7818609E-02  0.8533318E-01
        2   -1    0    0  501    0  0.00000000000E+00  0.00000000000E+00  0.14719713497E+04  0.14719713497E+04  0.25500000920E-02 0.  1.
       -2   -1    0    0    0  501  0.00000000000E+00  0.00000000000E+00 -0.79576919744E+03  0.79576919744E+03  0.25500000920E-02 0. -1.
    10030    2    1    2    0    0  0.00000000000E+00  0.00000000000E+00  0.67620215225E+03  0.22677405471E+04  0.21645779816E+04 0.  0.
        2    1    3    3  502    0  0.95947163201E+03 -0.44345432124E+03  0.94394881491E+02  0.10612011785E+04  0.25500000920E-02 0.  1.
       -2    1    3    3    0  502 -0.95947163201E+03  0.44345432124E+03  0.58180727076E+03  0.12065393686E+04  0.25500000920E-02 0. -1.
</event>
<event>
 5   0  0.2732159E-05  0.2124362E+04  0.7818609E-02  0.8550587E-01
       -1   -1    0    0    0  501  0.00000000000E+00  0.00000000000E+00  0.62534640603E+03  0.62534640605E+03  0.50400001928E-02 0.  1.
        1   -1    0    0  501    0  0.00000000000E+00  0.00000000000E+00 -0.18041650301E+04  0.18041650301E+04  0.50400001928E-02 0. -1.
    10030    2    1    2    0    0  0.00000000000E+00  0.00000000000E+00 -0.11788186241E+04  0.24295114361E+04  0.21243616618E+04 0.  0.
        3    1    3    3  502    0  0.64201961071E+03 -0.61962354055E+03  0.69656203513E+02  0.89497179253E+03  0.10100000352E+00 0.  1.
       -3    1    3    3    0  502 -0.64201961071E+03  0.61962354055E+03 -0.12484748276E+04  0.15345396436E+04  0.10100000352E+00 0. -1.
</event>
<event>
 5   0  0.2602060E-05  0.2105059E+04  0.7818609E-02  0.8559018E-01
       -1   -1    0    0    0  501  0.00000000000E+00  0.00000000000E+00  0.80179561353E+03  0.80179561355E+03  0.50400001928E-02 0. -1.
        1   -1    0    0  501    0  0.00000000000E+00  0.00000000000E+00 -0.13816720359E+04  0.13816720359E+04  0.50400001928E-02 0.  1.
    10030    2    1    2    0    0  0.00000000000E+00  0.00000000000E+00 -0.57987642236E+03  0.21834676495E+04  0.21050592179E+04 0.  0.
        1    1    3    3  502    0  0.75758025557E+03  0.69100709077E+03 -0.53627072815E+03  0.11571538087E+04  0.50400001928E-02 0.  1.
       -1    1    3    3    0  502 -0.75758025557E+03 -0.69100709077E+03 -0.43605694213E+02  0.10263138407E+04  0.50400001928E-02 0. -1.
</event>
<event>
 5   0  0.5967046E-05  0.2088897E+04  0.7818609E-02  0.8566150E-01
        2   -1    0    0  501    0  0.00000000000E+00  0.00000000000E+00  0.18017123735E+04  0.18017123735E+04  0.25500000920E-02 0.  1.
       -2   -1    0    0    0  501  0.00000000000E+00  0.00000000000E+00 -0.60546416585E+03  0.60546416585E+03  0.25500000920E-02 0. -1.
    10030    2    1    2    0    0  0.00000000000E+00  0.00000000000E+00  0.11962482076E+04  0.24071765393E+04  0.20888966268E+04 0.  0.
        4    1    3    3  502    0  0.79167429242E+03  0.10987872676E+03 -0.17666556354E+03  0.81855595661E+03  0.12699999809E+01 0. -1.
       -4    1    3    3    0  502 -0.79167429242E+03 -0.10987872676E+03  0.13729137712E+04  0.15886205827E+04  0.12699999809E+01 0.  1.
</event>
<event>
 5   0  0.5866610E-05  0.2148785E+04  0.7818609E-02  0.8540052E-01
        2   -1    0    0  501    0  0.00000000000E+00  0.00000000000E+00  0.11245312235E+04  0.11245312235E+04  0.25500000920E-02 0.  1.
       -2   -1    0    0    0  501  0.00000000000E+00  0.00000000000E+00 -0.10264895271E+04  0.10264895271E+04  0.25500000920E-02 0. -1.
    10030    2    1    2    0    0  0.00000000000E+00  0.00000000000E+00  0.98041696317E+02  0.21510207506E+04  0.21487852604E+04 0.  0.
        5    1    3    3  502    0  0.34325603406E+03 -0.92602440657E+03 -0.37444587511E+03  0.10562091222E+04  0.46999998093E+01 0. -1.
       -5    1    3    3    0  502 -0.34325603406E+03  0.92602440657E+03  0.47248757143E+03  0.10948116284E+04  0.46999998093E+01 0.  1.
</event>
<event>
 5   0  0.5866610E-05  0.2092813E+04  0.7818609E-02  0.8564416E-01
       -2   -1    0    0    0  501  0.00000000000E+00  0.00000000000E+00  0.68757707237E+03  0.68757707238E+03  0.25500000920E-02 0.  1.
        2   -1    0    0  501    0  0.00000000000E+00  0.00000000000E+00 -0.15925001077E+04  0.15925001077E+04  0.25500000920E-02 0. -1.
    10030    2    1    2    0    0  0.00000000000E+00  0.00000000000E+00 -0.90492303532E+03  0.22800771801E+04  0.20928129986E+04 0.  0.
        5    1    3    3  502    0  0.50325694599E+03  0.34369085343E+03  0.47427110847E+03  0.77223450502E+03  0.46999998093E+01 0.  1.
       -5    1    3    3    0  502 -0.50325694599E+03 -0.34369085343E+03 -0.13791941438E+04  0.15078426750E+04  0.46999998093E+01 0. -1.
</event>
<event>
 5   0  0.2789662E-05  0.2093676E+04  0.7818609E-02  0.8564034E-01
       -1   -1    0    0    0  501  0.00000000000E+00  0.00000000000E+00  0.23060645693E+04  0.23060645694E+04  0.50400001928E-02 0. -1.
        1   -1    0    0  501    0  0.00000000000E+00  0.00000000000E+00 -0.47521217664E+03  0.47521217666E+03  0.50400001928E-02 0.  1.
    10030    2    1    2    0    0  0.00000000000E+00  0.00000000000E+00  0.18308523927E+04  0.27812767460E+04  0.20936761579E+04 0.  0.
        4    1    3    3  502    0  0.44732528953E+03 -0.91813067334E+03  0.61016600267E+03  0.11896924021E+04  0.12699999809E+01 0.  1.
       -4    1    3    3    0  502 -0.44732528953E+03  0.91813067334E+03  0.12206863900E+04  0.15915843439E+04  0.12699999809E+01 0. -1.
</event>
<event>
 5   0  0.2604390E-05  0.2084482E+04  0.7818609E-02  0.8568110E-01
        1   -1    0    0  501    0  0.00000000000E+00  0.00000000000E+00  0.18610384388E+04  0.18610384388E+04  0.50400001928E-02 0.  1.
       -1   -1    0    0    0  501  0.00000000000E+00  0.00000000000E+00 -0.58368846486E+03  0.58368846488E+03  0.50400001928E-02 0. -1.
    10030    2    1    2    0    0  0.00000000000E+00  0.00000000000E+00  0.12773499739E+04  0.24447269037E+04  0.20844823524E+04 0.  0.
        5    1    3    3  502    0  0.16515110599E+03 -0.46207245423E+03 -0.43972118577E+03  0.65891020024E+03  0.46999998093E+01 0. -1.
       -5    1    3    3    0  502 -0.16515110599E+03  0.46207245423E+03  0.17170711597E+04  0.17858167034E+04  0.46999998093E+01 0.  1.
</event>
<event>
 5   0  0.5462851E-05  0.2109042E+04  0.7818609E-02  0.8557271E-01
       -2   -1    0    0    0  501  0.00000000000E+00  0.00000000000E+00  0.58895647293E+03  0.58895647294E+03  0.25500000920E-02 0.  1.
        2   -1    0    0  501    0  0.00000000000E+00  0.00000000000E+00 -0.18881091343E+04  0.18881091343E+04  0.25500000920E-02 0. -1.
    10030    2    1    2    0    0  0.00000000000E+00  0.00000000000E+00 -0.12991526613E+04  0.24770656072E+04  0.21090415797E+04 0.  0.
        1    1    3    3  502    0  0.51233470192E+02 -0.11749658376E+03  0.57977259081E+03  0.59377316607E+03  0.50400001928E-02 0.  1.
       -1    1    3    3    0  502 -0.51233470192E+02  0.11749658376E+03 -0.18789252521E+04  0.18832924411E+04  0.50400001928E-02 0. -1.
</event>
<event>
 5   0  0.5967046E-05  0.2097670E+04  0.7818609E-02  0.8562270E-01
       -2   -1    0    0    0  501  0.00000000000E+00  0.00000000000E+00  0.68795651306E+03  0.68795651307E+03  0.25500000920E-02 0. -1.
        2   -1    0    0  501    0  0.00000000000E+00  0.00000000000E+00 -0.15990182678E+04  0.15990182678E+04  0.25500000920E-02 0.  1.
    10030    2    1    2    0    0  0.00000000000E+00  0.00000000000E+00 -0.91106175478E+03  0.22869747809E+04  0.20976701665E+04 0.  0.
        4    1    3    3  502    0 -0.86669191395E+03  0.11560661611E+03  0.17599655193E+03  0.89190591577E+03  0.12699999809E+01 0.  1.
       -4    1    3    3    0  502  0.86669191395E+03 -0.11560661611E+03 -0.10870583067E+04  0.13950688651E+04  0.12699999809E+01 0. -1.
</event>
<event>
 5   0  0.5967046E-05  0.2093067E+04  0.7818609E-02  0.8564303E-01
        2   -1    0    0  501    0  0.00000000000E+00  0.00000000000E+00  0.12095272497E+04  0.12095272497E+04  0.25500000920E-02 0. -1.
       -2   -1    0    0    0  501  0.00000000000E+00  0.00000000000E+00 -0.90550474070E+03  0.90550474071E+03  0.25500000920E-02 0.  1.
    10030    2    1    2    0    0  0.00000000000E+00  0.00000000000E+00  0.30402250898E+03  0.21150319904E+04  0.20930672790E+04 0.  0.
        4    1    3    3  502    0 -0.71942644783E+03 -0.76002048546E+03  0.14690915458E+03  0.10567826005E+04  0.12699999809E+01 0. -1.
       -4    1    3    3    0  502  0.71942644783E+03  0.76002048546E+03  0.15711335440E+03  0.10582493899E+04  0.12699999809E+01 0.  1.
</event>
<event>
 5   0  0.5954140E-05  0.2098147E+04  0.7818609E-02  0.8562060E-01
       -2   -1    0    0    0  501  0.00000000000E+00  0.00000000000E+00  0.14358047872E+04  0.14358047872E+04  0.25500000920E-02 0.  1.
        2   -1    0    0  501    0  0.00000000000E+00  0.00000000000E+00 -0.76650760890E+03  0.76650760890E+03  0.25500000920E-02 0. -1.
    10030    2    1    2    0    0  0.00000000000E+00  0.00000000000E+00  0.66929717827E+03  0.22023123961E+04  0.20981470818E+04 0.  0.
        2    1    3    3  502    0  0.10100099565E+04  0.15579345079E+03  0.85894404008E+02  0.10255581700E+04  0.25500000920E-02 0. -1.
       -2    1    3    3    0  502 -0.10100099565E+04 -0.15579345079E+03  0.58340277427E+03  0.11767542260E+04  0.25500000920E-02 0.  1.
</event>
<event>
 5   0  0.2699285E-05  0.2132194E+04  0.7818609E-02  0.8547193E-01
       -1   -1    0    0    0  501  0.00000000000E+00  0.00000000000E+00  0.12026031855E+04  0.12026031855E+04  0.50400001928E-02 0. -1.
        1   -1    0    0  501    0  0.00000000000E+00  0.00000000000E+00 -0.94508547377E+03  0.94508547378E+03  0.50400001928E-02 0.  1.
    10030    2    1    2    0    0  0.00000000000E+00  0.00000000000E+00  0.25751771175E+03  0.21476886593E+04  0.21321939887E+04 0.  0.
        2    1    3    3  502    0 -0.81957276606E+03  0.65896943853E+03 -0.47505852800E+02  0.10527093834E+04  0.25500000920E-02 0. -1.
       -2    1    3    3    0  502  0.81957276606E+03 -0.65896943853E+03  0.30502356455E+03  0.10949792759E+04  0.25500000920E-02 0.  1.
</event>
<event>
 5   0  0.2732159E-05  0.2097103E+04  0.7818609E-02  0.8562521E-01
        1   -1    0    0  501    0  0.00000000000E+00  0.00000000000E+00  0.16916516551E+04  0.16916516551E+04  0.50400001928E-02 0. -1.
       -1   -1    0    0    0  501  0.00000000000E+00  0.00000000000E+00 -0.64993292460E+03  0.64993292462E+03  0.50400001928E-02 0.  1.
    10030    2    1    2    0    0  0.00000000000E+00  0.00000000000E+00  0.10417187305E+04  0.23415845797E+04  0.20971028660E+04 0.  0.
        3    1    3    3  502    0 -0.16482876281E+03 -0.74413538363E+03  0.13249169534E+04  0.15284995695E+04  0.10100000352E+00 0. -1.
       -3    1    3    3    0  502  0.16482876281E+03  0.74413538363E+03 -0.28319822293E+03  0.81308501025E+03  0.10100000352E+00 0.  1.
</event>
<event>
 5   0  0.5866610E-05  0.2135015E+04  0.7818609E-02  0.8545974E-01
        2   -1    0    0  501    0  0.00000000000E+00  0.00000000000E+00  0.24438625806E+04  0.24438625806E+04  0.25500000920E-02 0.  1.
       -2   -1    0    0    0  501  0.00000000000E+00  0.00000000000E+00 -0.46629945512E+03  0.46629945513E+03  0.25500000920E-02 0. -1.
    10030    2    1    2    0    0  0.00000000000E+00  0.00000000000E+00  0.19775631255E+04  0.29101620357E+04  0.21350145571E+04 0.  0.
        5    1    3    3  502    0 -0.65818727510E+03  0.28236028320E+03 -0.90204023076E+02  0.72187026148E+03  0.46999998093E+01 0. -1.
       -5    1    3    3    0  502  0.65818727510E+03 -0.28236028320E+03  0.20677671486E+04  0.21882917743E+04  0.46999998093E+01 0.  1.
</event>
<event>
 5   0  0.5462851E-05  0.2108582E+04  0.7818609E-02  0.8557472E-01
        2   -1    0    0  501    0  0.00000000000E+00  0.00000000000E+00  0.19339276216E+04  0.19339276216E+04  0.25500000920E-02 0.  1.
       -2   -1    0    0    0  501  0.00000000000E+00  0.00000000000E+00 -0.57475255327E+03  0.57475255328E+03  0.25500000920E-02 0. -1.
    10030    2    1    2    0    0  0.00000000000E+00  0.00000000000E+00  0.13591750683E+04  0.25086801749E+04  0.21085823089E+04 0.  0.
        1    1    3    3  502    0 -0.18240512389E+03 -0.72658075355E+03 -0.20302427445E+03  0.77615080796E+03  0.50400001928E-02 0. -1.
       -1    1    3    3    0  502  0.18240512389E+03  0.72658075355E+03  0.15621993428E+04  0.17325293669E+04  0.50400001928E-02 0.  1.
</event>
<event>
 5   0  0.2789662E-05  0.2104242E+04  0.7818609E-02  0.8559377E-01
        1   -1    0    0  501    0  0.00000000000E+00  0.00000000000E+00  0.83752187708E+03  0.83752187709E+03  0.50400001928E-02 0.  1.
       -1   -1    0    0    0  501  0.00000000000E+00  0.00000000000E+00 -0.13217069100E+04  0.13217069100E+04  0.50400001928E-02 0. -1.
    10030    2    1    2    0    0  0.00000000000E+00  0.00000000000E+00 -0.48418503295E+03  0.21592287871E+04  0.21042418609E+04 0.  0.
        4    1    3    3  502    0 -0.21795180395E+03  0.69063473979E+03  0.54105321503E+03  0.90400195079E+03  0.12699999809E+01 0.  1.
       -4    1    3    3    0  502  0.21795180395E+03 -0.69063473979E+03 -0.10252382480E+04  0.12552268363E+04  0.12699999809E+01 0. -1.
</event>
<event>
 5   0  0.2732159E-05  0.2108155E+04  0.7818609E-02  0.8557659E-01
       -1   -1    0    0    0  501  0.00000000000E+00  0.00000000000E+00  0.86065912804E+03  0.86065912806E+03  0.50400001928E-02 0.  1.
        1   -1    0    0  501    0  0.00000000000E+00  0.00000000000E+00 -0.12909634625E+04  0.12909634625E+04  0.50400001928E-02 0. -1.
    10030    2    1    2    0    0  0.00000000000E+00  0.00000000000E+00 -0.43030433447E+03  0.21516225906E+04  0.21081551063E+04 0.  0.
        3    1    3    3  502    0 -0.74741740347E+03  0.11246670610E+03 -0.96501037119E+03  0.12257759019E+04  0.10100000352E+00 0. -1.
       -3    1    3    3    0  502  0.74741740347E+03 -0.11246670610E+03  0.53470603673E+03  0.92584668867E+03  0.10100000352E+00 0.  1.
</event>
<event>
 5   0  0.5866610E-05  0.2100072E+04  0.7818609E-02  0.8561212E-01
        2   -1    0    0  501    0  0.00000000000E+00  0.00000000000E+00  0.13954980353E+04  0.13954980353E+04  0.25500000920E-02 0.  1.
       -2   -1    0    0    0  501  0.00000000000E+00  0.00000000000E+00 -0.79009484015E+03  0.79009484015E+03  0.25500000920E-02 0. -1.
    10030    2    1    2    0    0  0.00000000000E+00  0.00000000000E+00  0.60540319519E+03  0.21855928755E+04  0.21000721865E+04 0.  0.
        5    1    3    3  502    0  0.37088958709E+03  0.39907366037E+03 -0.63147958139E+03  0.83403082912E+03  0.46999998093E+01 0. -1.
       -5    1    3    3    0  502 -0.37088958709E+03 -0.39907366037E+03  0.12368827766E+04  0.13515620464E+04  0.46999998093E+01 0.  1.
</event>
<event>
 5   0  0.2017750E-05  0.2080993E+04  0.7818609E-02  0.8569663E-01
       -4   -1    0    0    0  501  0.00000000000E+00  0.00000000000E+00  0.14578192093E+04  0.14578197624E+04  0.12699999809E+01 0.  1.
        4   -1    0    0  501    0  0.00000000000E+00  0.00000000000E+00 -0.74263751795E+03  0.74263860387E+03  0.12699999809E+01 0. -1.
    10030    2    1    2    0    0  0.00000000000E+00  0.00000000000E+00  0.71518169131E+03  0.22004583663E+04  0.20809930731E+04 0.  0.
        4    1    3    3  502    0 -0.11118469888E+03 -0.56350320595E+03  0.12750001745E+04  0.13984008575E+04  0.12699999809E+01 0.  1.
       -4    1    3    3    0  502  0.11118469888E+03  0.56350320595E+03 -0.55981848321E+03  0.80205750880E+03  0.12699999809E+01 0. -1.
</event>
<event>
 5   0  0.5954140E-05  0.2097785E+04  0.7818609E-02  0.8562220E-01
       -2   -1    0    0    0  501  0.00000000000E+00  0.00000000000E+00  0.59501404597E+03  0.59501404598E+03  0.25500000920E-02 0.  1.
        2   -1    0    0  501    0  0.00000000000E+00  0.00000000000E+00 -0.18489912661E+04  0.18489912661E+04  0.25500000920E-02 0. -1.
    10030    2    1    2    0    0  0.00000000000E+00  0.00000000000E+00 -0.12539772201E+04  0.24440053121E+04  0.20977852838E+04 0.  0.
        2    1    3    3  502    0  0.30909769483E+03  0.16839061611E+03 -0.17781284443E+04  0.18126327673E+04  0.25500000920E-02 0. -1.
       -2    1    3    3    0  502 -0.30909769483E+03 -0.16839061611E+03  0.52415122417E+03  0.63137254481E+03  0.25500000920E-02 0.  1.
</event>
<event>
 5   0  0.5967046E-05  0.2108873E+04  0.7818609E-02  0.8557345E-01
       -2   -1    0    0    0  501  0.00000000000E+00  0.00000000000E+00  0.15803885103E+04  0.15803885104E+04  0.25500000920E-02 0.  1.
        2   -1    0    0  501    0  0.00000000000E+00  0.00000000000E+00 -0.70352113117E+03  0.70352113118E+03  0.25500000920E-02 0. -1.
    10030    2    1    2    0    0  0.00000000000E+00  0.00000000000E+00  0.87686737918E+03  0.22839096415E+04  0.21088733603E+04 0.  0.
        4    1    3    3  502    0 -0.40353813731E+03  0.30064670638E+03 -0.56508340989E+03  0.75667188619E+03  0.12699999809E+01 0. -1.
       -4    1    3    3    0  502  0.40353813731E+03 -0.30064670638E+03  0.14419507891E+04  0.15272377553E+04  0.12699999809E+01 0.  1.
</event>
<event>
 5   0  0.2602060E-05  0.2111097E+04  0.7818609E-02  0.8556371E-01
        1   -1    0    0  501    0  0.00000000000E+00  0.00000000000E+00  0.97541639115E+03  0.97541639116E+03  0.50400001928E-02 0.  1.
       -1   -1    0    0    0  501  0.00000000000E+00  0.00000000000E+00 -0.11422632241E+04  0.11422632241E+04  0.50400001928E-02 0. -1.
    10030    2    1    2    0    0  0.00000000000E+00  0.00000000000E+00 -0.16684683294E+03  0.21176796153E+04  0.21110966551E+04 0.  0.
        1    1    3    3  502    0 -0.31066360669E+03  0.69989931673E+03  0.64534828020E+03  0.10014216559E+04  0.50400001928E-02 0.  1.
       -1    1    3    3    0  502  0.31066360669E+03 -0.69989931673E+03 -0.81219511314E+03  0.11162579594E+04  0.50400001928E-02 0. -1.
</event>
<event>
 5   0  0.2602060E-05  0.2139159E+04  0.7818609E-02  0.8544187E-01
        1   -1    0    0  501    0  0.00000000000E+00  0.00000000000E+00  0.15422113022E+04  0.15422113022E+04  0.50400001928E-02 0. -1.
       -1   -1    0    0    0  501  0.00000000000E+00  0.00000000000E+00 -0.74179204849E+03  0.74179204850E+03  0.50400001928E-02 0.  1.
    10030    2    1    2    0    0  0.00000000000E+00  0.00000000000E+00  0.80041925372E+03  0.22840033507E+04  0.21391587890E+04 0.  0.
        1    1    3    3  502    0  0.33618548570E+03 -0.97232380214E+03  0.87886688377E+02  0.10325494308E+04  0.50400001928E-02 0.  1.
       -1    1    3    3    0  502 -0.33618548570E+03  0.97232380214E+03  0.71253256534E+03  0.12514539199E+04  0.50400001928E-02 0. -1.
</event>
<event>
 5   0  0.2604390E-05  0.2186141E+04  0.7818609E-02  0.8524219E-01
        1   -1    0    0  501    0  0.00000000000E+00  0.00000000000E+00  0.14742104393E+04  0.14742104394E+04  0.50400001928E-02 0. -1.
       -1   -1    0    0    0  501  0.00000000000E+00  0.00000000000E+00 -0.81046958679E+03  0.81046958680E+03  0.50400001928E-02 0.  1.
    10030    2    1    2    0    0  0.00000000000E+00  0.00000000000E+00  0.66374085255E+03  0.22846800262E+04  0.21861406411E+04 0.  0.
        5    1    3    3  502    0 -0.49703154401E+03  0.46032684089E+03  0.12283467608E+04  0.14027825957E+04  0.46999998093E+01 0. -1.
       -5    1    3    3    0  502  0.49703154401E+03 -0.46032684089E+03 -0.56460590822E+03  0.88189743042E+03  0.46999998093E+01 0.  1.
</event>
<event>
 5   0  0.5462851E-05  0.2079235E+04  0.7818609E-02  0.8570446E-01
        2   -1    0    0  501    0  0.00000000000E+00  0.00000000000E+00  0.20400007148E+04  0.20400007148E+04  0.25500000920E-02 0.  1.
       -2   -1    0    0    0  501  0.00000000000E+00  0.00000000000E+00 -0.52980598587E+03  0.52980598587E+03  0.25500000920E-02 0. -1.
    10030    2    1    2    0    0  0.00000000000E+00  0.00000000000E+00  0.15101947289E+04  0.25698067007E+04  0.20792350419E+04 0.  0.
        1    1    3    3  502    0 -0.61580274135E+03 -0.60897685858E+03  0.44310459932E+02  0.86719619892E+03  0.50400001928E-02 0.  1.
       -1    1    3    3    0  502  0.61580274135E+03  0.60897685858E+03  0.14658842690E+04  0.17026105017E+04  0.50400001928E-02 0. -1.
</event>
<event>
 5   0  0.5967046E-05  0.2098401E+04  0.7818609E-02  0.8561948E-01
       -2   -1    0    0    0  501  0.00000000000E+00  0.00000000000E+00  0.12365593491E+04  0.12365593491E+04  0.25500000920E-02 0. -1.
        2   -1    0    0  501    0  0.00000000000E+00  0.00000000000E+00 -0.89022993211E+03  0.89022993212E+03  0.25500000920E-02 0.  1.
    10030    2    1    2    0    0  0.00000000000E+00  0.00000000000E+00  0.34632941694E+03  0.21267892812E+04  0.20984014348E+04 0.  0.
        4    1    3    3  502    0  0.39475077280E+03 -0.35939742051E+02  0.11577492791E+04  0.12237258042E+04  0.12699999809E+01 0. -1.
       -4    1    3    3    0  502 -0.39475077280E+03  0.35939742051E+02 -0.81141986221E+03  0.90306347694E+03  0.12699999809E+01 0.  1.
</event>
<event>
 5   0  0.2789662E-05  0.2092949E+04  0.7818609E-02  0.8564356E-01
       -1   -1    0    0    0  501  0.00000000000E+00  0.00000000000E+00  0.60426399905E+03  0.60426399907E+03  0.50400001928E-02 0.  1.
        1   -1    0    0  501    0  0.00000000000E+00  0.00000000000E+00 -0.18123015848E+04  0.18123015848E+04  0.50400001928E-02 0. -1.
    10030    2    1    2    0    0  0.00000000000E+00  0.00000000000E+00 -0.12080375857E+04  0.24165655839E+04  0.20929487362E+04 0.  0.
        4    1    3    3  502    0 -0.20369668372E+02  0.97240098925E+03 -0.15813657841E+03  0.98538692787E+03  0.12699999809E+01 0.  1.
       -4    1    3    3    0  502  0.20369668372E+02 -0.97240098925E+03 -0.10499010073E+04  0.14311786560E+04  0.12699999809E+01 0. -1.
</event>
<event>
 5   0  0.2604390E-05  0.2079583E+04  0.7818609E-02  0.8570291E-01
       -1   -1    0    0    0  501  0.00000000000E+00  0.00000000000E+00  0.46002579753E+03  0.46002579756E+03  0.50400001928E-02 0.  1.
        1   -1    0    0  501    0  0.00000000000E+00  0.00000000000E+00 -0.23502294965E+04  0.23502294965E+04  0.50400001928E-02 0. -1.
    10030    2    1    2    0    0  0.00000000000E+00  0.00000000000E+00 -0.18902036989E+04  0.28102552940E+04  0.20795828414E+04 0.  0.
        5    1    3    3  502    0 -0.27639359552E+03 -0.45574785415E+03 -0.21515560956E+04  0.22165999298E+04  0.46999998093E+01 0. -1.
       -5    1    3    3    0  502  0.27639359552E+03  0.45574785415E+03  0.26135239669E+03  0.59365536422E+03  0.46999998093E+01 0.  1.
</event>
<event>
 5   0  0.5462851E-05  0.2095477E+04  0.7818609E-02  0.8563239E-01
       -2   -1    0    0    0  501  0.00000000000E+00  0.00000000000E+00  0.13789180954E+04  0.13789180954E+04  0.25500000920E-02 0.  1.
        2   -1    0    0  501    0  0.00000000000E+00  0.00000000000E+00 -0.79609929857E+03  0.79609929857E+03  0.25500000920E-02 0. -1.
    10030    2    1    2    0    0  0.00000000000E+00  0.00000000000E+00  0.58281879684E+03  0.21750173940E+04  0.20954767749E+04 0.  0.
        1    1    3    3  502    0  0.35999748658E+03 -0.64243894573E+03  0.10649701868E+04  0.12947924499E+04  0.50400001928E-02 0.  1.
       -1    1    3    3    0  502 -0.35999748658E+03  0.64243894573E+03 -0.48215139000E+03  0.88022494412E+03  0.50400001928E-02 0. -1.
</event>
<event>
 5   0  0.2732159E-05  0.2110567E+04  0.7818609E-02  0.8556603E-01
       -1   -1    0    0    0  501  0.00000000000E+00  0.00000000000E+00  0.10385550436E+04  0.10385550436E+04  0.50400001928E-02 0. -1.
        1   -1    0    0  501    0  0.00000000000E+00  0.00000000000E+00 -0.10722816441E+04  0.10722816441E+04  0.50400001928E-02 0.  1.
    10030    2    1    2    0    0  0.00000000000E+00  0.00000000000E+00 -0.33726600521E+02  0.21108366877E+04  0.21105672315E+04 0.  0.
        3    1    3    3  502    0 -0.86773328702E+03 -0.33909582946E+03 -0.51258418496E+03  0.10633388904E+04  0.10100000352E+00 0.  1.
       -3    1    3    3    0  502  0.86773328702E+03  0.33909582946E+03  0.47885758444E+03  0.10474977973E+04  0.10100000352E+00 0. -1.
</event>
<event>
 5   0  0.5954140E-05  0.2077059E+04  0.7818609E-02  0.8571417E-01
       -2   -1    0    0    0  501  0.00000000000E+00  0.00000000000E+00  0.65323975178E+03  0.65323975179E+03  0.25500000920E-02 0.  1.
        2   -1    0    0  501    0  0.00000000000E+00  0.00000000000E+00 -0.16510682864E+04  0.16510682864E+04  0.25500000920E-02 0. -1.
    10030    2    1    2    0    0  0.00000000000E+00  0.00000000000E+00 -0.99782853465E+03  0.23043080382E+04  0.20770589184E+04 0.  0.
        2    1    3    3  502    0  0.64048783106E+03 -0.23506567414E+03  0.36973456076E+03  0.77600526952E+03  0.25500000920E-02 0.  1.
       -2    1    3    3    0  502 -0.64048783106E+03  0.23506567414E+03 -0.13675630954E+04  0.15283027687E+04  0.25500000920E-02 0. -1.
</event>
<event>
 5   0  0.5954140E-05  0.2108195E+04  0.7818609E-02  0.8557642E-01
       -2   -1    0    0    0  501  0.00000000000E+00  0.00000000000E+00  0.83210452431E+03  0.83210452431E+03  0.25500000920E-02 0.  1.
        2   -1    0    0  501    0  0.00000000000E+00  0.00000000000E+00 -0.13353146765E+04  0.13353146766E+04  0.25500000920E-02 0. -1.
    10030    2    1    2    0    0  0.00000000000E+00  0.00000000000E+00 -0.50321015224E+03  0.21674192009E+04  0.21081948522E+04 0.  0.
        2    1    3    3  502    0  0.32667208285E+03 -0.37767003923E+03  0.70279040969E+03  0.86212740834E+03  0.25500000920E-02 0.  1.
       -2    1    3    3    0  502 -0.32667208285E+03  0.37767003923E+03 -0.12060005619E+04  0.13052917925E+04  0.25500000920E-02 0. -1.
</event>
<event>
 5   0  0.5967046E-05  0.2122966E+04  0.7818609E-02  0.8551194E-01
       -2   -1    0    0    0  501  0.00000000000E+00  0.00000000000E+00  0.65879037694E+03  0.65879037695E+03  0.25500000920E-02 0.  1.
        2   -1    0    0  501    0  0.00000000000E+00  0.00000000000E+00 -0.17103258480E+04  0.17103258480E+04  0.25500000920E-02 0. -1.
    10030    2    1    2    0    0  0.00000000000E+00  0.00000000000E+00 -0.10515354710E+04  0.23691162249E+04  0.21229660479E+04 0.  0.
        4    1    3    3  502    0 -0.38044646733E+03  0.98529439520E+03 -0.64386859445E+03  0.12369773399E+04  0.12699999809E+01 0.  1.
       -4    1    3    3    0  502  0.38044646733E+03 -0.98529439520E+03 -0.40766687657E+03  0.11321388850E+04  0.12699999809E+01 0. -1.
</event>
<event>
 5   0  0.5866610E-05  0.2103115E+04  0.7818609E-02  0.8559872E-01
       -2   -1    0    0    0  501  0.00000000000E+00  0.00000000000E+00  0.75959004659E+03  0.75959004660E+03  0.25500000920E-02 0.  1.
        2   -1    0    0  501    0  0.00000000000E+00  0.00000000000E+00 -0.14557504626E+04  0.14557504626E+04  0.25500000920E-02 0. -1.
    10030    2    1    2    0    0  0.00000000000E+00  0.00000000000E+00 -0.69616041602E+03  0.22153405092E+04  0.21031153670E+04 0.  0.
        5    1    3    3  502    0 -0.71510904168E+03  0.59983596774E+03 -0.85824580153E+03  0.12679874114E+04  0.46999998093E+01 0. -1.
       -5    1    3    3    0  502  0.71510904168E+03 -0.59983596774E+03  0.16208538551E+03  0.94735309779E+03  0.46999998093E+01 0.  1.
</event>
<event>
 5   0  0.5462851E-05  0.2107938E+04  0.7818609E-02  0.8557755E-01
       -2   -1    0    0    0  501  0.00000000000E+00  0.00000000000E+00  0.80609854002E+03  0.80609854003E+03  0.25500000920E-02 0.  1.
        2   -1    0    0  501    0  0.00000000000E+00  0.00000000000E+00 -0.13780584468E+04  0.13780584468E+04  0.25500000920E-02 0. -1.
    10030    2    1    2    0    0  0.00000000000E+00  0.00000000000E+00 -0.57195990675E+03  0.21841569868E+04  0.21079382363E+04 0.  0.
        1    1    3    3  502    0 -0.76268106866E+03  0.67738041020E+03 -0.56075581787E+03  0.11640333844E+04  0.50400001928E-02 0. -1.
       -1    1    3    3    0  502  0.76268106866E+03 -0.67738041020E+03 -0.11204088878E+02  0.10201236024E+04  0.50400001928E-02 0.  1.
</event>
<event>
 5   0  0.5866610E-05  0.2095192E+04  0.7818609E-02  0.8563364E-01
       -2   -1    0    0    0  501  0.00000000000E+00  0.00000000000E+00  0.81459174792E+03  0.81459174793E+03  0.25500000920E-02 0.  1.
        2   -1    0    0  501    0  0.00000000000E+00  0.00000000000E+00 -0.13472488415E+04  0.13472488415E+04  0.25500000920E-02 0. -1.
    10030    2    1    2    0    0  0.00000000000E+00  0.00000000000E+00 -0.53265709360E+03  0.21618405895E+04  0.20951923909E+04 0.  0.
        5    1    3    3  502    0 -0.36128260459E+02 -0.32118107588E+03 -0.12945070373E+04  0.13342537593E+04  0.46999998093E+01 0. -1.
       -5    1    3    3    0  502  0.36128260459E+02  0.32118107588E+03  0.76184994368E+03  0.82758683012E+03  0.46999998093E+01 0.  1.
</event>
<event>
 5   0  0.2789662E-05  0.2114009E+04  0.7818609E-02  0.8555097E-01
        1   -1    0    0  501    0  0.00000000000E+00  0.00000000000E+00  0.21561980764E+04  0.21561980764E+04  0.50400001928E-02 0. -1.
       -1   -1    0    0    0  501  0.00000000000E+00  0.00000000000E+00 -0.51816140118E+03  0.51816140121E+03  0.50400001928E-02 0.  1.
    10030    2    1    2    0    0  0.00000000000E+00  0.00000000000E+00  0.16380366753E+04  0.26743594776E+04  0.21140090979E+04 0.  0.
        4    1    3    3  502    0 -0.55190807477E+03 -0.36717988099E+03 -0.22251798096E+03  0.69924205591E+03  0.12699999809E+01 0.  1.
       -4    1    3    3    0  502  0.55190807477E+03  0.36717988099E+03  0.18605546562E+04  0.19751174217E+04  0.12699999809E+01 0. -1.
</event>
<event>
 5   0  0.2604390E-05  0.2101532E+04  0.7818609E-02  0.8560569E-01
       -1   -1    0    0    0  501  0.00000000000E+00  0.00000000000E+00  0.63844552545E+03  0.63844552547E+03  0.50400001928E-02 0. -1.
        1   -1    0    0  501    0  0.00000000000E+00  0.00000000000E+00 -0.17293713161E+04  0.17293713161E+04  0.50400001928E-02 0.  1.
    10030    2    1    2    0    0  0.00000000000E+00  0.00000000000E+00 -0.10909257906E+04  0.23678168416E+04  0.21015321826E+04 0.  0.
        5    1    3    3  502    0  0.54147772392E+03 -0.18212806733E+03 -0.15390896650E+04  0.16417027275E+04  0.46999998093E+01 0.  1.
       -5    1    3    3    0  502 -0.54147772392E+03  0.18212806733E+03  0.44816387437E+03  0.72611411410E+03  0.46999998093E+01 0. -1.
</event>
<event>
 5   0  0.5967046E-05  0.2079730E+04  0.7818609E-02  0.8570225E-01
        2   -1    0    0  501    0  0.00000000000E+00  0.00000000000E+00  0.15936867996E+04  0.15936867996E+04  0.25500000920E-02 0.  1.
       -2   -1    0    0    0  501  0.00000000000E+00  0.00000000000E+00 -0.67850179850E+03  0.67850179851E+03  0.25500000920E-02 0. -1.
    10030    2    1    2    0    0  0.00000000000E+00  0.00000000000E+00  0.91518500106E+03  0.22721885981E+04  0.20797301361E+04 0.  0.
        4    1    3    3  502    0 -0.79966113875E+03  0.17360437914E+03 -0.24344148795E+03  0.85373402664E+03  0.12699999809E+01 0. -1.
       -4    1    3    3    0  502  0.79966113875E+03 -0.17360437914E+03  0.11586264890E+04  0.14184545714E+04  0.12699999809E+01 0.  1.
</event>
<event>
 5   0  0.5954140E-05  0.2097321E+04  0.7818609E-02  0.8562424E-01
       -2   -1    0    0    0  501  0.00000000000E+00  0.00000000000E+00  0.85520931114E+03  0.85520931115E+03  0.25500000920E-02 0. -1.
        2   -1    0    0  501    0  0.00000000000E+00  0.00000000000E+00 -0.12858712266E+04  0.12858712266E+04  0.25500000920E-02 0.  1.
    10030    2    1    2    0    0  0.00000000000E+00  0.00000000000E+00 -0.43066191549E+03  0.21410805378E+04  0.20973211923E+04 0.  0.
        2    1    3    3  502    0 -0.21743289717E+03 -0.17510872667E+03 -0.12472369900E+04  0.12781002465E+04  0.25500000920E-02 0.  1.
       -2    1    3    3    0  502  0.21743289717E+03  0.17510872667E+03  0.81657507447E+03  0.86298029130E+03  0.25500000920E-02 0. -1.
</event>
<event>
 5   0  0.2604390E-05  0.2199081E+04  0.7818609E-02  0.8518811E-01
       -1   -1    0    0    0  501  0.00000000000E+00  0.00000000000E+00  0.76640760663E+03  0.76640760665E+03  0.50400001928E-02 0.  1.
        1   -1    0    0  501    0  0.00000000000E+00  0.00000000000E+00 -0.15774756911E+04  0.15774756911E+04  0.50400001928E-02 0. -1.
    10030    2    1    2    0    0  0.00000000000E+00  0.00000000000E+00 -0.81106808451E+03  0.23438832978E+04  0.21990810526E+04 0.  0.
        5    1    3    3  502    0 -0.10237170147E+04 -0.21973096267E+03 -0.76333015636E+03  0.12957519978E+04  0.46999998093E+01 0. -1.
       -5    1    3    3    0  502  0.10237170147E+04  0.21973096267E+03 -0.47737928145E+02  0.10481313000E+04  0.46999998093E+01 0.  1.
</event>
<event>
 5   0  0.2789662E-05  0.2051256E+04  0.7818609E-02  0.8583025E-01
       -1   -1    0    0    0  501  0.00000000000E+00  0.00000000000E+00  0.46184921081E+03  0.46184921084E+03  0.50400001928E-02 0.  1.
        1   -1    0    0  501    0  0.00000000000E+00  0.00000000000E+00 -0.22776100222E+04  0.22776100222E+04  0.50400001928E-02 0. -1.
    10030    2    1    2    0    0  0.00000000000E+00  0.00000000000E+00 -0.18157608114E+04  0.27394592331E+04  0.20512556070E+04 0.  0.
        4    1    3    3  502    0 -0.15546769760E+03  0.10019829105E+04 -0.11137855266E+04  0.15062070807E+04  0.12699999809E+01 0. -1.
       -4    1    3    3    0  502  0.15546769760E+03 -0.10019829105E+04 -0.70197528481E+03  0.12332521523E+04  0.12699999809E+01 0.  1.
</event>
<event>
 5   0  0.5866610E-05  0.2097144E+04  0.7818609E-02  0.8562503E-01
        2   -1    0    0  501    0  0.00000000000E+00  0.00000000000E+00  0.15184297052E+04  0.15184297052E+04  0.25500000920E-02 0.  1.
       -2   -1    0    0    0  501  0.00000000000E+00  0.00000000000E+00 -0.72410523948E+03  0.72410523948E+03  0.25500000920E-02 0. -1.
    10030    2    1    2    0    0  0.00000000000E+00  0.00000000000E+00  0.79432446571E+03  0.22425349447E+04  0.20971436816E+04 0.  0.
        5    1    3    3  502    0 -0.92905303192E+02 -0.22462228919E+03 -0.69354954795E+03  0.73492831870E+03  0.46999998093E+01 0. -1.
       -5    1    3    3    0  502  0.92905303192E+02  0.22462228919E+03  0.14878740137E+04  0.15076066260E+04  0.46999998093E+01 0.  1.
</event>
<event>
 5   0  0.2699285E-05  0.2061437E+04  0.7818609E-02  0.8578424E-01
       -1   -1    0    0    0  501  0.00000000000E+00  0.00000000000E+00  0.10490933254E+04  0.10490933254E+04  0.50400001928E-02 0. -1.
        1   -1    0    0  501    0  0.00000000000E+00  0.00000000000E+00 -0.10126654203E+04  0.10126654203E+04  0.50400001928E-02 0.  1.
    10030    2    1    2    0    0  0.00000000000E+00  0.00000000000E+00  0.36427905136E+02  0.20617587457E+04  0.20614369098E+04 0.  0.
        2    1    3    3  502    0 -0.16798607447E+03  0.10158201517E+04  0.65872536200E+02  0.10317214221E+04  0.25500000920E-02 0.  1.
       -2    1    3    3    0  502  0.16798607447E+03 -0.10158201517E+04 -0.29444631064E+02  0.10300373236E+04  0.25500000920E-02 0. -1.
</event>
<event>
 5   0  0.2732159E-05  0.2090350E+04  0.7818609E-02  0.8565506E-01
       -1   -1    0    0    0  501  0.00000000000E+00  0.00000000000E+00  0.55951402072E+03  0.55951402075E+03  0.50400001928E-02 0.  1.
        1   -1    0    0  501    0  0.00000000000E+00  0.00000000000E+00 -0.19523915789E+04  0.19523915789E+04  0.50400001928E-02 0. -1.
    10030    2    1    2    0    0  0.00000000000E+00  0.00000000000E+00 -0.13928775581E+04  0.25119055996E+04  0.20903496955E+04 0.  0.
        3    1    3    3  502    0 -0.93423611026E+03  0.46772800924E+03 -0.66194753005E+03  0.12368270466E+04  0.10100000352E+00 0.  1.
       -3    1    3    3    0  502  0.93423611026E+03 -0.46772800924E+03 -0.73093002809E+03  0.12750785531E+04  0.10100000352E+00 0. -1.
</event>
<event>
 5   0  0.2602060E-05  0.2106976E+04  0.7818609E-02  0.8558177E-01
       -1   -1    0    0    0  501  0.00000000000E+00  0.00000000000E+00  0.66264612769E+03  0.66264612771E+03  0.50400001928E-02 0.  1.
        1   -1    0    0  501    0  0.00000000000E+00  0.00000000000E+00 -0.16748560322E+04  0.16748560322E+04  0.50400001928E-02 0. -1.
    10030    2    1    2    0    0  0.00000000000E+00  0.00000000000E+00 -0.10122099045E+04  0.23375021599E+04  0.21069759033E+04 0.  0.
        1    1    3    3  502    0  0.86942462783E+02 -0.46746938246E+03  0.53683001021E+03  0.71712835341E+03  0.50400001928E-02 0.  1.
       -1    1    3    3    0  502 -0.86942462783E+02  0.46746938246E+03 -0.15490399147E+04  0.16203738065E+04  0.50400001928E-02 0. -1.
</event>
<event>
 5   0  0.5462851E-05  0.2121068E+04  0.7818609E-02  0.8552019E-01
        2   -1    0    0  501    0  0.00000000000E+00  0.00000000000E+00  0.13181705646E+04  0.13181705646E+04  0.25500000920E-02 0. -1.
       -2   -1    0    0    0  501  0.00000000000E+00  0.00000000000E+00 -0.85325214379E+03  0.85325214379E+03  0.25500000920E-02 0.  1.
    10030    2    1    2    0    0  0.00000000000E+00  0.00000000000E+00  0.46491842079E+03  0.21714227084E+04  0.21210675238E+04 0.  0.
        1    1    3    3  502    0 -0.17338829188E+03 -0.97722742996E+03 -0.15017180714E+03  0.10037870896E+04  0.50400001928E-02 0. -1.
       -1    1    3    3    0  502  0.17338829188E+03  0.97722742996E+03  0.61509022793E+03  0.11676356187E+04  0.50400001928E-02 0.  1.
</event>
<event>
 5   0  0.5506332E-05  0.2099030E+04  0.7818609E-02  0.8561671E-01
        2   -1    0    0  501    0  0.00000000000E+00  0.00000000000E+00  0.27038082672E+04  0.27038082672E+04  0.25500000920E-02 0.  1.
       -2   -1    0    0    0  501  0.00000000000E+00  0.00000000000E+00 -0.40738178387E+03  0.40738178388E+03  0.25500000920E-02 0. -1.
    10030    2    1    2    0    0  0.00000000000E+00  0.00000000000E+00  0.22964264833E+04  0.31111900510E+04  0.20990304763E+04 0.  0.
        3    1    3    3  502    0 -0.70665933130E+03 -0.62673531986E+03  0.18263397564E+04  0.20561326532E+04  0.10100000352E+00 0. -1.
       -3    1    3    3    0  502  0.70665933130E+03  0.62673531986E+03  0.47008672688E+03  0.10550573978E+04  0.10100000352E+00 0.  1.
</event>
<event>
 5   0  0.5866610E-05  0.2118370E+04  0.7818609E-02  0.8553194E-01
        2   -1    0    0  501    0  0.00000000000E+00  0.00000000000E+00  0.16060540142E+04  0.16060540142E+04  0.25500000920E-02 0.  1.
       -2   -1    0    0    0  501  0.00000000000E+00  0.00000000000E+00 -0.69852771919E+03  0.69852771920E+03  0.25500000920E-02 0. -1.
    10030    2    1    2    0    0  0.00000000000E+00  0.00000000000E+00  0.90752629502E+03  0.23045817334E+04  0.21183703618E+04 0.  0.
        5    1    3    3  502    0  0.41707868602E+03 -0.84030335242E+03  0.98870492957E+03  0.13629467643E+04  0.46999998093E+01 0.  1.
       -5    1    3    3    0  502 -0.41707868602E+03  0.84030335242E+03 -0.81178634556E+02  0.94163496916E+03  0.46999998093E+01 0. -1.
</event>
<event>
 5   0  0.5967046E-05  0.2100252E+04  0.7818609E-02  0.8561132E-01
        2   -1    0    0  501    0  0.00000000000E+00  0.00000000000E+00  0.57152387683E+03  0.57152387683E+03  0.25500000920E-02 0. -1.
       -2   -1    0    0    0  501  0.00000000000E+00  0.00000000000E+00 -0.19295167172E+04  0.19295167172E+04  0.25500000920E-02 0.  1.
    10030    2    1    2    0    0  0.00000000000E+00  0.00000000000E+00 -0.13579928404E+04  0.25010405940E+04  0.21002522464E+04 0.  0.
        4    1    3    3  502    0 -0.80944572232E+02  0.79865343531E+03 -0.14852181497E+04  0.16882754215E+04  0.12699999809E+01 0.  1.
       -4    1    3    3    0  502  0.80944572232E+02 -0.79865343531E+03  0.12722530936E+03  0.81276517257E+03  0.12699999809E+01 0. -1.
</event>
<event>
 5   0  0.5462851E-05  0.2063414E+04  0.7818609E-02  0.8577533E-01
       -2   -1    0    0    0  501  0.00000000000E+00  0.00000000000E+00  0.70266807078E+03  0.70266807078E+03  0.25500000920E-02 0.  1.
        2   -1    0    0  501    0  0.00000000000E+00  0.00000000000E+00 -0.15148253383E+04  0.15148253383E+04  0.25500000920E-02 0. -1.
    10030    2    1    2    0    0  0.00000000000E+00  0.00000000000E+00 -0.81215726749E+03  0.22174934090E+04  0.20634140622E+04 0.  0.
        1    1    3    3  502    0 -0.38467726796E+03  0.11622641739E+03  0.61510537977E+03  0.73473791846E+03  0.50400001928E-02 0.  1.
       -1    1    3    3    0  502  0.38467726796E+03 -0.11622641739E+03 -0.14272626473E+04  0.14827554906E+04  0.50400001928E-02 0. -1.
</event>
<event>
 5   0  0.2699285E-05  0.2099876E+04  0.7818609E-02  0.8561298E-01
       -1   -1    0    0    0  501  0.00000000000E+00  0.00000000000E+00  0.79536904171E+03  0.79536904173E+03  0.50400001928E-02 0.  1.
        1   -1    0    0  501    0  0.00000000000E+00  0.00000000000E+00 -0.13859852849E+04  0.13859852849E+04  0.50400001928E-02 0. -1.
    10030    2    1    2    0    0  0.00000000000E+00  0.00000000000E+00 -0.59061624316E+03  0.21813543266E+04  0.20998759848E+04 0.  0.
        2    1    3    3  502    0  0.17750827447E+03  0.60270096471E+03 -0.11691446770E+04  0.13272742430E+04  0.25500000920E-02 0. -1.
       -2    1    3    3    0  502 -0.17750827447E+03 -0.60270096471E+03  0.57852843387E+03  0.85408008358E+03  0.25500000920E-02 0.  1.
</event>
<event>
 5   0  0.2732159E-05  0.2090066E+04  0.7818609E-02  0.8565632E-01
       -1   -1    0    0    0  501  0.00000000000E+00  0.00000000000E+00  0.90594803601E+03  0.90594803603E+03  0.50400001928E-02 0. -1.
        1   -1    0    0  501    0  0.00000000000E+00  0.00000000000E+00 -0.12054708442E+04  0.12054708442E+04  0.50400001928E-02 0.  1.
    10030    2    1    2    0    0  0.00000000000E+00  0.00000000000E+00 -0.29952280814E+03  0.21114188802E+04  0.20900659738E+04 0.  0.
        3    1    3    3  502    0 -0.37222633742E+03  0.66302735204E+03 -0.87397890868E+03  0.11584458808E+04  0.10100000352E+00 0.  1.
       -3    1    3    3    0  502  0.37222633742E+03 -0.66302735204E+03  0.57445610054E+03  0.95297299934E+03  0.10100000352E+00 0. -1.
</event>
<event>
 5   0  0.5506332E-05  0.2111081E+04  0.7818609E-02  0.8556378E-01
       -2   -1    0    0    0  501  0.00000000000E+00  0.00000000000E+00  0.12327454814E+04  0.12327454814E+04  0.25500000920E-02 0.  1.
        2   -1    0    0  501    0  0.00000000000E+00  0.00000000000E+00 -0.90380833775E+03  0.90380833775E+03  0.25500000920E-02 0. -1.
    10030    2    1    2    0    0  0.00000000000E+00  0.00000000000E+00  0.32893714370E+03  0.21365538192E+04  0.21110809027E+04 0.  0.
        3    1    3    3  502    0  0.58041163011E+03  0.58057854657E+02  0.10548092706E+04  0.12053509789E+04  0.10100000352E+00 0.  1.
       -3    1    3    3    0  502 -0.58041163011E+03 -0.58057854657E+02 -0.72587212693E+03  0.93120284026E+03  0.10100000352E+00 0. -1.
</event>
<event>
 5   0  0.5506332E-05  0.2102759E+04  0.7818609E-02  0.8560029E-01
       -2   -1    0    0    0  501  0.00000000000E+00  0.00000000000E+00  0.75471780419E+03  0.75471780420E+03  0.25500000920E-02 0. -1.
        2   -1    0    0  501    0  0.00000000000E+00  0.00000000000E+00 -0.14646520855E+04  0.14646520856E+04  0.25500000920E-02 0.  1.
    10030    2    1    2    0    0  0.00000000000E+00  0.00000000000E+00 -0.70993428136E+03  0.22193698897E+04  0.21027591454E+04 0.  0.
        3    1    3    3  502    0 -0.74182983403E+02 -0.20212871527E+03  0.73119913170E+03  0.76224098090E+03  0.10100000352E+00 0. -1.
       -3    1    3    3    0  502  0.74182983403E+02  0.20212871527E+03 -0.14411334131E+04  0.14571289088E+04  0.10100000352E+00 0.  1.
</event>
<event>
 5   0  0.2789662E-05  0.2089896E+04  0.7818609E-02  0.8565708E-01
        1   -1    0    0  501    0  0.00000000000E+00  0.00000000000E+00  0.11486105924E+04  0.11486105924E+04  0.50400001928E-02 0. -1.
       -1   -1    0    0    0  501  0.00000000000E+00  0.00000000000E+00 -0.95064063455E+03  0.95064063456E+03  0.50400001928E-02 0.  1.
    10030    2    1    2    0    0  0.00000000000E+00  0.00000000000E+00  0.19796995782E+03  0.20992512269E+04  0.20898955978E+04 0.  0.
        4    1    3    3  502    0 -0.13545672257E+03  0.19598887421E+03  0.11209648299E+04  0.11460034578E+04  0.12699999809E+01 0. -1.
       -4    1    3    3    0  502  0.13545672257E+03 -0.19598887421E+03 -0.92299487210E+03  0.95324776912E+03  0.12699999809E+01 0.  1.
</event>
<event>
 5   0  0.2602060E-05  0.2084319E+04  0.7818609E-02  0.8568183E-01
        1   -1    0    0  501    0  0.00000000000E+00  0.00000000000E+00  0.94145133395E+03  0.94145133396E+03  0.50400001928E-02 0.  1.
       -1   -1    0    0    0  501  0.00000000000E+00  0.00000000000E+00 -0.11536407369E+04  0.11536407370E+04  0.50400001928E-02 0. -1.
    10030    2    1    2    0    0  0.00000000000E+00  0.00000000000E+00 -0.21218940299E+03  0.20950920709E+04  0.20843191797E+04 0.  0.
        1    1    3    3  502    0 -0.66877753044E+03  0.52808592447E+03  0.49697164542E+03  0.98646791393E+03  0.50400001928E-02 0.  1.
       -1    1    3    3    0  502  0.66877753044E+03 -0.52808592447E+03 -0.70916104841E+03  0.11086241570E+04  0.50400001928E-02 0. -1.
</event>
<event>
 5   0  0.5866610E-05  0.2086949E+04  0.7818609E-02  0.8567014E-01
        2   -1    0    0  501    0  0.00000000000E+00  0.00000000000E+00  0.11457728431E+04  0.11457728431E+04  0.25500000920E-02 0.  1.
       -2   -1    0    0    0  501  0.00000000000E+00  0.00000000000E+00 -0.95030946230E+03  0.95030946230E+03  0.25500000920E-02 0. -1.
    10030    2    1    2    0    0  0.00000000000E+00  0.00000000000E+00  0.19546338083E+03  0.20960823054E+04  0.20869487531E+04 0.  0.
        5    1    3    3  502    0 -0.23288535031E+03  0.40622158736E+03  0.10343175630E+04  0.11353794412E+04  0.46999998093E+01 0.  1.
       -5    1    3    3    0  502  0.23288535031E+03 -0.40622158736E+03 -0.83885418214E+03  0.96070286422E+03  0.46999998093E+01 0. -1.
</event>
<event>
 5   0  0.2602060E-05  0.2100562E+04  0.7818609E-02  0.8560996E-01
        1   -1    0    0  501    0  0.00000000000E+00  0.00000000000E+00  0.13200388789E+04  0.13200388789E+04  0.50400001928E-02 0.  1.
       -1   -1    0    0    0  501  0.00000000000E+00  0.00000000000E+00 -0.83565009827E+03  0.83565009829E+03  0.50400001928E-02 0. -1.
    10030    2    1    2    0    0  0.00000000000E+00  0.00000000000E+00  0.48438878063E+03  0.21556889772E+04  0.21005624189E+04 0.  0.
        1    1    3    3  502    0  0.78082573230E+03  0.11934525572E+03 -0.46818460267E+03  0.91822052715E+03  0.50400001928E-02 0. -1.
       -1    1    3    3    0  502 -0.78082573230E+03 -0.11934525572E+03  0.95257338330E+03  0.12374684501E+04  0.50400001928E-02 0.  1.
</event>
<event>
 5   0  0.2602060E-05  0.2070009E+04  0.7818609E-02  0.8574571E-01
       -1   -1    0    0    0  501  0.00000000000E+00  0.00000000000E+00  0.99866662479E+03  0.99866662481E+03  0.50400001928E-02 0. -1.
        1   -1    0    0  501    0  0.00000000000E+00  0.00000000000E+00 -0.10726642078E+04  0.10726642078E+04  0.50400001928E-02 0.  1.
    10030    2    1    2    0    0  0.00000000000E+00  0.00000000000E+00 -0.73997582993E+02  0.20713308326E+04  0.20700086415E+04 0.  0.
        1    1    3    3  502    0 -0.16236431627E+03 -0.15495379511E+03  0.97402328251E+03  0.99954699975E+03  0.50400001928E-02 0. -1.
       -1    1    3    3    0  502  0.16236431627E+03  0.15495379511E+03 -0.10480208655E+04  0.10717838329E+04  0.50400001928E-02 0.  1.
</event>
<event>
 5   0  0.5967046E-05  0.2104125E+04  0.7818609E-02  0.8559429E-01
       -2   -1    0    0    0  501  0.00000000000E+00  0.00000000000E+00  0.16357070235E+04  0.16357070235E+04  0.25500000920E-02 0. -1.
        2   -1    0    0  501    0  0.00000000000E+00  0.00000000000E+00 -0.67667086764E+03  0.67667086765E+03  0.25500000920E-02 0.  1.
    10030    2    1    2    0    0  0.00000000000E+00  0.00000000000E+00  0.95903615584E+03  0.23123778911E+04  0.21041247974E+04 0.  0.
        4    1    3    3  502    0  0.92110285738E+03  0.50830758098E+03  0.47384933845E+03  0.11538378912E+04  0.12699999809E+01 0. -1.
       -4    1    3    3    0  502 -0.92110285738E+03 -0.50830758098E+03  0.48518681740E+03  0.11585399999E+04  0.12699999809E+01 0.  1.
</event>
<event>
 5   0  0.2732159E-05  0.2135388E+04  0.7818609E-02  0.8545813E-01
       -1   -1    0    0    0  501  0.00000000000E+00  0.00000000000E+00  0.10489833920E+04  0.10489833920E+04  0.50400001928E-02 0.  1.
        1   -1    0    0  501    0  0.00000000000E+00  0.00000000000E+00 -0.10867382698E+04  0.10867382698E+04  0.50400001928E-02 0. -1.
    10030    2    1    2    0    0  0.00000000000E+00  0.00000000000E+00 -0.37754877808E+02  0.21357216618E+04  0.21353879240E+04 0.  0.
        3    1    3    3  502    0 -0.44570547939E+02 -0.65975424463E+03  0.81953049142E+03  0.10530396164E+04  0.10100000352E+00 0.  1.
       -3    1    3    3    0  502  0.44570547939E+02  0.65975424463E+03 -0.85728536923E+03  0.10826820455E+04  0.10100000352E+00 0. -1.
</event>
<event>
 5   0  0.2732159E-05  0.2164856E+04  0.7818609E-02  0.8533200E-01
        1   -1    0    0  501    0  0.00000000000E+00  0.00000000000E+00  0.26271151465E+04  0.26271151465E+04  0.50400001928E-02 0. -1.
       -1   -1    0    0    0  501  0.00000000000E+00  0.00000000000E+00 -0.44598365847E+03  0.44598365850E+03  0.50400001928E-02 0.  1.
    10030    2    1    2    0    0  0.00000000000E+00  0.00000000000E+00  0.21811314880E+04  0.30730988050E+04  0.21648560454E+04 0.  0.
        3    1    3    3  502    0 -0.13378154922E+03 -0.98159740773E+03  0.17096859109E+04  0.19759698626E+04  0.10100000352E+00 0. -1.
       -3    1    3    3    0  502  0.13378154922E+03  0.98159740773E+03  0.47144557707E+03  0.10971289423E+04  0.10100000352E+00 0.  1.
</event>
<event>
 5   0  0.2602060E-05  0.2105087E+04  0.7818609E-02  0.8559006E-01
        1   -1    0    0  501    0  0.00000000000E+00  0.00000000000E+00  0.24671230287E+04  0.24671230287E+04  0.50400001928E-02 0. -1.
       -1   -1    0    0    0  501  0.00000000000E+00  0.00000000000E+00 -0.44904454455E+03  0.44904454457E+03  0.50400001928E-02 0.  1.
    10030    2    1    2    0    0  0.00000000000E+00  0.00000000000E+00  0.20180784842E+04  0.29161675733E+04  0.21050873016E+04 0.  0.
        1    1    3    3  502    0 -0.49582718664E+03  0.26640943447E+03 -0.22304022211E+03  0.60544655131E+03  0.50400001928E-02 0.  1.
       -1    1    3    3    0  502  0.49582718664E+03 -0.26640943447E+03  0.22411187063E+04  0.23107210220E+04  0.50400001928E-02 0. -1.
</event>
<event>
 5   0  0.2604390E-05  0.2091140E+04  0.7818609E-02  0.8565156E-01
        1   -1    0    0  501    0  0.00000000000E+00  0.00000000000E+00  0.24665197804E+04  0.24665197804E+04  0.50400001928E-02 0. -1.
       -1   -1    0    0    0  501  0.00000000000E+00  0.00000000000E+00 -0.44322251915E+03  0.44322251918E+03  0.50400001928E-02 0.  1.
    10030    2    1    2    0    0  0.00000000000E+00  0.00000000000E+00  0.20232972613E+04  0.29097422996E+04  0.20911404646E+04 0.  0.
        5    1    3    3  502    0 -0.34984382309E+03  0.29400524157E+02  0.23820372419E+04  0.24077746163E+04  0.46999998093E+01 0. -1.
       -5    1    3    3    0  502  0.34984382309E+03 -0.29400524157E+02 -0.35873998060E+03  0.50196768328E+03  0.46999998093E+01 0.  1.
</event>
<event>
 5   0  0.2604390E-05  0.2101411E+04  0.7818609E-02  0.8560622E-01
        1   -1    0    0  501    0  0.00000000000E+00  0.00000000000E+00  0.17353066879E+04  0.17353066879E+04  0.50400001928E-02 0.  1.
       -1   -1    0    0    0  501  0.00000000000E+00  0.00000000000E+00 -0.63618867748E+03  0.63618867750E+03  0.50400001928E-02 0. -1.
    10030    2    1    2    0    0  0.00000000000E+00  0.00000000000E+00  0.10991180104E+04  0.23714953654E+04  0.21014113989E+04 0.  0.
        5    1    3    3  502    0 -0.84674850014E+02 -0.37578641782E+03 -0.55361396475E+03  0.67445961629E+03  0.46999998093E+01 0. -1.
       -5    1    3    3    0  502  0.84674850014E+02  0.37578641782E+03  0.16527319752E+04  0.16970357491E+04  0.46999998093E+01 0.  1.
</event>
<event>
 5   0  0.2699285E-05  0.2100231E+04  0.7818609E-02  0.8561142E-01
       -1   -1    0    0    0  501  0.00000000000E+00  0.00000000000E+00  0.59367854196E+03  0.59367854199E+03  0.50400001928E-02 0.  1.
        1   -1    0    0  501    0  0.00000000000E+00  0.00000000000E+00 -0.18574741605E+04  0.18574741605E+04  0.50400001928E-02 0. -1.
    10030    2    1    2    0    0  0.00000000000E+00  0.00000000000E+00 -0.12637956185E+04  0.24511527025E+04  0.21002309886E+04 0.  0.
        2    1    3    3  502    0 -0.50306203432E+03 -0.35791644326E+03 -0.16232811698E+04  0.17367260426E+04  0.25500000920E-02 0. -1.
       -2    1    3    3    0  502  0.50306203432E+03  0.35791644326E+03  0.35948555131E+03  0.71442665987E+03  0.25500000920E-02 0.  1.
</event>
<event>
 5   0  0.2699285E-05  0.2077507E+04  0.7818609E-02  0.8571217E-01
        1   -1    0    0  501    0  0.00000000000E+00  0.00000000000E+00  0.13870618977E+04  0.13870618977E+04  0.50400001928E-02 0. -1.
       -1   -1    0    0    0  501  0.00000000000E+00  0.00000000000E+00 -0.77790952341E+03  0.77790952342E+03  0.50400001928E-02 0.  1.
    10030    2    1    2    0    0  0.00000000000E+00  0.00000000000E+00  0.60915237430E+03  0.21649714211E+04  0.20775068325E+04 0.  0.
        2    1    3    3  502    0  0.59707940821E+03 -0.82424605388E+03  0.88172022675E+02  0.10215966340E+04  0.25500000920E-02 0.  1.
       -2    1    3    3    0  502 -0.59707940821E+03  0.82424605388E+03  0.52098035163E+03  0.11433747871E+04  0.25500000920E-02 0. -1.
</event>
<event>
 5   0  0.2699285E-05  0.2087012E+04  0.7818609E-02  0.8566986E-01
       -1   -1    0    0    0  501  0.00000000000E+00  0.00000000000E+00  0.85924466112E+03  0.85924466114E+03  0.50400001928E-02 0.  1.
        1   -1    0    0  501    0  0.00000000000E+00  0.00000000000E+00 -0.12672811416E+04  0.12672811416E+04  0.50400001928E-02 0. -1.
    10030    2    1    2    0    0  0.00000000000E+00  0.00000000000E+00 -0.40803648043E+03  0.21265258027E+04  0.20870117921E+04 0.  0.
        2    1    3    3  502    0 -0.86256191439E+03  0.51040161047E+03  0.91966878165E+02  0.10064694565E+04  0.25500000920E-02 0.  1.
       -2    1    3    3    0  502  0.86256191439E+03 -0.51040161047E+03 -0.50000335859E+03  0.11200563462E+04  0.25500000920E-02 0. -1.
</event>
<event>
 5   0  0.5866610E-05  0.2098543E+04  0.7818609E-02  0.8561886E-01
       -2   -1    0    0    0  501  0.00000000000E+00  0.00000000000E+00  0.46151016904E+03  0.46151016905E+03  0.25500000920E-02 0.  1.
        2   -1    0    0  501    0  0.00000000000E+00  0.00000000000E+00 -0.23855817878E+04  0.23855817878E+04  0.25500000920E-02 0. -1.
    10030    2    1    2    0    0  0.00000000000E+00  0.00000000000E+00 -0.19240716187E+04  0.28470919568E+04  0.20985425935E+04 0.  0.
        5    1    3    3  502    0 -0.10170257901E+04  0.13079813783E+03 -0.66019360740E+03  0.12195602895E+04  0.46999998093E+01 0. -1.
       -5    1    3    3    0  502  0.10170257901E+04 -0.13079813783E+03 -0.12638780113E+04  0.16275316673E+04  0.46999998093E+01 0.  1.
</event>
<event>
 5   0  0.2602060E-05  0.2094360E+04  0.7818609E-02  0.8563732E-01
       -1   -1    0    0    0  501  0.00000000000E+00  0.00000000000E+00  0.86342674335E+03  0.86342674336E+03  0.50400001928E-02 0.  1.
        1   -1    0    0  501    0  0.00000000000E+00  0.00000000000E+00 -0.12700388798E+04  0.12700388798E+04  0.50400001928E-02 0. -1.
    10030    2    1    2    0    0  0.00000000000E+00  0.00000000000E+00 -0.40661213642E+03  0.21334656231E+04  0.20943596004E+04 0.  0.
        1    1    3    3  502    0  0.57035703067E+03  0.70514616405E+02  0.68842835800E+03  0.89677926921E+03  0.50400001928E-02 0.  1.
       -1    1    3    3    0  502 -0.57035703067E+03 -0.70514616405E+02 -0.10950404944E+04  0.12366863539E+04  0.50400001928E-02 0. -1.
</event>
<event>
 5   0  0.2017750E-05  0.2103395E+04  0.7818609E-02  0.8559749E-01
        3   -1    0    0  501    0  0.00000000000E+00  0.00000000000E+00  0.24754818399E+04  0.24754818419E+04  0.10100000352E+00 0. -1.
       -3   -1    0    0    0  501  0.00000000000E+00  0.00000000000E+00 -0.44680885036E+03  0.44680886178E+03  0.10100000352E+00 0.  1.
    10030    2    1    2    0    0  0.00000000000E+00  0.00000000000E+00  0.20286729895E+04  0.29222907037E+04  0.21033946036E+04 0.  0.
        5    1    3    3  502    0 -0.64515350183E+03  0.57156112786E+03  0.18515566641E+04  0.20423489746E+04  0.46999998093E+01 0. -1.
       -5    1    3    3    0  502  0.64515350183E+03 -0.57156112786E+03  0.17711632538E+03  0.87994172904E+03  0.46999998093E+01 0.  1.
</event>
<event>
 5   0  0.5506332E-05  0.2105496E+04  0.7818609E-02  0.8558826E-01
        2   -1    0    0  501    0  0.00000000000E+00  0.00000000000E+00  0.12660693626E+04  0.12660693626E+04  0.25500000920E-02 0.  1.
       -2   -1    0    0    0  501  0.00000000000E+00  0.00000000000E+00 -0.87536931214E+03  0.87536931214E+03  0.25500000920E-02 0. -1.
    10030    2    1    2    0    0  0.00000000000E+00  0.00000000000E+00  0.39070005050E+03  0.21414386748E+04  0.21054959198E+04 0.  0.
        3    1    3    3  502    0  0.63096865459E+03  0.13437629238E+03 -0.65077708002E+03  0.91634559480E+03  0.10100000352E+00 0. -1.
       -3    1    3    3    0  502 -0.63096865459E+03 -0.13437629238E+03  0.10414771305E+04  0.12250930800E+04  0.10100000352E+00 0.  1.
</event>
<event>
 5   0  0.2789662E-05  0.2014837E+04  0.7818609E-02  0.8599715E-01
        1   -1    0    0  501    0  0.00000000000E+00  0.00000000000E+00  0.13210834303E+04  0.13210834303E+04  0.50400001928E-02 0.  1.
       -1   -1    0    0    0  501  0.00000000000E+00  0.00000000000E+00 -0.76822674425E+03  0.76822674427E+03  0.50400001928E-02 0. -1.
    10030    2    1    2    0    0  0.00000000000E+00  0.00000000000E+00  0.55285668609E+03  0.20893101746E+04  0.20148365915E+04 0.  0.
        4    1    3    3  502    0 -0.18377620887E+03 -0.93006963562E+03 -0.76880482822E+02  0.95116530824E+03  0.12699999809E+01 0. -1.
       -4    1    3    3    0  502  0.18377620887E+03  0.93006963562E+03  0.62973716891E+03  0.11381448664E+04  0.12699999809E+01 0.  1.
</event>
<event>
 5   0  0.5967046E-05  0.2113781E+04  0.7818609E-02  0.8555197E-01
        2   -1    0    0  501    0  0.00000000000E+00  0.00000000000E+00  0.10069967466E+04  0.10069967466E+04  0.25500000920E-02 0. -1.
       -2   -1    0    0    0  501  0.00000000000E+00  0.00000000000E+00 -0.11092560549E+04  0.11092560549E+04  0.25500000920E-02 0.  1.
    10030    2    1    2    0    0  0.00000000000E+00  0.00000000000E+00 -0.10225930834E+03  0.21162528015E+04  0.21137807251E+04 0.  0.
        4    1    3    3  502    0  0.18454997177E+03  0.57668596752E+03 -0.91839341130E+03  0.11000333941E+04  0.12699999809E+01 0.  1.
       -4    1    3    3    0  502 -0.18454997177E+03 -0.57668596752E+03  0.81613410295E+03  0.10162194075E+04  0.12699999809E+01 0. -1.
</event>
<event>
 5   0  0.5462851E-05  0.2108940E+04  0.7818609E-02  0.8557316E-01
       -2   -1    0    0    0  501  0.00000000000E+00  0.00000000000E+00  0.58386494693E+03  0.58386494694E+03  0.25500000920E-02 0. -1.
        2   -1    0    0  501    0  0.00000000000E+00  0.00000000000E+00 -0.19043901289E+04  0.19043901289E+04  0.25500000920E-02 0.  1.
    10030    2    1    2    0    0  0.00000000000E+00  0.00000000000E+00 -0.13205251820E+04  0.24882550758E+04  0.21089396782E+04 0.  0.
        1    1    3    3  502    0  0.32100838623E+03  0.22109190449E+03  0.49574722790E+03  0.63062931129E+03  0.50400001928E-02 0. -1.
       -1    1    3    3    0  502 -0.32100838623E+03 -0.22109190449E+03 -0.18162724099E+04  0.18576257646E+04  0.50400001928E-02 0.  1.
</event>
<event>
 5   0  0.2732159E-05  0.2102090E+04  0.7818609E-02  0.8560323E-01
       -1   -1    0    0    0  501  0.00000000000E+00  0.00000000000E+00  0.79075680713E+03  0.79075680715E+03  0.50400001928E-02 0. -1.
        1   -1    0    0  501    0  0.00000000000E+00  0.00000000000E+00 -0.13970109972E+04  0.13970109972E+04  0.50400001928E-02 0.  1.
    10030    2    1    2    0    0  0.00000000000E+00  0.00000000000E+00 -0.60625419006E+03  0.21877678043E+04  0.21020903460E+04 0.  0.
        3    1    3    3  502    0  0.24697610255E+03  0.78986603155E+03 -0.97746325275E+03  0.12807497662E+04  0.10100000352E+00 0.  1.
       -3    1    3    3    0  502 -0.24697610255E+03 -0.78986603155E+03  0.37120906270E+03  0.90701803811E+03  0.10100000352E+00 0. -1.
</event>
<event>
 5   0  0.5506332E-05  0.2099472E+04  0.7818609E-02  0.8561476E-01
       -2   -1    0    0    0  501  0.00000000000E+00  0.00000000000E+00  0.10702889982E+04  0.10702889982E+04  0.25500000920E-02 0. -1.
        2   -1    0    0  501    0  0.00000000000E+00  0.00000000000E+00 -0.10295772438E+04  0.10295772438E+04  0.25500000920E-02 0.  1.
    10030    2    1    2    0    0  0.00000000000E+00  0.00000000000E+00  0.40711754366E+02  0.20998662420E+04  0.20994715496E+04 0.  0.
        3    1    3    3  502    0 -0.47801744370E+03 -0.31598393976E+03  0.90006580347E+03  0.10669887476E+04  0.10100000352E+00 0. -1.
       -3    1    3    3    0  502  0.47801744370E+03  0.31598393976E+03 -0.85935404911E+03  0.10328774945E+04  0.10100000352E+00 0.  1.
</event>
<event>
 5   0  0.2789662E-05  0.2101006E+04  0.7818609E-02  0.8560800E-01
        1   -1    0    0  501    0  0.00000000000E+00  0.00000000000E+00  0.11062826138E+04  0.11062826138E+04  0.50400001928E-02 0.  1.
       -1   -1    0    0    0  501  0.00000000000E+00  0.00000000000E+00 -0.99753595153E+03  0.99753595154E+03  0.50400001928E-02 0. -1.
    10030    2    1    2    0    0  0.00000000000E+00  0.00000000000E+00  0.10874666224E+03  0.21038185653E+04  0.21010061207E+04 0.  0.
        4    1    3    3  502    0 -0.76450164746E+03  0.45319601730E+03  0.61521742183E+03  0.10808993885E+04  0.12699999809E+01 0.  1.
       -4    1    3    3    0  502  0.76450164746E+03 -0.45319601730E+03 -0.50647075959E+03  0.10229191768E+04  0.12699999809E+01 0. -1.
</event>
<event>
 5   0  0.5954140E-05  0.2101467E+04  0.7818609E-02  0.8560597E-01
        2   -1    0    0  501    0  0.00000000000E+00  0.00000000000E+00  0.11562335583E+04  0.11562335583E+04  0.25500000920E-02 0.  1.
       -2   -1    0    0    0  501  0.00000000000E+00  0.00000000000E+00 -0.95485984096E+03  0.95485984096E+03  0.25500000920E-02 0. -1.
    10030    2    1    2    0    0  0.00000000000E+00  0.00000000000E+00  0.20137371735E+03  0.21110933993E+04  0.21014670986E+04 0.  0.
        2    1    3    3  502    0 -0.45732818328E+02 -0.60844456146E+03 -0.75865239556E+03  0.97357574556E+03  0.25500000920E-02 0. -1.
       -2    1    3    3    0  502  0.45732818328E+02  0.60844456146E+03  0.96002611292E+03  0.11375176537E+04  0.25500000920E-02 0.  1.
</event>
<event>
 5   0  0.2789662E-05  0.2056977E+04  0.7818609E-02  0.8580436E-01
       -1   -1    0    0    0  501  0.00000000000E+00  0.00000000000E+00  0.82248177055E+03  0.82248177057E+03  0.50400001928E-02 0.  1.
        1   -1    0    0  501    0  0.00000000000E+00  0.00000000000E+00 -0.12860934139E+04  0.12860934139E+04  0.50400001928E-02 0. -1.
    10030    2    1    2    0    0  0.00000000000E+00  0.00000000000E+00 -0.46361164333E+03  0.21085751845E+04  0.20569767993E+04 0.  0.
        4    1    3    3  502    0 -0.58933230327E+03  0.33567938652E+03  0.56075995284E+03  0.88002644950E+03  0.12699999809E+01 0.  1.
       -4    1    3    3    0  502  0.58933230327E+03 -0.33567938652E+03 -0.10243715962E+04  0.12285487350E+04  0.12699999809E+01 0. -1.
</event>
<event>
 5   0  0.2602060E-05  0.2075694E+04  0.7818609E-02  0.8572027E-01
        1   -1    0    0  501    0  0.00000000000E+00  0.00000000000E+00  0.16151797555E+04  0.16151797555E+04  0.50400001928E-02 0. -1.
       -1   -1    0    0    0  501  0.00000000000E+00  0.00000000000E+00 -0.66687717486E+03  0.66687717488E+03  0.50400001928E-02 0.  1.
    10030    2    1    2    0    0  0.00000000000E+00  0.00000000000E+00  0.94830258063E+03  0.22820569304E+04  0.20756941126E+04 0.  0.
        1    1    3    3  502    0 -0.31084836795E+03 -0.12737482107E+03  0.15537532846E+04  0.15896541518E+04  0.50400001928E-02 0. -1.
       -1    1    3    3    0  502  0.31084836795E+03  0.12737482107E+03 -0.60545070394E+03  0.69240277861E+03  0.50400001928E-02 0.  1.
</event>
<event>
 5   0  0.2699285E-05  0.2075210E+04  0.7818609E-02  0.8572243E-01
        1   -1    0    0  501    0  0.00000000000E+00  0.00000000000E+00  0.26387201078E+04  0.26387201078E+04  0.50400001928E-02 0. -1.
       -1   -1    0    0    0  501  0.00000000000E+00  0.00000000000E+00 -0.40801005367E+03  0.40801005370E+03  0.50400001928E-02 0.  1.
    10030    2    1    2    0    0  0.00000000000E+00  0.00000000000E+00  0.22307100541E+04  0.30467301615E+04  0.20752101897E+04 0.  0.
        2    1    3    3  502    0  0.66997858971E+03 -0.76304255038E+03  0.14285888703E+04  0.17527040265E+04  0.25500000920E-02 0. -1.
       -2    1    3    3    0  502 -0.66997858971E+03  0.76304255038E+03  0.80212118385E+03  0.12940261350E+04  0.25500000920E-02 0.  1.
</event>
<event>
 5   0  0.5954140E-05  0.2108045E+04  0.7818609E-02  0.8557708E-01
        2   -1    0    0  501    0  0.00000000000E+00  0.00000000000E+00  0.75672658751E+03  0.75672658751E+03  0.25500000920E-02 0. -1.
       -2   -1    0    0    0  501  0.00000000000E+00  0.00000000000E+00 -0.14681177146E+04  0.14681177146E+04  0.25500000920E-02 0.  1.
    10030    2    1    2    0    0  0.00000000000E+00  0.00000000000E+00 -0.71139112707E+03  0.22248443021E+04  0.21080452635E+04 0.  0.
        2    1    3    3  502    0  0.55760442254E+03 -0.20101199182E+03  0.56416548950E+03  0.81829775292E+03  0.25500000920E-02 0. -1.
       -2    1    3    3    0  502 -0.55760442254E+03  0.20101199182E+03 -0.12755566166E+04  0.14065465492E+04  0.25500000920E-02 0.  1.
</event>
<event>
 5   0  0.5462851E-05  0.2097170E+04  0.7818609E-02  0.8562491E-01
       -2   -1    0    0    0  501  0.00000000000E+00  0.00000000000E+00  0.58560544137E+03  0.58560544137E+03  0.25500000920E-02 0.  1.
        2   -1    0    0  501    0  0.00000000000E+00  0.00000000000E+00 -0.18775957679E+04  0.18775957679E+04  0.25500000920E-02 0. -1.
    10030    2    1    2    0    0  0.00000000000E+00  0.00000000000E+00 -0.12919903266E+04  0.24632012093E+04  0.20971698056E+04 0.  0.
        1    1    3    3  502    0  0.95621159497E+03  0.42231643818E+03 -0.54886658355E+03  0.11806550364E+04  0.50400001928E-02 0. -1.
       -1    1    3    3    0  502 -0.95621159497E+03 -0.42231643818E+03 -0.74312374303E+03  0.12825461730E+04  0.50400001928E-02 0.  1.
</event>
<event>
 5   0  0.2017750E-05  0.2092510E+04  0.7818609E-02  0.8564550E-01
        4   -1    0    0  501    0  0.00000000000E+00  0.00000000000E+00  0.74931319988E+03  0.74931427614E+03  0.12699999809E+01 0.  1.
       -4   -1    0    0    0  501  0.00000000000E+00  0.00000000000E+00 -0.14608677637E+04  0.14608683157E+04  0.12699999809E+01 0. -1.
    10030    2    1    2    0    0  0.00000000000E+00  0.00000000000E+00 -0.71155456382E+03  0.22101825919E+04  0.20925097830E+04 0.  0.
        1    1    3    3  502    0  0.35107508441E+02  0.43676875403E+03 -0.13592840500E+04  0.14281640698E+04  0.50400001928E-02 0. -1.
       -1    1    3    3    0  502 -0.35107508441E+02 -0.43676875403E+03  0.64772948616E+03  0.78201852210E+03  0.50400001928E-02 0.  1.
</event>
<event>
 5   0  0.5462851E-05  0.2117853E+04  0.7818609E-02  0.8553420E-01
        2   -1    0    0  501    0  0.00000000000E+00  0.00000000000E+00  0.15500676136E+04  0.15500676136E+04  0.25500000920E-02 0.  1.
       -2   -1    0    0    0  501  0.00000000000E+00  0.00000000000E+00 -0.72340401530E+03  0.72340401530E+03  0.25500000920E-02 0. -1.
    10030    2    1    2    0    0  0.00000000000E+00  0.00000000000E+00  0.82666359831E+03  0.22734716289E+04  0.21178528142E+04 0.  0.
        1    1    3    3  502    0 -0.43030264001E+03 -0.10597588683E+03 -0.61907084848E+03  0.76134090002E+03  0.50400001928E-02 0. -1.
       -1    1    3    3    0  502  0.43030264001E+03  0.10597588683E+03  0.14457344468E+04  0.15121307289E+04  0.50400001928E-02 0.  1.
</event>
<event>
 5   0  0.2602060E-05  0.2129321E+04  0.7818609E-02  0.8548436E-01
       -1   -1    0    0    0  501  0.00000000000E+00  0.00000000000E+00  0.91770869479E+03  0.91770869480E+03  0.50400001928E-02 0. -1.
        1   -1    0    0  501    0  0.00000000000E+00  0.00000000000E+00 -0.12351430199E+04  0.12351430199E+04  0.50400001928E-02 0.  1.
    10030    2    1    2    0    0  0.00000000000E+00  0.00000000000E+00 -0.31743432512E+03  0.21528517147E+04  0.21293205383E+04 0.  0.
        1    1    3    3  502    0  0.58865456329E+03  0.34589959389E+03  0.66721979871E+03  0.95464285665E+03  0.50400001928E-02 0. -1.
       -1    1    3    3    0  502 -0.58865456329E+03 -0.34589959389E+03 -0.98465412383E+03  0.11982088581E+04  0.50400001928E-02 0.  1.
</event>
<event>
 5   0  0.5866610E-05  0.2089401E+04  0.7818609E-02  0.8565927E-01
       -2   -1    0    0    0  501  0.00000000000E+00  0.00000000000E+00  0.70032158311E+03  0.70032158311E+03  0.25500000920E-02 0.  1.
        2   -1    0    0  501    0  0.00000000000E+00  0.00000000000E+00 -0.15584252620E+04  0.15584252620E+04  0.25500000920E-02 0. -1.
    10030    2    1    2    0    0  0.00000000000E+00  0.00000000000E+00 -0.85810367894E+03  0.22587468452E+04  0.20894007243E+04 0.  0.
        5    1    3    3  502    0 -0.17543388082E+03  0.33747313110E+03  0.62280023158E+03  0.72977214198E+03  0.46999998093E+01 0.  1.
       -5    1    3    3    0  502  0.17543388082E+03 -0.33747313110E+03 -0.14809039105E+04  0.15289747032E+04  0.46999998093E+01 0. -1.
</event>
<event>
 5   0  0.5967046E-05  0.2084202E+04  0.7818609E-02  0.8568235E-01
       -2   -1    0    0    0  501  0.00000000000E+00  0.00000000000E+00  0.10456317345E+04  0.10456317345E+04  0.25500000920E-02 0. -1.
        2   -1    0    0  501    0  0.00000000000E+00  0.00000000000E+00 -0.10385817695E+04  0.10385817695E+04  0.25500000920E-02 0.  1.
    10030    2    1    2    0    0  0.00000000000E+00  0.00000000000E+00  0.70499650694E+01  0.20842135040E+04  0.20842015805E+04 0.  0.
        4    1    3    3  502    0 -0.61279989906E+03  0.22879534895E+03 -0.80771415980E+03  0.10393626917E+04  0.12699999809E+01 0.  1.
       -4    1    3    3    0  502  0.61279989906E+03 -0.22879534895E+03  0.81476412487E+03  0.10448508124E+04  0.12699999809E+01 0. -1.
</event>
<event>
 5   0  0.5967046E-05  0.2115095E+04  0.7818609E-02  0.8554623E-01
       -2   -1    0    0    0  501  0.00000000000E+00  0.00000000000E+00  0.72374186995E+03  0.72374186996E+03  0.25500000920E-02 0. -1.
        2   -1    0    0  501    0  0.00000000000E+00  0.00000000000E+00 -0.15453114650E+04  0.15453114650E+04  0.25500000920E-02 0.  1.
    10030    2    1    2    0    0  0.00000000000E+00  0.00000000000E+00 -0.82156959501E+03  0.22690533349E+04  0.21150949003E+04 0.  0.
        4    1    3    3  502    0  0.10892336345E+03  0.96649136139E+03 -0.85626431465E+03  0.12958240776E+04  0.12699999809E+01 0.  1.
       -4    1    3    3    0  502 -0.10892336345E+03 -0.96649136139E+03  0.34694719639E+02  0.97322925728E+03  0.12699999809E+01 0. -1.
</event>
<event>
 5   0  0.2699285E-05  0.2112322E+04  0.7818609E-02  0.8555835E-01
       -1   -1    0    0    0  501  0.00000000000E+00  0.00000000000E+00  0.86031276562E+03  0.86031276564E+03  0.50400001928E-02 0. -1.
        1   -1    0    0  501    0  0.00000000000E+00  0.00000000000E+00 -0.12965931401E+04  0.12965931401E+04  0.50400001928E-02 0.  1.
    10030    2    1    2    0    0  0.00000000000E+00  0.00000000000E+00 -0.43628037444E+03  0.21569059057E+04  0.21123215951E+04 0.  0.
        2    1    3    3  502    0  0.34376013548E+03  0.95100759043E+02 -0.12332356045E+04  0.12837777227E+04  0.25500000920E-02 0.  1.
       -2    1    3    3    0  502 -0.34376013548E+03 -0.95100759043E+02  0.79695523009E+03  0.87312818297E+03  0.25500000920E-02 0. -1.
</event>
<event>
 5   0  0.2732159E-05  0.2093991E+04  0.7818609E-02  0.8563895E-01
        1   -1    0    0  501    0  0.00000000000E+00  0.00000000000E+00  0.10551014664E+04  0.10551014664E+04  0.50400001928E-02 0. -1.
       -1   -1    0    0    0  501  0.00000000000E+00  0.00000000000E+00 -0.10389521206E+04  0.10389521206E+04  0.50400001928E-02 0.  1.
    10030    2    1    2    0    0  0.00000000000E+00  0.00000000000E+00  0.16149345850E+02  0.20940535870E+04  0.20939913142E+04 0.  0.
        3    1    3    3  502    0  0.15618119286E+01 -0.91464831713E+03 -0.50146566313E+03  0.10430972173E+04  0.10100000352E+00 0.  1.
       -3    1    3    3    0  502 -0.15618119286E+01  0.91464831713E+03  0.51761500898E+03  0.10509563697E+04  0.10100000352E+00 0. -1.
</event>
<event>
 5   0  0.2604390E-05  0.2111613E+04  0.7818609E-02  0.8556145E-01
       -1   -1    0    0    0  501  0.00000000000E+00  0.00000000000E+00  0.11023032816E+04  0.11023032816E+04  0.50400001928E-02 0. -1.
        1   -1    0    0  501    0  0.00000000000E+00  0.00000000000E+00 -0.10112713692E+04  0.10112713692E+04  0.50400001928E-02 0.  1.
    10030    2    1    2    0    0  0.00000000000E+00  0.00000000000E+00  0.91031912456E+02  0.21135746508E+04  0.21116133632E+04 0.  0.
        5    1    3    3  502    0 -0.73779860142E+03 -0.10450678221E+03 -0.70313410855E+03  0.10245428778E+04  0.46999998093E+01 0.  1.
       -5    1    3    3    0  502  0.73779860142E+03  0.10450678221E+03  0.79416602101E+03  0.10890317731E+04  0.46999998093E+01 0. -1.
</event>
<event>
 5   0  0.5967046E-05  0.2110209E+04  0.7818609E-02  0.8556759E-01
       -2   -1    0    0    0  501  0.00000000000E+00  0.00000000000E+00  0.93114822549E+03  0.93114822550E+03  0.25500000920E-02 0.  1.
        2   -1    0    0  501    0  0.00000000000E+00  0.00000000000E+00 -0.11955623834E+04  0.11955623834E+04  0.25500000920E-02 0. -1.
    10030    2    1    2    0    0  0.00000000000E+00  0.00000000000E+00 -0.26441415789E+03  0.21267106089E+04  0.21102092709E+04 0.  0.
        4    1    3    3  502    0 -0.16522155941E+03  0.36953115949E+03  0.84978011308E+03  0.94126473163E+03  0.12699999809E+01 0.  1.
       -4    1    3    3    0  502  0.16522155941E+03 -0.36953115949E+03 -0.11141942710E+04  0.11854458773E+04  0.12699999809E+01 0. -1.
</event>
<event>
 5   0  0.5866610E-05  0.2088887E+04  0.7818609E-02  0.8566155E-01
        2   -1    0    0  501    0  0.00000000000E+00  0.00000000000E+00  0.90702624758E+03  0.90702624758E+03  0.25500000920E-02 0. -1.
       -2   -1    0    0    0  501  0.00000000000E+00  0.00000000000E+00 -0.12026796698E+04  0.12026796698E+04  0.25500000920E-02 0.  1.
    10030    2    1    2    0    0  0.00000000000E+00  0.00000000000E+00 -0.29565342222E+03  0.21097059174E+04  0.20888868116E+04 0.  0.
        5    1    3    3  502    0  0.52086773515E+03  0.18270714610E+03 -0.10433173682E+04  0.11803466947E+04  0.46999998093E+01 0.  1.
       -5    1    3    3    0  502 -0.52086773515E+03 -0.18270714610E+03  0.74766394599E+03  0.92935922274E+03  0.46999998093E+01 0. -1.
</event>
<event>
 5   0  0.5462851E-05  0.2107374E+04  0.7818609E-02  0.8558002E-01
       -2   -1    0    0    0  501  0.00000000000E+00  0.00000000000E+00  0.63654165605E+03  0.63654165606E+03  0.25500000920E-02 0. -1.
        2   -1    0    0  501    0  0.00000000000E+00  0.00000000000E+00 -0.17442003817E+04  0.17442003817E+04  0.25500000920E-02 0.  1.
    10030    2    1    2    0    0  0.00000000000E+00  0.00000000000E+00 -0.11076587256E+04  0.23807420378E+04  0.21073739103E+04 0.  0.
        1    1    3    3  502    0  0.29695665092E+03  0.93020316868E+03 -0.10011684659E+04  0.13984990113E+04  0.50400001928E-02 0.  1.
       -1    1    3    3    0  502 -0.29695665092E+03 -0.93020316868E+03 -0.10649025975E+03  0.98224302644E+03  0.50400001928E-02 0. -1.
</event>
<event>
 5   0  0.5462851E-05  0.2111158E+04  0.7818609E-02  0.8556344E-01
       -2   -1    0    0    0  501  0.00000000000E+00  0.00000000000E+00  0.11311617967E+04  0.11311617967E+04  0.25500000920E-02 0. -1.
        2   -1    0    0  501    0  0.00000000000E+00  0.00000000000E+00 -0.98504681855E+03  0.98504681855E+03  0.25500000920E-02 0.  1.
    10030    2    1    2    0    0  0.00000000000E+00  0.00000000000E+00  0.14611497815E+03  0.21162086152E+04  0.21111582879E+04 0.  0.
        1    1    3    3  502    0 -0.60465018550E+03 -0.15306693042E+03 -0.78057585178E+03  0.99916464731E+03  0.50400001928E-02 0.  1.
       -1    1    3    3    0  502  0.60465018550E+03  0.15306693042E+03  0.92669082992E+03  0.11170439679E+04  0.50400001928E-02 0. -1.
</event>
<event>
 5   0  0.2017750E-05  0.2075623E+04  0.7818609E-02  0.8572058E-01
       -3   -1    0    0    0  501  0.00000000000E+00  0.00000000000E+00  0.82691823336E+03  0.82691823953E+03  0.10100000352E+00 0. -1.
        3   -1    0    0  501    0  0.00000000000E+00  0.00000000000E+00 -0.13024901611E+04  0.13024901651E+04  0.10100000352E+00 0.  1.
    10030    2    1    2    0    0  0.00000000000E+00  0.00000000000E+00 -0.47557192779E+03  0.21294084046E+04  0.20756231583E+04 0.  0.
        4    1    3    3  502    0 -0.41427997108E+03  0.20777444993E+03  0.71485192308E+03  0.85194659534E+03  0.12699999809E+01 0. -1.
       -4    1    3    3    0  502  0.41427997108E+03 -0.20777444993E+03 -0.11904238509E+04  0.12774618093E+04  0.12699999809E+01 0.  1.
</event>
<event>
 5   0  0.2017750E-05  0.2092009E+04  0.7818609E-02  0.8564772E-01
       -3   -1    0    0    0  501  0.00000000000E+00  0.00000000000E+00  0.10042908220E+04  0.10042908271E+04  0.10100000352E+00 0.  1.
        3   -1    0    0  501    0  0.00000000000E+00  0.00000000000E+00 -0.10894506251E+04  0.10894506298E+04  0.10100000352E+00 0. -1.
    10030    2    1    2    0    0  0.00000000000E+00  0.00000000000E+00 -0.85159803097E+02  0.20937414569E+04  0.20920088662E+04 0.  0.
        1    1    3    3  502    0  0.26220989416E+03 -0.99388554355E+03  0.15139178745E+03  0.10389812200E+04  0.50400001928E-02 0. -1.
       -1    1    3    3    0  502 -0.26220989416E+03  0.99388554355E+03 -0.23655159055E+03  0.10547602369E+04  0.50400001928E-02 0.  1.
</event>
<event>
 5   0  0.5967046E-05  0.2104645E+04  0.7818609E-02  0.8559200E-01
       -2   -1    0    0    0  501  0.00000000000E+00  0.00000000000E+00  0.16461780745E+04  0.16461780745E+04  0.25500000920E-02 0.  1.
        2   -1    0    0  501    0  0.00000000000E+00  0.00000000000E+00 -0.67269905396E+03  0.67269905397E+03  0.25500000920E-02 0. -1.
    10030    2    1    2    0    0  0.00000000000E+00  0.00000000000E+00  0.97347902049E+03  0.23188771284E+04  0.21046447998E+04 0.  0.
        4    1    3    3  502    0 -0.35858370321E+03  0.74544245649E+02  0.15736887962E+04  0.16157466252E+04  0.12699999809E+01 0.  1.
       -4    1    3    3    0  502  0.35858370321E+03 -0.74544245649E+02 -0.60020977571E+03  0.70313050319E+03  0.12699999809E+01 0. -1.
</event>
<event>
 5   0  0.2789662E-05  0.2118012E+04  0.7818609E-02  0.8553350E-01
        1   -1    0    0  501    0  0.00000000000E+00  0.00000000000E+00  0.28925925428E+04  0.28925925428E+04  0.50400001928E-02 0.  1.
       -1   -1    0    0    0  501  0.00000000000E+00  0.00000000000E+00 -0.38771242189E+03  0.38771242192E+03  0.50400001928E-02 0. -1.
    10030    2    1    2    0    0  0.00000000000E+00  0.00000000000E+00  0.25048801209E+04  0.32803049647E+04  0.21180123327E+04 0.  0.
        4    1    3    3  502    0  0.36069147327E+03 -0.56548689061E+03  0.25216899134E+04  0.26093668570E+04  0.12699999809E+01 0.  1.
       -4    1    3    3    0  502 -0.36069147327E+03  0.56548689061E+03 -0.16809792484E+02  0.67093810770E+03  0.12699999809E+01 0. -1.
</event>
<event>
 5   0  0.5967046E-05  0.2090869E+04  0.7818609E-02  0.8565277E-01
       -2   -1    0    0    0  501  0.00000000000E+00  0.00000000000E+00  0.67447582881E+03  0.67447582882E+03  0.25500000920E-02 0. -1.
        2   -1    0    0  501    0  0.00000000000E+00  0.00000000000E+00 -0.16204180509E+04  0.16204180509E+04  0.25500000920E-02 0.  1.
    10030    2    1    2    0    0  0.00000000000E+00  0.00000000000E+00 -0.94594222205E+03  0.22948938797E+04  0.20908685352E+04 0.  0.
        4    1    3    3  502    0 -0.10093592886E+04  0.19043314030E+03 -0.25940734749E+03  0.10594171696E+04  0.12699999809E+01 0. -1.
       -4    1    3    3    0  502  0.10093592886E+04 -0.19043314030E+03 -0.68653487457E+03  0.12354767101E+04  0.12699999809E+01 0.  1.
</event>
<event>
 5   0  0.2732159E-05  0.2094866E+04  0.7818609E-02  0.8563508E-01
        1   -1    0    0  501    0  0.00000000000E+00  0.00000000000E+00  0.66032332762E+03  0.66032332764E+03  0.50400001928E-02 0.  1.
       -1   -1    0    0    0  501  0.00000000000E+00  0.00000000000E+00 -0.16614835569E+04  0.16614835569E+04  0.50400001928E-02 0. -1.
    10030    2    1    2    0    0  0.00000000000E+00  0.00000000000E+00 -0.10011602293E+04  0.23218068845E+04  0.20948664407E+04 0.  0.
        3    1    3    3  502    0 -0.62915360091E+03  0.23299096543E+03 -0.13920793774E+04  0.15453168111E+04  0.10100000352E+00 0. -1.
       -3    1    3    3    0  502  0.62915360091E+03 -0.23299096543E+03  0.39091914815E+03  0.77649007341E+03  0.10100000352E+00 0.  1.
</event>
<event>
 5   0  0.2789662E-05  0.2098294E+04  0.7818609E-02  0.8561995E-01
       -1   -1    0    0    0  501  0.00000000000E+00  0.00000000000E+00  0.67631356938E+03  0.67631356939E+03  0.50400001928E-02 0. -1.
        1   -1    0    0  501    0  0.00000000000E+00  0.00000000000E+00 -0.16275138606E+04  0.16275138606E+04  0.50400001928E-02 0.  1.
    10030    2    1    2    0    0  0.00000000000E+00  0.00000000000E+00 -0.95120029120E+03  0.23038274300E+04  0.20982942675E+04 0.  0.
        4    1    3    3  502    0  0.91742316448E+03  0.50594712091E+03 -0.53633928549E+03  0.11769915862E+04  0.12699999809E+01 0. -1.
       -4    1    3    3    0  502 -0.91742316448E+03 -0.50594712091E+03 -0.41486100570E+03  0.11268358438E+04  0.12699999809E+01 0.  1.
</event>
<event>
 5   0  0.2699285E-05  0.2077099E+04  0.7818609E-02  0.8571399E-01
       -1   -1    0    0    0  501  0.00000000000E+00  0.00000000000E+00  0.87600581095E+03  0.87600581096E+03  0.50400001928E-02 0.  1.
        1   -1    0    0  501    0  0.00000000000E+00  0.00000000000E+00 -0.12312535539E+04  0.12312535539E+04  0.50400001928E-02 0. -1.
    10030    2    1    2    0    0  0.00000000000E+00  0.00000000000E+00 -0.35524774292E+03  0.21072593648E+04  0.20770991964E+04 0.  0.
        2    1    3    3  502    0 -0.27851628814E+03 -0.77630183713E+03 -0.81795371338E+03  0.11615782980E+04  0.25500000920E-02 0. -1.
       -2    1    3    3    0  502  0.27851628814E+03  0.77630183713E+03  0.46270597047E+03  0.94568106685E+03  0.25500000920E-02 0.  1.
</event>
<event>
 5   0  0.5462851E-05  0.2098403E+04  0.7818609E-02  0.8561947E-01
        2   -1    0    0  501    0  0.00000000000E+00  0.00000000000E+00  0.11607998745E+04  0.11607998745E+04  0.25500000920E-02 0.  1.
       -2   -1    0    0    0  501  0.00000000000E+00  0.00000000000E+00 -0.94833195385E+03  0.94833195386E+03  0.25500000920E-02 0. -1.
    10030    2    1    2    0    0  0.00000000000E+00  0.00000000000E+00  0.21246792069E+03  0.21091318284E+04  0.20984028336E+04 0.  0.
        1    1    3    3  502    0 -0.30803008278E+02 -0.95986822031E+03 -0.31845187172E+03  0.10117842756E+04  0.50400001928E-02 0. -1.
       -1    1    3    3    0  502  0.30803008278E+02  0.95986822031E+03  0.53091979240E+03  0.10973475528E+04  0.50400001928E-02 0.  1.
</event>
<event>
 5   0  0.2732159E-05  0.2099689E+04  0.7818609E-02  0.8561381E-01
        1   -1    0    0  501    0  0.00000000000E+00  0.00000000000E+00  0.13173081709E+04  0.13173081709E+04  0.50400001928E-02 0.  1.
       -1   -1    0    0    0  501  0.00000000000E+00  0.00000000000E+00 -0.83668589968E+03  0.83668589970E+03  0.50400001928E-02 0. -1.
    10030    2    1    2    0    0  0.00000000000E+00  0.00000000000E+00  0.48062227117E+03  0.21539940706E+04  0.20996887123E+04 0.  0.
        3    1    3    3  502    0 -0.71602983745E+03  0.29084016792E+03 -0.48861989621E+03  0.91435012143E+03  0.10100000352E+00 0. -1.
       -3    1    3    3    0  502  0.71602983745E+03 -0.29084016792E+03  0.96924216738E+03  0.12396439491E+04  0.10100000352E+00 0.  1.
</event>
<event>
 5   0  0.5462851E-05  0.2098922E+04  0.7818609E-02  0.8561718E-01
        2   -1    0    0  501    0  0.00000000000E+00  0.00000000000E+00  0.24814829243E+04  0.24814829243E+04  0.25500000920E-02 0. -1.
       -2   -1    0    0    0  501  0.00000000000E+00  0.00000000000E+00 -0.44383477189E+03  0.44383477190E+03  0.25500000920E-02 0.  1.
    10030    2    1    2    0    0  0.00000000000E+00  0.00000000000E+00  0.20376481524E+04  0.29253176962E+04  0.20989220163E+04 0.  0.
        1    1    3    3  502    0  0.40913211192E+03 -0.87133189910E+02 -0.32262129655E+03  0.52826676860E+03  0.50400001928E-02 0.  1.
       -1    1    3    3    0  502 -0.40913211192E+03  0.87133189910E+02  0.23602694489E+04  0.23970509276E+04  0.50400001928E-02 0. -1.
</event>
<event>
 5   0  0.5954140E-05  0.2115495E+04  0.7818609E-02  0.8554448E-01
        2   -1    0    0  501    0  0.00000000000E+00  0.00000000000E+00  0.17026565423E+04  0.17026565423E+04  0.25500000920E-02 0.  1.
       -2   -1    0    0    0  501  0.00000000000E+00  0.00000000000E+00 -0.65710814506E+03  0.65710814507E+03  0.25500000920E-02 0. -1.
    10030    2    1    2    0    0  0.00000000000E+00  0.00000000000E+00  0.10455483973E+04  0.23597646874E+04  0.21154947244E+04 0.  0.
        2    1    3    3  502    0  0.19735639906E+03  0.54367391744E+03  0.15106389119E+04  0.16175786840E+04  0.25500000920E-02 0.  1.
       -2    1    3    3    0  502 -0.19735639906E+03 -0.54367391744E+03 -0.46509051467E+03  0.74218600337E+03  0.25500000920E-02 0. -1.
</event>
<event>
 5   0  0.5967046E-05  0.2086579E+04  0.7818609E-02  0.8567179E-01
        2   -1    0    0  501    0  0.00000000000E+00  0.00000000000E+00  0.23182110314E+04  0.23182110314E+04  0.25500000920E-02 0. -1.
       -2   -1    0    0    0  501  0.00000000000E+00  0.00000000000E+00 -0.46952261678E+03  0.46952261678E+03  0.25500000920E-02 0.  1.
    10030    2    1    2    0    0  0.00000000000E+00  0.00000000000E+00  0.18486884146E+04  0.27877336482E+04  0.20865785484E+04 0.  0.
        4    1    3    3  502    0  0.77390510190E+03  0.79221614739E+01  0.18590495201E+04  0.20137176065E+04  0.12699999809E+01 0. -1.
       -4    1    3    3    0  502 -0.77390510190E+03 -0.79221614739E+01 -0.10361105529E+02  0.77401604170E+03  0.12699999809E+01 0.  1.
</event>
<event>
 5   0  0.2789662E-05  0.2091996E+04  0.7818609E-02  0.8564777E-01
        1   -1    0    0  501    0  0.00000000000E+00  0.00000000000E+00  0.10309452535E+04  0.10309452535E+04  0.50400001928E-02 0. -1.
       -1   -1    0    0    0  501  0.00000000000E+00  0.00000000000E+00 -0.10612706482E+04  0.10612706482E+04  0.50400001928E-02 0.  1.
    10030    2    1    2    0    0  0.00000000000E+00  0.00000000000E+00 -0.30325394728E+02  0.20922159018E+04  0.20919961162E+04 0.  0.
        4    1    3    3  502    0 -0.95673195135E+03  0.21298958977E+03 -0.38045404150E+03  0.10514026263E+04  0.12699999809E+01 0.  1.
       -4    1    3    3    0  502  0.95673195135E+03 -0.21298958977E+03  0.35012864677E+03  0.10408132754E+04  0.12699999809E+01 0. -1.
</event>
<event>
 5   0  0.2602060E-05  0.2101962E+04  0.7818609E-02  0.8560380E-01
        1   -1    0    0  501    0  0.00000000000E+00  0.00000000000E+00  0.23516993399E+04  0.23516993399E+04  0.50400001928E-02 0.  1.
       -1   -1    0    0    0  501  0.00000000000E+00  0.00000000000E+00 -0.46968637788E+03  0.46968637791E+03  0.50400001928E-02 0. -1.
    10030    2    1    2    0    0  0.00000000000E+00  0.00000000000E+00  0.18820129620E+04  0.28213857178E+04  0.21019620785E+04 0.  0.
        1    1    3    3  502    0 -0.55261619691E+03  0.74947056308E+03  0.15951036827E+04  0.18470101636E+04  0.50400001928E-02 0.  1.
       -1    1    3    3    0  502  0.55261619691E+03 -0.74947056308E+03  0.28690927932E+03  0.97437555418E+03  0.50400001928E-02 0. -1.
</event>
<event>
 5   0  0.5967046E-05  0.2096700E+04  0.7818609E-02  0.8562698E-01
        2   -1    0    0  501    0  0.00000000000E+00  0.00000000000E+00  0.11580804126E+04  0.11580804126E+04  0.25500000920E-02 0. -1.
       -2   -1    0    0    0  501  0.00000000000E+00  0.00000000000E+00 -0.94901673107E+03  0.94901673107E+03  0.25500000920E-02 0.  1.
    10030    2    1    2    0    0  0.00000000000E+00  0.00000000000E+00  0.20906368154E+03  0.21070971437E+04  0.20966999666E+04 0.  0.
        4    1    3    3  502    0 -0.63101937538E+03 -0.51339333427E+03  0.76908088516E+03  0.11194843405E+04  0.12699999809E+01 0. -1.
       -4    1    3    3    0  502  0.63101937538E+03  0.51339333427E+03 -0.56001720362E+03  0.98761280319E+03  0.12699999809E+01 0.  1.
</event>
<event>
 5   0  0.5866610E-05  0.2115108E+04  0.7818609E-02  0.8554617E-01
       -2   -1    0    0    0  501  0.00000000000E+00  0.00000000000E+00  0.75179067685E+03  0.75179067686E+03  0.25500000920E-02 0. -1.
        2   -1    0    0  501    0  0.00000000000E+00  0.00000000000E+00 -0.14876751569E+04  0.14876751569E+04  0.25500000920E-02 0.  1.
    10030    2    1    2    0    0  0.00000000000E+00  0.00000000000E+00 -0.73588448002E+03  0.22394658337E+04  0.21151078584E+04 0.  0.
        5    1    3    3  502    0  0.81006159255E+03  0.16006796639E+03  0.33164550308E+03  0.88984963185E+03  0.46999998093E+01 0. -1.
       -5    1    3    3    0  502 -0.81006159255E+03 -0.16006796639E+03 -0.10675299831E+04  0.13496162019E+04  0.46999998093E+01 0.  1.
</event>
<event>
 5   0  0.2699285E-05  0.2102389E+04  0.7818609E-02  0.8560192E-01
        1   -1    0    0  501    0  0.00000000000E+00  0.00000000000E+00  0.14669598540E+04  0.14669598540E+04  0.50400001928E-02 0. -1.
       -1   -1    0    0    0  501  0.00000000000E+00  0.00000000000E+00 -0.75326507163E+03  0.75326507164E+03  0.50400001928E-02 0.  1.
    10030    2    1    2    0    0  0.00000000000E+00  0.00000000000E+00  0.71369478237E+03  0.22202249256E+04  0.21023887552E+04 0.  0.
        2    1    3    3  502    0 -0.52613585949E+03 -0.65041032027E+03  0.10290430010E+04  0.13261907952E+04  0.25500000920E-02 0. -1.
       -2    1    3    3    0  502  0.52613585949E+03  0.65041032027E+03 -0.31534821865E+03  0.89403413043E+03  0.25500000920E-02 0.  1.
</event>
<event>
 5   0  0.2732159E-05  0.2109553E+04  0.7818609E-02  0.8557047E-01
        1   -1    0    0  501    0  0.00000000000E+00  0.00000000000E+00  0.14408275898E+04  0.14408275898E+04  0.50400001928E-02 0.  1.
       -1   -1    0    0    0  501  0.00000000000E+00  0.00000000000E+00 -0.77216299620E+03  0.77216299622E+03  0.50400001928E-02 0. -1.
    10030    2    1    2    0    0  0.00000000000E+00  0.00000000000E+00  0.66866459358E+03  0.22129905860E+04  0.21095532691E+04 0.  0.
        3    1    3    3  502    0  0.38277624303E+03  0.65451190321E+03 -0.43486721176E+03  0.87407836362E+03  0.10100000352E+00 0. -1.
       -3    1    3    3    0  502 -0.38277624303E+03 -0.65451190321E+03  0.11035318053E+04  0.13389122224E+04  0.10100000352E+00 0.  1.
</event>
<event>
 5   0  0.5954140E-05  0.2135453E+04  0.7818609E-02  0.8545785E-01
       -2   -1    0    0    0  501  0.00000000000E+00  0.00000000000E+00  0.10358344279E+04  0.10358344279E+04  0.25500000920E-02 0. -1.
        2   -1    0    0  501    0  0.00000000000E+00  0.00000000000E+00 -0.11006005244E+04  0.11006005244E+04  0.25500000920E-02 0.  1.
    10030    2    1    2    0    0  0.00000000000E+00  0.00000000000E+00 -0.64766096480E+02  0.21364349522E+04  0.21354530334E+04 0.  0.
        2    1    3    3  502    0  0.26955956616E+03  0.11645783316E+03 -0.10594100567E+04  0.10993518340E+04  0.25500000920E-02 0.  1.
       -2    1    3    3    0  502 -0.26955956616E+03 -0.11645783316E+03  0.99464396021E+03  0.10370831183E+04  0.25500000920E-02 0. -1.
</event>
<event>
 5   0  0.5967046E-05  0.2101856E+04  0.7818609E-02  0.8560426E-01
        2   -1    0    0  501    0  0.00000000000E+00  0.00000000000E+00  0.10512801283E+04  0.10512801283E+04  0.25500000920E-02 0. -1.
       -2   -1    0    0    0  501  0.00000000000E+00  0.00000000000E+00 -0.10505763267E+04  0.10505763267E+04  0.25500000920E-02 0.  1.
    10030    2    1    2    0    0  0.00000000000E+00  0.00000000000E+00  0.70380163091E+00  0.21018564549E+04  0.21018563371E+04 0.  0.
        4    1    3    3  502    0  0.27892375867E+03  0.68200955163E+03 -0.74898979285E+03  0.10506773122E+04  0.12699999809E+01 0.  1.
       -4    1    3    3    0  502 -0.27892375867E+03 -0.68200955163E+03  0.74969359448E+03  0.10511791428E+04  0.12699999809E+01 0. -1.
</event>
<event>
 5   0  0.2602060E-05  0.2100478E+04  0.7818609E-02  0.8561033E-01
        1   -1    0    0  501    0  0.00000000000E+00  0.00000000000E+00  0.14303138300E+04  0.14303138300E+04  0.50400001928E-02 0. -1.
       -1   -1    0    0    0  501  0.00000000000E+00  0.00000000000E+00 -0.77116047315E+03  0.77116047317E+03  0.50400001928E-02 0.  1.
    10030    2    1    2    0    0  0.00000000000E+00  0.00000000000E+00  0.65915335685E+03  0.22014743032E+04  0.21004775552E+04 0.  0.
        1    1    3    3  502    0  0.91634618010E+02 -0.90097080081E+03  0.88699139267E+03  0.12676352069E+04  0.50400001928E-02 0.  1.
       -1    1    3    3    0  502 -0.91634618010E+02  0.90097080081E+03 -0.22783803581E+03  0.93383909626E+03  0.50400001928E-02 0. -1.
</event>
<event>
 5   0  0.2602060E-05  0.2109342E+04  0.7818609E-02  0.8557139E-01
       -1   -1    0    0    0  501  0.00000000000E+00  0.00000000000E+00  0.79464145775E+03  0.79464145777E+03  0.50400001928E-02 0.  1.
        1   -1    0    0  501    0  0.00000000000E+00  0.00000000000E+00 -0.13997900962E+04  0.13997900962E+04  0.50400001928E-02 0. -1.
    10030    2    1    2    0    0  0.00000000000E+00  0.00000000000E+00 -0.60514863846E+03  0.21944315540E+04  0.21093423076E+04 0.  0.
        1    1    3    3  502    0 -0.35376773169E+03 -0.18995570643E+03  0.71200792933E+03  0.81742893871E+03  0.50400001928E-02 0.  1.
       -1    1    3    3    0  502  0.35376773169E+03  0.18995570643E+03 -0.13171565678E+04  0.13770026153E+04  0.50400001928E-02 0. -1.
</event>
<event>
 5   0  0.5506332E-05  0.2090659E+04  0.7818609E-02  0.8565369E-01
        2   -1    0    0  501    0  0.00000000000E+00  0.00000000000E+00  0.10015275874E+04  0.10015275874E+04  0.25500000920E-02 0.  1.
       -2   -1    0    0    0  501  0.00000000000E+00  0.00000000000E+00 -0.10910468236E+04  0.10910468236E+04  0.25500000920E-02 0. -1.
    10030    2    1    2    0    0  0.00000000000E+00  0.00000000000E+00 -0.89519236153E+02  0.20925744110E+04  0.20906587412E+04 0.  0.
        3    1    3    3  502    0 -0.98356425593E+02 -0.51670073484E+03 -0.94894767529E+03  0.10849678965E+04  0.10100000352E+00 0. -1.
       -3    1    3    3    0  502  0.98356425593E+02  0.51670073484E+03  0.85942843914E+03  0.10076065145E+04  0.10100000352E+00 0.  1.
</event>
<event>
 5   0  0.2789662E-05  0.2110563E+04  0.7818609E-02  0.8556605E-01
       -1   -1    0    0    0  501  0.00000000000E+00  0.00000000000E+00  0.44929843882E+03  0.44929843885E+03  0.50400001928E-02 0. -1.
        1   -1    0    0  501    0  0.00000000000E+00  0.00000000000E+00 -0.24785726569E+04  0.24785726569E+04  0.50400001928E-02 0.  1.
    10030    2    1    2    0    0  0.00000000000E+00  0.00000000000E+00 -0.20292742181E+04  0.29278710958E+04  0.21105627925E+04 0.  0.
        4    1    3    3  502    0 -0.44373985090E+03 -0.87131572947E+03 -0.46405387436E+03  0.10823325584E+04  0.12699999809E+01 0. -1.
       -4    1    3    3    0  502  0.44373985090E+03  0.87131572947E+03 -0.15652203437E+04  0.18455385374E+04  0.12699999809E+01 0.  1.
</event>
<event>
 5   0  0.2732159E-05  0.2098915E+04  0.7818609E-02  0.8561722E-01
       -1   -1    0    0    0  501  0.00000000000E+00  0.00000000000E+00  0.18432834690E+04  0.18432834690E+04  0.50400001928E-02 0.  1.
        1   -1    0    0  501    0  0.00000000000E+00  0.00000000000E+00 -0.59749932784E+03  0.59749932786E+03  0.50400001928E-02 0. -1.
    10030    2    1    2    0    0  0.00000000000E+00  0.00000000000E+00  0.12457841412E+04  0.24407827969E+04  0.20989146088E+04 0.  0.
        3    1    3    3  502    0 -0.35674945338E+03 -0.77328530712E+02 -0.52129460114E+03  0.63639448892E+03  0.10100000352E+00 0. -1.
       -3    1    3    3    0  502  0.35674945338E+03  0.77328530712E+02  0.17670787423E+04  0.18043883079E+04  0.10100000352E+00 0.  1.
</event>
<event>
 5   0  0.2602060E-05  0.2083357E+04  0.7818609E-02  0.8568610E-01
       -1   -1    0    0    0  501  0.00000000000E+00  0.00000000000E+00  0.12299687655E+04  0.12299687655E+04  0.50400001928E-02 0.  1.
        1   -1    0    0  501    0  0.00000000000E+00  0.00000000000E+00 -0.88221287283E+03  0.88221287284E+03  0.50400001928E-02 0. -1.
    10030    2    1    2    0    0  0.00000000000E+00  0.00000000000E+00  0.34775589270E+03  0.21121816384E+04  0.20833571736E+04 0.  0.
        1    1    3    3  502    0  0.98752490031E+03  0.28267436320E+03 -0.16768521326E+01  0.10271869529E+04  0.50400001928E-02 0. -1.
       -1    1    3    3    0  502 -0.98752490031E+03 -0.28267436320E+03  0.34943274483E+03  0.10849946855E+04  0.50400001928E-02 0.  1.
</event>
<event>
 5   0  0.2732159E-05  0.2069234E+04  0.7818609E-02  0.8574919E-01
       -1   -1    0    0    0  501  0.00000000000E+00  0.00000000000E+00  0.48890640843E+03  0.48890640846E+03  0.50400001928E-02 0.  1.
        1   -1    0    0  501    0  0.00000000000E+00  0.00000000000E+00 -0.21894417001E+04  0.21894417001E+04  0.50400001928E-02 0. -1.
    10030    2    1    2    0    0  0.00000000000E+00  0.00000000000E+00 -0.17005352917E+04  0.26783481086E+04  0.20692337501E+04 0.  0.
        3    1    3    3  502    0 -0.69697013526E+03 -0.48712082926E+03 -0.87383443521E+02  0.85480404079E+03  0.10100000352E+00 0.  1.
       -3    1    3    3    0  502  0.69697013526E+03  0.48712082926E+03 -0.16131518482E+04  0.18235440678E+04  0.10100000352E+00 0. -1.
</event>
<event>
 5   0  0.5866610E-05  0.2093021E+04  0.7818609E-02  0.8564324E-01
        2   -1    0    0  501    0  0.00000000000E+00  0.00000000000E+00  0.17690075505E+04  0.17690075505E+04  0.25500000920E-02 0. -1.
       -2   -1    0    0    0  501  0.00000000000E+00  0.00000000000E+00 -0.61909519684E+03  0.61909519684E+03  0.25500000920E-02 0.  1.
    10030    2    1    2    0    0  0.00000000000E+00  0.00000000000E+00  0.11499123537E+04  0.23881027474E+04  0.20930208577E+04 0.  0.
        5    1    3    3  502    0  0.10261854819E+04  0.10906371828E+03  0.77327231113E+03  0.12895439872E+04  0.46999998093E+01 0.  1.
       -5    1    3    3    0  502 -0.10261854819E+04 -0.10906371828E+03  0.37664004258E+03  0.10985587602E+04  0.46999998093E+01 0. -1.
</event>
<event>
 5   0  0.2789662E-05  0.2087437E+04  0.7818609E-02  0.8566798E-01
       -1   -1    0    0    0  501  0.00000000000E+00  0.00000000000E+00  0.73503204673E+03  0.73503204675E+03  0.50400001928E-02 0.  1.
        1   -1    0    0  501    0  0.00000000000E+00  0.00000000000E+00 -0.14820425510E+04  0.14820425510E+04  0.50400001928E-02 0. -1.
    10030    2    1    2    0    0  0.00000000000E+00  0.00000000000E+00 -0.74701050422E+03  0.22170745977E+04  0.20874374430E+04 0.  0.
        4    1    3    3  502    0  0.64811133437E+03 -0.72609416550E+03 -0.77385785909E+03  0.12434301902E+04  0.12699999809E+01 0. -1.
       -4    1    3    3    0  502 -0.64811133437E+03  0.72609416550E+03  0.26847354876E+02  0.97364440751E+03  0.12699999809E+01 0.  1.
</event>
<event>
 5   0  0.2602060E-05  0.2091347E+04  0.7818609E-02  0.8565065E-01
        1   -1    0    0  501    0  0.00000000000E+00  0.00000000000E+00  0.11924340877E+04  0.11924340877E+04  0.50400001928E-02 0.  1.
       -1   -1    0    0    0  501  0.00000000000E+00  0.00000000000E+00 -0.91697567192E+03  0.91697567194E+03  0.50400001928E-02 0. -1.
    10030    2    1    2    0    0  0.00000000000E+00  0.00000000000E+00  0.27545841577E+03  0.21094097596E+04  0.20913469811E+04 0.  0.
        1    1    3    3  502    0  0.54407941732E+03 -0.47034175461E+03 -0.62789814482E+03  0.95472501736E+03  0.50400001928E-02 0. -1.
       -1    1    3    3    0  502 -0.54407941732E+03  0.47034175461E+03  0.90335656058E+03  0.11546847423E+04  0.50400001928E-02 0.  1.
</event>
<event>
 5   0  0.2732159E-05  0.2096858E+04  0.7818609E-02  0.8562629E-01
        1   -1    0    0  501    0  0.00000000000E+00  0.00000000000E+00  0.11548780477E+04  0.11548780478E+04  0.50400001928E-02 0. -1.
       -1   -1    0    0    0  501  0.00000000000E+00  0.00000000000E+00 -0.95179139195E+03  0.95179139196E+03  0.50400001928E-02 0.  1.
    10030    2    1    2    0    0  0.00000000000E+00  0.00000000000E+00  0.20308665580E+03  0.21066694397E+04  0.20968576343E+04 0.  0.
        3    1    3    3  502    0 -0.60699490785E+03 -0.74654544924E+03 -0.31685469423E+03  0.10130004114E+04  0.10100000352E+00 0.  1.
       -3    1    3    3    0  502  0.60699490785E+03  0.74654544924E+03  0.51994135003E+03  0.10936690284E+04  0.10100000352E+00 0. -1.
</event>
<event>
 5   0  0.5866610E-05  0.2084407E+04  0.7818609E-02  0.8568144E-01
       -2   -1    0    0    0  501  0.00000000000E+00  0.00000000000E+00  0.63154162110E+03  0.63154162111E+03  0.25500000920E-02 0. -1.
        2   -1    0    0  501    0  0.00000000000E+00  0.00000000000E+00 -0.17198994333E+04  0.17198994333E+04  0.25500000920E-02 0.  1.
    10030    2    1    2    0    0  0.00000000000E+00  0.00000000000E+00 -0.10883578122E+04  0.23514410544E+04  0.20844069432E+04 0.  0.
        5    1    3    3  502    0  0.41854866860E+02 -0.15351915913E+03 -0.17061030117E+04  0.17135137988E+04  0.46999998093E+01 0.  1.
       -5    1    3    3    0  502 -0.41854866860E+02  0.15351915913E+03  0.61774519945E+03  0.63792725568E+03  0.46999998093E+01 0. -1.
</event>
<event>
 5   0  0.5967046E-05  0.2100905E+04  0.7818609E-02  0.8560845E-01
       -2   -1    0    0    0  501  0.00000000000E+00  0.00000000000E+00  0.84466806462E+03  0.84466806462E+03  0.25500000920E-02 0. -1.
        2   -1    0    0  501    0  0.00000000000E+00  0.00000000000E+00 -0.13063714283E+04  0.13063714283E+04  0.25500000920E-02 0.  1.
    10030    2    1    2    0    0  0.00000000000E+00  0.00000000000E+00 -0.46170336368E+03  0.21510394929E+04  0.21009047823E+04 0.  0.
        4    1    3    3  502    0 -0.21589597052E+03  0.45500858806E+03  0.71299528802E+03  0.87293056936E+03  0.12699999809E+01 0. -1.
       -4    1    3    3    0  502  0.21589597052E+03 -0.45500858806E+03 -0.11746986517E+04  0.12781089236E+04  0.12699999809E+01 0.  1.
</event>
<event>
 5   0  0.2604390E-05  0.2238941E+04  0.7818609E-02  0.8502393E-01
       -1   -1    0    0    0  501  0.00000000000E+00  0.00000000000E+00  0.85953181167E+03  0.85953181169E+03  0.50400001928E-02 0.  1.
        1   -1    0    0  501    0  0.00000000000E+00  0.00000000000E+00 -0.14580193595E+04  0.14580193595E+04  0.50400001928E-02 0. -1.
    10030    2    1    2    0    0  0.00000000000E+00  0.00000000000E+00 -0.59848754786E+03  0.23175511712E+04  0.22389408403E+04 0.  0.
        5    1    3    3  502    0 -0.38628600976E+03 -0.71934577232E+03 -0.10919767214E+04  0.13634920138E+04  0.46999998093E+01 0. -1.
       -5    1    3    3    0  502  0.38628600976E+03  0.71934577232E+03  0.49348917356E+03  0.95405915745E+03  0.46999998093E+01 0.  1.
</event>
<event>
 5   0  0.5967046E-05  0.2096275E+04  0.7818609E-02  0.8562886E-01
        2   -1    0    0  501    0  0.00000000000E+00  0.00000000000E+00  0.22529723059E+04  0.22529723059E+04  0.25500000920E-02 0.  1.
       -2   -1    0    0    0  501  0.00000000000E+00  0.00000000000E+00 -0.48761904894E+03  0.48761904894E+03  0.25500000920E-02 0. -1.
    10030    2    1    2    0    0  0.00000000000E+00  0.00000000000E+00  0.17653532570E+04  0.27405913549E+04  0.20962749945E+04 0.  0.
        4    1    3    3  502    0 -0.62080978483E+03  0.39909613653E+03 -0.90327945245E+02  0.74353430702E+03  0.12699999809E+01 0. -1.
       -4    1    3    3    0  502  0.62080978483E+03 -0.39909613653E+03  0.18556812022E+04  0.19970570479E+04  0.12699999809E+01 0.  1.
</event>
<event>
 5   0  0.2604390E-05  0.2102522E+04  0.7818609E-02  0.8560133E-01
       -1   -1    0    0    0  501  0.00000000000E+00  0.00000000000E+00  0.74926429173E+03  0.74926429175E+03  0.50400001928E-02 0. -1.
        1   -1    0    0  501    0  0.00000000000E+00  0.00000000000E+00 -0.14749794416E+04  0.14749794416E+04  0.50400001928E-02 0.  1.
    10030    2    1    2    0    0  0.00000000000E+00  0.00000000000E+00 -0.72571514984E+03  0.22242437333E+04  0.21025217494E+04 0.  0.
        5    1    3    3  502    0 -0.75830984432E+03 -0.25446347541E+02  0.40689777217E+03  0.86096993188E+03  0.46999998093E+01 0. -1.
       -5    1    3    3    0  502  0.75830984432E+03  0.25446347541E+02 -0.11326129220E+04  0.13632738014E+04  0.46999998093E+01 0.  1.
</event>
<event>
 5   0  0.5954140E-05  0.2091420E+04  0.7818609E-02  0.8565032E-01
       -2   -1    0    0    0  501  0.00000000000E+00  0.00000000000E+00  0.56728435756E+03  0.56728435756E+03  0.25500000920E-02 0. -1.
        2   -1    0    0  501    0  0.00000000000E+00  0.00000000000E+00 -0.19276218831E+04  0.19276218832E+04  0.25500000920E-02 0.  1.
    10030    2    1    2    0    0  0.00000000000E+00  0.00000000000E+00 -0.13603375256E+04  0.24949062407E+04  0.20914203227E+04 0.  0.
        2    1    3    3  502    0  0.31323822374E+03 -0.77138707516E+03 -0.14349737142E+04  0.16590074638E+04  0.25500000920E-02 0.  1.
       -2    1    3    3    0  502 -0.31323822374E+03  0.77138707516E+03  0.74636188619E+02  0.83589877689E+03  0.25500000920E-02 0. -1.
</event>
<event>
 5   0  0.5462851E-05  0.2109067E+04  0.7818609E-02  0.8557260E-01
        2   -1    0    0  501    0  0.00000000000E+00  0.00000000000E+00  0.20667525008E+04  0.20667525008E+04  0.25500000920E-02 0. -1.
       -2   -1    0    0    0  501  0.00000000000E+00  0.00000000000E+00 -0.53806198209E+03  0.53806198209E+03  0.25500000920E-02 0.  1.
    10030    2    1    2    0    0  0.00000000000E+00  0.00000000000E+00  0.15286905187E+04  0.26048144829E+04  0.21090670421E+04 0.  0.
        1    1    3    3  502    0  0.32392343505E+03 -0.37702717272E+03  0.19129899161E+04  0.19765136731E+04  0.50400001928E-02 0. -1.
       -1    1    3    3    0  502 -0.32392343505E+03  0.37702717272E+03 -0.38429939740E+03  0.62830080981E+03  0.50400001928E-02 0.  1.
</event>
<event>
 5   0  0.2789662E-05  0.2089152E+04  0.7818609E-02  0.8566037E-01
        1   -1    0    0  501    0  0.00000000000E+00  0.00000000000E+00  0.10920831177E+04  0.10920831177E+04  0.50400001928E-02 0.  1.
       -1   -1    0    0    0  501  0.00000000000E+00  0.00000000000E+00 -0.99913526254E+03  0.99913526255E+03  0.50400001928E-02 0. -1.
    10030    2    1    2    0    0  0.00000000000E+00  0.00000000000E+00  0.92947855139E+02  0.20912183802E+04  0.20891517442E+04 0.  0.
        4    1    3    3  502    0 -0.84631144533E+03  0.20427956571E+03 -0.53130060351E+03  0.10199289915E+04  0.12699999809E+01 0. -1.
       -4    1    3    3    0  502  0.84631144533E+03 -0.20427956571E+03  0.62424845865E+03  0.10712893888E+04  0.12699999809E+01 0.  1.
</event>
<event>
 5   0  0.5462851E-05  0.2028182E+04  0.7818609E-02  0.8593557E-01
        2   -1    0    0  501    0  0.00000000000E+00  0.00000000000E+00  0.23314193794E+04  0.23314193794E+04  0.25500000920E-02 0. -1.
       -2   -1    0    0    0  501  0.00000000000E+00  0.00000000000E+00 -0.44109615803E+03  0.44109615804E+03  0.25500000920E-02 0.  1.
    10030    2    1    2    0    0  0.00000000000E+00  0.00000000000E+00  0.18903232214E+04  0.27725155375E+04  0.20281815807E+04 0.  0.
        1    1    3    3  502    0  0.89529526179E+02 -0.76848704833E+03  0.18413440820E+04  0.19972821303E+04  0.50400001928E-02 0. -1.
       -1    1    3    3    0  502 -0.89529526179E+02  0.76848704833E+03  0.48979139380E+02  0.77523340719E+03  0.50400001928E-02 0.  1.
</event>
<event>
 5   0  0.2699285E-05  0.2017801E+04  0.7818609E-02  0.8598343E-01
       -1   -1    0    0    0  501  0.00000000000E+00  0.00000000000E+00  0.63113945358E+03  0.63113945360E+03  0.50400001928E-02 0. -1.
        1   -1    0    0  501    0  0.00000000000E+00  0.00000000000E+00 -0.16127664071E+04  0.16127664071E+04  0.50400001928E-02 0.  1.
    10030    2    1    2    0    0  0.00000000000E+00  0.00000000000E+00 -0.98162695349E+03  0.22439058607E+04  0.20178012875E+04 0.  0.
        2    1    3    3  502    0 -0.81446782155E+03 -0.54023696523E+03 -0.21242923755E+03  0.10001699815E+04  0.25500000920E-02 0. -1.
       -2    1    3    3    0  502  0.81446782155E+03  0.54023696523E+03 -0.76919771594E+03  0.12437358792E+04  0.25500000920E-02 0.  1.
</event>
<event>
 5   0  0.5967046E-05  0.2103673E+04  0.7818609E-02  0.8559627E-01
        2   -1    0    0  501    0  0.00000000000E+00  0.00000000000E+00  0.10233901800E+04  0.10233901800E+04  0.25500000920E-02 0. -1.
       -2   -1    0    0    0  501  0.00000000000E+00  0.00000000000E+00 -0.10810738256E+04  0.10810738256E+04  0.25500000920E-02 0.  1.
    10030    2    1    2    0    0  0.00000000000E+00  0.00000000000E+00 -0.57683645571E+02  0.21044640055E+04  0.21036732987E+04 0.  0.
        4    1    3    3  502    0 -0.43972511302E+03 -0.85682250422E+02 -0.98086075556E+03  0.10783269716E+04  0.12699999809E+01 0.  1.
       -4    1    3    3    0  502  0.43972511302E+03  0.85682250422E+02  0.92317710999E+03  0.10261370339E+04  0.12699999809E+01 0. -1.
</event>
<event>
 5   0  0.5506332E-05  0.2271781E+04  0.7818609E-02  0.8489131E-01
        2   -1    0    0  501    0  0.00000000000E+00  0.00000000000E+00  0.15033382483E+04  0.15033382483E+04  0.25500000920E-02 0.  1.
       -2   -1    0    0    0  501  0.00000000000E+00  0.00000000000E+00 -0.85825474212E+03  0.85825474212E+03  0.25500000920E-02 0. -1.
    10030    2    1    2    0    0  0.00000000000E+00  0.00000000000E+00  0.64508350613E+03  0.23615929904E+04  0.22717809583E+04 0.  0.
        3    1    3    3  502    0 -0.53766391826E+03 -0.10228994405E+03 -0.71214763541E+03  0.89816478803E+03  0.10100000352E+00 0. -1.
       -3    1    3    3    0  502  0.53766391826E+03  0.10228994405E+03  0.13572311415E+04  0.14634282023E+04  0.10100000352E+00 0.  1.
</event>
<event>
 5   0  0.2699285E-05  0.2108372E+04  0.7818609E-02  0.8557564E-01
        1   -1    0    0  501    0  0.00000000000E+00  0.00000000000E+00  0.83286627241E+03  0.83286627243E+03  0.50400001928E-02 0.  1.
       -1   -1    0    0    0  501  0.00000000000E+00  0.00000000000E+00 -0.13343179461E+04  0.13343179461E+04  0.50400001928E-02 0. -1.
    10030    2    1    2    0    0  0.00000000000E+00  0.00000000000E+00 -0.50145167370E+03  0.21671842185E+04  0.21083722764E+04 0.  0.
        2    1    3    3  502    0 -0.47463242036E+03  0.55271811024E+03 -0.10339080223E+04  0.12648079073E+04  0.25500000920E-02 0. -1.
       -2    1    3    3    0  502  0.47463242036E+03 -0.55271811024E+03  0.53245634862E+03  0.90237631121E+03  0.25500000920E-02 0.  1.
</event>
<event>
 5   0  0.2789662E-05  0.2093841E+04  0.7818609E-02  0.8563961E-01
        1   -1    0    0  501    0  0.00000000000E+00  0.00000000000E+00  0.20035306299E+04  0.20035306299E+04  0.50400001928E-02 0. -1.
       -1   -1    0    0    0  501  0.00000000000E+00  0.00000000000E+00 -0.54705561184E+03  0.54705561187E+03  0.50400001928E-02 0.  1.
    10030    2    1    2    0    0  0.00000000000E+00  0.00000000000E+00  0.14564750181E+04  0.25505862418E+04  0.20938411350E+04 0.  0.
        4    1    3    3  502    0  0.77897628593E+03 -0.59931844376E+03  0.28893991183E+03  0.10244386446E+04  0.12699999809E+01 0.  1.
       -4    1    3    3    0  502 -0.77897628593E+03  0.59931844376E+03  0.11675351062E+04  0.15261475971E+04  0.12699999809E+01 0. -1.
</event>
<event>
 5   0  0.2732159E-05  0.2096571E+04  0.7818609E-02  0.8562756E-01
        1   -1    0    0  501    0  0.00000000000E+00  0.00000000000E+00  0.18794362386E+04  0.18794362386E+04  0.50400001928E-02 0.  1.
       -1   -1    0    0    0  501  0.00000000000E+00  0.00000000000E+00 -0.58469768070E+03  0.58469768072E+03  0.50400001928E-02 0. -1.
    10030    2    1    2    0    0  0.00000000000E+00  0.00000000000E+00  0.12947385579E+04  0.24641339193E+04  0.20965705423E+04 0.  0.
        3    1    3    3  502    0  0.48650500340E+03  0.26705572401E+03 -0.39786718085E+03  0.68286468781E+03  0.10100000352E+00 0. -1.
       -3    1    3    3    0  502 -0.48650500340E+03 -0.26705572401E+03  0.16926057387E+04  0.17812692315E+04  0.10100000352E+00 0.  1.
</event>
<event>
 5   0  0.2732159E-05  0.2093386E+04  0.7818609E-02  0.8564162E-01
       -1   -1    0    0    0  501  0.00000000000E+00  0.00000000000E+00  0.73135737106E+03  0.73135737107E+03  0.50400001928E-02 0.  1.
        1   -1    0    0  501    0  0.00000000000E+00  0.00000000000E+00 -0.14979908997E+04  0.14979908997E+04  0.50400001928E-02 0. -1.
    10030    2    1    2    0    0  0.00000000000E+00  0.00000000000E+00 -0.76663352866E+03  0.22293482708E+04  0.20933864300E+04 0.  0.
        3    1    3    3  502    0  0.46476379813E+03 -0.64889137851E+03 -0.11044222263E+04  0.13626495783E+04  0.10100000352E+00 0. -1.
       -3    1    3    3    0  502 -0.46476379813E+03  0.64889137851E+03  0.33778869761E+03  0.86669869250E+03  0.10100000352E+00 0.  1.
</event>
<event>
 5   0  0.5506332E-05  0.2093561E+04  0.7818609E-02  0.8564085E-01
       -2   -1    0    0    0  501  0.00000000000E+00  0.00000000000E+00  0.13222454092E+04  0.13222454092E+04  0.25500000920E-02 0.  1.
        2   -1    0    0  501    0  0.00000000000E+00  0.00000000000E+00 -0.82870374015E+03  0.82870374016E+03  0.25500000920E-02 0. -1.
    10030    2    1    2    0    0  0.00000000000E+00  0.00000000000E+00  0.49354166900E+03  0.21509491493E+04  0.20935612873E+04 0.  0.
        3    1    3    3  502    0 -0.56426552366E+03 -0.83566362988E+03 -0.42040436219E+02  0.10092059710E+04  0.10100000352E+00 0. -1.
       -3    1    3    3    0  502  0.56426552366E+03  0.83566362988E+03  0.53558210522E+03  0.11417431783E+04  0.10100000352E+00 0.  1.
</event>
<event>
 5   0  0.5866610E-05  0.2100801E+04  0.7818609E-02  0.8560891E-01
        2   -1    0    0  501    0  0.00000000000E+00  0.00000000000E+00  0.96912523911E+03  0.96912523911E+03  0.25500000920E-02 0. -1.
       -2   -1    0    0    0  501  0.00000000000E+00  0.00000000000E+00 -0.11384919072E+04  0.11384919072E+04  0.25500000920E-02 0.  1.
    10030    2    1    2    0    0  0.00000000000E+00  0.00000000000E+00 -0.16936666807E+03  0.21076171463E+04  0.21008010299E+04 0.  0.
        5    1    3    3  502    0  0.93517516117E+03  0.20719010049E+03 -0.51717230314E+03  0.10885630900E+04  0.46999998093E+01 0.  1.
       -5    1    3    3    0  502 -0.93517516117E+03 -0.20719010049E+03  0.34780563507E+03  0.10190540563E+04  0.46999998093E+01 0. -1.
</event>
<event>
 5   0  0.5954140E-05  0.2105940E+04  0.7818609E-02  0.8558631E-01
        2   -1    0    0  501    0  0.00000000000E+00  0.00000000000E+00  0.14276140933E+04  0.14276140933E+04  0.25500000920E-02 0. -1.
       -2   -1    0    0    0  501  0.00000000000E+00  0.00000000000E+00 -0.77664228081E+03  0.77664228082E+03  0.25500000920E-02 0.  1.
    10030    2    1    2    0    0  0.00000000000E+00  0.00000000000E+00  0.65097181244E+03  0.22042563741E+04  0.21059396625E+04 0.  0.
        2    1    3    3  502    0 -0.69897193411E+03 -0.31055328873E+03  0.10829711914E+04  0.13258324597E+04  0.25500000920E-02 0. -1.
       -2    1    3    3    0  502  0.69897193411E+03  0.31055328873E+03 -0.43199937900E+03  0.87842391434E+03  0.25500000920E-02 0.  1.
</event>
<event>
 5   0  0.2732159E-05  0.2099932E+04  0.7818609E-02  0.8561273E-01
       -1   -1    0    0    0  501  0.00000000000E+00  0.00000000000E+00  0.13181760799E+04  0.13181760799E+04  0.50400001928E-02 0. -1.
        1   -1    0    0  501    0  0.00000000000E+00  0.00000000000E+00 -0.83632906916E+03  0.83632906918E+03  0.50400001928E-02 0.  1.
    10030    2    1    2    0    0  0.00000000000E+00  0.00000000000E+00  0.48184701070E+03  0.21545051491E+04  0.20999323550E+04 0.  0.
        3    1    3    3  502    0 -0.30265442491E+03 -0.31148434769E+03  0.12216985693E+04  0.12965992458E+04  0.10100000352E+00 0. -1.
       -3    1    3    3    0  502  0.30265442491E+03  0.31148434769E+03 -0.73985155863E+03  0.85790590322E+03  0.10100000352E+00 0.  1.
</event>
<event>
 5   0  0.5954140E-05  0.2098418E+04  0.7818609E-02  0.8561941E-01
       -2   -1    0    0    0  501  0.00000000000E+00  0.00000000000E+00  0.15551043424E+04  0.15551043424E+04  0.25500000920E-02 0.  1.
        2   -1    0    0  501    0  0.00000000000E+00  0.00000000000E+00 -0.70788775671E+03  0.70788775671E+03  0.25500000920E-02 0. -1.
    10030    2    1    2    0    0  0.00000000000E+00  0.00000000000E+00  0.84721658568E+03  0.22629920991E+04  0.20984178081E+04 0.  0.
        2    1    3    3  502    0  0.68556120107E+03 -0.78237182161E+03  0.27597985099E+03  0.10762270698E+04  0.25500000920E-02 0. -1.
       -2    1    3    3    0  502 -0.68556120107E+03  0.78237182161E+03  0.57123673469E+03  0.11867650293E+04  0.25500000920E-02 0.  1.
</event>
<event>
 5   0  0.2602060E-05  0.2096537E+04  0.7818609E-02  0.8562770E-01
       -1   -1    0    0    0  501  0.00000000000E+00  0.00000000000E+00  0.62710927388E+03  0.62710927390E+03  0.50400001928E-02 0.  1.
        1   -1    0    0  501    0  0.00000000000E+00  0.00000000000E+00 -0.17522737980E+04  0.17522737980E+04  0.50400001928E-02 0. -1.
    10030    2    1    2    0    0  0.00000000000E+00  0.00000000000E+00 -0.11251645241E+04  0.23793830719E+04  0.20965372872E+04 0.  0.
        1    1    3    3  502    0  0.27128459499E+03 -0.77249020952E+02 -0.17083952151E+04  0.17315244595E+04  0.50400001928E-02 0. -1.
       -1    1    3    3    0  502 -0.27128459499E+03  0.77249020952E+02  0.58323069101E+03  0.64785861241E+03  0.50400001928E-02 0.  1.
</event>
<event>
 5   0  0.2604390E-05  0.2105567E+04  0.7818609E-02  0.8558795E-01
        1   -1    0    0  501    0  0.00000000000E+00  0.00000000000E+00  0.15385473874E+04  0.15385473874E+04  0.50400001928E-02 0. -1.
       -1   -1    0    0    0  501  0.00000000000E+00  0.00000000000E+00 -0.72038919091E+03  0.72038919093E+03  0.50400001928E-02 0.  1.
    10030    2    1    2    0    0  0.00000000000E+00  0.00000000000E+00  0.81815819652E+03  0.22589365784E+04  0.21055668193E+04 0.  0.
        5    1    3    3  502    0  0.31186172951E+03 -0.10047939321E+04  0.36805459350E+03  0.11146097335E+04  0.46999998093E+01 0.  1.
       -5    1    3    3    0  502 -0.31186172951E+03  0.10047939321E+04  0.45010360302E+03  0.11443268448E+04  0.46999998093E+01 0. -1.
</event>
<event>
 5   0  0.5967046E-05  0.2096264E+04  0.7818609E-02  0.8562891E-01
        2   -1    0    0  501    0  0.00000000000E+00  0.00000000000E+00  0.75608633275E+03  0.75608633276E+03  0.25500000920E-02 0.  1.
       -2   -1    0    0    0  501  0.00000000000E+00  0.00000000000E+00 -0.14529834297E+04  0.14529834297E+04  0.25500000920E-02 0. -1.
    10030    2    1    2    0    0  0.00000000000E+00  0.00000000000E+00 -0.69689709698E+03  0.22090697625E+04  0.20962642133E+04 0.  0.
        4    1    3    3  502    0 -0.51010297728E+03  0.89199426672E+03 -0.13063671209E+03  0.10358215979E+04  0.12699999809E+01 0. -1.
       -4    1    3    3    0  502  0.51010297728E+03 -0.89199426672E+03 -0.56626038489E+03  0.11732481646E+04  0.12699999809E+01 0.  1.
</event>
<event>
 5   0  0.2732159E-05  0.2102054E+04  0.7818609E-02  0.8560339E-01
        1   -1    0    0  501    0  0.00000000000E+00  0.00000000000E+00  0.10327266650E+04  0.10327266650E+04  0.50400001928E-02 0. -1.
       -1   -1    0    0    0  501  0.00000000000E+00  0.00000000000E+00 -0.10696512913E+04  0.10696512913E+04  0.50400001928E-02 0.  1.
    10030    2    1    2    0    0  0.00000000000E+00  0.00000000000E+00 -0.36924626330E+02  0.21023779563E+04  0.21020536728E+04 0.  0.
        3    1    3    3  502    0 -0.28456429541E+03  0.82058455715E+03 -0.61043329508E+03  0.10615859228E+04  0.10100000352E+00 0.  1.
       -3    1    3    3    0  502  0.28456429541E+03 -0.82058455715E+03  0.57350866875E+03  0.10407920335E+04  0.10100000352E+00 0. -1.
</event>
<event>
 5   0  0.2017750E-05  0.2080357E+04  0.7818609E-02  0.8569946E-01
        3   -1    0    0  501    0  0.00000000000E+00  0.00000000000E+00  0.14844177605E+04  0.14844177639E+04  0.10100000352E+00 0. -1.
       -3   -1    0    0    0  501  0.00000000000E+00  0.00000000000E+00 -0.72888591686E+03  0.72888592386E+03  0.10100000352E+00 0.  1.
    10030    2    1    2    0    0  0.00000000000E+00  0.00000000000E+00  0.75553184363E+03  0.22133036878E+04  0.20803569039E+04 0.  0.
        5    1    3    3  502    0 -0.94073055624E+03  0.40383806811E+03  0.18190911510E+03  0.10397942974E+04  0.46999998093E+01 0.  1.
       -5    1    3    3    0  502  0.94073055624E+03 -0.40383806811E+03  0.57362272852E+03  0.11735093904E+04  0.46999998093E+01 0. -1.
</event>
<event>
 5   0  0.2602060E-05  0.2107865E+04  0.7818609E-02  0.8557787E-01
       -1   -1    0    0    0  501  0.00000000000E+00  0.00000000000E+00  0.82039936357E+03  0.82039936359E+03  0.50400001928E-02 0.  1.
        1   -1    0    0  501    0  0.00000000000E+00  0.00000000000E+00 -0.13539427728E+04  0.13539427728E+04  0.50400001928E-02 0. -1.
    10030    2    1    2    0    0  0.00000000000E+00  0.00000000000E+00 -0.53354340921E+03  0.21743421364E+04  0.21078650708E+04 0.  0.
        1    1    3    3  502    0  0.27534947857E+03  0.70826237506E+02 -0.13136376155E+04  0.13440526315E+04  0.50400001928E-02 0. -1.
       -1    1    3    3    0  502 -0.27534947857E+03 -0.70826237506E+02  0.78009420629E+03  0.83028950492E+03  0.50400001928E-02 0.  1.
</event>
<event>
 5   0  0.2699285E-05  0.2102021E+04  0.7818609E-02  0.8560354E-01
       -1   -1    0    0    0  501  0.00000000000E+00  0.00000000000E+00  0.75978226588E+03  0.75978226590E+03  0.50400001928E-02 0. -1.
        1   -1    0    0  501    0  0.00000000000E+00  0.00000000000E+00 -0.14538675513E+04  0.14538675514E+04  0.50400001928E-02 0.  1.
    10030    2    1    2    0    0  0.00000000000E+00  0.00000000000E+00 -0.69408528546E+03  0.22136498173E+04  0.21020207254E+04 0.  0.
        2    1    3    3  502    0 -0.25451407831E+03  0.17913977838E+03  0.71013813372E+03  0.77534808004E+03  0.25500000920E-02 0. -1.
       -2    1    3    3    0  502  0.25451407831E+03 -0.17913977838E+03 -0.14042234192E+04  0.14383017372E+04  0.25500000920E-02 0.  1.
</event>
<event>
 5   0  0.2789662E-05  0.2106684E+04  0.7818609E-02  0.8558305E-01
       -1   -1    0    0    0  501  0.00000000000E+00  0.00000000000E+00  0.92061956469E+03  0.92061956470E+03  0.50400001928E-02 0. -1.
        1   -1    0    0  501    0  0.00000000000E+00  0.00000000000E+00 -0.12051987962E+04  0.12051987962E+04  0.50400001928E-02 0.  1.
    10030    2    1    2    0    0  0.00000000000E+00  0.00000000000E+00 -0.28457923148E+03  0.21258183609E+04  0.21066842109E+04 0.  0.
        4    1    3    3  502    0  0.52043633516E+03 -0.21883993016E+03 -0.10396262507E+04  0.11830339167E+04  0.12699999809E+01 0.  1.
       -4    1    3    3    0  502 -0.52043633516E+03  0.21883993016E+03  0.75504701925E+03  0.94278444417E+03  0.12699999809E+01 0. -1.
</event>
<event>
 5   0  0.2017750E-05  0.2097819E+04  0.7818609E-02  0.8562205E-01
       -3   -1    0    0    0  501  0.00000000000E+00  0.00000000000E+00  0.11929623513E+04  0.11929623556E+04  0.10100000352E+00 0. -1.
        3   -1    0    0  501    0  0.00000000000E+00  0.00000000000E+00 -0.92225126222E+03  0.92225126775E+03  0.10100000352E+00 0.  1.
    10030    2    1    2    0    0  0.00000000000E+00  0.00000000000E+00  0.27071108910E+03  0.21152136233E+04  0.20978189099E+04 0.  0.
        4    1    3    3  502    0  0.61542934871E+03 -0.79671773513E+03  0.43224055547E+03  0.10956030045E+04  0.12699999809E+01 0. -1.
       -4    1    3    3    0  502 -0.61542934871E+03  0.79671773513E+03 -0.16152946636E+03  0.10196106189E+04  0.12699999809E+01 0.  1.
</event>
<event>
 5   0  0.5462851E-05  0.2113516E+04  0.7818609E-02  0.8555313E-01
        2   -1    0    0  501    0  0.00000000000E+00  0.00000000000E+00  0.12194942592E+04  0.12194942592E+04  0.25500000920E-02 0. -1.
       -2   -1    0    0    0  501  0.00000000000E+00  0.00000000000E+00 -0.91573803661E+03  0.91573803662E+03  0.25500000920E-02 0.  1.
    10030    2    1    2    0    0  0.00000000000E+00  0.00000000000E+00  0.30375622258E+03  0.21352322958E+04  0.21135158183E+04 0.  0.
        1    1    3    3  502    0 -0.44832782882E+03 -0.88401369024E+03 -0.21830082761E+03  0.10149548256E+04  0.50400001928E-02 0.  1.
       -1    1    3    3    0  502  0.44832782882E+03  0.88401369024E+03  0.52205705020E+03  0.11202774702E+04  0.50400001928E-02 0. -1.
</event>
<event>
 5   0  0.2699285E-05  0.2098277E+04  0.7818609E-02  0.8562003E-01
       -1   -1    0    0    0  501  0.00000000000E+00  0.00000000000E+00  0.65062652272E+03  0.65062652274E+03  0.50400001928E-02 0. -1.
        1   -1    0    0  501    0  0.00000000000E+00  0.00000000000E+00 -0.16917416779E+04  0.16917416779E+04  0.50400001928E-02 0.  1.
    10030    2    1    2    0    0  0.00000000000E+00  0.00000000000E+00 -0.10411151551E+04  0.23423682006E+04  0.20982773937E+04 0.  0.
        2    1    3    3  502    0  0.15735931576E+03 -0.78886909200E+03  0.23130116821E+03  0.83700455733E+03  0.25500000920E-02 0. -1.
       -2    1    3    3    0  502 -0.15735931576E+03  0.78886909200E+03 -0.12724163234E+04  0.15053636433E+04  0.25500000920E-02 0.  1.
</event>
<event>
 5   0  0.5506332E-05  0.2122292E+04  0.7818609E-02  0.8551487E-01
       -2   -1    0    0    0  501  0.00000000000E+00  0.00000000000E+00  0.16127460161E+04  0.16127460161E+04  0.25500000920E-02 0.  1.
        2   -1    0    0  501    0  0.00000000000E+00  0.00000000000E+00 -0.69820739154E+03  0.69820739154E+03  0.25500000920E-02 0. -1.
    10030    2    1    2    0    0  0.00000000000E+00  0.00000000000E+00  0.91453862454E+03  0.23109534076E+04  0.21222923353E+04 0.  0.
        3    1    3    3  502    0  0.17246286991E+03 -0.75024532002E+03 -0.33801150699E+03  0.84075161062E+03  0.10100000352E+00 0. -1.
       -3    1    3    3    0  502 -0.17246286991E+03  0.75024532002E+03  0.12525501315E+04  0.14702017970E+04  0.10100000352E+00 0.  1.
</event>
<event>
 5   0  0.2789662E-05  0.2160625E+04  0.7818609E-02  0.8534998E-01
        1   -1    0    0  501    0  0.00000000000E+00  0.00000000000E+00  0.61028261653E+03  0.61028261656E+03  0.50400001928E-02 0. -1.
       -1   -1    0    0    0  501  0.00000000000E+00  0.00000000000E+00 -0.19123515355E+04  0.19123515355E+04  0.50400001928E-02 0.  1.
    10030    2    1    2    0    0  0.00000000000E+00  0.00000000000E+00 -0.13020689189E+04  0.25226341520E+04  0.21606248160E+04 0.  0.
        4    1    3    3  502    0 -0.39135888601E+03 -0.51550120879E+03 -0.16609267564E+04  0.17825775094E+04  0.12699999809E+01 0.  1.
       -4    1    3    3    0  502  0.39135888601E+03  0.51550120879E+03  0.35885783746E+03  0.74005664265E+03  0.12699999809E+01 0. -1.
</event>
<event>
 5   0  0.5462851E-05  0.2015790E+04  0.7818609E-02  0.8599273E-01
       -2   -1    0    0    0  501  0.00000000000E+00  0.00000000000E+00  0.67398790857E+03  0.67398790857E+03  0.25500000920E-02 0.  1.
        2   -1    0    0  501    0  0.00000000000E+00  0.00000000000E+00 -0.15072270553E+04  0.15072270553E+04  0.25500000920E-02 0. -1.
    10030    2    1    2    0    0  0.00000000000E+00  0.00000000000E+00 -0.83323914677E+03  0.21812149639E+04  0.20157904760E+04 0.  0.
        1    1    3    3  502    0  0.83881491652E+03 -0.44908497882E+03 -0.77642024554E+03  0.12280538181E+04  0.50400001928E-02 0. -1.
       -1    1    3    3    0  502 -0.83881491652E+03  0.44908497882E+03 -0.56818901232E+02  0.95316114584E+03  0.50400001928E-02 0.  1.
</event>
<event>
 5   0  0.2732159E-05  0.2229740E+04  0.7818609E-02  0.8506151E-01
        1   -1    0    0  501    0  0.00000000000E+00  0.00000000000E+00  0.11678574010E+04  0.11678574010E+04  0.50400001928E-02 0. -1.
       -1   -1    0    0    0  501  0.00000000000E+00  0.00000000000E+00 -0.10642870786E+04  0.10642870786E+04  0.50400001928E-02 0.  1.
    10030    2    1    2    0    0  0.00000000000E+00  0.00000000000E+00  0.10357032238E+03  0.22321444797E+04  0.22297403809E+04 0.  0.
        3    1    3    3  502    0  0.46909331581E+03 -0.98628601905E+03  0.27591689173E+03  0.11264718335E+04  0.10100000352E+00 0.  1.
       -3    1    3    3    0  502 -0.46909331581E+03  0.98628601905E+03 -0.17234656935E+03  0.11056726462E+04  0.10100000352E+00 0. -1.
</event>
<event>
 5   0  0.5967046E-05  0.2068173E+04  0.7818609E-02  0.8575394E-01
        2   -1    0    0  501    0  0.00000000000E+00  0.00000000000E+00  0.20286913505E+04  0.20286913505E+04  0.25500000920E-02 0. -1.
       -2   -1    0    0    0  501  0.00000000000E+00  0.00000000000E+00 -0.52710572308E+03  0.52710572309E+03  0.25500000920E-02 0.  1.
    10030    2    1    2    0    0  0.00000000000E+00  0.00000000000E+00  0.15015856275E+04  0.25557970736E+04  0.20681729340E+04 0.  0.
        4    1    3    3  502    0  0.70342265732E+03  0.59935039143E+03  0.17737591041E+03  0.94100380075E+03  0.12699999809E+01 0.  1.
       -4    1    3    3    0  502 -0.70342265732E+03 -0.59935039143E+03  0.13242097170E+04  0.16147932729E+04  0.12699999809E+01 0. -1.
</event>
<event>
 5   0  0.5967046E-05  0.2110939E+04  0.7818609E-02  0.8556440E-01
       -2   -1    0    0    0  501  0.00000000000E+00  0.00000000000E+00  0.87249762500E+03  0.87249762500E+03  0.25500000920E-02 0. -1.
        2   -1    0    0  501    0  0.00000000000E+00  0.00000000000E+00 -0.12768121982E+04  0.12768121982E+04  0.25500000920E-02 0.  1.
    10030    2    1    2    0    0  0.00000000000E+00  0.00000000000E+00 -0.40431457319E+03  0.21493098232E+04  0.21109387585E+04 0.  0.
        4    1    3    3  502    0  0.70331992528E+03  0.74369053896E+03  0.59970390381E+02  0.10253451105E+04  0.12699999809E+01 0. -1.
       -4    1    3    3    0  502 -0.70331992528E+03 -0.74369053896E+03 -0.46428496357E+03  0.11239647127E+04  0.12699999809E+01 0.  1.
</event>
<event>
 5   0  0.5866610E-05  0.2292472E+04  0.7818609E-02  0.8480895E-01
       -2   -1    0    0    0  501  0.00000000000E+00  0.00000000000E+00  0.71300708110E+03  0.71300708111E+03  0.25500000920E-02 0.  1.
        2   -1    0    0  501    0  0.00000000000E+00  0.00000000000E+00 -0.18426990792E+04  0.18426990792E+04  0.25500000920E-02 0. -1.
    10030    2    1    2    0    0  0.00000000000E+00  0.00000000000E+00 -0.11296919981E+04  0.25557061603E+04  0.22924724573E+04 0.  0.
        5    1    3    3  502    0  0.64745671827E+03 -0.70063715070E+03 -0.12732143991E+04  0.15909712804E+04  0.46999998093E+01 0. -1.
       -5    1    3    3    0  502 -0.64745671827E+03  0.70063715070E+03  0.14352240099E+03  0.96473487993E+03  0.46999998093E+01 0.  1.
</event>
<event>
 5   0  0.5954140E-05  0.2102883E+04  0.7818609E-02  0.8559975E-01
       -2   -1    0    0    0  501  0.00000000000E+00  0.00000000000E+00  0.73996225811E+03  0.73996225812E+03  0.25500000920E-02 0. -1.
        2   -1    0    0  501    0  0.00000000000E+00  0.00000000000E+00 -0.14940340534E+04  0.14940340534E+04  0.25500000920E-02 0.  1.
    10030    2    1    2    0    0  0.00000000000E+00  0.00000000000E+00 -0.75407179532E+03  0.22339963115E+04  0.21028826043E+04 0.  0.
        2    1    3    3  502    0  0.95747098138E+03  0.40235384081E+03 -0.20283157156E+03  0.10581965507E+04  0.25500000920E-02 0. -1.
       -2    1    3    3    0  502 -0.95747098138E+03 -0.40235384081E+03 -0.55124022376E+03  0.11757997609E+04  0.25500000920E-02 0.  1.
</event>
<event>
 5   0  0.5506332E-05  0.2094880E+04  0.7818609E-02  0.8563502E-01
       -2   -1    0    0    0  501  0.00000000000E+00  0.00000000000E+00  0.50975734131E+03  0.50975734131E+03  0.25500000920E-02 0.  1.
        2   -1    0    0  501    0  0.00000000000E+00  0.00000000000E+00 -0.21522603253E+04  0.21522603253E+04  0.25500000920E-02 0. -1.
    10030    2    1    2    0    0  0.00000000000E+00  0.00000000000E+00 -0.16425029840E+04  0.26620176666E+04  0.20948799500E+04 0.  0.
        3    1    3    3  502    0  0.40007110550E+02  0.89306198497E+03 -0.12760496044E+03  0.90301899981E+03  0.10100000352E+00 0.  1.
       -3    1    3    3    0  502 -0.40007110550E+02 -0.89306198497E+03 -0.15148980236E+04  0.17589986668E+04  0.10100000352E+00 0. -1.
</event>
<event>
 5   0  0.5506332E-05  0.2101768E+04  0.7818609E-02  0.8560465E-01
       -2   -1    0    0    0  501  0.00000000000E+00  0.00000000000E+00  0.75484982674E+03  0.75484982674E+03  0.25500000920E-02 0.  1.
        2   -1    0    0  501    0  0.00000000000E+00  0.00000000000E+00 -0.14630162424E+04  0.14630162424E+04  0.25500000920E-02 0. -1.
    10030    2    1    2    0    0  0.00000000000E+00  0.00000000000E+00 -0.70816641569E+03  0.22178660692E+04  0.21017683575E+04 0.  0.
        3    1    3    3  502    0  0.47620609713E+03 -0.67937457517E+02 -0.13400222799E+04  0.14237441715E+04  0.10100000352E+00 0. -1.
       -3    1    3    3    0  502 -0.47620609713E+03  0.67937457517E+02  0.63185586419E+03  0.79412189769E+03  0.10100000352E+00 0.  1.
</event>
<event>
 5   0  0.5954140E-05  0.2097034E+04  0.7818609E-02  0.8562551E-01
        2   -1    0    0  501    0  0.00000000000E+00  0.00000000000E+00  0.23313331841E+04  0.23313331841E+04  0.25500000920E-02 0.  1.
       -2   -1    0    0    0  501  0.00000000000E+00  0.00000000000E+00 -0.47157056361E+03  0.47157056361E+03  0.25500000920E-02 0. -1.
    10030    2    1    2    0    0  0.00000000000E+00  0.00000000000E+00  0.18597626205E+04  0.28029037477E+04  0.20970341948E+04 0.  0.
        2    1    3    3  502    0  0.49733711402E+03  0.79698953109E+03  0.15523019324E+04  0.18144359473E+04  0.25500000920E-02 0.  1.
       -2    1    3    3    0  502 -0.49733711402E+03 -0.79698953109E+03  0.30746068810E+03  0.98846780038E+03  0.25500000920E-02 0. -1.
</event>
<event>
 5   0  0.2017750E-05  0.2110932E+04  0.7818609E-02  0.8556443E-01
        4   -1    0    0  501    0  0.00000000000E+00  0.00000000000E+00  0.13912983745E+04  0.13912989541E+04  0.12699999809E+01 0.  1.
       -4   -1    0    0    0  501  0.00000000000E+00  0.00000000000E+00 -0.80069601796E+03  0.80069702514E+03  0.12699999809E+01 0. -1.
    10030    2    1    2    0    0  0.00000000000E+00  0.00000000000E+00  0.59060235651E+03  0.21919959792E+04  0.21109323129E+04 0.  0.
        1    1    3    3  502    0 -0.51764446374E+01  0.89223848584E+03  0.88077244175E+03  0.12537449523E+04  0.50400001928E-02 0.  1.
       -1    1    3    3    0  502  0.51764446374E+01 -0.89223848584E+03 -0.29017008525E+03  0.93825102696E+03  0.50400001928E-02 0. -1.
</event>
<event>
 5   0  0.5506332E-05  0.2113039E+04  0.7818609E-02  0.8555521E-01
       -2   -1    0    0    0  501  0.00000000000E+00  0.00000000000E+00  0.63214257342E+03  0.63214257343E+03  0.25500000920E-02 0.  1.
        2   -1    0    0  501    0  0.00000000000E+00  0.00000000000E+00 -0.17657940134E+04  0.17657940134E+04  0.25500000920E-02 0. -1.
    10030    2    1    2    0    0  0.00000000000E+00  0.00000000000E+00 -0.11336514399E+04  0.23979365868E+04  0.21130391116E+04 0.  0.
        3    1    3    3  502    0 -0.28213064914E+03 -0.90857871988E+03 -0.10882550199E+04  0.14454798484E+04  0.10100000352E+00 0.  1.
       -3    1    3    3    0  502  0.28213064914E+03  0.90857871988E+03 -0.45396419985E+02  0.95245673841E+03  0.10100000352E+00 0. -1.
</event>
<event>
 5   0  0.2602060E-05  0.2072108E+04  0.7818609E-02  0.8573631E-01
        1   -1    0    0  501    0  0.00000000000E+00  0.00000000000E+00  0.10872780833E+04  0.10872780833E+04  0.50400001928E-02 0. -1.
       -1   -1    0    0    0  501  0.00000000000E+00  0.00000000000E+00 -0.98724312568E+03  0.98724312569E+03  0.50400001928E-02 0.  1.
    10030    2    1    2    0    0  0.00000000000E+00  0.00000000000E+00  0.10003495763E+03  0.20745212090E+04  0.20721079252E+04 0.  0.
        1    1    3    3  502    0 -0.88925617628E+03 -0.22976235839E+03 -0.42995773417E+03  0.10141158423E+04  0.50400001928E-02 0.  1.
       -1    1    3    3    0  502  0.88925617628E+03  0.22976235839E+03  0.52999269180E+03  0.10604053667E+04  0.50400001928E-02 0. -1.
</event>
<event>
 5   0  0.5462851E-05  0.2098082E+04  0.7818609E-02  0.8562089E-01
        2   -1    0    0  501    0  0.00000000000E+00  0.00000000000E+00  0.22319982914E+04  0.22319982914E+04  0.25500000920E-02 0.  1.
       -2   -1    0    0    0  501  0.00000000000E+00  0.00000000000E+00 -0.49305031062E+03  0.49305031062E+03  0.25500000920E-02 0. -1.
    10030    2    1    2    0    0  0.00000000000E+00  0.00000000000E+00  0.17389479808E+04  0.27250486020E+04  0.20980824110E+04 0.  0.
        1    1    3    3  502    0  0.27667412765E+02  0.72531250671E+03 -0.11424903342E+03  0.73477653731E+03  0.50400001928E-02 0. -1.
       -1    1    3    3    0  502 -0.27667412765E+02 -0.72531250671E+03  0.18531970142E+04  0.19902720647E+04  0.50400001928E-02 0.  1.
</event>
<event>
 5   0  0.5954140E-05  0.2094990E+04  0.7818609E-02  0.8563453E-01
        2   -1    0    0  501    0  0.00000000000E+00  0.00000000000E+00  0.11216444840E+04  0.11216444840E+04  0.25500000920E-02 0. -1.
       -2   -1    0    0    0  501  0.00000000000E+00  0.00000000000E+00 -0.97824747419E+03  0.97824747419E+03  0.25500000920E-02 0.  1.
    10030    2    1    2    0    0  0.00000000000E+00  0.00000000000E+00  0.14339700982E+03  0.20998919582E+04  0.20949901035E+04 0.  0.
        2    1    3    3  502    0 -0.28868974406E+03 -0.70780672520E+03 -0.64615718571E+03  0.10009251906E+04  0.25500000920E-02 0.  1.
       -2    1    3    3    0  502  0.28868974406E+03  0.70780672520E+03  0.78955419554E+03  0.10989667676E+04  0.25500000920E-02 0. -1.
</event>
<event>
 5   0  0.2699285E-05  0.2099488E+04  0.7818609E-02  0.8561469E-01
       -1   -1    0    0    0  501  0.00000000000E+00  0.00000000000E+00  0.99733128644E+03  0.99733128645E+03  0.50400001928E-02 0. -1.
        1   -1    0    0  501    0  0.00000000000E+00  0.00000000000E+00 -0.11049115766E+04  0.11049115766E+04  0.50400001928E-02 0.  1.
    10030    2    1    2    0    0  0.00000000000E+00  0.00000000000E+00 -0.10758029017E+03  0.21022428631E+04  0.20994883988E+04 0.  0.
        2    1    3    3  502    0  0.67067610147E+03  0.27862161297E+03  0.70517952418E+03  0.10122818766E+04  0.25500000920E-02 0. -1.
       -2    1    3    3    0  502 -0.67067610147E+03 -0.27862161297E+03 -0.81275981435E+03  0.10899609865E+04  0.25500000920E-02 0.  1.
</event>
<event>
 5   0  0.5866610E-05  0.2103386E+04  0.7818609E-02  0.8559753E-01
       -2   -1    0    0    0  501  0.00000000000E+00  0.00000000000E+00  0.90786663325E+03  0.90786663325E+03  0.25500000920E-02 0. -1.
        2   -1    0    0  501    0  0.00000000000E+00  0.00000000000E+00 -0.12183043769E+04  0.12183043769E+04  0.25500000920E-02 0.  1.
    10030    2    1    2    0    0  0.00000000000E+00  0.00000000000E+00 -0.31043774367E+03  0.21261710102E+04  0.21033857401E+04 0.  0.
        5    1    3    3  502    0 -0.12710300052E+03  0.80898723313E+03 -0.82223079444E+03  0.11604745087E+04  0.46999998093E+01 0. -1.
       -5    1    3    3    0  502  0.12710300052E+03 -0.80898723313E+03  0.51179305076E+03  0.96569650145E+03  0.46999998093E+01 0.  1.
</event>
<event>
 5   0  0.2732159E-05  0.2090309E+04  0.7818609E-02  0.8565524E-01
        1   -1    0    0  501    0  0.00000000000E+00  0.00000000000E+00  0.68343321663E+03  0.68343321665E+03  0.50400001928E-02 0. -1.
       -1   -1    0    0    0  501  0.00000000000E+00  0.00000000000E+00 -0.15983240127E+04  0.15983240127E+04  0.50400001928E-02 0.  1.
    10030    2    1    2    0    0  0.00000000000E+00  0.00000000000E+00 -0.91489079607E+03  0.22817572294E+04  0.20903088013E+04 0.  0.
        3    1    3    3  502    0  0.71537944688E+03 -0.13918226554E+03  0.36030546529E+03  0.81299415409E+03  0.10100000352E+00 0. -1.
       -3    1    3    3    0  502 -0.71537944688E+03  0.13918226554E+03 -0.12751962614E+04  0.14687630753E+04  0.10100000352E+00 0.  1.
</event>
<event>
 5   0  0.2732159E-05  0.2126741E+04  0.7818609E-02  0.8549554E-01
        1   -1    0    0  501    0  0.00000000000E+00  0.00000000000E+00  0.15577360308E+04  0.15577360308E+04  0.50400001928E-02 0. -1.
       -1   -1    0    0    0  501  0.00000000000E+00  0.00000000000E+00 -0.72589780257E+03  0.72589780259E+03  0.50400001928E-02 0.  1.
    10030    2    1    2    0    0  0.00000000000E+00  0.00000000000E+00  0.83183822824E+03  0.22836338334E+04  0.21267413212E+04 0.  0.
        3    1    3    3  502    0 -0.80458216615E+02  0.24177613869E+03 -0.69263104085E+03  0.73801557897E+03  0.10100000352E+00 0.  1.
       -3    1    3    3    0  502  0.80458216615E+02 -0.24177613869E+03  0.15244692691E+04  0.15456182544E+04  0.10100000352E+00 0. -1.
</event>
<event>
 5   0  0.2789662E-05  0.2081750E+04  0.7818609E-02  0.8569325E-01
        1   -1    0    0  501    0  0.00000000000E+00  0.00000000000E+00  0.19147245775E+04  0.19147245775E+04  0.50400001928E-02 0.  1.
       -1   -1    0    0    0  501  0.00000000000E+00  0.00000000000E+00 -0.56583648035E+03  0.56583648037E+03  0.50400001928E-02 0. -1.
    10030    2    1    2    0    0  0.00000000000E+00  0.00000000000E+00  0.13488880972E+04  0.24805610579E+04  0.20817502404E+04 0.  0.
        4    1    3    3  502    0 -0.28395636387E+03  0.51530695070E+03 -0.34867880400E+03  0.68392323493E+03  0.12699999809E+01 0. -1.
       -4    1    3    3    0  502  0.28395636387E+03 -0.51530695070E+03  0.16975669012E+04  0.17966378230E+04  0.12699999809E+01 0.  1.
</event>
<event>
 5   0  0.5967046E-05  0.2120958E+04  0.7818609E-02  0.8552067E-01
       -2   -1    0    0    0  501  0.00000000000E+00  0.00000000000E+00  0.58412825152E+03  0.58412825153E+03  0.25500000920E-02 0.  1.
        2   -1    0    0  501    0  0.00000000000E+00  0.00000000000E+00 -0.19252891831E+04  0.19252891831E+04  0.25500000920E-02 0. -1.
    10030    2    1    2    0    0  0.00000000000E+00  0.00000000000E+00 -0.13411609316E+04  0.25094174347E+04  0.21209580894E+04 0.  0.
        4    1    3    3  502    0 -0.11659513043E+03 -0.10524937595E+04 -0.60285436737E+03  0.12185124289E+04  0.12699999809E+01 0. -1.
       -4    1    3    3    0  502  0.11659513043E+03  0.10524937595E+04 -0.73830656423E+03  0.12909050058E+04  0.12699999809E+01 0.  1.
</event>
<event>
 5   0  0.5954140E-05  0.2123243E+04  0.7818609E-02  0.8551073E-01
       -2   -1    0    0    0  501  0.00000000000E+00  0.00000000000E+00  0.11226456280E+04  0.11226456280E+04  0.25500000920E-02 0. -1.
        2   -1    0    0  501    0  0.00000000000E+00  0.00000000000E+00 -0.10039140609E+04  0.10039140609E+04  0.25500000920E-02 0.  1.
    10030    2    1    2    0    0  0.00000000000E+00  0.00000000000E+00  0.11873156710E+03  0.21265596889E+04  0.21232425499E+04 0.  0.
        2    1    3    3  502    0 -0.60562665700E+03  0.83982805971E+03  0.29413530603E+03  0.10763876606E+04  0.25500000920E-02 0. -1.
       -2    1    3    3    0  502  0.60562665700E+03 -0.83982805971E+03 -0.17540373893E+03  0.10501720284E+04  0.25500000920E-02 0.  1.
</event>
<event>
 5   0  0.5967046E-05  0.2023881E+04  0.7818609E-02  0.8595536E-01
        2   -1    0    0  501    0  0.00000000000E+00  0.00000000000E+00  0.21281153345E+04  0.21281153345E+04  0.25500000920E-02 0.  1.
       -2   -1    0    0    0  501  0.00000000000E+00  0.00000000000E+00 -0.48118798657E+03  0.48118798657E+03  0.25500000920E-02 0. -1.
    10030    2    1    2    0    0  0.00000000000E+00  0.00000000000E+00  0.16469273479E+04  0.26093033211E+04  0.20238809580E+04 0.  0.
        4    1    3    3  502    0  0.36632040298E+03 -0.39997122196E+03 -0.27796832491E+03  0.60945518177E+03  0.12699999809E+01 0. -1.
       -4    1    3    3    0  502 -0.36632040298E+03  0.39997122196E+03  0.19248956728E+04  0.19998481393E+04  0.12699999809E+01 0.  1.
</event>
<event>
 5   0  0.5462851E-05  0.2095689E+04  0.7818609E-02  0.8563145E-01
       -2   -1    0    0    0  501  0.00000000000E+00  0.00000000000E+00  0.64288273672E+03  0.64288273672E+03  0.25500000920E-02 0. -1.
        2   -1    0    0  501    0  0.00000000000E+00  0.00000000000E+00 -0.17078975175E+04  0.17078975175E+04  0.25500000920E-02 0.  1.
    10030    2    1    2    0    0  0.00000000000E+00  0.00000000000E+00 -0.10650147808E+04  0.23507802542E+04  0.20956887461E+04 0.  0.
        1    1    3    3  502    0  0.62874223308E+03  0.81572149348E+03 -0.74903019539E+03  0.12734852116E+04  0.50400001928E-02 0. -1.
       -1    1    3    3    0  502 -0.62874223308E+03 -0.81572149348E+03 -0.31598458538E+03  0.10772950426E+04  0.50400001928E-02 0.  1.
</event>
<event>
 5   0  0.5506332E-05  0.2103699E+04  0.7818609E-02  0.8559616E-01
        2   -1    0    0  501    0  0.00000000000E+00  0.00000000000E+00  0.10826737737E+04  0.10826737737E+04  0.25500000920E-02 0.  1.
       -2   -1    0    0    0  501  0.00000000000E+00  0.00000000000E+00 -0.10219031899E+04  0.10219031899E+04  0.25500000920E-02 0. -1.
    10030    2    1    2    0    0  0.00000000000E+00  0.00000000000E+00  0.60770583850E+02  0.21045769636E+04  0.21036993920E+04 0.  0.
        3    1    3    3  502    0 -0.56877198405E+03 -0.54362598979E+03  0.72878609313E+03  0.10724551116E+04  0.10100000352E+00 0.  1.
       -3    1    3    3    0  502  0.56877198405E+03  0.54362598979E+03 -0.66801550928E+03  0.10321218520E+04  0.10100000352E+00 0. -1.
</event>
<event>
 5   0  0.2602060E-05  0.2104031E+04  0.7818609E-02  0.8559470E-01
        1   -1    0    0  501    0  0.00000000000E+00  0.00000000000E+00  0.12507477010E+04  0.12507477010E+04  0.50400001928E-02 0. -1.
       -1   -1    0    0    0  501  0.00000000000E+00  0.00000000000E+00 -0.88486022270E+03  0.88486022272E+03  0.50400001928E-02 0.  1.
    10030    2    1    2    0    0  0.00000000000E+00  0.00000000000E+00  0.36588747825E+03  0.21356079237E+04  0.21040312633E+04 0.  0.
        1    1    3    3  502    0 -0.70783101960E+03  0.53011160984E+03 -0.39542704243E+03  0.96871338233E+03  0.50400001928E-02 0.  1.
       -1    1    3    3    0  502  0.70783101960E+03 -0.53011160984E+03  0.76131452068E+03  0.11668945413E+04  0.50400001928E-02 0. -1.
</event>
<event>
 5   0  0.5954140E-05  0.2077953E+04  0.7818609E-02  0.8571018E-01
        2   -1    0    0  501    0  0.00000000000E+00  0.00000000000E+00  0.85255451932E+03  0.85255451933E+03  0.25500000920E-02 0. -1.
       -2   -1    0    0    0  501  0.00000000000E+00  0.00000000000E+00 -0.12661616888E+04  0.12661616888E+04  0.25500000920E-02 0.  1.
    10030    2    1    2    0    0  0.00000000000E+00  0.00000000000E+00 -0.41360716946E+03  0.21187162081E+04  0.20779527136E+04 0.  0.
        2    1    3    3  502    0  0.81749502324E+03  0.13358234006E+03 -0.84626654971E+03  0.11841914658E+04  0.25500000920E-02 0.  1.
       -2    1    3    3    0  502 -0.81749502324E+03 -0.13358234006E+03  0.43265938025E+03  0.93452474227E+03  0.25500000920E-02 0. -1.
</event>
<event>
 5   0  0.2789662E-05  0.2105556E+04  0.7818609E-02  0.8558800E-01
        1   -1    0    0  501    0  0.00000000000E+00  0.00000000000E+00  0.16298740247E+04  0.16298740247E+04  0.50400001928E-02 0. -1.
       -1   -1    0    0    0  501  0.00000000000E+00  0.00000000000E+00 -0.68001668862E+03  0.68001668863E+03  0.50400001928E-02 0.  1.
    10030    2    1    2    0    0  0.00000000000E+00  0.00000000000E+00  0.94985733611E+03  0.23098907134E+04  0.21055560189E+04 0.  0.
        4    1    3    3  502    0  0.65074598272E+02 -0.42809538729E+03  0.15276577408E+04  0.15878413491E+04  0.12699999809E+01 0. -1.
       -4    1    3    3    0  502 -0.65074598272E+02  0.42809538729E+03 -0.57780040466E+03  0.72204936430E+03  0.12699999809E+01 0.  1.
</event>
<event>
 5   0  0.5967046E-05  0.2103495E+04  0.7818609E-02  0.8559705E-01
        2   -1    0    0  501    0  0.00000000000E+00  0.00000000000E+00  0.14830996263E+04  0.14830996263E+04  0.25500000920E-02 0.  1.
       -2   -1    0    0    0  501  0.00000000000E+00  0.00000000000E+00 -0.74585187401E+03  0.74585187402E+03  0.25500000920E-02 0. -1.
    10030    2    1    2    0    0  0.00000000000E+00  0.00000000000E+00  0.73724775229E+03  0.22289515003E+04  0.21034948402E+04 0.  0.
        4    1    3    3  502    0 -0.47524966600E+03  0.63676621559E+03  0.10988068501E+04  0.13559909901E+04  0.12699999809E+01 0.  1.
       -4    1    3    3    0  502  0.47524966600E+03 -0.63676621559E+03 -0.36155909784E+03  0.87296051026E+03  0.12699999809E+01 0. -1.
</event>
<event>
 5   0  0.5967046E-05  0.1873702E+04  0.7818609E-02  0.8668058E-01
        2   -1    0    0  501    0  0.00000000000E+00  0.00000000000E+00  0.64278511296E+03  0.64278511297E+03  0.25500000920E-02 0.  1.
       -2   -1    0    0    0  501  0.00000000000E+00  0.00000000000E+00 -0.13654485245E+04  0.13654485245E+04  0.25500000920E-02 0. -1.
    10030    2    1    2    0    0  0.00000000000E+00  0.00000000000E+00 -0.72266341154E+03  0.20082336375E+04  0.18737022005E+04 0.  0.
        4    1    3    3  502    0  0.49413365282E+03 -0.64488325968E+02  0.48895184440E+03  0.69814205580E+03  0.12699999809E+01 0.  1.
       -4    1    3    3    0  502 -0.49413365282E+03  0.64488325968E+02 -0.12116152559E+04  0.13100915817E+04  0.12699999809E+01 0. -1.
</event>
<event>
 5   0  0.2602060E-05  0.2089365E+04  0.7818609E-02  0.8565943E-01
       -1   -1    0    0    0  501  0.00000000000E+00  0.00000000000E+00  0.11352225530E+04  0.11352225531E+04  0.50400001928E-02 0. -1.
        1   -1    0    0  501    0  0.00000000000E+00  0.00000000000E+00 -0.96136334851E+03  0.96136334852E+03  0.50400001928E-02 0.  1.
    10030    2    1    2    0    0  0.00000000000E+00  0.00000000000E+00  0.17385920454E+03  0.20965859016E+04  0.20893648364E+04 0.  0.
        1    1    3    3  502    0 -0.39382891078E+03  0.87721723783E+03 -0.32283211499E+03  0.10143134958E+04  0.50400001928E-02 0.  1.
       -1    1    3    3    0  502  0.39382891078E+03 -0.87721723783E+03  0.49669131953E+03  0.10822724057E+04  0.50400001928E-02 0. -1.
</event>
<event>
 5   0  0.2604390E-05  0.2086146E+04  0.7818609E-02  0.8567371E-01
        1   -1    0    0  501    0  0.00000000000E+00  0.00000000000E+00  0.96111437022E+03  0.96111437023E+03  0.50400001928E-02 0.  1.
       -1   -1    0    0    0  501  0.00000000000E+00  0.00000000000E+00 -0.11320204472E+04  0.11320204472E+04  0.50400001928E-02 0. -1.
    10030    2    1    2    0    0  0.00000000000E+00  0.00000000000E+00 -0.17090607695E+03  0.20931348174E+04  0.20861458426E+04 0.  0.
        5    1    3    3  502    0  0.44747854450E+03 -0.41394000153E+03  0.76378415649E+03  0.97722653482E+03  0.46999998093E+01 0.  1.
       -5    1    3    3    0  502 -0.44747854450E+03  0.41394000153E+03 -0.93469023344E+03  0.11159082826E+04  0.46999998093E+01 0. -1.
</event>
<event>
 5   0  0.5506332E-05  0.2091609E+04  0.7818609E-02  0.8564949E-01
        2   -1    0    0  501    0  0.00000000000E+00  0.00000000000E+00  0.97725254575E+03  0.97725254576E+03  0.25500000920E-02 0.  1.
       -2   -1    0    0    0  501  0.00000000000E+00  0.00000000000E+00 -0.11191654497E+04  0.11191654497E+04  0.25500000920E-02 0. -1.
    10030    2    1    2    0    0  0.00000000000E+00  0.00000000000E+00 -0.14191290395E+03  0.20964179955E+04  0.20916092224E+04 0.  0.
        3    1    3    3  502    0  0.92441114932E+03  0.13394626809E+03  0.40047553361E+03  0.10162963342E+04  0.10100000352E+00 0.  1.
       -3    1    3    3    0  502 -0.92441114932E+03 -0.13394626809E+03 -0.54238843756E+03  0.10801216613E+04  0.10100000352E+00 0. -1.
</event>
<event>
 5   0  0.2604390E-05  0.2110065E+04  0.7818609E-02  0.8556823E-01
        1   -1    0    0  501    0  0.00000000000E+00  0.00000000000E+00  0.14558584353E+04  0.14558584354E+04  0.50400001928E-02 0. -1.
       -1   -1    0    0    0  501  0.00000000000E+00  0.00000000000E+00 -0.76456139849E+03  0.76456139851E+03  0.50400001928E-02 0.  1.
    10030    2    1    2    0    0  0.00000000000E+00  0.00000000000E+00  0.69129703686E+03  0.22204198339E+04  0.21100646069E+04 0.  0.
        5    1    3    3  502    0  0.36207921886E+03 -0.76541429822E+03 -0.31664058794E+03  0.90401535418E+03  0.46999998093E+01 0.  1.
       -5    1    3    3    0  502 -0.36207921886E+03  0.76541429822E+03  0.10079376248E+04  0.13164044797E+04  0.46999998093E+01 0. -1.
</event>
<event>
 5   0  0.2789662E-05  0.2109322E+04  0.7818609E-02  0.8557148E-01
        1   -1    0    0  501    0  0.00000000000E+00  0.00000000000E+00  0.13740413899E+04  0.13740413900E+04  0.50400001928E-02 0.  1.
       -1   -1    0    0    0  501  0.00000000000E+00  0.00000000000E+00 -0.80951711198E+03  0.80951711200E+03  0.50400001928E-02 0. -1.
    10030    2    1    2    0    0  0.00000000000E+00  0.00000000000E+00  0.56452427796E+03  0.21835585020E+04  0.21093221828E+04 0.  0.
        4    1    3    3  502    0  0.22863192642E+03 -0.10190522155E+04  0.43429279499E+03  0.11310843560E+04  0.12699999809E+01 0. -1.
       -4    1    3    3    0  502 -0.22863192642E+03  0.10190522155E+04  0.13023148297E+03  0.10524741459E+04  0.12699999809E+01 0.  1.
</event>
<event>
 5   0  0.5967046E-05  0.2102879E+04  0.7818609E-02  0.8559976E-01
       -2   -1    0    0    0  501  0.00000000000E+00  0.00000000000E+00  0.80801561081E+03  0.80801561082E+03  0.25500000920E-02 0.  1.
        2   -1    0    0  501    0  0.00000000000E+00  0.00000000000E+00 -0.13681978994E+04  0.13681978994E+04  0.25500000920E-02 0. -1.
    10030    2    1    2    0    0  0.00000000000E+00  0.00000000000E+00 -0.56018228861E+03  0.21762135102E+04  0.21028792276E+04 0.  0.
        4    1    3    3  502    0  0.14956329091E+03  0.86449274565E+03 -0.87978816391E+03  0.12424756382E+04  0.12699999809E+01 0. -1.
       -4    1    3    3    0  502 -0.14956329091E+03 -0.86449274565E+03  0.31960587530E+03  0.93373787204E+03  0.12699999809E+01 0.  1.
</event>
<event>
 5   0  0.5462851E-05  0.2082717E+04  0.7818609E-02  0.8568895E-01
       -2   -1    0    0    0  501  0.00000000000E+00  0.00000000000E+00  0.70760982361E+03  0.70760982362E+03  0.25500000920E-02 0. -1.
        2   -1    0    0  501    0  0.00000000000E+00  0.00000000000E+00 -0.15325214078E+04  0.15325214078E+04  0.25500000920E-02 0.  1.
    10030    2    1    2    0    0  0.00000000000E+00  0.00000000000E+00 -0.82491158422E+03  0.22401312315E+04  0.20827166904E+04 0.  0.
        1    1    3    3  502    0 -0.38523252357E+03 -0.40604633000E+03 -0.13569788178E+04  0.14678791610E+04  0.50400001928E-02 0.  1.
       -1    1    3    3    0  502  0.38523252357E+03  0.40604633000E+03  0.53206723355E+03  0.77225207048E+03  0.50400001928E-02 0. -1.
</event>
<event>
 5   0  0.2699285E-05  0.2142859E+04  0.7818609E-02  0.8542595E-01
       -1   -1    0    0    0  501  0.00000000000E+00  0.00000000000E+00  0.78503601014E+03  0.78503601016E+03  0.50400001928E-02 0. -1.
        1   -1    0    0  501    0  0.00000000000E+00  0.00000000000E+00 -0.14623033920E+04  0.14623033920E+04  0.50400001928E-02 0.  1.
    10030    2    1    2    0    0  0.00000000000E+00  0.00000000000E+00 -0.67726738182E+03  0.22473394021E+04  0.21428586705E+04 0.  0.
        2    1    3    3  502    0  0.24155600091E+03 -0.31977904403E+03  0.70347096600E+03  0.80961678502E+03  0.25500000920E-02 0. -1.
       -2    1    3    3    0  502 -0.24155600091E+03  0.31977904403E+03 -0.13807383478E+04  0.14377226171E+04  0.25500000920E-02 0.  1.
</event>
<event>
 5   0  0.5954140E-05  0.2104690E+04  0.7818609E-02  0.8559180E-01
        2   -1    0    0  501    0  0.00000000000E+00  0.00000000000E+00  0.16251463752E+04  0.16251463752E+04  0.25500000920E-02 0.  1.
       -2   -1    0    0    0  501  0.00000000000E+00  0.00000000000E+00 -0.68143391855E+03  0.68143391855E+03  0.25500000920E-02 0. -1.
    10030    2    1    2    0    0  0.00000000000E+00  0.00000000000E+00  0.94371245667E+03  0.23065802938E+04  0.21046898704E+04 0.  0.
        2    1    3    3  502    0  0.72601951819E+03 -0.69571649798E+03  0.81195322874E+03  0.12924371675E+04  0.25500000920E-02 0. -1.
       -2    1    3    3    0  502 -0.72601951819E+03  0.69571649798E+03  0.13175922793E+03  0.10141431262E+04  0.25500000920E-02 0.  1.
</event>
<event>
 5   0  0.5462851E-05  0.2098173E+04  0.7818609E-02  0.8562049E-01
       -2   -1    0    0    0  501  0.00000000000E+00  0.00000000000E+00  0.54996929097E+03  0.54996929097E+03  0.25500000920E-02 0. -1.
        2   -1    0    0  501    0  0.00000000000E+00  0.00000000000E+00 -0.20011700111E+04  0.20011700111E+04  0.25500000920E-02 0.  1.
    10030    2    1    2    0    0  0.00000000000E+00  0.00000000000E+00 -0.14512007201E+04  0.25511393020E+04  0.20981725878E+04 0.  0.
        1    1    3    3  502    0  0.60221892873E+03  0.54140679211E+03  0.85308387069E+02  0.81428893741E+03  0.50400001928E-02 0. -1.
       -1    1    3    3    0  502 -0.60221892873E+03 -0.54140679211E+03 -0.15365091072E+04  0.17368503646E+04  0.50400001928E-02 0.  1.
</event>
<event>
 5   0  0.5506332E-05  0.2142210E+04  0.7818609E-02  0.8542874E-01
        2   -1    0    0  501    0  0.00000000000E+00  0.00000000000E+00  0.10250249248E+04  0.10250249248E+04  0.25500000920E-02 0.  1.
       -2   -1    0    0    0  501  0.00000000000E+00  0.00000000000E+00 -0.11192563472E+04  0.11192563473E+04  0.25500000920E-02 0. -1.
    10030    2    1    2    0    0  0.00000000000E+00  0.00000000000E+00 -0.94231422436E+02  0.21442812721E+04  0.21422097499E+04 0.  0.
        3    1    3    3  502    0  0.63806244936E+03  0.37692187303E+03 -0.82121459929E+03  0.11061587662E+04  0.10100000352E+00 0. -1.
       -3    1    3    3    0  502 -0.63806244936E+03 -0.37692187303E+03  0.72698317685E+03  0.10381225059E+04  0.10100000352E+00 0.  1.
</event>
<event>
 5   0  0.5954140E-05  0.2089600E+04  0.7818609E-02  0.8565839E-01
        2   -1    0    0  501    0  0.00000000000E+00  0.00000000000E+00  0.82176481372E+03  0.82176481372E+03  0.25500000920E-02 0. -1.
       -2   -1    0    0    0  501  0.00000000000E+00  0.00000000000E+00 -0.13283687294E+04  0.13283687294E+04  0.25500000920E-02 0.  1.
    10030    2    1    2    0    0  0.00000000000E+00  0.00000000000E+00 -0.50660391572E+03  0.21501335432E+04  0.20895996569E+04 0.  0.
        2    1    3    3  502    0  0.91071546603E+03 -0.51155654561E+03 -0.22997538246E+03  0.10695706783E+04  0.25500000920E-02 0. -1.
       -2    1    3    3    0  502 -0.91071546603E+03  0.51155654561E+03 -0.27662853326E+03  0.10805628648E+04  0.25500000920E-02 0.  1.
</event>
<event>
 5   0  0.2604390E-05  0.2097734E+04  0.7818609E-02  0.8562242E-01
        1   -1    0    0  501    0  0.00000000000E+00  0.00000000000E+00  0.18162465716E+04  0.18162465716E+04  0.50400001928E-02 0. -1.
       -1   -1    0    0    0  501  0.00000000000E+00  0.00000000000E+00 -0.60571201747E+03  0.60571201749E+03  0.50400001928E-02 0.  1.
    10030    2    1    2    0    0  0.00000000000E+00  0.00000000000E+00  0.12105345541E+04  0.24219585891E+04  0.20977343732E+04 0.  0.
        5    1    3    3  502    0 -0.75788908931E+02  0.86274559083E+02  0.18089544033E+04  0.18126018265E+04  0.46999998093E+01 0. -1.
       -5    1    3    3    0  502  0.75788908931E+02 -0.86274559083E+02 -0.59841984916E+03  0.60935676260E+03  0.46999998093E+01 0.  1.
</event>
<event>
 5   0  0.5967046E-05  0.2111862E+04  0.7818609E-02  0.8556036E-01
       -2   -1    0    0    0  501  0.00000000000E+00  0.00000000000E+00  0.83285903129E+03  0.83285903129E+03  0.25500000920E-02 0.  1.
        2   -1    0    0  501    0  0.00000000000E+00  0.00000000000E+00 -0.13387502693E+04  0.13387502693E+04  0.25500000920E-02 0. -1.
    10030    2    1    2    0    0  0.00000000000E+00  0.00000000000E+00 -0.50589123803E+03  0.21716093006E+04  0.21118619770E+04 0.  0.
        4    1    3    3  502    0  0.53284754854E+02 -0.79383747633E+03  0.46093700631E+03  0.91950081055E+03  0.12699999809E+01 0.  1.
       -4    1    3    3    0  502 -0.53284754854E+02  0.79383747633E+03 -0.96682824434E+03  0.12521084901E+04  0.12699999809E+01 0. -1.
</event>
<event>
 5   0  0.2732159E-05  0.2094374E+04  0.7818609E-02  0.8563726E-01
        1   -1    0    0  501    0  0.00000000000E+00  0.00000000000E+00  0.13656829984E+04  0.13656829984E+04  0.50400001928E-02 0. -1.
       -1   -1    0    0    0  501  0.00000000000E+00  0.00000000000E+00 -0.80296871443E+03  0.80296871444E+03  0.50400001928E-02 0.  1.
    10030    2    1    2    0    0  0.00000000000E+00  0.00000000000E+00  0.56271428397E+03  0.21686517129E+04  0.20943741037E+04 0.  0.
        3    1    3    3  502    0 -0.20497638582E+03 -0.60105481928E+03 -0.58083079773E+03  0.86060829668E+03  0.10100000352E+00 0.  1.
       -3    1    3    3    0  502  0.20497638582E+03  0.60105481928E+03  0.11435450817E+04  0.13080434162E+04  0.10100000352E+00 0. -1.
</event>
<event>
 5   0  0.2732159E-05  0.2134487E+04  0.7818609E-02  0.8546202E-01
        1   -1    0    0  501    0  0.00000000000E+00  0.00000000000E+00  0.14361779304E+04  0.14361779304E+04  0.50400001928E-02 0. -1.
       -1   -1    0    0    0  501  0.00000000000E+00  0.00000000000E+00 -0.79308295044E+03  0.79308295045E+03  0.50400001928E-02 0.  1.
    10030    2    1    2    0    0  0.00000000000E+00  0.00000000000E+00  0.64309497995E+03  0.22292608808E+04  0.21344865710E+04 0.  0.
        3    1    3    3  502    0 -0.10024100831E+04 -0.10261522983E+02 -0.60875967582E+02  0.10043092986E+04  0.10100000352E+00 0. -1.
       -3    1    3    3    0  502  0.10024100831E+04  0.10261522983E+02  0.70397094754E+03  0.12249515822E+04  0.10100000352E+00 0.  1.
</event>
<event>
 5   0  0.5506332E-05  0.2110386E+04  0.7818609E-02  0.8556682E-01
       -2   -1    0    0    0  501  0.00000000000E+00  0.00000000000E+00  0.65639418656E+03  0.65639418657E+03  0.25500000920E-02 0.  1.
        2   -1    0    0  501    0  0.00000000000E+00  0.00000000000E+00 -0.16962858647E+04  0.16962858647E+04  0.25500000920E-02 0. -1.
    10030    2    1    2    0    0  0.00000000000E+00  0.00000000000E+00 -0.10398916782E+04  0.23526800513E+04  0.21103859176E+04 0.  0.
        3    1    3    3  502    0 -0.65118017476E+02  0.15180301086E+03 -0.16817834338E+04  0.16898757465E+04  0.10100000352E+00 0. -1.
       -3    1    3    3    0  502  0.65118017476E+02 -0.15180301086E+03  0.64189175562E+03  0.66280430478E+03  0.10100000352E+00 0.  1.
</event>
<event>
 5   0  0.2017750E-05  0.2075754E+04  0.7818609E-02  0.8572000E-01
        3   -1    0    0  501    0  0.00000000000E+00  0.00000000000E+00  0.79104312912E+03  0.79104313557E+03  0.10100000352E+00 0.  1.
       -3   -1    0    0    0  501  0.00000000000E+00  0.00000000000E+00 -0.13617316539E+04  0.13617316577E+04  0.10100000352E+00 0. -1.
    10030    2    1    2    0    0  0.00000000000E+00  0.00000000000E+00 -0.57068852479E+03  0.21527747932E+04  0.20757538192E+04 0.  0.
        5    1    3    3  502    0 -0.59513959039E+03  0.80586019300E+03 -0.40523711789E+01  0.10018184938E+04  0.46999998093E+01 0.  1.
       -5    1    3    3    0  502  0.59513959039E+03 -0.80586019300E+03 -0.56663615361E+03  0.11509562995E+04  0.46999998093E+01 0. -1.
</event>
<event>
 5   0  0.2732159E-05  0.2097160E+04  0.7818609E-02  0.8562496E-01
       -1   -1    0    0    0  501  0.00000000000E+00  0.00000000000E+00  0.11339015022E+04  0.11339015022E+04  0.50400001928E-02 0. -1.
        1   -1    0    0  501    0  0.00000000000E+00  0.00000000000E+00 -0.96967828551E+03  0.96967828552E+03  0.50400001928E-02 0.  1.
    10030    2    1    2    0    0  0.00000000000E+00  0.00000000000E+00  0.16422321673E+03  0.21035797878E+04  0.20971596645E+04 0.  0.
        3    1    3    3  502    0  0.56442949620E+03 -0.58072339605E+03  0.75025839220E+03  0.11039510787E+04  0.10100000352E+00 0. -1.
       -3    1    3    3    0  502 -0.56442949620E+03  0.58072339605E+03 -0.58603517547E+03  0.99962870907E+03  0.10100000352E+00 0.  1.
</event>
<event>
 5   0  0.2789662E-05  0.2100787E+04  0.7818609E-02  0.8560897E-01
       -1   -1    0    0    0  501  0.00000000000E+00  0.00000000000E+00  0.53765086263E+03  0.53765086265E+03  0.50400001928E-02 0. -1.
        1   -1    0    0  501    0  0.00000000000E+00  0.00000000000E+00 -0.20521241426E+04  0.20521241426E+04  0.50400001928E-02 0.  1.
    10030    2    1    2    0    0  0.00000000000E+00  0.00000000000E+00 -0.15144732799E+04  0.25897750052E+04  0.21007868198E+04 0.  0.
        4    1    3    3  502    0  0.94001309243E+03 -0.39266637851E+03 -0.10727694102E+04  0.14794077596E+04  0.12699999809E+01 0. -1.
       -4    1    3    3    0  502 -0.94001309243E+03  0.39266637851E+03 -0.44170386973E+03  0.11103672456E+04  0.12699999809E+01 0.  1.
</event>
<event>
 5   0  0.2604390E-05  0.2085023E+04  0.7818609E-02  0.8567870E-01
       -1   -1    0    0    0  501  0.00000000000E+00  0.00000000000E+00  0.13498943702E+04  0.13498943702E+04  0.50400001928E-02 0.  1.
        1   -1    0    0  501    0  0.00000000000E+00  0.00000000000E+00 -0.80512251824E+03  0.80512251825E+03  0.50400001928E-02 0. -1.
    10030    2    1    2    0    0  0.00000000000E+00  0.00000000000E+00  0.54477185198E+03  0.21550168885E+04  0.20850231219E+04 0.  0.
        5    1    3    3  502    0  0.43553045283E+03 -0.88797190624E+03  0.61303676364E+03  0.11636223808E+04  0.46999998093E+01 0.  1.
       -5    1    3    3    0  502 -0.43553045283E+03  0.88797190624E+03 -0.68264911665E+02  0.99139450764E+03  0.46999998093E+01 0. -1.
</event>
<event>
 5   0  0.2789662E-05  0.2091472E+04  0.7818609E-02  0.8565009E-01
       -1   -1    0    0    0  501  0.00000000000E+00  0.00000000000E+00  0.17624654257E+04  0.17624654258E+04  0.50400001928E-02 0.  1.
        1   -1    0    0  501    0  0.00000000000E+00  0.00000000000E+00 -0.62047374899E+03  0.62047374901E+03  0.50400001928E-02 0. -1.
    10030    2    1    2    0    0  0.00000000000E+00  0.00000000000E+00  0.11419916768E+04  0.23829391748E+04  0.20914717595E+04 0.  0.
        4    1    3    3  502    0  0.13304061101E+03  0.46786171129E+03 -0.48373862377E+03  0.68600222602E+03  0.12699999809E+01 0. -1.
       -4    1    3    3    0  502 -0.13304061101E+03 -0.46786171129E+03  0.16257303005E+04  0.16969369487E+04  0.12699999809E+01 0.  1.
</event>
<event>
 5   0  0.5506332E-05  0.2097792E+04  0.7818609E-02  0.8562217E-01
        2   -1    0    0  501    0  0.00000000000E+00  0.00000000000E+00  0.93428632014E+03  0.93428632015E+03  0.25500000920E-02 0. -1.
       -2   -1    0    0    0  501  0.00000000000E+00  0.00000000000E+00 -0.11775651502E+04  0.11775651502E+04  0.25500000920E-02 0.  1.
    10030    2    1    2    0    0  0.00000000000E+00  0.00000000000E+00 -0.24327883007E+03  0.21118514704E+04  0.20977921832E+04 0.  0.
        3    1    3    3  502    0  0.65949962353E+03  0.93664722295E+02  0.69401915733E+03  0.96196436242E+03  0.10100000352E+00 0. -1.
       -3    1    3    3    0  502 -0.65949962353E+03 -0.93664722295E+02 -0.93729798740E+03  0.11498871079E+04  0.10100000352E+00 0.  1.
</event>
<event>
 5   0  0.2602060E-05  0.2083992E+04  0.7818609E-02  0.8568328E-01
       -1   -1    0    0    0  501  0.00000000000E+00  0.00000000000E+00  0.84832247092E+03  0.84832247094E+03  0.50400001928E-02 0. -1.
        1   -1    0    0  501    0  0.00000000000E+00  0.00000000000E+00 -0.12798857657E+04  0.12798857657E+04  0.50400001928E-02 0.  1.
    10030    2    1    2    0    0  0.00000000000E+00  0.00000000000E+00 -0.43156329474E+03  0.21282082366E+04  0.20839921835E+04 0.  0.
        1    1    3    3  502    0  0.44405085503E+03 -0.87372486658E+03  0.14553230173E+03  0.99083598804E+03  0.50400001928E-02 0. -1.
       -1    1    3    3    0  502 -0.44405085503E+03  0.87372486658E+03 -0.57709559647E+03  0.11373722486E+04  0.50400001928E-02 0.  1.
</event>
<event>
 5   0  0.5506332E-05  0.2096760E+04  0.7818609E-02  0.8562672E-01
        2   -1    0    0  501    0  0.00000000000E+00  0.00000000000E+00  0.11169435045E+04  0.11169435045E+04  0.25500000920E-02 0. -1.
       -2   -1    0    0    0  501  0.00000000000E+00  0.00000000000E+00 -0.98402500511E+03  0.98402500511E+03  0.25500000920E-02 0.  1.
    10030    2    1    2    0    0  0.00000000000E+00  0.00000000000E+00  0.13291849934E+03  0.21009685096E+04  0.20967597265E+04 0.  0.
        3    1    3    3  502    0 -0.25214889480E+03  0.36686956140E+03 -0.88461826873E+03  0.99031400667E+03  0.10100000352E+00 0.  1.
       -3    1    3    3    0  502  0.25214889480E+03 -0.36686956140E+03  0.10175367681E+04  0.11106545029E+04  0.10100000352E+00 0. -1.
</event>
<event>
 5   0  0.5967046E-05  0.2100307E+04  0.7818609E-02  0.8561108E-01
       -2   -1    0    0    0  501  0.00000000000E+00  0.00000000000E+00  0.69268983040E+03  0.69268983041E+03  0.25500000920E-02 0. -1.
        2   -1    0    0  501    0  0.00000000000E+00  0.00000000000E+00 -0.15920863060E+04  0.15920863060E+04  0.25500000920E-02 0.  1.
    10030    2    1    2    0    0  0.00000000000E+00  0.00000000000E+00 -0.89939647557E+03  0.22847761364E+04  0.21003066379E+04 0.  0.
        4    1    3    3  502    0  0.68183569527E+03 -0.58589799402E+03  0.14078796468E+03  0.90994463493E+03  0.12699999809E+01 0. -1.
       -4    1    3    3    0  502 -0.68183569527E+03  0.58589799402E+03 -0.10401844402E+04  0.13748315014E+04  0.12699999809E+01 0.  1.
</event>
<event>
 5   0  0.2602060E-05  0.2095776E+04  0.7818609E-02  0.8563106E-01
       -1   -1    0    0    0  501  0.00000000000E+00  0.00000000000E+00  0.13142823395E+04  0.13142823395E+04  0.50400001928E-02 0. -1.
        1   -1    0    0  501    0  0.00000000000E+00  0.00000000000E+00 -0.83548949682E+03  0.83548949684E+03  0.50400001928E-02 0.  1.
    10030    2    1    2    0    0  0.00000000000E+00  0.00000000000E+00  0.47879284267E+03  0.21497718363E+04  0.20957758377E+04 0.  0.
        1    1    3    3  502    0  0.34510608284E+03 -0.71866566902E+03 -0.45819152224E+03  0.91952053991E+03  0.50400001928E-02 0.  1.
       -1    1    3    3    0  502 -0.34510608284E+03  0.71866566902E+03  0.93698436490E+03  0.12302512964E+04  0.50400001928E-02 0. -1.
</event>
<event>
 5   0  0.2602060E-05  0.2078988E+04  0.7818609E-02  0.8570556E-01
        1   -1    0    0  501    0  0.00000000000E+00  0.00000000000E+00  0.13413194600E+04  0.13413194600E+04  0.50400001928E-02 0.  1.
       -1   -1    0    0    0  501  0.00000000000E+00  0.00000000000E+00 -0.80558565209E+03  0.80558565210E+03  0.50400001928E-02 0. -1.
    10030    2    1    2    0    0  0.00000000000E+00  0.00000000000E+00  0.53573380793E+03  0.21469051121E+04  0.20789879383E+04 0.  0.
        1    1    3    3  502    0 -0.88216473722E+03  0.52591367609E+03  0.10216338434E+03  0.10321032775E+04  0.50400001928E-02 0. -1.
       -1    1    3    3    0  502  0.88216473722E+03 -0.52591367609E+03  0.43357042360E+03  0.11148018346E+04  0.50400001928E-02 0.  1.
</event>
<event>
 5   0  0.5954140E-05  0.2160203E+04  0.7818609E-02  0.8535177E-01
       -2   -1    0    0    0  501  0.00000000000E+00  0.00000000000E+00  0.85477972689E+03  0.85477972690E+03  0.25500000920E-02 0. -1.
        2   -1    0    0  501    0  0.00000000000E+00  0.00000000000E+00 -0.13648189085E+04  0.13648189085E+04  0.25500000920E-02 0.  1.
    10030    2    1    2    0    0  0.00000000000E+00  0.00000000000E+00 -0.51003918165E+03  0.22195986354E+04  0.21602032626E+04 0.  0.
        2    1    3    3  502    0  0.31308443717E+03  0.88451050378E+03  0.29470366680E+03  0.98347900198E+03  0.25500000920E-02 0. -1.
       -2    1    3    3    0  502 -0.31308443717E+03 -0.88451050378E+03 -0.80474284845E+03  0.12361196335E+04  0.25500000920E-02 0.  1.
</event>
<event>
 5   0  0.5506332E-05  0.2114152E+04  0.7818609E-02  0.8555035E-01
        2   -1    0    0  501    0  0.00000000000E+00  0.00000000000E+00  0.20309325561E+04  0.20309325561E+04  0.25500000920E-02 0.  1.
       -2   -1    0    0    0  501  0.00000000000E+00  0.00000000000E+00 -0.55019551567E+03  0.55019551568E+03  0.25500000920E-02 0. -1.
    10030    2    1    2    0    0  0.00000000000E+00  0.00000000000E+00  0.14807370405E+04  0.25811280718E+04  0.21141522982E+04 0.  0.
        3    1    3    3  502    0  0.53977608524E+03 -0.29832908103E+03 -0.30777850307E+03  0.68926488373E+03  0.10100000352E+00 0. -1.
       -3    1    3    3    0  502 -0.53977608524E+03  0.29832908103E+03  0.17885155435E+04  0.18918631881E+04  0.10100000352E+00 0.  1.
</event>
<event>
 5   0  0.2789662E-05  0.2080667E+04  0.7818609E-02  0.8569808E-01
       -1   -1    0    0    0  501  0.00000000000E+00  0.00000000000E+00  0.59752687847E+03  0.59752687849E+03  0.50400001928E-02 0.  1.
        1   -1    0    0  501    0  0.00000000000E+00  0.00000000000E+00 -0.18112893805E+04  0.18112893805E+04  0.50400001928E-02 0. -1.
    10030    2    1    2    0    0  0.00000000000E+00  0.00000000000E+00 -0.12137625020E+04  0.24088162590E+04  0.20806672868E+04 0.  0.
        4    1    3    3  502    0  0.57514881947E+03  0.62567804835E+03 -0.13015317214E+04  0.15544309633E+04  0.12699999809E+01 0. -1.
       -4    1    3    3    0  502 -0.57514881947E+03 -0.62567804835E+03  0.87769219449E+02  0.85438529570E+03  0.12699999809E+01 0.  1.
</event>
<event>
 5   0  0.2699285E-05  0.2097240E+04  0.7818609E-02  0.8562460E-01
       -1   -1    0    0    0  501  0.00000000000E+00  0.00000000000E+00  0.45949212576E+03  0.45949212579E+03  0.50400001928E-02 0. -1.
        1   -1    0    0  501    0  0.00000000000E+00  0.00000000000E+00 -0.23930847364E+04  0.23930847364E+04  0.50400001928E-02 0.  1.
    10030    2    1    2    0    0  0.00000000000E+00  0.00000000000E+00 -0.19335926107E+04  0.28525768622E+04  0.20972397028E+04 0.  0.
        2    1    3    3  502    0  0.20527569473E+03 -0.60176328704E+03  0.16740436230E+03  0.65748109099E+03  0.25500000920E-02 0. -1.
       -2    1    3    3    0  502 -0.20527569473E+03  0.60176328704E+03 -0.21009969730E+04  0.21950957712E+04  0.25500000920E-02 0.  1.
</event>
<event>
 5   0  0.2602060E-05  0.2089848E+04  0.7818609E-02  0.8565729E-01
       -1   -1    0    0    0  501  0.00000000000E+00  0.00000000000E+00  0.65780978352E+03  0.65780978354E+03  0.50400001928E-02 0. -1.
        1   -1    0    0  501    0  0.00000000000E+00  0.00000000000E+00 -0.16598513455E+04  0.16598513455E+04  0.50400001928E-02 0.  1.
    10030    2    1    2    0    0  0.00000000000E+00  0.00000000000E+00 -0.10020415620E+04  0.23176611290E+04  0.20898482761E+04 0.  0.
        1    1    3    3  502    0  0.10136013799E+04  0.46108124783E+02 -0.22409528456E+03  0.10391017338E+04  0.50400001928E-02 0. -1.
       -1    1    3    3    0  502 -0.10136013799E+04 -0.46108124783E+02 -0.77794627739E+03  0.12785593952E+04  0.50400001928E-02 0.  1.
</event>
<event>
 5   0  0.5954140E-05  0.2036186E+04  0.7818609E-02  0.8589887E-01
        2   -1    0    0  501    0  0.00000000000E+00  0.00000000000E+00  0.13920659706E+04  0.13920659706E+04  0.25500000920E-02 0.  1.
       -2   -1    0    0    0  501  0.00000000000E+00  0.00000000000E+00 -0.74458612884E+03  0.74458612884E+03  0.25500000920E-02 0. -1.
    10030    2    1    2    0    0  0.00000000000E+00  0.00000000000E+00  0.64747984172E+03  0.21366520994E+04  0.20361856616E+04 0.  0.
        2    1    3    3  502    0 -0.32261358402E+03  0.84654572115E+03  0.81119651533E+03  0.12160423385E+04  0.25500000920E-02 0.  1.
       -2    1    3    3    0  502  0.32261358402E+03 -0.84654572115E+03 -0.16371667361E+03  0.92060976088E+03  0.25500000920E-02 0. -1.
</event>
<event>
 5   0  0.2604390E-05  0.2102314E+04  0.7818609E-02  0.8560225E-01
       -1   -1    0    0    0  501  0.00000000000E+00  0.00000000000E+00  0.11325185990E+04  0.11325185990E+04  0.50400001928E-02 0.  1.
        1   -1    0    0  501    0  0.00000000000E+00  0.00000000000E+00 -0.97564058592E+03  0.97564058593E+03  0.50400001928E-02 0. -1.
    10030    2    1    2    0    0  0.00000000000E+00  0.00000000000E+00  0.15687801304E+03  0.21081591849E+04  0.21023140674E+04 0.  0.
        5    1    3    3  502    0 -0.66911333611E+03  0.22283166953E+03  0.86005620041E+03  0.11122433939E+04  0.46999998093E+01 0.  1.
       -5    1    3    3    0  502  0.66911333611E+03 -0.22283166953E+03 -0.70317818737E+03  0.99591579097E+03  0.46999998093E+01 0. -1.
</event>
<event>
 5   0  0.2732159E-05  0.2088234E+04  0.7818609E-02  0.8566444E-01
       -1   -1    0    0    0  501  0.00000000000E+00  0.00000000000E+00  0.57153763973E+03  0.57153763976E+03  0.50400001928E-02 0. -1.
        1   -1    0    0  501    0  0.00000000000E+00  0.00000000000E+00 -0.19074508404E+04  0.19074508404E+04  0.50400001928E-02 0.  1.
    10030    2    1    2    0    0  0.00000000000E+00  0.00000000000E+00 -0.13359132007E+04  0.24789884802E+04  0.20882336567E+04 0.  0.
        3    1    3    3  502    0  0.24290727757E+03  0.13257790445E+03  0.52721021044E+03  0.59542544658E+03  0.10100000352E+00 0. -1.
       -3    1    3    3    0  502 -0.24290727757E+03 -0.13257790445E+03 -0.18631234112E+04  0.18835630336E+04  0.10100000352E+00 0.  1.
</event>
<event>
 5   0  0.5506332E-05  0.2079030E+04  0.7818609E-02  0.8570538E-01
        2   -1    0    0  501    0  0.00000000000E+00  0.00000000000E+00  0.13540842249E+04  0.13540842249E+04  0.25500000920E-02 0.  1.
       -2   -1    0    0    0  501  0.00000000000E+00  0.00000000000E+00 -0.79802376251E+03  0.79802376252E+03  0.25500000920E-02 0. -1.
    10030    2    1    2    0    0  0.00000000000E+00  0.00000000000E+00  0.55606046241E+03  0.21521079874E+04  0.20790299545E+04 0.  0.
        3    1    3    3  502    0  0.91457574469E+03  0.49399609368E+03  0.28890888534E+03  0.10788648143E+04  0.10100000352E+00 0.  1.
       -3    1    3    3    0  502 -0.91457574469E+03 -0.49399609368E+03  0.26715157708E+03  0.10732431731E+04  0.10100000352E+00 0. -1.
</event>
<event>
 5   0  0.5506332E-05  0.2097411E+04  0.7818609E-02  0.8562384E-01
        2   -1    0    0  501    0  0.00000000000E+00  0.00000000000E+00  0.25448070923E+04  0.25448070923E+04  0.25500000920E-02 0. -1.
       -2   -1    0    0    0  501  0.00000000000E+00  0.00000000000E+00 -0.43216782356E+03  0.43216782356E+03  0.25500000920E-02 0.  1.
    10030    2    1    2    0    0  0.00000000000E+00  0.00000000000E+00  0.21126392688E+04  0.29769749159E+04  0.20974114927E+04 0.  0.
        3    1    3    3  502    0  0.61742577643E+03 -0.27079362956E+03  0.21964438170E+04  0.22975876981E+04  0.10100000352E+00 0. -1.
       -3    1    3    3    0  502 -0.61742577643E+03  0.27079362956E+03 -0.83804548175E+02  0.67938721780E+03  0.10100000352E+00 0.  1.
</event>
<event>
 5   0  0.2602060E-05  0.2077641E+04  0.7818609E-02  0.8571157E-01
        1   -1    0    0  501    0  0.00000000000E+00  0.00000000000E+00  0.10160075566E+04  0.10160075566E+04  0.50400001928E-02 0. -1.
       -1   -1    0    0    0  501  0.00000000000E+00  0.00000000000E+00 -0.10621456435E+04  0.10621456435E+04  0.50400001928E-02 0.  1.
    10030    2    1    2    0    0  0.00000000000E+00  0.00000000000E+00 -0.46138086921E+02  0.20781532001E+04  0.20776409700E+04 0.  0.
        1    1    3    3  502    0  0.25732040668E+03  0.92488571945E+03  0.37391747445E+03  0.10302629099E+04  0.50400001928E-02 0. -1.
       -1    1    3    3    0  502 -0.25732040668E+03 -0.92488571945E+03 -0.42005556137E+03  0.10478902902E+04  0.50400001928E-02 0.  1.
</event>
<event>
 5   0  0.5462851E-05  0.2026077E+04  0.7818609E-02  0.8594525E-01
       -2   -1    0    0    0  501  0.00000000000E+00  0.00000000000E+00  0.14808055575E+04  0.14808055575E+04  0.25500000920E-02 0. -1.
        2   -1    0    0  501    0  0.00000000000E+00  0.00000000000E+00 -0.69303264977E+03  0.69303264977E+03  0.25500000920E-02 0.  1.
    10030    2    1    2    0    0  0.00000000000E+00  0.00000000000E+00  0.78777290778E+03  0.21738382073E+04  0.20260766020E+04 0.  0.
        1    1    3    3  502    0 -0.77225719950E+03 -0.65192458011E+03  0.31909039381E+03  0.10598139081E+04  0.50400001928E-02 0. -1.
       -1    1    3    3    0  502  0.77225719950E+03  0.65192458011E+03  0.46868251397E+03  0.11140242992E+04  0.50400001928E-02 0.  1.
</event>
<event>
 5   0  0.2699285E-05  0.2111168E+04  0.7818609E-02  0.8556340E-01
        1   -1    0    0  501    0  0.00000000000E+00  0.00000000000E+00  0.13798453879E+04  0.13798453879E+04  0.50400001928E-02 0. -1.
       -1   -1    0    0    0  501  0.00000000000E+00  0.00000000000E+00 -0.80752341053E+03  0.80752341055E+03  0.50400001928E-02 0.  1.
    10030    2    1    2    0    0  0.00000000000E+00  0.00000000000E+00  0.57232197734E+03  0.21873687984E+04  0.21111678793E+04 0.  0.
        2    1    3    3  502    0 -0.78717225444E+02  0.69541719790E+03  0.11049088060E+04  0.13079086170E+04  0.25500000920E-02 0. -1.
       -2    1    3    3    0  502  0.78717225444E+02 -0.69541719790E+03 -0.53258682867E+03  0.87946018147E+03  0.25500000920E-02 0.  1.
</event>
<event>
 5   0  0.2602060E-05  0.2113541E+04  0.7818609E-02  0.8555302E-01
       -1   -1    0    0    0  501  0.00000000000E+00  0.00000000000E+00  0.12006467008E+04  0.12006467008E+04  0.50400001928E-02 0. -1.
        1   -1    0    0  501    0  0.00000000000E+00  0.00000000000E+00 -0.93013534249E+03  0.93013534250E+03  0.50400001928E-02 0.  1.
    10030    2    1    2    0    0  0.00000000000E+00  0.00000000000E+00  0.27051135827E+03  0.21307820433E+04  0.21135410384E+04 0.  0.
        1    1    3    3  502    0 -0.72543056139E+03 -0.39607881926E+02  0.90894383994E+03  0.11636138483E+04  0.50400001928E-02 0. -1.
       -1    1    3    3    0  502  0.72543056139E+03  0.39607881926E+02 -0.63843248168E+03  0.96716819499E+03  0.50400001928E-02 0.  1.
</event>
<event>
 5   0  0.2699285E-05  0.1848404E+04  0.7818609E-02  0.8680974E-01
       -1   -1    0    0    0  501  0.00000000000E+00  0.00000000000E+00  0.14155116832E+04  0.14155116832E+04  0.50400001928E-02 0.  1.
        1   -1    0    0  501    0  0.00000000000E+00  0.00000000000E+00 -0.60342100706E+03  0.60342100708E+03  0.50400001928E-02 0. -1.
    10030    2    1    2    0    0  0.00000000000E+00  0.00000000000E+00  0.81209067610E+03  0.20189326903E+04  0.18484041608E+04 0.  0.
        2    1    3    3  502    0 -0.48855517682E+03  0.51162582165E+03  0.10556421295E+04  0.12707586111E+04  0.25500000920E-02 0.  1.
       -2    1    3    3    0  502  0.48855517682E+03 -0.51162582165E+03 -0.24355145342E+03  0.74817407911E+03  0.25500000920E-02 0. -1.
</event>
<event>
 5   0  0.5506332E-05  0.2131679E+04  0.7818609E-02  0.8547416E-01
       -2   -1    0    0    0  501  0.00000000000E+00  0.00000000000E+00  0.71929569585E+03  0.71929569585E+03  0.25500000920E-02 0.  1.
        2   -1    0    0  501    0  0.00000000000E+00  0.00000000000E+00 -0.15793414639E+04  0.15793414639E+04  0.25500000920E-02 0. -1.
    10030    2    1    2    0    0  0.00000000000E+00  0.00000000000E+00 -0.86004576809E+03  0.22986371598E+04  0.21316786975E+04 0.  0.
        3    1    3    3  502    0  0.34622430204E+03  0.29578642283E+03 -0.14691659046E+04  0.15381187668E+04  0.10100000352E+00 0. -1.
       -3    1    3    3    0  502 -0.34622430204E+03 -0.29578642283E+03  0.60912013650E+03  0.76051839304E+03  0.10100000352E+00 0.  1.
</event>
<event>
 5   0  0.2789662E-05  0.2111370E+04  0.7818609E-02  0.8556251E-01
        1   -1    0    0  501    0  0.00000000000E+00  0.00000000000E+00  0.92250732208E+03  0.92250732209E+03  0.50400001928E-02 0.  1.
       -1   -1    0    0    0  501  0.00000000000E+00  0.00000000000E+00 -0.12080892995E+04  0.12080892995E+04  0.50400001928E-02 0. -1.
    10030    2    1    2    0    0  0.00000000000E+00  0.00000000000E+00 -0.28558197740E+03  0.21305966216E+04  0.21113703839E+04 0.  0.
        4    1    3    3  502    0 -0.20031399455E+03  0.39587057468E+03 -0.11094442172E+04  0.11948670605E+04  0.12699999809E+01 0. -1.
       -4    1    3    3    0  502  0.20031399455E+03 -0.39587057468E+03  0.82386223982E+03  0.93572956105E+03  0.12699999809E+01 0.  1.
</event>
<event>
 5   0  0.2699285E-05  0.2090302E+04  0.7818609E-02  0.8565527E-01
       -1   -1    0    0    0  501  0.00000000000E+00  0.00000000000E+00  0.93350847120E+03  0.93350847121E+03  0.50400001928E-02 0. -1.
        1   -1    0    0  501    0  0.00000000000E+00  0.00000000000E+00 -0.11701456734E+04  0.11701456734E+04  0.50400001928E-02 0.  1.
    10030    2    1    2    0    0  0.00000000000E+00  0.00000000000E+00 -0.23663720221E+03  0.21036541446E+04  0.20903022735E+04 0.  0.
        2    1    3    3  502    0  0.81389427784E+03 -0.38632647801E+03  0.41484729164E+03  0.99185196401E+03  0.25500000920E-02 0. -1.
       -2    1    3    3    0  502 -0.81389427784E+03  0.38632647801E+03 -0.65148449385E+03  0.11118021806E+04  0.25500000920E-02 0.  1.
</event>
<event>
 5   0  0.5954140E-05  0.2104823E+04  0.7818609E-02  0.8559122E-01
        2   -1    0    0  501    0  0.00000000000E+00  0.00000000000E+00  0.15690647814E+04  0.15690647814E+04  0.25500000920E-02 0. -1.
       -2   -1    0    0    0  501  0.00000000000E+00  0.00000000000E+00 -0.70587884817E+03  0.70587884817E+03  0.25500000920E-02 0.  1.
    10030    2    1    2    0    0  0.00000000000E+00  0.00000000000E+00  0.86318593324E+03  0.22749436296E+04  0.21048226915E+04 0.  0.
        2    1    3    3  502    0  0.63279522667E+02 -0.42217235239E+03  0.14712852395E+04  0.15319641148E+04  0.25500000920E-02 0. -1.
       -2    1    3    3    0  502 -0.63279522667E+02  0.42217235239E+03 -0.60809930625E+03  0.74297951478E+03  0.25500000920E-02 0.  1.
</event>
<event>
 5   0  0.2732159E-05  0.2073352E+04  0.7818609E-02  0.8573074E-01
       -1   -1    0    0    0  501  0.00000000000E+00  0.00000000000E+00  0.72835882608E+03  0.72835882609E+03  0.50400001928E-02 0.  1.
        1   -1    0    0  501    0  0.00000000000E+00  0.00000000000E+00 -0.14755048651E+04  0.14755048652E+04  0.50400001928E-02 0. -1.
    10030    2    1    2    0    0  0.00000000000E+00  0.00000000000E+00 -0.74714603907E+03  0.22038636912E+04  0.20733518674E+04 0.  0.
        3    1    3    3  502    0 -0.10396634755E+03 -0.10117931050E+04 -0.58659436721E+03  0.11741495861E+04  0.10100000352E+00 0.  1.
       -3    1    3    3    0  502  0.10396634755E+03  0.10117931050E+04 -0.16055167186E+03  0.10297141051E+04  0.10100000352E+00 0. -1.
</event>
<event>
 5   0  0.5866610E-05  0.2113531E+04  0.7818609E-02  0.8555306E-01
       -2   -1    0    0    0  501  0.00000000000E+00  0.00000000000E+00  0.12312060865E+04  0.12312060865E+04  0.25500000920E-02 0.  1.
        2   -1    0    0  501    0  0.00000000000E+00  0.00000000000E+00 -0.90703975063E+03  0.90703975064E+03  0.25500000920E-02 0. -1.
    10030    2    1    2    0    0  0.00000000000E+00  0.00000000000E+00  0.32416633583E+03  0.21382458371E+04  0.21135305644E+04 0.  0.
        5    1    3    3  502    0  0.29467148373E+03 -0.50712766604E+03 -0.72724175893E+03  0.93429782132E+03  0.46999998093E+01 0. -1.
       -5    1    3    3    0  502 -0.29467148373E+03  0.50712766604E+03  0.10514080948E+04  0.12039480158E+04  0.46999998093E+01 0.  1.
</event>
<event>
 5   0  0.2732159E-05  0.2100903E+04  0.7818609E-02  0.8560846E-01
        1   -1    0    0  501    0  0.00000000000E+00  0.00000000000E+00  0.94885066340E+03  0.94885066341E+03  0.50400001928E-02 0.  1.
       -1   -1    0    0    0  501  0.00000000000E+00  0.00000000000E+00 -0.11629316164E+04  0.11629316164E+04  0.50400001928E-02 0. -1.
    10030    2    1    2    0    0  0.00000000000E+00  0.00000000000E+00 -0.21408095300E+03  0.21117822798E+04  0.21009030779E+04 0.  0.
        3    1    3    3  502    0  0.63937175180E+03  0.14484785401E+02 -0.94468785233E+03  0.11408072557E+04  0.10100000352E+00 0. -1.
       -3    1    3    3    0  502 -0.63937175180E+03 -0.14484785401E+02  0.73060689933E+03  0.97097502417E+03  0.10100000352E+00 0.  1.
</event>
<event>
 5   0  0.5954140E-05  0.2104040E+04  0.7818609E-02  0.8559466E-01
       -2   -1    0    0    0  501  0.00000000000E+00  0.00000000000E+00  0.11704898977E+04  0.11704898977E+04  0.25500000920E-02 0.  1.
        2   -1    0    0  501    0  0.00000000000E+00  0.00000000000E+00 -0.94554103714E+03  0.94554103715E+03  0.25500000920E-02 0. -1.
    10030    2    1    2    0    0  0.00000000000E+00  0.00000000000E+00  0.22494886060E+03  0.21160309349E+04  0.21040401440E+04 0.  0.
        2    1    3    3  502    0 -0.24480003865E+03  0.99147465531E+02  0.11366043539E+04  0.11668876279E+04  0.25500000920E-02 0.  1.
       -2    1    3    3    0  502  0.24480003865E+03 -0.99147465531E+02 -0.91165549327E+03  0.94914330702E+03  0.25500000920E-02 0. -1.
</event>
<event>
 5   0  0.5967046E-05  0.2098868E+04  0.7818609E-02  0.8561742E-01
        2   -1    0    0  501    0  0.00000000000E+00  0.00000000000E+00  0.88905130541E+03  0.88905130541E+03  0.25500000920E-02 0.  1.
       -2   -1    0    0    0  501  0.00000000000E+00  0.00000000000E+00 -0.12387498739E+04  0.12387498739E+04  0.25500000920E-02 0. -1.
    10030    2    1    2    0    0  0.00000000000E+00  0.00000000000E+00 -0.34969856854E+03  0.21278011794E+04  0.20988684499E+04 0.  0.
        4    1    3    3  502    0  0.15728921644E+03  0.27150822433E+03  0.84038125692E+03  0.89705010081E+03  0.12699999809E+01 0.  1.
       -4    1    3    3    0  502 -0.15728921644E+03 -0.27150822433E+03 -0.11900798255E+04  0.12307510785E+04  0.12699999809E+01 0. -1.
</event>
<event>
 5   0  0.2602060E-05  0.2126675E+04  0.7818609E-02  0.8549583E-01
       -1   -1    0    0    0  501  0.00000000000E+00  0.00000000000E+00  0.10522677917E+04  0.10522677917E+04  0.50400001928E-02 0. -1.
        1   -1    0    0  501    0  0.00000000000E+00  0.00000000000E+00 -0.10745232578E+04  0.10745232578E+04  0.50400001928E-02 0.  1.
    10030    2    1    2    0    0  0.00000000000E+00  0.00000000000E+00 -0.22255466080E+02  0.21267910495E+04  0.21266746019E+04 0.  0.
        1    1    3    3  502    0  0.27480518146E+03 -0.17720830188E+03 -0.10229961349E+04  0.10739840604E+04  0.50400001928E-02 0.  1.
       -1    1    3    3    0  502 -0.27480518146E+03  0.17720830188E+03  0.10007406688E+04  0.10528069891E+04  0.50400001928E-02 0. -1.
</event>
<event>
 5   0  0.5506332E-05  0.2102965E+04  0.7818609E-02  0.8559938E-01
       -2   -1    0    0    0  501  0.00000000000E+00  0.00000000000E+00  0.37266319811E+03  0.37266319812E+03  0.25500000920E-02 0.  1.
        2   -1    0    0  501    0  0.00000000000E+00  0.00000000000E+00 -0.29667951793E+04  0.29667951793E+04  0.25500000920E-02 0. -1.
    10030    2    1    2    0    0  0.00000000000E+00  0.00000000000E+00 -0.25941319812E+04  0.33394583775E+04  0.21029649352E+04 0.  0.
        3    1    3    3  502    0  0.48610174552E+01  0.10514522353E+04 -0.12870306825E+04  0.16619336390E+04  0.10100000352E+00 0. -1.
       -3    1    3    3    0  502 -0.48610174552E+01 -0.10514522353E+04 -0.13071012987E+04  0.16775247384E+04  0.10100000352E+00 0.  1.
</event>
<event>
 5   0  0.5954140E-05  0.2094353E+04  0.7818609E-02  0.8563735E-01
        2   -1    0    0  501    0  0.00000000000E+00  0.00000000000E+00  0.23386340147E+04  0.23386340147E+04  0.25500000920E-02 0.  1.
       -2   -1    0    0    0  501  0.00000000000E+00  0.00000000000E+00 -0.46889721049E+03  0.46889721050E+03  0.25500000920E-02 0. -1.
    10030    2    1    2    0    0  0.00000000000E+00  0.00000000000E+00  0.18697368042E+04  0.28075312252E+04  0.20943533282E+04 0.  0.
        2    1    3    3  502    0  0.13626089975E+03 -0.95935113651E+03  0.40259872262E+03  0.10492889818E+04  0.25500000920E-02 0. -1.
       -2    1    3    3    0  502 -0.13626089975E+03  0.95935113651E+03  0.14671380816E+04  0.17582422434E+04  0.25500000920E-02 0.  1.
</event>
<event>
 5   0  0.2732159E-05  0.2115205E+04  0.7818609E-02  0.8554575E-01
        1   -1    0    0  501    0  0.00000000000E+00  0.00000000000E+00  0.94932641733E+03  0.94932641734E+03  0.50400001928E-02 0. -1.
       -1   -1    0    0    0  501  0.00000000000E+00  0.00000000000E+00 -0.11782286400E+04  0.11782286400E+04  0.50400001928E-02 0.  1.
    10030    2    1    2    0    0  0.00000000000E+00  0.00000000000E+00 -0.22890222264E+03  0.21275550573E+04  0.21152054970E+04 0.  0.
        3    1    3    3  502    0  0.92385235497E+03 -0.44492135883E+02 -0.63032058817E+03  0.11192795799E+04  0.10100000352E+00 0.  1.
       -3    1    3    3    0  502 -0.92385235497E+03  0.44492135883E+02  0.40141836554E+03  0.10082754774E+04  0.10100000352E+00 0. -1.
</event>
<event>
 5   0  0.2604390E-05  0.2077870E+04  0.7818609E-02  0.8571055E-01
        1   -1    0    0  501    0  0.00000000000E+00  0.00000000000E+00  0.10028663850E+04  0.10028663850E+04  0.50400001928E-02 0.  1.
       -1   -1    0    0    0  501  0.00000000000E+00  0.00000000000E+00 -0.10763011884E+04  0.10763011884E+04  0.50400001928E-02 0. -1.
    10030    2    1    2    0    0  0.00000000000E+00  0.00000000000E+00 -0.73434803398E+02  0.20791675734E+04  0.20778703347E+04 0.  0.
        5    1    3    3  502    0 -0.39065151386E+03  0.92668699538E+03 -0.29766134324E+03  0.10488001516E+04  0.46999998093E+01 0. -1.
       -5    1    3    3    0  502  0.39065151386E+03 -0.92668699538E+03  0.22422653984E+03  0.10303674218E+04  0.46999998093E+01 0.  1.
</event>
<event>
 5   0  0.2789662E-05  0.2066376E+04  0.7818609E-02  0.8576201E-01
       -1   -1    0    0    0  501  0.00000000000E+00  0.00000000000E+00  0.56374250357E+03  0.56374250359E+03  0.50400001928E-02 0.  1.
        1   -1    0    0  501    0  0.00000000000E+00  0.00000000000E+00 -0.18935547428E+04  0.18935547428E+04  0.50400001928E-02 0. -1.
    10030    2    1    2    0    0  0.00000000000E+00  0.00000000000E+00 -0.13298122392E+04  0.24572972464E+04  0.20663758529E+04 0.  0.
        4    1    3    3  502    0  0.51681841681E+03  0.31063602322E+02 -0.17281503045E+04  0.18040430458E+04  0.12699999809E+01 0. -1.
       -4    1    3    3    0  502 -0.51681841681E+03 -0.31063602322E+02  0.39833806531E+03  0.65325420053E+03  0.12699999809E+01 0.  1.
</event>
<event>
 5   0  0.5506332E-05  0.2092814E+04  0.7818609E-02  0.8564416E-01
       -2   -1    0    0    0  501  0.00000000000E+00  0.00000000000E+00  0.11591039313E+04  0.11591039313E+04  0.25500000920E-02 0. -1.
        2   -1    0    0  501    0  0.00000000000E+00  0.00000000000E+00 -0.94466727560E+03  0.94466727561E+03  0.25500000920E-02 0.  1.
    10030    2    1    2    0    0  0.00000000000E+00  0.00000000000E+00  0.21443665574E+03  0.21037712069E+04  0.20928139458E+04 0.  0.
        3    1    3    3  502    0 -0.75648415114E+03 -0.69722716167E+03  0.29946174860E+03  0.10714809074E+04  0.10100000352E+00 0. -1.
       -3    1    3    3    0  502  0.75648415114E+03  0.69722716167E+03 -0.85025092862E+02  0.10322902995E+04  0.10100000352E+00 0.  1.
</event>
<event>
 5   0  0.5954140E-05  0.2099831E+04  0.7818609E-02  0.8561318E-01
       -2   -1    0    0    0  501  0.00000000000E+00  0.00000000000E+00  0.55910741019E+03  0.55910741020E+03  0.25500000920E-02 0.  1.
        2   -1    0    0  501    0  0.00000000000E+00  0.00000000000E+00 -0.19715750903E+04  0.19715750903E+04  0.25500000920E-02 0. -1.
    10030    2    1    2    0    0  0.00000000000E+00  0.00000000000E+00 -0.14124676802E+04  0.25306825005E+04  0.20998307006E+04 0.  0.
        2    1    3    3  502    0  0.20658245513E+03 -0.26440636800E+03  0.49274878628E+03  0.59614461718E+03  0.25500000920E-02 0.  1.
       -2    1    3    3    0  502 -0.20658245513E+03  0.26440636800E+03 -0.19052164664E+04  0.19345378834E+04  0.25500000920E-02 0. -1.
</event>
<event>
 5   0  0.5967046E-05  0.2018852E+04  0.7818609E-02  0.8597857E-01
       -2   -1    0    0    0  501  0.00000000000E+00  0.00000000000E+00  0.51940885880E+03  0.51940885880E+03  0.25500000920E-02 0. -1.
        2   -1    0    0  501    0  0.00000000000E+00  0.00000000000E+00 -0.19617314692E+04  0.19617314692E+04  0.25500000920E-02 0.  1.
    10030    2    1    2    0    0  0.00000000000E+00  0.00000000000E+00 -0.14423226104E+04  0.24811403280E+04  0.20188518556E+04 0.  0.
        4    1    3    3  502    0  0.18696280142E+03  0.29078631812E+03 -0.18867086347E+04  0.19181196149E+04  0.12699999809E+01 0.  1.
       -4    1    3    3    0  502 -0.18696280142E+03 -0.29078631812E+03  0.44438602428E+03  0.56302071312E+03  0.12699999809E+01 0. -1.
</event>
<event>
 5   0  0.2699285E-05  0.1965569E+04  0.7818609E-02  0.8622889E-01
       -1   -1    0    0    0  501  0.00000000000E+00  0.00000000000E+00  0.11270566089E+04  0.11270566089E+04  0.50400001928E-02 0. -1.
        1   -1    0    0  501    0  0.00000000000E+00  0.00000000000E+00 -0.85698063097E+03  0.85698063099E+03  0.50400001928E-02 0.  1.
    10030    2    1    2    0    0  0.00000000000E+00  0.00000000000E+00  0.27007597793E+03  0.19840372399E+04  0.19655693159E+04 0.  0.
        2    1    3    3  502    0  0.95971915507E+03  0.91932291057E+02  0.32749479010E+03  0.10182166961E+04  0.25500000920E-02 0. -1.
       -2    1    3    3    0  502 -0.95971915507E+03 -0.91932291057E+02 -0.57418812175E+02  0.96582054376E+03  0.25500000920E-02 0.  1.
</event>
<event>
 5   0  0.5506332E-05  0.2099391E+04  0.7818609E-02  0.8561512E-01
        2   -1    0    0  501    0  0.00000000000E+00  0.00000000000E+00  0.86138580937E+03  0.86138580937E+03  0.25500000920E-02 0.  1.
       -2   -1    0    0    0  501  0.00000000000E+00  0.00000000000E+00 -0.12791716879E+04  0.12791716879E+04  0.25500000920E-02 0. -1.
    10030    2    1    2    0    0  0.00000000000E+00  0.00000000000E+00 -0.41778587852E+03  0.21405574973E+04  0.20993907113E+04 0.  0.
        3    1    3    3  502    0 -0.89539772942E+03  0.18094688501E+03  0.31833603844E+03  0.96737620015E+03  0.10100000352E+00 0.  1.
       -3    1    3    3    0  502  0.89539772942E+03 -0.18094688501E+03 -0.73612191696E+03  0.11731812971E+04  0.10100000352E+00 0. -1.
</event>
<event>
 5   0  0.5954140E-05  0.2100810E+04  0.7818609E-02  0.8560886E-01
       -2   -1    0    0    0  501  0.00000000000E+00  0.00000000000E+00  0.65495876395E+03  0.65495876395E+03  0.25500000920E-02 0. -1.
        2   -1    0    0  501    0  0.00000000000E+00  0.00000000000E+00 -0.16846116414E+04  0.16846116414E+04  0.25500000920E-02 0.  1.
    10030    2    1    2    0    0  0.00000000000E+00  0.00000000000E+00 -0.10296528775E+04  0.23395704054E+04  0.21008104706E+04 0.  0.
        2    1    3    3  502    0  0.37961154584E+03 -0.97111063093E+03 -0.37312387699E+03  0.11074214242E+04  0.25500000920E-02 0. -1.
       -2    1    3    3    0  502 -0.37961154584E+03  0.97111063093E+03 -0.65652900047E+03  0.12321489811E+04  0.25500000920E-02 0.  1.
</event>
<event>
 5   0  0.2602060E-05  0.2099938E+04  0.7818609E-02  0.8561271E-01
        1   -1    0    0  501    0  0.00000000000E+00  0.00000000000E+00  0.56272138097E+03  0.56272138099E+03  0.50400001928E-02 0.  1.
       -1   -1    0    0    0  501  0.00000000000E+00  0.00000000000E+00 -0.19591137797E+04  0.19591137797E+04  0.50400001928E-02 0. -1.
    10030    2    1    2    0    0  0.00000000000E+00  0.00000000000E+00 -0.13963923988E+04  0.25218351607E+04  0.20999382959E+04 0.  0.
        1    1    3    3  502    0  0.24615313930E+03 -0.35658632463E+03 -0.18467388738E+04  0.18968894651E+04  0.50400001928E-02 0. -1.
       -1    1    3    3    0  502 -0.24615313930E+03  0.35658632463E+03  0.45034647501E+03  0.62494569563E+03  0.50400001928E-02 0.  1.
</event>
<event>
 5   0  0.2604390E-05  0.2099784E+04  0.7818609E-02  0.8561339E-01
       -1   -1    0    0    0  501  0.00000000000E+00  0.00000000000E+00  0.71779704215E+03  0.71779704217E+03  0.50400001928E-02 0. -1.
        1   -1    0    0  501    0  0.00000000000E+00  0.00000000000E+00 -0.15356332741E+04  0.15356332741E+04  0.50400001928E-02 0.  1.
    10030    2    1    2    0    0  0.00000000000E+00  0.00000000000E+00 -0.81783623195E+03  0.22534303163E+04  0.20997838194E+04 0.  0.
        5    1    3    3  502    0  0.75365309684E+03 -0.39242384720E+02 -0.11922002563E+04  0.14109913168E+04  0.46999998093E+01 0.  1.
       -5    1    3    3    0  502 -0.75365309684E+03  0.39242384720E+02  0.37436402430E+03  0.84243899946E+03  0.46999998093E+01 0. -1.
</event>
<event>
 5   0  0.2789662E-05  0.2143125E+04  0.7818609E-02  0.8542481E-01
        1   -1    0    0  501    0  0.00000000000E+00  0.00000000000E+00  0.75799952483E+03  0.75799952485E+03  0.50400001928E-02 0.  1.
       -1   -1    0    0    0  501  0.00000000000E+00  0.00000000000E+00 -0.15148371126E+04  0.15148371126E+04  0.50400001928E-02 0. -1.
    10030    2    1    2    0    0  0.00000000000E+00  0.00000000000E+00 -0.75683758775E+03  0.22728366374E+04  0.21431246455E+04 0.  0.
        4    1    3    3  502    0 -0.10088484513E+04  0.30876808750E+03 -0.17964107117E+03  0.10702268249E+04  0.12699999809E+01 0.  1.
       -4    1    3    3    0  502  0.10088484513E+04 -0.30876808750E+03 -0.57719651658E+03  0.12026098125E+04  0.12699999809E+01 0. -1.
</event>
<event>
 5   0  0.2732159E-05  0.2092903E+04  0.7818609E-02  0.8564376E-01
       -1   -1    0    0    0  501  0.00000000000E+00  0.00000000000E+00  0.11586237820E+04  0.11586237820E+04  0.50400001928E-02 0. -1.
        1   -1    0    0  501    0  0.00000000000E+00  0.00000000000E+00 -0.94513937020E+03  0.94513937021E+03  0.50400001928E-02 0.  1.
    10030    2    1    2    0    0  0.00000000000E+00  0.00000000000E+00  0.21348441175E+03  0.21037631522E+04  0.20929032004E+04 0.  0.
        3    1    3    3  502    0 -0.86495500793E+03  0.31487552134E+03 -0.39360282665E+03  0.10011078638E+04  0.10100000352E+00 0. -1.
       -3    1    3    3    0  502  0.86495500793E+03 -0.31487552134E+03  0.60708723840E+03  0.11026552883E+04  0.10100000352E+00 0.  1.
</event>
<event>
 5   0  0.5506332E-05  0.2097383E+04  0.7818609E-02  0.8562397E-01
       -2   -1    0    0    0  501  0.00000000000E+00  0.00000000000E+00  0.10553414073E+04  0.10553414073E+04  0.25500000920E-02 0. -1.
        2   -1    0    0  501    0  0.00000000000E+00  0.00000000000E+00 -0.10420830073E+04  0.10420830073E+04  0.25500000920E-02 0.  1.
    10030    2    1    2    0    0  0.00000000000E+00  0.00000000000E+00  0.13258400002E+02  0.20974244146E+04  0.20973825092E+04 0.  0.
        3    1    3    3  502    0  0.49171790163E+03  0.28660446286E+03  0.88745592895E+03  0.10542801568E+04  0.10100000352E+00 0. -1.
       -3    1    3    3    0  502 -0.49171790163E+03 -0.28660446286E+03 -0.87419752895E+03  0.10431442579E+04  0.10100000352E+00 0.  1.
</event>
<event>
 5   0  0.2789662E-05  0.1992512E+04  0.7818609E-02  0.8610130E-01
        1   -1    0    0  501    0  0.00000000000E+00  0.00000000000E+00  0.86573712459E+03  0.86573712460E+03  0.50400001928E-02 0.  1.
       -1   -1    0    0    0  501  0.00000000000E+00  0.00000000000E+00 -0.11464518796E+04  0.11464518796E+04  0.50400001928E-02 0. -1.
    10030    2    1    2    0    0  0.00000000000E+00  0.00000000000E+00 -0.28071475505E+03  0.20121890043E+04  0.19925119360E+04 0.  0.
        4    1    3    3  502    0  0.54719181176E+03  0.76273859208E+03 -0.47732198344E+03  0.10531034743E+04  0.12699999809E+01 0. -1.
       -4    1    3    3    0  502 -0.54719181176E+03 -0.76273859208E+03  0.19660722840E+03  0.95908553000E+03  0.12699999809E+01 0.  1.
</event>
<event>
 5   0  0.5462851E-05  0.2082283E+04  0.7818609E-02  0.8569088E-01
       -2   -1    0    0    0  501  0.00000000000E+00  0.00000000000E+00  0.45407454461E+03  0.45407454462E+03  0.25500000920E-02 0. -1.
        2   -1    0    0  501    0  0.00000000000E+00  0.00000000000E+00 -0.23872203980E+04  0.23872203980E+04  0.25500000920E-02 0.  1.
    10030    2    1    2    0    0  0.00000000000E+00  0.00000000000E+00 -0.19331458534E+04  0.28412949427E+04  0.20822833766E+04 0.  0.
        1    1    3    3  502    0  0.16754905972E+03  0.22068482832E+03  0.40284079607E+03  0.48893270280E+03  0.50400001928E-02 0. -1.
       -1    1    3    3    0  502 -0.16754905972E+03 -0.22068482832E+03 -0.23359866495E+04  0.23523622399E+04  0.50400001928E-02 0.  1.
</event>
<event>
 5   0  0.2699285E-05  0.2054179E+04  0.7818609E-02  0.8581701E-01
        1   -1    0    0  501    0  0.00000000000E+00  0.00000000000E+00  0.12731778680E+04  0.12731778680E+04  0.50400001928E-02 0. -1.
       -1   -1    0    0    0  501  0.00000000000E+00  0.00000000000E+00 -0.82856641378E+03  0.82856641379E+03  0.50400001928E-02 0.  1.
    10030    2    1    2    0    0  0.00000000000E+00  0.00000000000E+00  0.44461145422E+03  0.21017442818E+04  0.20541785903E+04 0.  0.
        2    1    3    3  502    0 -0.79997429153E+03  0.49194957450E+03  0.64779474996E+03  0.11408818033E+04  0.25500000920E-02 0. -1.
       -2    1    3    3    0  502  0.79997429153E+03 -0.49194957450E+03 -0.20318329574E+03  0.96086247852E+03  0.25500000920E-02 0.  1.
</event>
<event>
 5   0  0.2732159E-05  0.2108250E+04  0.7818609E-02  0.8557618E-01
        1   -1    0    0  501    0  0.00000000000E+00  0.00000000000E+00  0.16354749376E+04  0.16354749376E+04  0.50400001928E-02 0. -1.
       -1   -1    0    0    0  501  0.00000000000E+00  0.00000000000E+00 -0.67942336413E+03  0.67942336415E+03  0.50400001928E-02 0.  1.
    10030    2    1    2    0    0  0.00000000000E+00  0.00000000000E+00  0.95605157343E+03  0.23148983017E+04  0.21082503495E+04 0.  0.
        3    1    3    3  502    0  0.42959900435E+03 -0.94875932168E+03  0.65670389272E+03  0.12312430986E+04  0.10100000352E+00 0. -1.
       -3    1    3    3    0  502 -0.42959900435E+03  0.94875932168E+03  0.29934768071E+03  0.10836552031E+04  0.10100000352E+00 0.  1.
</event>
<event>
 5   0  0.5462851E-05  0.2130605E+04  0.7818609E-02  0.8547880E-01
       -2   -1    0    0    0  501  0.00000000000E+00  0.00000000000E+00  0.99800813434E+03  0.99800813435E+03  0.25500000920E-02 0.  1.
        2   -1    0    0  501    0  0.00000000000E+00  0.00000000000E+00 -0.11371345315E+04  0.11371345315E+04  0.25500000920E-02 0. -1.
    10030    2    1    2    0    0  0.00000000000E+00  0.00000000000E+00 -0.13912639717E+03  0.21351426659E+04  0.21306050899E+04 0.  0.
        1    1    3    3  502    0 -0.27011601837E+03  0.88343784848E+03 -0.60120639151E+03  0.11022133281E+04  0.50400001928E-02 0.  1.
       -1    1    3    3    0  502  0.27011601837E+03 -0.88343784848E+03  0.46207999435E+03  0.10329293377E+04  0.50400001928E-02 0. -1.
</event>
<event>
 5   0  0.2789662E-05  0.2097732E+04  0.7818609E-02  0.8562243E-01
        1   -1    0    0  501    0  0.00000000000E+00  0.00000000000E+00  0.18339473955E+04  0.18339473955E+04  0.50400001928E-02 0.  1.
       -1   -1    0    0    0  501  0.00000000000E+00  0.00000000000E+00 -0.59986425219E+03  0.59986425221E+03  0.50400001928E-02 0. -1.
    10030    2    1    2    0    0  0.00000000000E+00  0.00000000000E+00  0.12340831433E+04  0.24338116477E+04  0.20977316158E+04 0.  0.
        4    1    3    3  502    0  0.41315823247E+03 -0.96384528733E+03  0.64083034559E+03  0.12289681069E+04  0.12699999809E+01 0. -1.
       -4    1    3    3    0  502 -0.41315823247E+03  0.96384528733E+03  0.59325279768E+03  0.12048435408E+04  0.12699999809E+01 0.  1.
</event>
<event>
 5   0  0.5954140E-05  0.2114171E+04  0.7818609E-02  0.8555027E-01
       -2   -1    0    0    0  501  0.00000000000E+00  0.00000000000E+00  0.55526822952E+03  0.55526822953E+03  0.25500000920E-02 0.  1.
        2   -1    0    0  501    0  0.00000000000E+00  0.00000000000E+00 -0.20124134937E+04  0.20124134937E+04  0.25500000920E-02 0. -1.
    10030    2    1    2    0    0  0.00000000000E+00  0.00000000000E+00 -0.14571452642E+04  0.25676817232E+04  0.21141705491E+04 0.  0.
        2    1    3    3  502    0 -0.48999340153E+03  0.50165965450E+03 -0.16892443260E+04  0.18290167674E+04  0.25500000920E-02 0. -1.
       -2    1    3    3    0  502  0.48999340153E+03 -0.50165965450E+03  0.23209906181E+03  0.73866495584E+03  0.25500000920E-02 0.  1.
</event>
<event>
 5   0  0.2604390E-05  0.2095643E+04  0.7818609E-02  0.8563165E-01
       -1   -1    0    0    0  501  0.00000000000E+00  0.00000000000E+00  0.51521429101E+03  0.51521429104E+03  0.50400001928E-02 0. -1.
        1   -1    0    0  501    0  0.00000000000E+00  0.00000000000E+00 -0.21310166647E+04  0.21310166647E+04  0.50400001928E-02 0.  1.
    10030    2    1    2    0    0  0.00000000000E+00  0.00000000000E+00 -0.16158023737E+04  0.26462309558E+04  0.20956433285E+04 0.  0.
        5    1    3    3  502    0 -0.25103798078E+03 -0.75402952387E+03 -0.16701962857E+04  0.18496373465E+04  0.46999998093E+01 0.  1.
       -5    1    3    3    0  502  0.25103798078E+03  0.75402952387E+03  0.54393912032E+02  0.79659360927E+03  0.46999998093E+01 0. -1.
</event>
<event>
 5   0  0.5506332E-05  0.2077892E+04  0.7818609E-02  0.8571045E-01
        2   -1    0    0  501    0  0.00000000000E+00  0.00000000000E+00  0.22093314772E+04  0.22093314772E+04  0.25500000920E-02 0. -1.
       -2   -1    0    0    0  501  0.00000000000E+00  0.00000000000E+00 -0.48856826211E+03  0.48856826211E+03  0.25500000920E-02 0.  1.
    10030    2    1    2    0    0  0.00000000000E+00  0.00000000000E+00  0.17207632151E+04  0.26978997393E+04  0.20778924325E+04 0.  0.
        3    1    3    3  502    0  0.31233355055E+03  0.70667931018E+03  0.17622309692E+04  0.19241636867E+04  0.10100000352E+00 0. -1.
       -3    1    3    3    0  502 -0.31233355055E+03 -0.70667931018E+03 -0.41467754127E+02  0.77373605259E+03  0.10100000352E+00 0.  1.
</event>
<event>
 5   0  0.2699285E-05  0.2127870E+04  0.7818609E-02  0.8549065E-01
       -1   -1    0    0    0  501  0.00000000000E+00  0.00000000000E+00  0.40189831453E+03  0.40189831456E+03  0.50400001928E-02 0. -1.
        1   -1    0    0  501    0  0.00000000000E+00  0.00000000000E+00 -0.28165274935E+04  0.28165274935E+04  0.50400001928E-02 0.  1.
    10030    2    1    2    0    0  0.00000000000E+00  0.00000000000E+00 -0.24146291789E+04  0.32184258080E+04  0.21278699702E+04 0.  0.
        2    1    3    3  502    0 -0.52034311453E+03 -0.11017136274E+03 -0.26010115917E+04  0.26548363388E+04  0.25500000920E-02 0.  1.
       -2    1    3    3    0  502  0.52034311453E+03  0.11017136274E+03  0.18638241273E+03  0.56358946920E+03  0.25500000920E-02 0. -1.
</event>
<event>
 5   0  0.5954140E-05  0.2099584E+04  0.7818609E-02  0.8561427E-01
        2   -1    0    0  501    0  0.00000000000E+00  0.00000000000E+00  0.14829912920E+04  0.14829912920E+04  0.25500000920E-02 0.  1.
       -2   -1    0    0    0  501  0.00000000000E+00  0.00000000000E+00 -0.74313529118E+03  0.74313529118E+03  0.25500000920E-02 0. -1.
    10030    2    1    2    0    0  0.00000000000E+00  0.00000000000E+00  0.73985600079E+03  0.22261265832E+04  0.20995839260E+04 0.  0.
        2    1    3    3  502    0 -0.26836903515E+02 -0.31611443600E+03  0.14309480192E+04  0.14656946441E+04  0.25500000920E-02 0.  1.
       -2    1    3    3    0  502  0.26836903515E+02  0.31611443600E+03 -0.69109201841E+03  0.76043193907E+03  0.25500000920E-02 0. -1.
</event>
<event>
 5   0  0.5462851E-05  0.2114735E+04  0.7818609E-02  0.8554780E-01
        2   -1    0    0  501    0  0.00000000000E+00  0.00000000000E+00  0.20156226352E+04  0.20156226352E+04  0.25500000920E-02 0. -1.
       -2   -1    0    0    0  501  0.00000000000E+00  0.00000000000E+00 -0.55468029547E+03  0.55468029548E+03  0.25500000920E-02 0.  1.
    10030    2    1    2    0    0  0.00000000000E+00  0.00000000000E+00  0.14609423397E+04  0.25703029306E+04  0.21147351218E+04 0.  0.
        1    1    3    3  502    0  0.98732850970E+03  0.25817950531E+03  0.10667552942E+04  0.14762930267E+04  0.50400001928E-02 0. -1.
       -1    1    3    3    0  502 -0.98732850970E+03 -0.25817950531E+03  0.39418704553E+03  0.10940099039E+04  0.50400001928E-02 0.  1.
</event>
<event>
 5   0  0.2732159E-05  0.2106418E+04  0.7818609E-02  0.8558421E-01
       -1   -1    0    0    0  501  0.00000000000E+00  0.00000000000E+00  0.78860163167E+03  0.78860163169E+03  0.50400001928E-02 0. -1.
        1   -1    0    0  501    0  0.00000000000E+00  0.00000000000E+00 -0.14066032042E+04  0.14066032042E+04  0.50400001928E-02 0.  1.
    10030    2    1    2    0    0  0.00000000000E+00  0.00000000000E+00 -0.61800157255E+03  0.21952048359E+04  0.21064183649E+04 0.  0.
        3    1    3    3  502    0 -0.66247879255E+03 -0.81399741122E+03 -0.40092079351E+03  0.11234800527E+04  0.10100000352E+00 0. -1.
       -3    1    3    3    0  502  0.66247879255E+03  0.81399741122E+03 -0.21708077905E+03  0.10717247832E+04  0.10100000352E+00 0.  1.
</event>
<event>
 5   0  0.2789662E-05  0.2109935E+04  0.7818609E-02  0.8556879E-01
       -1   -1    0    0    0  501  0.00000000000E+00  0.00000000000E+00  0.12312037156E+04  0.12312037156E+04  0.50400001928E-02 0.  1.
        1   -1    0    0  501    0  0.00000000000E+00  0.00000000000E+00 -0.90395831660E+03  0.90395831662E+03  0.50400001928E-02 0. -1.
    10030    2    1    2    0    0  0.00000000000E+00  0.00000000000E+00  0.32724539898E+03  0.21351620322E+04  0.21099353906E+04 0.  0.
        4    1    3    3  502    0 -0.13106908546E+03 -0.31089496210E+03  0.11751336853E+04  0.12226101479E+04  0.12699999809E+01 0.  1.
       -4    1    3    3    0  502  0.13106908546E+03  0.31089496210E+03 -0.84788828629E+03  0.91255188430E+03  0.12699999809E+01 0. -1.
</event>
<event>
 5   0  0.5954140E-05  0.2086310E+04  0.7818609E-02  0.8567298E-01
       -2   -1    0    0    0  501  0.00000000000E+00  0.00000000000E+00  0.47933225176E+03  0.47933225177E+03  0.25500000920E-02 0.  1.
        2   -1    0    0  501    0  0.00000000000E+00  0.00000000000E+00 -0.22701847986E+04  0.22701847986E+04  0.25500000920E-02 0. -1.
    10030    2    1    2    0    0  0.00000000000E+00  0.00000000000E+00 -0.17908525469E+04  0.27495170504E+04  0.20863104193E+04 0.  0.
        2    1    3    3  502    0 -0.21490270168E+03 -0.60670309343E+03  0.18644486006E+03  0.67009961992E+03  0.25500000920E-02 0.  1.
       -2    1    3    3    0  502  0.21490270168E+03  0.60670309343E+03 -0.19772974069E+04  0.20794174305E+04  0.25500000920E-02 0. -1.
</event>
<event>
 5   0  0.5967046E-05  0.2095754E+04  0.7818609E-02  0.8563116E-01
       -2   -1    0    0    0  501  0.00000000000E+00  0.00000000000E+00  0.53157692617E+03  0.53157692618E+03  0.25500000920E-02 0.  1.
        2   -1    0    0  501    0  0.00000000000E+00  0.00000000000E+00 -0.20656398034E+04  0.20656398034E+04  0.25500000920E-02 0. -1.
    10030    2    1    2    0    0  0.00000000000E+00  0.00000000000E+00 -0.15340628773E+04  0.25972167296E+04  0.20957542387E+04 0.  0.
        4    1    3    3  502    0 -0.87672560017E+03  0.30784600070E+03 -0.16674619021E+03  0.94404599623E+03  0.12699999809E+01 0.  1.
       -4    1    3    3    0  502  0.87672560017E+03 -0.30784600070E+03 -0.13673166871E+04  0.16531707334E+04  0.12699999809E+01 0. -1.
</event>
<event>
 5   0  0.5506332E-05  0.2099398E+04  0.7818609E-02  0.8561509E-01
       -2   -1    0    0    0  501  0.00000000000E+00  0.00000000000E+00  0.22748061882E+04  0.22748061882E+04  0.25500000920E-02 0. -1.
        2   -1    0    0  501    0  0.00000000000E+00  0.00000000000E+00 -0.48437890003E+03  0.48437890004E+03  0.25500000920E-02 0.  1.
    10030    2    1    2    0    0  0.00000000000E+00  0.00000000000E+00  0.17904272881E+04  0.27591850882E+04  0.20993981225E+04 0.  0.
        3    1    3    3  502    0  0.81742812318E+03  0.61326397357E+03  0.57982429911E+03  0.11749373030E+04  0.10100000352E+00 0.  1.
       -3    1    3    3    0  502 -0.81742812318E+03 -0.61326397357E+03  0.12106029890E+04  0.15842477853E+04  0.10100000352E+00 0. -1.
</event>
<event>
 5   0  0.5866610E-05  0.2128828E+04  0.7818609E-02  0.8548650E-01
        2   -1    0    0  501    0  0.00000000000E+00  0.00000000000E+00  0.22639387211E+04  0.22639387211E+04  0.25500000920E-02 0.  1.
       -2   -1    0    0    0  501  0.00000000000E+00  0.00000000000E+00 -0.50044513797E+03  0.50044513797E+03  0.25500000920E-02 0. -1.
    10030    2    1    2    0    0  0.00000000000E+00  0.00000000000E+00  0.17634935831E+04  0.27643838591E+04  0.21288279645E+04 0.  0.
        5    1    3    3  502    0  0.60112864448E+03  0.86369867549E+03  0.10896116766E+04  0.15147959417E+04  0.46999998093E+01 0.  1.
       -5    1    3    3    0  502 -0.60112864448E+03 -0.86369867549E+03  0.67388190654E+03  0.12495879174E+04  0.46999998093E+01 0. -1.
</event>
<event>
 5   0  0.2789662E-05  0.2107919E+04  0.7818609E-02  0.8557763E-01
        1   -1    0    0  501    0  0.00000000000E+00  0.00000000000E+00  0.10009857308E+04  0.10009857308E+04  0.50400001928E-02 0. -1.
       -1   -1    0    0    0  501  0.00000000000E+00  0.00000000000E+00 -0.11097365980E+04  0.11097365980E+04  0.50400001928E-02 0.  1.
    10030    2    1    2    0    0  0.00000000000E+00  0.00000000000E+00 -0.10875086726E+03  0.21107223288E+04  0.21079188785E+04 0.  0.
        4    1    3    3  502    0 -0.19987669974E+03  0.52287488966E+03  0.83982962503E+03  0.10092889860E+04  0.12699999809E+01 0. -1.
       -4    1    3    3    0  502  0.19987669974E+03 -0.52287488966E+03 -0.94858049229E+03  0.11014333428E+04  0.12699999809E+01 0.  1.
</event>
<event>
 5   0  0.2604390E-05  0.2081460E+04  0.7818609E-02  0.8569455E-01
       -1   -1    0    0    0  501  0.00000000000E+00  0.00000000000E+00  0.12350873803E+04  0.12350873803E+04  0.50400001928E-02 0. -1.
        1   -1    0    0  501    0  0.00000000000E+00  0.00000000000E+00 -0.87695716467E+03  0.87695716468E+03  0.50400001928E-02 0.  1.
    10030    2    1    2    0    0  0.00000000000E+00  0.00000000000E+00  0.35813021560E+03  0.21120445450E+04  0.20814598023E+04 0.  0.
        5    1    3    3  502    0 -0.40937533420E+03 -0.63986737519E+03  0.90090996543E+03  0.11784223682E+04  0.46999998093E+01 0. -1.
       -5    1    3    3    0  502  0.40937533420E+03  0.63986737519E+03 -0.54277974983E+03  0.93362217675E+03  0.46999998093E+01 0.  1.
</event>
<event>
 5   0  0.2602060E-05  0.2107753E+04  0.7818609E-02  0.8557836E-01
       -1   -1    0    0    0  501  0.00000000000E+00  0.00000000000E+00  0.47295836559E+03  0.47295836561E+03  0.50400001928E-02 0. -1.
        1   -1    0    0  501    0  0.00000000000E+00  0.00000000000E+00 -0.23483160422E+04  0.23483160422E+04  0.50400001928E-02 0.  1.
    10030    2    1    2    0    0  0.00000000000E+00  0.00000000000E+00 -0.18753576766E+04  0.28212744078E+04  0.21077530379E+04 0.  0.
        1    1    3    3  502    0  0.18600006408E+03  0.42228026856E+03 -0.22059165648E+04  0.22536602539E+04  0.50400001928E-02 0.  1.
       -1    1    3    3    0  502 -0.18600006408E+03 -0.42228026856E+03  0.33055888825E+03  0.56761415388E+03  0.50400001928E-02 0. -1.
</event>
<event>
 5   0  0.5967046E-05  0.1935778E+04  0.7818609E-02  0.8637250E-01
        2   -1    0    0  501    0  0.00000000000E+00  0.00000000000E+00  0.11545946327E+04  0.11545946327E+04  0.25500000920E-02 0.  1.
       -2   -1    0    0    0  501  0.00000000000E+00  0.00000000000E+00 -0.81137454689E+03  0.81137454689E+03  0.25500000920E-02 0. -1.
    10030    2    1    2    0    0  0.00000000000E+00  0.00000000000E+00  0.34322008577E+03  0.19659691795E+04  0.19357775667E+04 0.  0.
        4    1    3    3  502    0 -0.47669516266E+02  0.80166793632E+03 -0.37705960778E+03  0.88719751106E+03  0.12699999809E+01 0. -1.
       -4    1    3    3    0  502  0.47669516266E+02 -0.80166793632E+03  0.72027969355E+03  0.10787716685E+04  0.12699999809E+01 0.  1.
</event>
<event>
 5   0  0.5967046E-05  0.2110992E+04  0.7818609E-02  0.8556417E-01
        2   -1    0    0  501    0  0.00000000000E+00  0.00000000000E+00  0.17860976794E+04  0.17860976794E+04  0.25500000920E-02 0.  1.
       -2   -1    0    0    0  501  0.00000000000E+00  0.00000000000E+00 -0.62374606516E+03  0.62374606517E+03  0.25500000920E-02 0. -1.
    10030    2    1    2    0    0  0.00000000000E+00  0.00000000000E+00  0.11623516143E+04  0.24098437446E+04  0.21109916149E+04 0.  0.
        4    1    3    3  502    0  0.23628306985E+03  0.23818818108E+03  0.17236049124E+04  0.17559552402E+04  0.12699999809E+01 0.  1.
       -4    1    3    3    0  502 -0.23628306985E+03 -0.23818818108E+03 -0.56125329809E+03  0.65388850442E+03  0.12699999809E+01 0. -1.
</event>
<event>
 5   0  0.2017750E-05  0.2088027E+04  0.7818609E-02  0.8566536E-01
        3   -1    0    0  501    0  0.00000000000E+00  0.00000000000E+00  0.22609458610E+04  0.22609458632E+04  0.10100000352E+00 0.  1.
       -3   -1    0    0    0  501  0.00000000000E+00  0.00000000000E+00 -0.48208347494E+03  0.48208348552E+03  0.10100000352E+00 0. -1.
    10030    2    1    2    0    0  0.00000000000E+00  0.00000000000E+00  0.17788623860E+04  0.27430293488E+04  0.20880274471E+04 0.  0.
        3    1    3    3  502    0 -0.16846928252E+03  0.47161304473E+03 -0.31398996484E+03  0.59109260808E+03  0.10100000352E+00 0. -1.
       -3    1    3    3    0  502  0.16846928252E+03 -0.47161304473E+03  0.20928523509E+04  0.21519367407E+04  0.10100000352E+00 0.  1.
</event>
<event>
 5   0  0.5954140E-05  0.2124243E+04  0.7818609E-02  0.8550639E-01
        2   -1    0    0  501    0  0.00000000000E+00  0.00000000000E+00  0.14201733321E+04  0.14201733321E+04  0.25500000920E-02 0. -1.
       -2   -1    0    0    0  501  0.00000000000E+00  0.00000000000E+00 -0.79434092882E+03  0.79434092883E+03  0.25500000920E-02 0.  1.
    10030    2    1    2    0    0  0.00000000000E+00  0.00000000000E+00  0.62583240324E+03  0.22145142609E+04  0.21242427391E+04 0.  0.
        2    1    3    3  502    0 -0.53422595952E+03 -0.21045366362E+03  0.12444279241E+04  0.13705068327E+04  0.25500000920E-02 0. -1.
       -2    1    3    3    0  502  0.53422595952E+03  0.21045366362E+03 -0.61859552084E+03  0.84400742815E+03  0.25500000920E-02 0.  1.
</event>
<event>
 5   0  0.2699285E-05  0.2106033E+04  0.7818609E-02  0.8558591E-01
       -1   -1    0    0    0  501  0.00000000000E+00  0.00000000000E+00  0.84167495575E+03  0.84167495576E+03  0.50400001928E-02 0.  1.
        1   -1    0    0  501    0  0.00000000000E+00  0.00000000000E+00 -0.13174247071E+04  0.13174247071E+04  0.50400001928E-02 0. -1.
    10030    2    1    2    0    0  0.00000000000E+00  0.00000000000E+00 -0.47574975131E+03  0.21590996628E+04  0.21060326513E+04 0.  0.
        2    1    3    3  502    0  0.98744447732E+01 -0.34885274489E+03  0.78066174120E+03  0.85511899549E+03  0.25500000920E-02 0.  1.
       -2    1    3    3    0  502 -0.98744447732E+01  0.34885274489E+03 -0.12564114925E+04  0.13039806673E+04  0.25500000920E-02 0. -1.
</event>
<event>
 5   0  0.2732159E-05  0.2040047E+04  0.7818609E-02  0.8588123E-01
        1   -1    0    0  501    0  0.00000000000E+00  0.00000000000E+00  0.13469960148E+04  0.13469960148E+04  0.50400001928E-02 0.  1.
       -1   -1    0    0    0  501  0.00000000000E+00  0.00000000000E+00 -0.77242087539E+03  0.77242087540E+03  0.50400001928E-02 0. -1.
    10030    2    1    2    0    0  0.00000000000E+00  0.00000000000E+00  0.57457513941E+03  0.21194168902E+04  0.20400469023E+04 0.  0.
        3    1    3    3  502    0  0.89289640698E+03 -0.39558163599E+03  0.59319026169E+03  0.11426388411E+04  0.10100000352E+00 0.  1.
       -3    1    3    3    0  502 -0.89289640698E+03  0.39558163599E+03 -0.18615122279E+02  0.97677804915E+03  0.10100000352E+00 0. -1.
</event>
<event>
 5   0  0.5866610E-05  0.2103377E+04  0.7818609E-02  0.8559757E-01
        2   -1    0    0  501    0  0.00000000000E+00  0.00000000000E+00  0.13858587301E+04  0.13858587301E+04  0.25500000920E-02 0.  1.
       -2   -1    0    0    0  501  0.00000000000E+00  0.00000000000E+00 -0.79809644834E+03  0.79809644835E+03  0.25500000920E-02 0. -1.
    10030    2    1    2    0    0  0.00000000000E+00  0.00000000000E+00  0.58776228179E+03  0.21839551785E+04  0.21033772181E+04 0.  0.
        5    1    3    3  502    0 -0.41961900662E+03 -0.13379137880E+03  0.12854778320E+04  0.13588434753E+04  0.46999998093E+01 0.  1.
       -5    1    3    3    0  502  0.41961900662E+03  0.13379137880E+03 -0.69771555021E+03  0.82511170320E+03  0.46999998093E+01 0. -1.
</event>
<event>
 5   0  0.5462851E-05  0.2088758E+04  0.7818609E-02  0.8566212E-01
        2   -1    0    0  501    0  0.00000000000E+00  0.00000000000E+00  0.12151225912E+04  0.12151225912E+04  0.25500000920E-02 0. -1.
       -2   -1    0    0    0  501  0.00000000000E+00  0.00000000000E+00 -0.89762757673E+03  0.89762757674E+03  0.25500000920E-02 0.  1.
    10030    2    1    2    0    0  0.00000000000E+00  0.00000000000E+00  0.31749501449E+03  0.21127501680E+04  0.20887580492E+04 0.  0.
        1    1    3    3  502    0  0.18446687416E+03  0.99920362736E+03 -0.85462304958E+02  0.10196762830E+04  0.50400001928E-02 0.  1.
       -1    1    3    3    0  502 -0.18446687416E+03 -0.99920362736E+03  0.40295731945E+03  0.10930738849E+04  0.50400001928E-02 0. -1.
</event>
<event>
 5   0  0.2789662E-05  0.2104678E+04  0.7818609E-02  0.8559186E-01
       -1   -1    0    0    0  501  0.00000000000E+00  0.00000000000E+00  0.11953919756E+04  0.11953919756E+04  0.50400001928E-02 0.  1.
        1   -1    0    0  501    0  0.00000000000E+00  0.00000000000E+00 -0.92640483602E+03  0.92640483604E+03  0.50400001928E-02 0. -1.
    10030    2    1    2    0    0  0.00000000000E+00  0.00000000000E+00  0.26898713954E+03  0.21217968116E+04  0.21046775593E+04 0.  0.
        4    1    3    3  502    0  0.20731849166E+03 -0.27777069552E+02 -0.90523553582E+03  0.92908853764E+03  0.12699999809E+01 0. -1.
       -4    1    3    3    0  502 -0.20731849166E+03  0.27777069552E+02  0.11742226754E+04  0.11927082740E+04  0.12699999809E+01 0.  1.
</event>
<event>
 5   0  0.2789662E-05  0.2104886E+04  0.7818609E-02  0.8559094E-01
        1   -1    0    0  501    0  0.00000000000E+00  0.00000000000E+00  0.10852110576E+04  0.10852110576E+04  0.50400001928E-02 0.  1.
       -1   -1    0    0    0  501  0.00000000000E+00  0.00000000000E+00 -0.10206639494E+04  0.10206639494E+04  0.50400001928E-02 0. -1.
    10030    2    1    2    0    0  0.00000000000E+00  0.00000000000E+00  0.64547108250E+02  0.21058750070E+04  0.21048855589E+04 0.  0.
        4    1    3    3  502    0  0.82724567624E+03  0.63875491452E+03  0.15598822792E+03  0.10567294781E+04  0.12699999809E+01 0.  1.
       -4    1    3    3    0  502 -0.82724567624E+03 -0.63875491452E+03 -0.91441119671E+02  0.10491455290E+04  0.12699999809E+01 0. -1.
</event>
<event>
 5   0  0.2604390E-05  0.2061614E+04  0.7818609E-02  0.8578344E-01
        1   -1    0    0  501    0  0.00000000000E+00  0.00000000000E+00  0.15344140872E+04  0.15344140872E+04  0.50400001928E-02 0.  1.
       -1   -1    0    0    0  501  0.00000000000E+00  0.00000000000E+00 -0.69248783231E+03  0.69248783233E+03  0.50400001928E-02 0. -1.
    10030    2    1    2    0    0  0.00000000000E+00  0.00000000000E+00  0.84192625491E+03  0.22269019196E+04  0.20616140135E+04 0.  0.
        5    1    3    3  502    0 -0.20902118390E+03 -0.82805015618E+03 -0.20253600307E+03  0.87772423859E+03  0.46999998093E+01 0. -1.
       -5    1    3    3    0  502  0.20902118390E+03  0.82805015618E+03  0.10444622580E+04  0.13491776810E+04  0.46999998093E+01 0.  1.
</event>
<event>
 5   0  0.5967046E-05  0.2091669E+04  0.7818609E-02  0.8564922E-01
       -2   -1    0    0    0  501  0.00000000000E+00  0.00000000000E+00  0.57873287929E+03  0.57873287929E+03  0.25500000920E-02 0. -1.
        2   -1    0    0  501    0  0.00000000000E+00  0.00000000000E+00 -0.18899395981E+04  0.18899395981E+04  0.25500000920E-02 0.  1.
    10030    2    1    2    0    0  0.00000000000E+00  0.00000000000E+00 -0.13112067188E+04  0.24686724774E+04  0.20916693671E+04 0.  0.
        4    1    3    3  502    0 -0.85873777131E+02 -0.65635451944E+03  0.30002184765E+03  0.72676700720E+03  0.12699999809E+01 0. -1.
       -4    1    3    3    0  502  0.85873777131E+02  0.65635451944E+03 -0.16112285664E+04  0.17419054702E+04  0.12699999809E+01 0.  1.
</event>
<event>
 5   0  0.2604390E-05  0.2093415E+04  0.7818609E-02  0.8564150E-01
        1   -1    0    0  501    0  0.00000000000E+00  0.00000000000E+00  0.82698547564E+03  0.82698547565E+03  0.50400001928E-02 0. -1.
       -1   -1    0    0    0  501  0.00000000000E+00  0.00000000000E+00 -0.13248076951E+04  0.13248076951E+04  0.50400001928E-02 0.  1.
    10030    2    1    2    0    0  0.00000000000E+00  0.00000000000E+00 -0.49782221943E+03  0.21517931707E+04  0.20934151254E+04 0.  0.
        5    1    3    3  502    0 -0.97182147523E+02 -0.99865901934E+03  0.57410151648E+02  0.10050284684E+04  0.46999998093E+01 0. -1.
       -5    1    3    3    0  502  0.97182147523E+02  0.99865901934E+03 -0.55523237107E+03  0.11467647024E+04  0.46999998093E+01 0.  1.
</event>
<event>
 5   0  0.5506332E-05  0.2095218E+04  0.7818609E-02  0.8563353E-01
       -2   -1    0    0    0  501  0.00000000000E+00  0.00000000000E+00  0.17596071073E+04  0.17596071073E+04  0.25500000920E-02 0. -1.
        2   -1    0    0  501    0  0.00000000000E+00  0.00000000000E+00 -0.62371024465E+03  0.62371024465E+03  0.25500000920E-02 0.  1.
    10030    2    1    2    0    0  0.00000000000E+00  0.00000000000E+00  0.11358968626E+04  0.23833173519E+04  0.20952183460E+04 0.  0.
        3    1    3    3  502    0  0.17340821118E+03 -0.10277378897E+04  0.68816583499E+03  0.12489546846E+04  0.10100000352E+00 0. -1.
       -3    1    3    3    0  502 -0.17340821118E+03  0.10277378897E+04  0.44773102765E+03  0.11343626673E+04  0.10100000352E+00 0.  1.
</event>
<event>
 5   0  0.5506332E-05  0.2080828E+04  0.7818609E-02  0.8569736E-01
       -2   -1    0    0    0  501  0.00000000000E+00  0.00000000000E+00  0.74852901277E+03  0.74852901277E+03  0.25500000920E-02 0.  1.
        2   -1    0    0  501    0  0.00000000000E+00  0.00000000000E+00 -0.14461178001E+04  0.14461178001E+04  0.25500000920E-02 0. -1.
    10030    2    1    2    0    0  0.00000000000E+00  0.00000000000E+00 -0.69758878733E+03  0.21946468129E+04  0.20808278442E+04 0.  0.
        3    1    3    3  502    0 -0.61151198002E+03  0.75762380088E+03 -0.73562653592E+03  0.12202815806E+04  0.10100000352E+00 0.  1.
       -3    1    3    3    0  502  0.61151198002E+03 -0.75762380088E+03  0.38037748582E+02  0.97436523229E+03  0.10100000352E+00 0. -1.
</event>
<event>
 5   0  0.2604390E-05  0.2092958E+04  0.7818609E-02  0.8564352E-01
       -1   -1    0    0    0  501  0.00000000000E+00  0.00000000000E+00  0.23794590092E+04  0.23794590092E+04  0.50400001928E-02 0.  1.
        1   -1    0    0  501    0  0.00000000000E+00  0.00000000000E+00 -0.46023842579E+03  0.46023842582E+03  0.50400001928E-02 0. -1.
    10030    2    1    2    0    0  0.00000000000E+00  0.00000000000E+00  0.19192205834E+04  0.28396974350E+04  0.20929581636E+04 0.  0.
        5    1    3    3  502    0  0.80868690565E+03  0.62408260143E+03  0.12679406606E+04  0.16282349995E+04  0.46999998093E+01 0.  1.
       -5    1    3    3    0  502 -0.80868690565E+03 -0.62408260143E+03  0.65127992272E+03  0.12114624355E+04  0.46999998093E+01 0. -1.
</event>
<event>
 5   0  0.5506332E-05  0.2104914E+04  0.7818609E-02  0.8559082E-01
       -2   -1    0    0    0  501  0.00000000000E+00  0.00000000000E+00  0.94900419294E+03  0.94900419294E+03  0.25500000920E-02 0.  1.
        2   -1    0    0  501    0  0.00000000000E+00  0.00000000000E+00 -0.11671869347E+04  0.11671869347E+04  0.25500000920E-02 0. -1.
    10030    2    1    2    0    0  0.00000000000E+00  0.00000000000E+00 -0.21818274174E+03  0.21161911276E+04  0.21049135801E+04 0.  0.
        3    1    3    3  502    0 -0.55364543196E+03  0.76797780680E+03 -0.57128495415E+03  0.11057484728E+04  0.10100000352E+00 0. -1.
       -3    1    3    3    0  502  0.55364543196E+03 -0.76797780680E+03  0.35310221241E+03  0.10104426548E+04  0.10100000352E+00 0.  1.
</event>
<event>
 5   0  0.5954140E-05  0.2102807E+04  0.7818609E-02  0.8560008E-01
       -2   -1    0    0    0  501  0.00000000000E+00  0.00000000000E+00  0.11051241693E+04  0.11051241693E+04  0.25500000920E-02 0.  1.
        2   -1    0    0  501    0  0.00000000000E+00  0.00000000000E+00 -0.10002943505E+04  0.10002943505E+04  0.25500000920E-02 0. -1.
    10030    2    1    2    0    0  0.00000000000E+00  0.00000000000E+00  0.10482981876E+03  0.21054185198E+04  0.21028071364E+04 0.  0.
        2    1    3    3  502    0  0.60584996383E+03 -0.37951147303E+03 -0.71949407336E+03  0.10142755338E+04  0.25500000920E-02 0. -1.
       -2    1    3    3    0  502 -0.60584996383E+03  0.37951147303E+03  0.82432389212E+03  0.10911429860E+04  0.25500000920E-02 0.  1.
</event>
<event>
 5   0  0.5462851E-05  0.2097948E+04  0.7818609E-02  0.8562148E-01
        2   -1    0    0  501    0  0.00000000000E+00  0.00000000000E+00  0.79089195521E+03  0.79089195521E+03  0.25500000920E-02 0.  1.
       -2   -1    0    0    0  501  0.00000000000E+00  0.00000000000E+00 -0.13912733348E+04  0.13912733348E+04  0.25500000920E-02 0. -1.
    10030    2    1    2    0    0  0.00000000000E+00  0.00000000000E+00 -0.60038137959E+03  0.21821652900E+04  0.20979484150E+04 0.  0.
        1    1    3    3  502    0 -0.76699035137E+02 -0.24123243899E+03 -0.13590286975E+04  0.13824018346E+04  0.50400001928E-02 0. -1.
       -1    1    3    3    0  502  0.76699035137E+02  0.24123243899E+03  0.75864731792E+03  0.79976345542E+03  0.50400001928E-02 0.  1.
</event>
<event>
 5   0  0.2602060E-05  0.2175368E+04  0.7818609E-02  0.8528751E-01
       -1   -1    0    0    0  501  0.00000000000E+00  0.00000000000E+00  0.56750811626E+03  0.56750811628E+03  0.50400001928E-02 0.  1.
        1   -1    0    0  501    0  0.00000000000E+00  0.00000000000E+00 -0.20846508463E+04  0.20846508463E+04  0.50400001928E-02 0. -1.
    10030    2    1    2    0    0  0.00000000000E+00  0.00000000000E+00 -0.15171427300E+04  0.26521589626E+04  0.21753678079E+04 0.  0.
        1    1    3    3  502    0  0.48445931950E+02 -0.33330440437E+03  0.50232993162E+03  0.60479268722E+03  0.50400001928E-02 0.  1.
       -1    1    3    3    0  502 -0.48445931950E+02  0.33330440437E+03 -0.20194726617E+04  0.20473662754E+04  0.50400001928E-02 0. -1.
</event>
<event>
 5   0  0.5967046E-05  0.2107964E+04  0.7818609E-02  0.8557743E-01
       -2   -1    0    0    0  501  0.00000000000E+00  0.00000000000E+00  0.37317545813E+03  0.37317545814E+03  0.25500000920E-02 0. -1.
        2   -1    0    0  501    0  0.00000000000E+00  0.00000000000E+00 -0.29768260664E+04  0.29768260664E+04  0.25500000920E-02 0.  1.
    10030    2    1    2    0    0  0.00000000000E+00  0.00000000000E+00 -0.26036506083E+04  0.33500015246E+04  0.21079643556E+04 0.  0.
        4    1    3    3  502    0  0.27510940600E+03 -0.22024980552E+03  0.27676804522E+03  0.44810414621E+03  0.12699999809E+01 0. -1.
       -4    1    3    3    0  502 -0.27510940600E+03  0.22024980552E+03 -0.28804186535E+04  0.29018973784E+04  0.12699999809E+01 0.  1.
</event>
<event>
 5   0  0.5967046E-05  0.2096864E+04  0.7818609E-02  0.8562626E-01
       -2   -1    0    0    0  501  0.00000000000E+00  0.00000000000E+00  0.56401234089E+03  0.56401234090E+03  0.25500000920E-02 0. -1.
        2   -1    0    0  501    0  0.00000000000E+00  0.00000000000E+00 -0.19489107840E+04  0.19489107840E+04  0.25500000920E-02 0.  1.
    10030    2    1    2    0    0  0.00000000000E+00  0.00000000000E+00 -0.13848984431E+04  0.25129231249E+04  0.20968640714E+04 0.  0.
        4    1    3    3  502    0 -0.78076538091E+03  0.67103236655E+03 -0.93011461485E+03  0.13874414678E+04  0.12699999809E+01 0.  1.
       -4    1    3    3    0  502  0.78076538091E+03 -0.67103236655E+03 -0.45478382821E+03  0.11254816570E+04  0.12699999809E+01 0. -1.
</event>
<event>
 5   0  0.5866610E-05  0.2109269E+04  0.7818609E-02  0.8557171E-01
       -2   -1    0    0    0  501  0.00000000000E+00  0.00000000000E+00  0.82696980348E+03  0.82696980348E+03  0.25500000920E-02 0. -1.
        2   -1    0    0  501    0  0.00000000000E+00  0.00000000000E+00 -0.13449746844E+04  0.13449746844E+04  0.25500000920E-02 0.  1.
    10030    2    1    2    0    0  0.00000000000E+00  0.00000000000E+00 -0.51800488087E+03  0.21719444878E+04  0.21092685466E+04 0.  0.
        5    1    3    3  502    0  0.12472262004E+03 -0.42821971015E+03  0.72506396863E+03  0.85127416307E+03  0.46999998093E+01 0. -1.
       -5    1    3    3    0  502 -0.12472262004E+03  0.42821971015E+03 -0.12430688495E+04  0.13206703248E+04  0.46999998093E+01 0.  1.
</event>
<event>
 5   0  0.2789662E-05  0.2063492E+04  0.7818609E-02  0.8577498E-01
        1   -1    0    0  501    0  0.00000000000E+00  0.00000000000E+00  0.38740028402E+03  0.38740028405E+03  0.50400001928E-02 0. -1.
       -1   -1    0    0    0  501  0.00000000000E+00  0.00000000000E+00 -0.27478036304E+04  0.27478036304E+04  0.50400001928E-02 0.  1.
    10030    2    1    2    0    0  0.00000000000E+00  0.00000000000E+00 -0.23604033463E+04  0.31352039144E+04  0.20634920953E+04 0.  0.
        4    1    3    3  502    0  0.86182849595E+03 -0.68798060574E+02 -0.20356703211E+04  0.22116592863E+04  0.12699999809E+01 0.  1.
       -4    1    3    3    0  502 -0.86182849595E+03  0.68798060574E+02 -0.32473302527E+03  0.92354462814E+03  0.12699999809E+01 0. -1.
</event>
<event>
 5   0  0.2699285E-05  0.2104627E+04  0.7818609E-02  0.8559208E-01
        1   -1    0    0  501    0  0.00000000000E+00  0.00000000000E+00  0.16225307346E+04  0.16225307346E+04  0.50400001928E-02 0.  1.
       -1   -1    0    0    0  501  0.00000000000E+00  0.00000000000E+00 -0.68249167084E+03  0.68249167086E+03  0.50400001928E-02 0. -1.
    10030    2    1    2    0    0  0.00000000000E+00  0.00000000000E+00  0.94003906377E+03  0.23050224055E+04  0.21046270093E+04 0.  0.
        2    1    3    3  502    0  0.67405368235E+03 -0.76744332448E+03  0.74718959408E+03  0.12655472779E+04  0.25500000920E-02 0.  1.
       -2    1    3    3    0  502 -0.67405368235E+03  0.76744332448E+03  0.19284946969E+03  0.10394751276E+04  0.25500000920E-02 0. -1.
</event>
<event>
 5   0  0.5506332E-05  0.2105735E+04  0.7818609E-02  0.8558721E-01
       -2   -1    0    0    0  501  0.00000000000E+00  0.00000000000E+00  0.35924836347E+03  0.35924836348E+03  0.25500000920E-02 0.  1.
        2   -1    0    0  501    0  0.00000000000E+00  0.00000000000E+00 -0.30856926723E+04  0.30856926723E+04  0.25500000920E-02 0. -1.
    10030    2    1    2    0    0  0.00000000000E+00  0.00000000000E+00 -0.27264443089E+04  0.34449410358E+04  0.21057350666E+04 0.  0.
        3    1    3    3  502    0  0.96072094302E+03  0.30657884918E+03 -0.86820709381E+03  0.13306986470E+04  0.10100000352E+00 0. -1.
       -3    1    3    3    0  502 -0.96072094302E+03 -0.30657884918E+03 -0.18582372151E+04  0.21142423888E+04  0.10100000352E+00 0.  1.
</event>
<event>
 5   0  0.5462851E-05  0.2117919E+04  0.7818609E-02  0.8553391E-01
        2   -1    0    0  501    0  0.00000000000E+00  0.00000000000E+00  0.10275051143E+04  0.10275051143E+04  0.25500000920E-02 0.  1.
       -2   -1    0    0    0  501  0.00000000000E+00  0.00000000000E+00 -0.10913767371E+04  0.10913767371E+04  0.25500000920E-02 0. -1.
    10030    2    1    2    0    0  0.00000000000E+00  0.00000000000E+00 -0.63871622810E+02  0.21188818514E+04  0.21179189588E+04 0.  0.
        1    1    3    3  502    0  0.84075130206E+03 -0.37202237871E+02 -0.67499426464E+03  0.10788252944E+04  0.50400001928E-02 0. -1.
       -1    1    3    3    0  502 -0.84075130206E+03  0.37202237871E+02  0.61112264183E+03  0.10400565570E+04  0.50400001928E-02 0.  1.
</event>
<event>
 5   0  0.5967046E-05  0.2097196E+04  0.7818609E-02  0.8562480E-01
        2   -1    0    0  501    0  0.00000000000E+00  0.00000000000E+00  0.11044014203E+04  0.11044014203E+04  0.25500000920E-02 0. -1.
       -2   -1    0    0    0  501  0.00000000000E+00  0.00000000000E+00 -0.99561388956E+03  0.99561388956E+03  0.25500000920E-02 0.  1.
    10030    2    1    2    0    0  0.00000000000E+00  0.00000000000E+00  0.10878753077E+03  0.21000153099E+04  0.20971956454E+04 0.  0.
        4    1    3    3  502    0 -0.64632784669E+03 -0.38984270984E+03 -0.67448512964E+03  0.10122493896E+04  0.12699999809E+01 0.  1.
       -4    1    3    3    0  502  0.64632784669E+03  0.38984270984E+03  0.78327266041E+03  0.10877659203E+04  0.12699999809E+01 0. -1.
</event>
<event>
 5   0  0.2732159E-05  0.2063365E+04  0.7818609E-02  0.8577555E-01
        1   -1    0    0  501    0  0.00000000000E+00  0.00000000000E+00  0.20328824795E+04  0.20328824795E+04  0.50400001928E-02 0. -1.
       -1   -1    0    0    0  501  0.00000000000E+00  0.00000000000E+00 -0.52357601253E+03  0.52357601256E+03  0.50400001928E-02 0.  1.
    10030    2    1    2    0    0  0.00000000000E+00  0.00000000000E+00  0.15093064670E+04  0.25564584921E+04  0.20633647303E+04 0.  0.
        3    1    3    3  502    0 -0.20689950092E+03  0.82739450334E+03  0.14738776710E+04  0.17028518629E+04  0.10100000352E+00 0. -1.
       -3    1    3    3    0  502  0.20689950092E+03 -0.82739450334E+03  0.35428795988E+02  0.85360662921E+03  0.10100000352E+00 0.  1.
</event>
<event>
 5   0  0.2602060E-05  0.2120858E+04  0.7818609E-02  0.8552110E-01
        1   -1    0    0  501    0  0.00000000000E+00  0.00000000000E+00  0.21020962606E+04  0.21020962606E+04  0.50400001928E-02 0. -1.
       -1   -1    0    0    0  501  0.00000000000E+00  0.00000000000E+00 -0.53494689465E+03  0.53494689467E+03  0.50400001928E-02 0.  1.
    10030    2    1    2    0    0  0.00000000000E+00  0.00000000000E+00  0.15671493659E+04  0.26370431552E+04  0.21208581913E+04 0.  0.
        1    1    3    3  502    0 -0.15405182417E+03 -0.10482992664E+04  0.73014455904E+03  0.12867689745E+04  0.50400001928E-02 0. -1.
       -1    1    3    3    0  502  0.15405182417E+03  0.10482992664E+04  0.83700480687E+03  0.13502741808E+04  0.50400001928E-02 0.  1.
</event>
<event>
 5   0  0.2789662E-05  0.2143390E+04  0.7818609E-02  0.8542367E-01
        1   -1    0    0  501    0  0.00000000000E+00  0.00000000000E+00  0.85186853809E+03  0.85186853811E+03  0.50400001928E-02 0. -1.
       -1   -1    0    0    0  501  0.00000000000E+00  0.00000000000E+00 -0.13482486436E+04  0.13482486436E+04  0.50400001928E-02 0.  1.
    10030    2    1    2    0    0  0.00000000000E+00  0.00000000000E+00 -0.49638010551E+03  0.22001171817E+04  0.21433903994E+04 0.  0.
        4    1    3    3  502    0  0.10646107117E+04 -0.61762994346E+02 -0.35739345078E+03  0.11246965486E+04  0.12699999809E+01 0. -1.
       -4    1    3    3    0  502 -0.10646107117E+04  0.61762994346E+02 -0.13898665473E+03  0.10754206331E+04  0.12699999809E+01 0.  1.
</event>
<event>
 5   0  0.5462851E-05  0.2202680E+04  0.7818609E-02  0.8517313E-01
        2   -1    0    0  501    0  0.00000000000E+00  0.00000000000E+00  0.18202173394E+04  0.18202173394E+04  0.25500000920E-02 0. -1.
       -2   -1    0    0    0  501  0.00000000000E+00  0.00000000000E+00 -0.66637632619E+03  0.66637632620E+03  0.25500000920E-02 0.  1.
    10030    2    1    2    0    0  0.00000000000E+00  0.00000000000E+00  0.11538410133E+04  0.24865936656E+04  0.22026799527E+04 0.  0.
        1    1    3    3  502    0 -0.73636127726E+03 -0.76268827325E+03  0.24008510168E+03  0.10869968670E+04  0.50400001928E-02 0.  1.
       -1    1    3    3    0  502  0.73636127726E+03  0.76268827325E+03  0.91375591158E+03  0.13995967986E+04  0.50400001928E-02 0. -1.
</event>
<event>
 5   0  0.5967046E-05  0.2115233E+04  0.7818609E-02  0.8554563E-01
       -2   -1    0    0    0  501  0.00000000000E+00  0.00000000000E+00  0.89831385038E+03  0.89831385039E+03  0.25500000920E-02 0. -1.
        2   -1    0    0  501    0  0.00000000000E+00  0.00000000000E+00 -0.12451685995E+04  0.12451685995E+04  0.25500000920E-02 0.  1.
    10030    2    1    2    0    0  0.00000000000E+00  0.00000000000E+00 -0.34685474915E+03  0.21434824499E+04  0.21152325631E+04 0.  0.
        4    1    3    3  502    0  0.19954336457E+03 -0.94294784425E+03 -0.61465308482E+03  0.11431396323E+04  0.12699999809E+01 0.  1.
       -4    1    3    3    0  502 -0.19954336457E+03  0.94294784425E+03  0.26779833567E+03  0.10003428176E+04  0.12699999809E+01 0. -1.
</event>
<event>
 5   0  0.2604390E-05  0.2091273E+04  0.7818609E-02  0.8565097E-01
       -1   -1    0    0    0  501  0.00000000000E+00  0.00000000000E+00  0.64844081880E+03  0.64844081882E+03  0.50400001928E-02 0.  1.
        1   -1    0    0  501    0  0.00000000000E+00  0.00000000000E+00 -0.16861301737E+04  0.16861301737E+04  0.50400001928E-02 0. -1.
    10030    2    1    2    0    0  0.00000000000E+00  0.00000000000E+00 -0.10376893549E+04  0.23345709925E+04  0.20912729429E+04 0.  0.
        5    1    3    3  502    0 -0.16926221536E+03  0.10180353657E+04 -0.70660172044E+03  0.12507412941E+04  0.46999998093E+01 0. -1.
       -5    1    3    3    0  502  0.16926221536E+03 -0.10180353657E+04 -0.33108763442E+03  0.10838296984E+04  0.46999998093E+01 0.  1.
</event>
<event>
 5   0  0.5462851E-05  0.2079344E+04  0.7818609E-02  0.8570398E-01
       -2   -1    0    0    0  501  0.00000000000E+00  0.00000000000E+00  0.45737371323E+03  0.45737371323E+03  0.25500000920E-02 0. -1.
        2   -1    0    0  501    0  0.00000000000E+00  0.00000000000E+00 -0.23633136904E+04  0.23633136904E+04  0.25500000920E-02 0.  1.
    10030    2    1    2    0    0  0.00000000000E+00  0.00000000000E+00 -0.19059399772E+04  0.28206874036E+04  0.20793437023E+04 0.  0.
        1    1    3    3  502    0  0.38779355090E+03  0.96464118493E+03 -0.95154447586E+03  0.14093804821E+04  0.50400001928E-02 0. -1.
       -1    1    3    3    0  502 -0.38779355090E+03 -0.96464118493E+03 -0.95439550131E+03  0.14113069215E+04  0.50400001928E-02 0.  1.
</event>
<event>
 5   0  0.2732159E-05  0.2101794E+04  0.7818609E-02  0.8560453E-01
        1   -1    0    0  501    0  0.00000000000E+00  0.00000000000E+00  0.50849448169E+03  0.50849448172E+03  0.50400001928E-02 0.  1.
       -1   -1    0    0    0  501  0.00000000000E+00  0.00000000000E+00 -0.21718715141E+04  0.21718715141E+04  0.50400001928E-02 0. -1.
    10030    2    1    2    0    0  0.00000000000E+00  0.00000000000E+00 -0.16633770324E+04  0.26803659958E+04  0.21017941668E+04 0.  0.
        3    1    3    3  502    0  0.23023365441E+03 -0.75955879513E+03  0.46723020456E+02  0.79505984035E+03  0.10100000352E+00 0.  1.
       -3    1    3    3    0  502 -0.23023365441E+03  0.75955879513E+03 -0.17101000529E+04  0.18853061555E+04  0.10100000352E+00 0. -1.
</event>
<event>
 5   0  0.2017750E-05  0.2099603E+04  0.7818609E-02  0.8561418E-01
        3   -1    0    0  501    0  0.00000000000E+00  0.00000000000E+00  0.14308004015E+04  0.14308004050E+04  0.10100000352E+00 0.  1.
       -3   -1    0    0    0  501  0.00000000000E+00  0.00000000000E+00 -0.77025622088E+03  0.77025622751E+03  0.10100000352E+00 0. -1.
    10030    2    1    2    0    0  0.00000000000E+00  0.00000000000E+00  0.66054418058E+03  0.22010566325E+04  0.20996027446E+04 0.  0.
        4    1    3    3  502    0  0.29643896921E+03  0.13097638307E+03  0.13770454187E+04  0.14146683617E+04  0.12699999809E+01 0.  1.
       -4    1    3    3    0  502 -0.29643896921E+03 -0.13097638307E+03 -0.71650123815E+03  0.78638827086E+03  0.12699999809E+01 0. -1.
</event>
<event>
 5   0  0.2604390E-05  0.2108997E+04  0.7818609E-02  0.8557290E-01
       -1   -1    0    0    0  501  0.00000000000E+00  0.00000000000E+00  0.54537706103E+03  0.54537706105E+03  0.50400001928E-02 0.  1.
        1   -1    0    0  501    0  0.00000000000E+00  0.00000000000E+00 -0.20388968003E+04  0.20388968003E+04  0.50400001928E-02 0. -1.
    10030    2    1    2    0    0  0.00000000000E+00  0.00000000000E+00 -0.14935197393E+04  0.25842738614E+04  0.21089974346E+04 0.  0.
        5    1    3    3  502    0 -0.22898485472E+02 -0.16369231154E+03 -0.20229120804E+04  0.20296588109E+04  0.46999998093E+01 0. -1.
       -5    1    3    3    0  502  0.22898485472E+02  0.16369231154E+03  0.52939234108E+03  0.55461505054E+03  0.46999998093E+01 0.  1.
</event>
<event>
 5   0  0.2017750E-05  0.2079956E+04  0.7818609E-02  0.8570125E-01
        4   -1    0    0  501    0  0.00000000000E+00  0.00000000000E+00  0.10529610496E+04  0.10529618155E+04  0.12699999809E+01 0. -1.
       -4   -1    0    0    0  501  0.00000000000E+00  0.00000000000E+00 -0.10271533577E+04  0.10271541428E+04  0.12699999809E+01 0.  1.
    10030    2    1    2    0    0  0.00000000000E+00  0.00000000000E+00  0.25807691890E+02  0.20801159583E+04  0.20799558561E+04 0.  0.
        1    1    3    3  502    0  0.54553108975E+03  0.39103110530E+03 -0.78154045494E+03  0.10302014259E+04  0.50400001928E-02 0.  1.
       -1    1    3    3    0  502 -0.54553108975E+03 -0.39103110530E+03  0.80734814683E+03  0.10499145324E+04  0.50400001928E-02 0. -1.
</event>
<event>
 5   0  0.5866610E-05  0.2105070E+04  0.7818609E-02  0.8559013E-01
       -2   -1    0    0    0  501  0.00000000000E+00  0.00000000000E+00  0.67407645034E+03  0.67407645034E+03  0.25500000920E-02 0.  1.
        2   -1    0    0  501    0  0.00000000000E+00  0.00000000000E+00 -0.16434776569E+04  0.16434776569E+04  0.25500000920E-02 0. -1.
    10030    2    1    2    0    0  0.00000000000E+00  0.00000000000E+00 -0.96940120656E+03  0.23175541072E+04  0.21050696760E+04 0.  0.
        5    1    3    3  502    0 -0.68067850927E+03  0.28533902443E+03  0.34141917867E+03  0.81322244030E+03  0.46999998093E+01 0.  1.
       -5    1    3    3    0  502  0.68067850927E+03 -0.28533902443E+03 -0.13108203852E+04  0.15043316669E+04  0.46999998093E+01 0. -1.
</event>
<event>
 5   0  0.5967046E-05  0.2104518E+04  0.7818609E-02  0.8559256E-01
       -2   -1    0    0    0  501  0.00000000000E+00  0.00000000000E+00  0.40726310653E+03  0.40726310653E+03  0.25500000920E-02 0. -1.
        2   -1    0    0  501    0  0.00000000000E+00  0.00000000000E+00 -0.27187556601E+04  0.27187556601E+04  0.25500000920E-02 0.  1.
    10030    2    1    2    0    0  0.00000000000E+00  0.00000000000E+00 -0.23114925536E+04  0.31260187666E+04  0.21045178793E+04 0.  0.
        4    1    3    3  502    0  0.68093327318E+03 -0.77602457263E+03 -0.14578422897E+04  0.17863902190E+04  0.12699999809E+01 0.  1.
       -4    1    3    3    0  502 -0.68093327318E+03  0.77602457263E+03 -0.85365026387E+03  0.13396285477E+04  0.12699999809E+01 0. -1.
</event>
<event>
 5   0  0.2602060E-05  0.2077301E+04  0.7818609E-02  0.8571309E-01
        1   -1    0    0  501    0  0.00000000000E+00  0.00000000000E+00  0.19747089581E+04  0.19747089582E+04  0.50400001928E-02 0.  1.
       -1   -1    0    0    0  501  0.00000000000E+00  0.00000000000E+00 -0.54630550133E+03  0.54630550135E+03  0.50400001928E-02 0. -1.
    10030    2    1    2    0    0  0.00000000000E+00  0.00000000000E+00  0.14284034568E+04  0.25210144595E+04  0.20773005246E+04 0.  0.
        1    1    3    3  502    0 -0.22842930257E+03 -0.11938338482E+03  0.19352811984E+04  0.19523692417E+04  0.50400001928E-02 0.  1.
       -1    1    3    3    0  502  0.22842930257E+03  0.11938338482E+03 -0.50687774158E+03  0.56864521785E+03  0.50400001928E-02 0. -1.
</event>
<event>
 5   0  0.5866610E-05  0.2078377E+04  0.7818609E-02  0.8570829E-01
       -2   -1    0    0    0  501  0.00000000000E+00  0.00000000000E+00  0.10227667029E+04  0.10227667029E+04  0.25500000920E-02 0.  1.
        2   -1    0    0  501    0  0.00000000000E+00  0.00000000000E+00 -0.10558739958E+04  0.10558739958E+04  0.25500000920E-02 0. -1.
    10030    2    1    2    0    0  0.00000000000E+00  0.00000000000E+00 -0.33107292903E+02  0.20786406987E+04  0.20783770258E+04 0.  0.
        5    1    3    3  502    0 -0.75490944127E+03 -0.16135634382E+03  0.67921164841E+03  0.10282386336E+04  0.46999998093E+01 0.  1.
       -5    1    3    3    0  502  0.75490944127E+03  0.16135634382E+03 -0.71231894131E+03  0.10504020651E+04  0.46999998093E+01 0. -1.
</event>
<event>
 5   0  0.2604390E-05  0.2099351E+04  0.7818609E-02  0.8561529E-01
       -1   -1    0    0    0  501  0.00000000000E+00  0.00000000000E+00  0.84390824152E+03  0.84390824153E+03  0.50400001928E-02 0.  1.
        1   -1    0    0  501    0  0.00000000000E+00  0.00000000000E+00 -0.13056144655E+04  0.13056144655E+04  0.50400001928E-02 0. -1.
    10030    2    1    2    0    0  0.00000000000E+00  0.00000000000E+00 -0.46170622402E+03  0.21495227071E+04  0.20993511452E+04 0.  0.
        5    1    3    3  502    0 -0.86590735222E+03  0.59191817831E+03 -0.18946372469E+03  0.10658711298E+04  0.46999998093E+01 0.  1.
       -5    1    3    3    0  502  0.86590735222E+03 -0.59191817831E+03 -0.27224249934E+03  0.10836515773E+04  0.46999998093E+01 0. -1.
</event>
<event>
 5   0  0.5506332E-05  0.2083593E+04  0.7818609E-02  0.8568506E-01
        2   -1    0    0  501    0  0.00000000000E+00  0.00000000000E+00  0.22255107317E+04  0.22255107317E+04  0.25500000920E-02 0. -1.
       -2   -1    0    0    0  501  0.00000000000E+00  0.00000000000E+00 -0.48768110673E+03  0.48768110674E+03  0.25500000920E-02 0.  1.
    10030    2    1    2    0    0  0.00000000000E+00  0.00000000000E+00  0.17378296249E+04  0.27131918384E+04  0.20835926057E+04 0.  0.
        3    1    3    3  502    0 -0.22243769510E+03  0.14895076135E+03  0.21799579796E+04  0.21963336860E+04  0.10100000352E+00 0. -1.
       -3    1    3    3    0  502  0.22243769510E+03 -0.14895076135E+03 -0.44212835463E+03  0.51685815238E+03  0.10100000352E+00 0.  1.
</event>
<event>
 5   0  0.5866610E-05  0.2087954E+04  0.7818609E-02  0.8566568E-01
        2   -1    0    0  501    0  0.00000000000E+00  0.00000000000E+00  0.15313480459E+04  0.15313480459E+04  0.25500000920E-02 0. -1.
       -2   -1    0    0    0  501  0.00000000000E+00  0.00000000000E+00 -0.71171819212E+03  0.71171819213E+03  0.25500000920E-02 0.  1.
    10030    2    1    2    0    0  0.00000000000E+00  0.00000000000E+00  0.81962985378E+03  0.22430662380E+04  0.20879542742E+04 0.  0.
        5    1    3    3  502    0 -0.77526092413E+03 -0.39844069912E+03  0.10270233249E+04  0.13470647687E+04  0.46999998093E+01 0. -1.
       -5    1    3    3    0  502  0.77526092413E+03  0.39844069912E+03 -0.20739347111E+03  0.89600146934E+03  0.46999998093E+01 0.  1.
</event>
<event>
 5   0  0.2789662E-05  0.2107570E+04  0.7818609E-02  0.8557916E-01
       -1   -1    0    0    0  501  0.00000000000E+00  0.00000000000E+00  0.11444185221E+04  0.11444185222E+04  0.50400001928E-02 0.  1.
        1   -1    0    0  501    0  0.00000000000E+00  0.00000000000E+00 -0.97032906709E+03  0.97032906711E+03  0.50400001928E-02 0. -1.
    10030    2    1    2    0    0  0.00000000000E+00  0.00000000000E+00  0.17408945505E+03  0.21147475893E+04  0.21075697445E+04 0.  0.
        4    1    3    3  502    0  0.18788972653E+03  0.54128687551E+03 -0.80036932883E+03  0.98432042871E+03  0.12699999809E+01 0. -1.
       -4    1    3    3    0  502 -0.18788972653E+03 -0.54128687551E+03  0.97445878388E+03  0.11304271606E+04  0.12699999809E+01 0.  1.
</event>
<event>
 5   0  0.5506332E-05  0.2106295E+04  0.7818609E-02  0.8558476E-01
       -2   -1    0    0    0  501  0.00000000000E+00  0.00000000000E+00  0.68389606439E+03  0.68389606439E+03  0.25500000920E-02 0. -1.
        2   -1    0    0  501    0  0.00000000000E+00  0.00000000000E+00 -0.16217659255E+04  0.16217659255E+04  0.25500000920E-02 0.  1.
    10030    2    1    2    0    0  0.00000000000E+00  0.00000000000E+00 -0.93786986112E+03  0.23056619899E+04  0.21062946934E+04 0.  0.
        3    1    3    3  502    0 -0.47808153869E+03 -0.93792972869E+03 -0.43711100936E+03  0.11398860374E+04  0.10100000352E+00 0.  1.
       -3    1    3    3    0  502  0.47808153869E+03  0.93792972869E+03 -0.50075885176E+03  0.11657759525E+04  0.10100000352E+00 0. -1.
</event>
<event>
 5   0  0.5954140E-05  0.2108999E+04  0.7818609E-02  0.8557290E-01
        2   -1    0    0  501    0  0.00000000000E+00  0.00000000000E+00  0.11120075632E+04  0.11120075632E+04  0.25500000920E-02 0.  1.
       -2   -1    0    0    0  501  0.00000000000E+00  0.00000000000E+00 -0.99996547656E+03  0.99996547656E+03  0.25500000920E-02 0. -1.
    10030    2    1    2    0    0  0.00000000000E+00  0.00000000000E+00  0.11204208659E+03  0.21119730397E+04  0.21089989785E+04 0.  0.
        2    1    3    3  502    0  0.26246185618E+03  0.33019281032E+03 -0.91180739160E+03  0.10046423430E+04  0.25500000920E-02 0. -1.
       -2    1    3    3    0  502 -0.26246185618E+03 -0.33019281032E+03  0.10238494782E+04  0.11073306967E+04  0.25500000920E-02 0.  1.
</event>
<event>
 5   0  0.5967046E-05  0.2040289E+04  0.7818609E-02  0.8588012E-01
       -2   -1    0    0    0  501  0.00000000000E+00  0.00000000000E+00  0.50485743291E+03  0.50485743292E+03  0.25500000920E-02 0. -1.
        2   -1    0    0  501    0  0.00000000000E+00  0.00000000000E+00 -0.20613639763E+04  0.20613639763E+04  0.25500000920E-02 0.  1.
    10030    2    1    2    0    0  0.00000000000E+00  0.00000000000E+00 -0.15565065434E+04  0.25662214092E+04  0.20402891220E+04 0.  0.
        4    1    3    3  502    0 -0.75144010458E+03  0.23167849664E+03 -0.15956668055E+04  0.17789017184E+04  0.12699999809E+01 0.  1.
       -4    1    3    3    0  502  0.75144010458E+03 -0.23167849664E+03  0.39160262101E+02  0.78731969085E+03  0.12699999809E+01 0. -1.
</event>
<event>
 5   0  0.5866610E-05  0.2105303E+04  0.7818609E-02  0.8558911E-01
       -2   -1    0    0    0  501  0.00000000000E+00  0.00000000000E+00  0.10179369364E+04  0.10179369364E+04  0.25500000920E-02 0. -1.
        2   -1    0    0  501    0  0.00000000000E+00  0.00000000000E+00 -0.10885498624E+04  0.10885498625E+04  0.25500000920E-02 0.  1.
    10030    2    1    2    0    0  0.00000000000E+00  0.00000000000E+00 -0.70612926060E+02  0.21064867988E+04  0.21053029351E+04 0.  0.
        5    1    3    3  502    0 -0.63854626797E+03  0.74806447204E+03 -0.41063235703E+03  0.10658249450E+04  0.46999998093E+01 0.  1.
       -5    1    3    3    0  502  0.63854626797E+03 -0.74806447204E+03  0.34001943097E+03  0.10406618539E+04  0.46999998093E+01 0. -1.
</event>
<event>
 5   0  0.5462851E-05  0.2102523E+04  0.7818609E-02  0.8560133E-01
       -2   -1    0    0    0  501  0.00000000000E+00  0.00000000000E+00  0.78799788697E+03  0.78799788697E+03  0.25500000920E-02 0. -1.
        2   -1    0    0  501    0  0.00000000000E+00  0.00000000000E+00 -0.14024789328E+04  0.14024789328E+04  0.25500000920E-02 0.  1.
    10030    2    1    2    0    0  0.00000000000E+00  0.00000000000E+00 -0.61448104579E+03  0.21904768197E+04  0.21025227091E+04 0.  0.
        1    1    3    3  502    0 -0.95197541588E+03  0.60446860109E+02 -0.76758371096E+03  0.12243756649E+04  0.50400001928E-02 0.  1.
       -1    1    3    3    0  502  0.95197541588E+03 -0.60446860109E+02  0.15310266517E+03  0.96610115487E+03  0.50400001928E-02 0. -1.
</event>
<event>
 5   0  0.5462851E-05  0.2083851E+04  0.7818609E-02  0.8568391E-01
       -2   -1    0    0    0  501  0.00000000000E+00  0.00000000000E+00  0.98581664043E+03  0.98581664044E+03  0.25500000920E-02 0. -1.
        2   -1    0    0  501    0  0.00000000000E+00  0.00000000000E+00 -0.11012273666E+04  0.11012273666E+04  0.25500000920E-02 0.  1.
    10030    2    1    2    0    0  0.00000000000E+00  0.00000000000E+00 -0.11541072613E+03  0.20870440070E+04  0.20838505348E+04 0.  0.
        1    1    3    3  502    0 -0.22100308838E+03  0.95048501703E+03  0.30801739997E+03  0.10232980267E+04  0.50400001928E-02 0. -1.
       -1    1    3    3    0  502  0.22100308838E+03 -0.95048501703E+03 -0.42342812610E+03  0.10637459803E+04  0.50400001928E-02 0.  1.
</event>
<event>
 5   0  0.2602060E-05  0.2079560E+04  0.7818609E-02  0.8570301E-01
        1   -1    0    0  501    0  0.00000000000E+00  0.00000000000E+00  0.13915360388E+04  0.13915360388E+04  0.50400001928E-02 0.  1.
       -1   -1    0    0    0  501  0.00000000000E+00  0.00000000000E+00 -0.77694174264E+03  0.77694174266E+03  0.50400001928E-02 0. -1.
    10030    2    1    2    0    0  0.00000000000E+00  0.00000000000E+00  0.61459429619E+03  0.21684777815E+04  0.20795599871E+04 0.  0.
        1    1    3    3  502    0 -0.82116567315E+03  0.22678177077E+03 -0.31434702849E+03  0.90805125883E+03  0.50400001928E-02 0. -1.
       -1    1    3    3    0  502  0.82116567315E+03 -0.22678177077E+03  0.92894132468E+03  0.12604265227E+04  0.50400001928E-02 0.  1.
</event>
<event>
 5   0  0.2699285E-05  0.2102418E+04  0.7818609E-02  0.8560179E-01
        1   -1    0    0  501    0  0.00000000000E+00  0.00000000000E+00  0.12862248220E+04  0.12862248220E+04  0.50400001928E-02 0. -1.
       -1   -1    0    0    0  501  0.00000000000E+00  0.00000000000E+00 -0.85913446253E+03  0.85913446254E+03  0.50400001928E-02 0.  1.
    10030    2    1    2    0    0  0.00000000000E+00  0.00000000000E+00  0.42709035948E+03  0.21453592846E+04  0.21024177236E+04 0.  0.
        2    1    3    3  502    0 -0.73810420903E+03 -0.35555370033E+03  0.88565109731E+03  0.12064800551E+04  0.25500000920E-02 0. -1.
       -2    1    3    3    0  502  0.73810420903E+03  0.35555370033E+03 -0.45856073783E+03  0.93887922945E+03  0.25500000920E-02 0.  1.
</event>
<event>
 5   0  0.5462851E-05  0.2093239E+04  0.7818609E-02  0.8564228E-01
        2   -1    0    0  501    0  0.00000000000E+00  0.00000000000E+00  0.18100490646E+04  0.18100490646E+04  0.25500000920E-02 0. -1.
       -2   -1    0    0    0  501  0.00000000000E+00  0.00000000000E+00 -0.60518373486E+03  0.60518373486E+03  0.25500000920E-02 0.  1.
    10030    2    1    2    0    0  0.00000000000E+00  0.00000000000E+00  0.12048653298E+04  0.24152327995E+04  0.20932388810E+04 0.  0.
        1    1    3    3  502    0  0.59972009587E+02  0.35604425224E+03  0.17359148150E+04  0.17730663824E+04  0.50400001928E-02 0. -1.
       -1    1    3    3    0  502 -0.59972009587E+02 -0.35604425224E+03 -0.53104948520E+03  0.64216641710E+03  0.50400001928E-02 0.  1.
</event>
<event>
 5   0  0.2604390E-05  0.2100858E+04  0.7818609E-02  0.8560865E-01
        1   -1    0    0  501    0  0.00000000000E+00  0.00000000000E+00  0.82249878210E+03  0.82249878212E+03  0.50400001928E-02 0. -1.
       -1   -1    0    0    0  501  0.00000000000E+00  0.00000000000E+00 -0.13415236176E+04  0.13415236176E+04  0.50400001928E-02 0.  1.
    10030    2    1    2    0    0  0.00000000000E+00  0.00000000000E+00 -0.51902483548E+03  0.21640223997E+04  0.21008584356E+04 0.  0.
        5    1    3    3  502    0  0.25781014264E+03  0.97838449024E+03 -0.55027058087E+03  0.11517474040E+04  0.46999998093E+01 0.  1.
       -5    1    3    3    0  502 -0.25781014264E+03 -0.97838449024E+03  0.31245745394E+02  0.10122749957E+04  0.46999998093E+01 0. -1.
</event>
<event>
 5   0  0.5866610E-05  0.2107027E+04  0.7818609E-02  0.8558154E-01
        2   -1    0    0  501    0  0.00000000000E+00  0.00000000000E+00  0.49804141753E+03  0.49804141753E+03  0.25500000920E-02 0. -1.
       -2   -1    0    0    0  501  0.00000000000E+00  0.00000000000E+00 -0.22285108742E+04  0.22285108742E+04  0.25500000920E-02 0.  1.
    10030    2    1    2    0    0  0.00000000000E+00  0.00000000000E+00 -0.17304694567E+04  0.27265522917E+04  0.21070270191E+04 0.  0.
        5    1    3    3  502    0  0.56136322417E+03 -0.15883940680E+03  0.26990901576E+03  0.64283092131E+03  0.46999998093E+01 0. -1.
       -5    1    3    3    0  502 -0.56136322417E+03  0.15883940680E+03 -0.20003784724E+04  0.20837213704E+04  0.46999998093E+01 0.  1.
</event>
<event>
 5   0  0.2732159E-05  0.2106443E+04  0.7818609E-02  0.8558410E-01
        1   -1    0    0  501    0  0.00000000000E+00  0.00000000000E+00  0.14319981782E+04  0.14319981782E+04  0.50400001928E-02 0.  1.
       -1   -1    0    0    0  501  0.00000000000E+00  0.00000000000E+00 -0.77463509673E+03  0.77463509675E+03  0.50400001928E-02 0. -1.
    10030    2    1    2    0    0  0.00000000000E+00  0.00000000000E+00  0.65736308149E+03  0.22066332750E+04  0.21064434930E+04 0.  0.
        3    1    3    3  502    0 -0.82528068557E+03  0.53871525946E+03 -0.60433930941E+02  0.98739789901E+03  0.10100000352E+00 0. -1.
       -3    1    3    3    0  502  0.82528068557E+03 -0.53871525946E+03  0.71779701243E+03  0.12192353760E+04  0.10100000352E+00 0.  1.
</event>
<event>
 5   0  0.5954140E-05  0.2094714E+04  0.7818609E-02  0.8563576E-01
       -2   -1    0    0    0  501  0.00000000000E+00  0.00000000000E+00  0.10516960464E+04  0.10516960464E+04  0.25500000920E-02 0. -1.
        2   -1    0    0  501    0  0.00000000000E+00  0.00000000000E+00 -0.10430356739E+04  0.10430356739E+04  0.25500000920E-02 0.  1.
    10030    2    1    2    0    0  0.00000000000E+00  0.00000000000E+00  0.86603725537E+01  0.20947317203E+04  0.20947138176E+04 0.  0.
        2    1    3    3  502    0  0.23574055136E+02 -0.10356373824E+04  0.15878528747E+03  0.10480044329E+04  0.25500000920E-02 0. -1.
       -2    1    3    3    0  502 -0.23574055136E+02  0.10356373824E+04 -0.15012491492E+03  0.10467272873E+04  0.25500000920E-02 0.  1.
</event>
<event>
 5   0  0.2789662E-05  0.2100767E+04  0.7818609E-02  0.8560906E-01
       -1   -1    0    0    0  501  0.00000000000E+00  0.00000000000E+00  0.11281985085E+04  0.11281985085E+04  0.50400001928E-02 0. -1.
        1   -1    0    0  501    0  0.00000000000E+00  0.00000000000E+00 -0.97793515008E+03  0.97793515009E+03  0.50400001928E-02 0.  1.
    10030    2    1    2    0    0  0.00000000000E+00  0.00000000000E+00  0.15026335846E+03  0.21061336586E+04  0.21007665056E+04 0.  0.
        4    1    3    3  502    0 -0.21814219948E+03  0.76731119049E+03 -0.60995219432E+03  0.10041891129E+04  0.12699999809E+01 0.  1.
       -4    1    3    3    0  502  0.21814219948E+03 -0.76731119049E+03  0.76021555278E+03  0.11019445457E+04  0.12699999809E+01 0. -1.
</event>
<event>
 5   0  0.2604390E-05  0.2092075E+04  0.7818609E-02  0.8564743E-01
       -1   -1    0    0    0  501  0.00000000000E+00  0.00000000000E+00  0.56186989928E+03  0.56186989931E+03  0.50400001928E-02 0. -1.
        1   -1    0    0  501    0  0.00000000000E+00  0.00000000000E+00 -0.19474154189E+04  0.19474154189E+04  0.50400001928E-02 0.  1.
    10030    2    1    2    0    0  0.00000000000E+00  0.00000000000E+00 -0.13855455196E+04  0.25092853182E+04  0.20920746691E+04 0.  0.
        5    1    3    3  502    0  0.52988905472E+03  0.70047952183E+03 -0.11400436227E+02  0.87841108302E+03  0.46999998093E+01 0. -1.
       -5    1    3    3    0  502 -0.52988905472E+03 -0.70047952183E+03 -0.13741450834E+04  0.16308742352E+04  0.46999998093E+01 0.  1.
</event>
<event>
 5   0  0.2602060E-05  0.2093178E+04  0.7818609E-02  0.8564254E-01
        1   -1    0    0  501    0  0.00000000000E+00  0.00000000000E+00  0.95179581331E+03  0.95179581332E+03  0.50400001928E-02 0.  1.
       -1   -1    0    0    0  501  0.00000000000E+00  0.00000000000E+00 -0.11508229910E+04  0.11508229910E+04  0.50400001928E-02 0. -1.
    10030    2    1    2    0    0  0.00000000000E+00  0.00000000000E+00 -0.19902717773E+03  0.21026188044E+04  0.20931779712E+04 0.  0.
        1    1    3    3  502    0 -0.73280889001E+03  0.71932741752E+03  0.10365517097E+03  0.10320780965E+04  0.50400001928E-02 0. -1.
       -1    1    3    3    0  502  0.73280889001E+03 -0.71932741752E+03 -0.30268234870E+03  0.10705407078E+04  0.50400001928E-02 0.  1.
</event>
<event>
 5   0  0.2699285E-05  0.2099676E+04  0.7818609E-02  0.8561386E-01
        1   -1    0    0  501    0  0.00000000000E+00  0.00000000000E+00  0.13314168229E+04  0.13314168229E+04  0.50400001928E-02 0.  1.
       -1   -1    0    0    0  501  0.00000000000E+00  0.00000000000E+00 -0.82780964878E+03  0.82780964879E+03  0.50400001928E-02 0. -1.
    10030    2    1    2    0    0  0.00000000000E+00  0.00000000000E+00  0.50360717414E+03  0.21592264717E+04  0.20996758727E+04 0.  0.
        2    1    3    3  502    0  0.74237113885E+03 -0.73227334099E+03  0.37699597838E+03  0.11088124825E+04  0.25500000920E-02 0. -1.
       -2    1    3    3    0  502 -0.74237113885E+03  0.73227334099E+03  0.12661119576E+03  0.10504139892E+04  0.25500000920E-02 0.  1.
</event>
<event>
 5   0  0.5506332E-05  0.1860388E+04  0.7818609E-02  0.8674829E-01
        2   -1    0    0  501    0  0.00000000000E+00  0.00000000000E+00  0.99894448100E+03  0.99894448100E+03  0.25500000920E-02 0. -1.
       -2   -1    0    0    0  501  0.00000000000E+00  0.00000000000E+00 -0.86617480573E+03  0.86617480573E+03  0.25500000920E-02 0.  1.
    10030    2    1    2    0    0  0.00000000000E+00  0.00000000000E+00  0.13276967527E+03  0.18651192867E+04  0.18603876389E+04 0.  0.
        3    1    3    3  502    0  0.11837268162E+02 -0.44661057227E+03 -0.75156977306E+03  0.87433303619E+03  0.10100000352E+00 0.  1.
       -3    1    3    3    0  502 -0.11837268162E+02  0.44661057227E+03  0.88433944834E+03  0.99078625055E+03  0.10100000352E+00 0. -1.
</event>
<event>
 5   0  0.5462851E-05  0.2104294E+04  0.7818609E-02  0.8559354E-01
        2   -1    0    0  501    0  0.00000000000E+00  0.00000000000E+00  0.12133604909E+04  0.12133604909E+04  0.25500000920E-02 0.  1.
       -2   -1    0    0    0  501  0.00000000000E+00  0.00000000000E+00 -0.91235280671E+03  0.91235280672E+03  0.25500000920E-02 0. -1.
    10030    2    1    2    0    0  0.00000000000E+00  0.00000000000E+00  0.30100768415E+03  0.21257132976E+04  0.21042935626E+04 0.  0.
        1    1    3    3  502    0 -0.30925372764E+02  0.10360414749E+04  0.33310480229E+03  0.10887135187E+04  0.50400001928E-02 0. -1.
       -1    1    3    3    0  502  0.30925372764E+02 -0.10360414749E+04 -0.32097118141E+02  0.10369997789E+04  0.50400001928E-02 0.  1.
</event>
<event>
 5   0  0.2699285E-05  0.2105701E+04  0.7818609E-02  0.8558736E-01
        1   -1    0    0  501    0  0.00000000000E+00  0.00000000000E+00  0.13453845766E+04  0.13453845766E+04  0.50400001928E-02 0. -1.
       -1   -1    0    0    0  501  0.00000000000E+00  0.00000000000E+00 -0.82392348557E+03  0.82392348559E+03  0.50400001928E-02 0.  1.
    10030    2    1    2    0    0  0.00000000000E+00  0.00000000000E+00  0.52146109105E+03  0.21693080622E+04  0.21057007858E+04 0.  0.
        2    1    3    3  502    0 -0.56651867500E+03  0.47184720153E+03 -0.51357878792E+03  0.89852454731E+03  0.25500000920E-02 0.  1.
       -2    1    3    3    0  502  0.56651867500E+03 -0.47184720153E+03  0.10350398790E+04  0.12707835149E+04  0.25500000920E-02 0. -1.
</event>
<event>
 5   0  0.2789662E-05  0.2096930E+04  0.7818609E-02  0.8562597E-01
       -1   -1    0    0    0  501  0.00000000000E+00  0.00000000000E+00  0.79947950532E+03  0.79947950534E+03  0.50400001928E-02 0.  1.
        1   -1    0    0  501    0  0.00000000000E+00  0.00000000000E+00 -0.13749928871E+04  0.13749928871E+04  0.50400001928E-02 0. -1.
    10030    2    1    2    0    0  0.00000000000E+00  0.00000000000E+00 -0.57551338178E+03  0.21744723924E+04  0.20969297873E+04 0.  0.
        4    1    3    3  502    0  0.22662092926E+03 -0.64567522871E+03 -0.11115016439E+04  0.13052551719E+04  0.12699999809E+01 0. -1.
       -4    1    3    3    0  502 -0.22662092926E+03  0.64567522871E+03  0.53598826207E+03  0.86921722056E+03  0.12699999809E+01 0.  1.
</event>
<event>
 5   0  0.2732159E-05  0.2044751E+04  0.7818609E-02  0.8585979E-01
        1   -1    0    0  501    0  0.00000000000E+00  0.00000000000E+00  0.23925572612E+04  0.23925572612E+04  0.50400001928E-02 0. -1.
       -1   -1    0    0    0  501  0.00000000000E+00  0.00000000000E+00 -0.43687629507E+03  0.43687629510E+03  0.50400001928E-02 0.  1.
    10030    2    1    2    0    0  0.00000000000E+00  0.00000000000E+00  0.19556809661E+04  0.28294335563E+04  0.20447508915E+04 0.  0.
        3    1    3    3  502    0 -0.56289636657E+03  0.79820636263E+03  0.13958760038E+04  0.17036594569E+04  0.10100000352E+00 0. -1.
       -3    1    3    3    0  502  0.56289636657E+03 -0.79820636263E+03  0.55980496229E+03  0.11257740994E+04  0.10100000352E+00 0.  1.
</event>
<event>
 5   0  0.2789662E-05  0.2090317E+04  0.7818609E-02  0.8565521E-01
        1   -1    0    0  501    0  0.00000000000E+00  0.00000000000E+00  0.29331367353E+04  0.29331367353E+04  0.50400001928E-02 0.  1.
       -1   -1    0    0    0  501  0.00000000000E+00  0.00000000000E+00 -0.37241916541E+03  0.37241916545E+03  0.50400001928E-02 0. -1.
    10030    2    1    2    0    0  0.00000000000E+00  0.00000000000E+00  0.25607175698E+04  0.33055559007E+04  0.20903170430E+04 0.  0.
        4    1    3    3  502    0 -0.19513038643E+03 -0.22944588172E+03 -0.30229803110E+03  0.42673995930E+03  0.12699999809E+01 0. -1.
       -4    1    3    3    0  502  0.19513038643E+03  0.22944588172E+03  0.28630156009E+04  0.28788159414E+04  0.12699999809E+01 0.  1.
</event>
<event>
 5   0  0.5954140E-05  0.2092449E+04  0.7818609E-02  0.8564577E-01
        2   -1    0    0  501    0  0.00000000000E+00  0.00000000000E+00  0.17497843464E+04  0.17497843464E+04  0.25500000920E-02 0.  1.
       -2   -1    0    0    0  501  0.00000000000E+00  0.00000000000E+00 -0.62555452029E+03  0.62555452030E+03  0.25500000920E-02 0. -1.
    10030    2    1    2    0    0  0.00000000000E+00  0.00000000000E+00  0.11242298261E+04  0.23753388667E+04  0.20924488118E+04 0.  0.
        2    1    3    3  502    0  0.76537949906E+03 -0.16199192500E+03 -0.22644854518E+03  0.81444834395E+03  0.25500000920E-02 0. -1.
       -2    1    3    3    0  502 -0.76537949906E+03  0.16199192500E+03  0.13506783713E+04  0.15608905228E+04  0.25500000920E-02 0.  1.
</event>
<event>
 5   0  0.5462851E-05  0.1992935E+04  0.7818609E-02  0.8609931E-01
       -2   -1    0    0    0  501  0.00000000000E+00  0.00000000000E+00  0.86707495017E+03  0.86707495018E+03  0.25500000920E-02 0. -1.
        2   -1    0    0  501    0  0.00000000000E+00  0.00000000000E+00 -0.11451696979E+04  0.11451696979E+04  0.25500000920E-02 0.  1.
    10030    2    1    2    0    0  0.00000000000E+00  0.00000000000E+00 -0.27809474770E+03  0.20122446481E+04  0.19929354819E+04 0.  0.
        1    1    3    3  502    0 -0.57714093848E+03 -0.66255182867E+03 -0.61358110146E+03  0.10717034835E+04  0.50400001928E-02 0. -1.
       -1    1    3    3    0  502  0.57714093848E+03  0.66255182867E+03  0.33548635376E+03  0.94054116451E+03  0.50400001928E-02 0.  1.
</event>
<event>
 5   0  0.2602060E-05  0.2087948E+04  0.7818609E-02  0.8566571E-01
        1   -1    0    0  501    0  0.00000000000E+00  0.00000000000E+00  0.25169870524E+04  0.25169870524E+04  0.50400001928E-02 0.  1.
       -1   -1    0    0    0  501  0.00000000000E+00  0.00000000000E+00 -0.43301057411E+03  0.43301057414E+03  0.50400001928E-02 0. -1.
    10030    2    1    2    0    0  0.00000000000E+00  0.00000000000E+00  0.20839764783E+04  0.29499976265E+04  0.20879482835E+04 0.  0.
        1    1    3    3  502    0  0.43653439902E+03 -0.13909180628E+03  0.23673567594E+04  0.24112832348E+04  0.50400001928E-02 0.  1.
       -1    1    3    3    0  502 -0.43653439902E+03  0.13909180628E+03 -0.28338028113E+03  0.53871439173E+03  0.50400001928E-02 0. -1.
</event>
<event>
 5   0  0.5954140E-05  0.2097309E+04  0.7818609E-02  0.8562430E-01
        2   -1    0    0  501    0  0.00000000000E+00  0.00000000000E+00  0.15381938434E+04  0.15381938434E+04  0.25500000920E-02 0. -1.
       -2   -1    0    0    0  501  0.00000000000E+00  0.00000000000E+00 -0.71491385095E+03  0.71491385095E+03  0.25500000920E-02 0.  1.
    10030    2    1    2    0    0  0.00000000000E+00  0.00000000000E+00  0.82327999243E+03  0.22531076943E+04  0.20973088319E+04 0.  0.
        2    1    3    3  502    0  0.49584002622E+03 -0.11955939447E+03 -0.57267975932E+03  0.76688583710E+03  0.25500000920E-02 0.  1.
       -2    1    3    3    0  502 -0.49584002622E+03  0.11955939447E+03  0.13959597518E+04  0.14862218572E+04  0.25500000920E-02 0. -1.
</event>
<event>
 5   0  0.2732159E-05  0.2099926E+04  0.7818609E-02  0.8561276E-01
        1   -1    0    0  501    0  0.00000000000E+00  0.00000000000E+00  0.20155213415E+04  0.20155213415E+04  0.50400001928E-02 0.  1.
       -1   -1    0    0    0  501  0.00000000000E+00  0.00000000000E+00 -0.54696637638E+03  0.54696637641E+03  0.50400001928E-02 0. -1.
    10030    2    1    2    0    0  0.00000000000E+00  0.00000000000E+00  0.14685549651E+04  0.25624877179E+04  0.20999260984E+04 0.  0.
        3    1    3    3  502    0 -0.21142103639E+03  0.10053754923E+04  0.99866822958E+03  0.14327655000E+04  0.10100000352E+00 0.  1.
       -3    1    3    3    0  502  0.21142103639E+03 -0.10053754923E+04  0.46988673550E+03  0.11297222178E+04  0.10100000352E+00 0. -1.
</event>
<event>
 5   0  0.5462851E-05  0.2100608E+04  0.7818609E-02  0.8560976E-01
       -2   -1    0    0    0  501  0.00000000000E+00  0.00000000000E+00  0.47972101018E+03  0.47972101018E+03  0.25500000920E-02 0.  1.
        2   -1    0    0  501    0  0.00000000000E+00  0.00000000000E+00 -0.22995410393E+04  0.22995410393E+04  0.25500000920E-02 0. -1.
    10030    2    1    2    0    0  0.00000000000E+00  0.00000000000E+00 -0.18198200291E+04  0.27792620495E+04  0.21006076743E+04 0.  0.
        1    1    3    3  502    0 -0.97322873861E+03  0.24247105256E+03 -0.13223441347E+04  0.16596868378E+04  0.50400001928E-02 0. -1.
       -1    1    3    3    0  502  0.97322873861E+03 -0.24247105256E+03 -0.49747589435E+03  0.11195752116E+04  0.50400001928E-02 0.  1.
</event>
<event>
 5   0  0.2732159E-05  0.2096812E+04  0.7818609E-02  0.8562649E-01
       -1   -1    0    0    0  501  0.00000000000E+00  0.00000000000E+00  0.61175797066E+03  0.61175797068E+03  0.50400001928E-02 0. -1.
        1   -1    0    0  501    0  0.00000000000E+00  0.00000000000E+00 -0.17967159816E+04  0.17967159816E+04  0.50400001928E-02 0.  1.
    10030    2    1    2    0    0  0.00000000000E+00  0.00000000000E+00 -0.11849580109E+04  0.24084739523E+04  0.20968121735E+04 0.  0.
        3    1    3    3  502    0 -0.10110754420E+03 -0.33266739596E+03 -0.17285636190E+04  0.17631853354E+04  0.10100000352E+00 0.  1.
       -3    1    3    3    0  502  0.10110754420E+03  0.33266739596E+03  0.54360560804E+03  0.64528861692E+03  0.10100000352E+00 0. -1.
</event>
<event>
 5   0  0.5866610E-05  0.2113425E+04  0.7818609E-02  0.8555352E-01
        2   -1    0    0  501    0  0.00000000000E+00  0.00000000000E+00  0.17966658782E+04  0.17966658782E+04  0.25500000920E-02 0.  1.
       -2   -1    0    0    0  501  0.00000000000E+00  0.00000000000E+00 -0.62150755158E+03  0.62150755159E+03  0.25500000920E-02 0. -1.
    10030    2    1    2    0    0  0.00000000000E+00  0.00000000000E+00  0.11751583266E+04  0.24181734298E+04  0.21134250978E+04 0.  0.
        5    1    3    3  502    0  0.15734985319E+03 -0.80647546060E+03 -0.17265104184E+03  0.83963808697E+03  0.46999998093E+01 0. -1.
       -5    1    3    3    0  502 -0.15734985319E+03  0.80647546060E+03  0.13478093685E+04  0.15785353428E+04  0.46999998093E+01 0.  1.
</event>
<event>
 5   0  0.5462851E-05  0.2101065E+04  0.7818609E-02  0.8560774E-01
        2   -1    0    0  501    0  0.00000000000E+00  0.00000000000E+00  0.12300122353E+04  0.12300122354E+04  0.25500000920E-02 0.  1.
       -2   -1    0    0    0  501  0.00000000000E+00  0.00000000000E+00 -0.89724193408E+03  0.89724193408E+03  0.25500000920E-02 0. -1.
    10030    2    1    2    0    0  0.00000000000E+00  0.00000000000E+00  0.33277030127E+03  0.21272541694E+04  0.21010650223E+04 0.  0.
        1    1    3    3  502    0 -0.10557749574E+03 -0.85528011327E+02 -0.88830808475E+03  0.89863947264E+03  0.50400001928E-02 0. -1.
       -1    1    3    3    0  502  0.10557749574E+03  0.85528011327E+02  0.12210783860E+04  0.12286146968E+04  0.50400001928E-02 0.  1.
</event>
<event>
 5   0  0.2699285E-05  0.2122681E+04  0.7818609E-02  0.8551317E-01
        1   -1    0    0  501    0  0.00000000000E+00  0.00000000000E+00  0.98711303158E+03  0.98711303159E+03  0.50400001928E-02 0. -1.
       -1   -1    0    0    0  501  0.00000000000E+00  0.00000000000E+00 -0.11411498938E+04  0.11411498938E+04  0.50400001928E-02 0.  1.
    10030    2    1    2    0    0  0.00000000000E+00  0.00000000000E+00 -0.15403686218E+03  0.21282629254E+04  0.21226812584E+04 0.  0.
        2    1    3    3  502    0  0.73013718260E+02  0.63424164453E+03  0.77306151891E+03  0.10026053953E+04  0.25500000920E-02 0. -1.
       -2    1    3    3    0  502 -0.73013718260E+02 -0.63424164453E+03 -0.92709838109E+03  0.11256575300E+04  0.25500000920E-02 0.  1.
</event>
<event>
 5   0  0.5954140E-05  0.2193397E+04  0.7818609E-02  0.8521181E-01
       -2   -1    0    0    0  501  0.00000000000E+00  0.00000000000E+00  0.92505968052E+03  0.92505968052E+03  0.25500000920E-02 0. -1.
        2   -1    0    0  501    0  0.00000000000E+00  0.00000000000E+00 -0.13001841522E+04  0.13001841522E+04  0.25500000920E-02 0.  1.
    10030    2    1    2    0    0  0.00000000000E+00  0.00000000000E+00 -0.37512447166E+03  0.22252438327E+04  0.21933973069E+04 0.  0.
        2    1    3    3  502    0 -0.98290196547E+03  0.20441127199E+02  0.30553360495E+03  0.10294974003E+04  0.25500000920E-02 0. -1.
       -2    1    3    3    0  502  0.98290196547E+03 -0.20441127199E+02 -0.68065807661E+03  0.11957464324E+04  0.25500000920E-02 0.  1.
</event>
<event>
 5   0  0.5462851E-05  0.2097025E+04  0.7818609E-02  0.8562555E-01
        2   -1    0    0  501    0  0.00000000000E+00  0.00000000000E+00  0.14913995384E+04  0.14913995384E+04  0.25500000920E-02 0. -1.
       -2   -1    0    0    0  501  0.00000000000E+00  0.00000000000E+00 -0.73714534397E+03  0.73714534397E+03  0.25500000920E-02 0.  1.
    10030    2    1    2    0    0  0.00000000000E+00  0.00000000000E+00  0.75425419444E+03  0.22285448824E+04  0.20970247740E+04 0.  0.
        1    1    3    3  502    0  0.87007489561E+03  0.26184871303E+03 -0.17893229980E+03  0.92607334506E+03  0.50400001928E-02 0.  1.
       -1    1    3    3    0  502 -0.87007489561E+03 -0.26184871303E+03  0.93318649424E+03  0.13024715373E+04  0.50400001928E-02 0. -1.
</event>
<event>
 5   0  0.2699285E-05  0.2101059E+04  0.7818609E-02  0.8560777E-01
       -1   -1    0    0    0  501  0.00000000000E+00  0.00000000000E+00  0.45681738326E+03  0.45681738329E+03  0.50400001928E-02 0. -1.
        1   -1    0    0  501    0  0.00000000000E+00  0.00000000000E+00 -0.24158718862E+04  0.24158718862E+04  0.50400001928E-02 0.  1.
    10030    2    1    2    0    0  0.00000000000E+00  0.00000000000E+00 -0.19590545029E+04  0.28726892695E+04  0.21010590410E+04 0.  0.
        2    1    3    3  502    0 -0.37179566159E+03 -0.48719473134E+03 -0.21461287073E+04  0.22319182666E+04  0.25500000920E-02 0.  1.
       -2    1    3    3    0  502  0.37179566159E+03  0.48719473134E+03  0.18707420439E+03  0.64077100292E+03  0.25500000920E-02 0. -1.
</event>
<event>
 5   0  0.2789662E-05  0.2079318E+04  0.7818609E-02  0.8570409E-01
       -1   -1    0    0    0  501  0.00000000000E+00  0.00000000000E+00  0.15542440485E+04  0.15542440485E+04  0.50400001928E-02 0. -1.
        1   -1    0    0  501    0  0.00000000000E+00  0.00000000000E+00 -0.69544447715E+03  0.69544447716E+03  0.50400001928E-02 0.  1.
    10030    2    1    2    0    0  0.00000000000E+00  0.00000000000E+00  0.85879957133E+03  0.22496885256E+04  0.20793176185E+04 0.  0.
        4    1    3    3  502    0  0.81965858743E+02 -0.62693364876E+02  0.15486885451E+04  0.15521232821E+04  0.12699999809E+01 0. -1.
       -4    1    3    3    0  502 -0.81965858743E+02  0.62693364876E+02 -0.68988897380E+03  0.69756524359E+03  0.12699999809E+01 0.  1.
</event>
<event>
 5   0  0.5866610E-05  0.2008896E+04  0.7818609E-02  0.8602473E-01
       -2   -1    0    0    0  501  0.00000000000E+00  0.00000000000E+00  0.52356670801E+03  0.52356670802E+03  0.25500000920E-02 0.  1.
        2   -1    0    0  501    0  0.00000000000E+00  0.00000000000E+00 -0.19270055834E+04  0.19270055834E+04  0.25500000920E-02 0. -1.
    10030    2    1    2    0    0  0.00000000000E+00  0.00000000000E+00 -0.14034388754E+04  0.24505722914E+04  0.20088961841E+04 0.  0.
        5    1    3    3  502    0 -0.31021659990E+03  0.18129806335E+03 -0.18459134533E+04  0.18805642488E+04  0.46999998093E+01 0. -1.
       -5    1    3    3    0  502  0.31021659990E+03 -0.18129806335E+03  0.44247457790E+03  0.57000804268E+03  0.46999998093E+01 0.  1.
</event>
<event>
 5   0  0.2604390E-05  0.2111156E+04  0.7818609E-02  0.8556345E-01
        1   -1    0    0  501    0  0.00000000000E+00  0.00000000000E+00  0.96817181422E+03  0.96817181424E+03  0.50400001928E-02 0. -1.
       -1   -1    0    0    0  501  0.00000000000E+00  0.00000000000E+00 -0.11508754500E+04  0.11508754500E+04  0.50400001928E-02 0.  1.
    10030    2    1    2    0    0  0.00000000000E+00  0.00000000000E+00 -0.18270363580E+03  0.21190472643E+04  0.21111562447E+04 0.  0.
        5    1    3    3  502    0 -0.26556134151E+03  0.45597618151E+02  0.93306135523E+03  0.97119902775E+03  0.46999998093E+01 0. -1.
       -5    1    3    3    0  502  0.26556134151E+03 -0.45597618151E+02 -0.11157649910E+04  0.11478482365E+04  0.46999998093E+01 0.  1.
</event>
<event>
 5   0  0.2732159E-05  0.2091646E+04  0.7818609E-02  0.8564932E-01
        1   -1    0    0  501    0  0.00000000000E+00  0.00000000000E+00  0.13974884001E+04  0.13974884001E+04  0.50400001928E-02 0.  1.
       -1   -1    0    0    0  501  0.00000000000E+00  0.00000000000E+00 -0.78265081518E+03  0.78265081519E+03  0.50400001928E-02 0. -1.
    10030    2    1    2    0    0  0.00000000000E+00  0.00000000000E+00  0.61483758490E+03  0.21801392153E+04  0.20916457019E+04 0.  0.
        3    1    3    3  502    0 -0.10051463325E+04 -0.20300893388E+03  0.93266588176E+02  0.10296749213E+04  0.10100000352E+00 0. -1.
       -3    1    3    3    0  502  0.10051463325E+04  0.20300893388E+03  0.52157099672E+03  0.11504642940E+04  0.10100000352E+00 0.  1.
</event>
<event>
 5   0  0.5506332E-05  0.2066816E+04  0.7818609E-02  0.8576004E-01
        2   -1    0    0  501    0  0.00000000000E+00  0.00000000000E+00  0.14811516076E+04  0.14811516076E+04  0.25500000920E-02 0. -1.
       -2   -1    0    0    0  501  0.00000000000E+00  0.00000000000E+00 -0.72101491814E+03  0.72101491815E+03  0.25500000920E-02 0.  1.
    10030    2    1    2    0    0  0.00000000000E+00  0.00000000000E+00  0.76013668944E+03  0.22021665257E+04  0.20668163006E+04 0.  0.
        3    1    3    3  502    0  0.43094880110E+03  0.47860187332E+03  0.12411744402E+04  0.13983170683E+04  0.10100000352E+00 0. -1.
       -3    1    3    3    0  502 -0.43094880110E+03 -0.47860187332E+03 -0.48103775077E+03  0.80384945742E+03  0.10100000352E+00 0.  1.
</event>
<event>
 5   0  0.5866610E-05  0.2106846E+04  0.7818609E-02  0.8558234E-01
       -2   -1    0    0    0  501  0.00000000000E+00  0.00000000000E+00  0.13787949938E+04  0.13787949938E+04  0.25500000920E-02 0.  1.
        2   -1    0    0  501    0  0.00000000000E+00  0.00000000000E+00 -0.80483338822E+03  0.80483338823E+03  0.25500000920E-02 0. -1.
    10030    2    1    2    0    0  0.00000000000E+00  0.00000000000E+00  0.57396160560E+03  0.21836283821E+04  0.21068462180E+04 0.  0.
        5    1    3    3  502    0  0.15721934295E+03 -0.10288243386E+04  0.45564027909E+03  0.11361459393E+04  0.46999998093E+01 0.  1.
       -5    1    3    3    0  502 -0.15721934295E+03  0.10288243386E+04  0.11832132651E+03  0.10474824427E+04  0.46999998093E+01 0. -1.
</event>
<event>
 5   0  0.2604390E-05  0.2116644E+04  0.7818609E-02  0.8553947E-01
       -1   -1    0    0    0  501  0.00000000000E+00  0.00000000000E+00  0.83014448618E+03  0.83014448620E+03  0.50400001928E-02 0.  1.
        1   -1    0    0  501    0  0.00000000000E+00  0.00000000000E+00 -0.13492180816E+04  0.13492180816E+04  0.50400001928E-02 0. -1.
    10030    2    1    2    0    0  0.00000000000E+00  0.00000000000E+00 -0.51907359543E+03  0.21793625678E+04  0.21166444681E+04 0.  0.
        5    1    3    3  502    0 -0.77972285057E+03 -0.60153588677E+02  0.47463963086E+03  0.91481749388E+03  0.46999998093E+01 0.  1.
       -5    1    3    3    0  502  0.77972285057E+03  0.60153588677E+02 -0.99371322628E+03  0.12645450739E+04  0.46999998093E+01 0. -1.
</event>
<event>
 5   0  0.2699285E-05  0.2092913E+04  0.7818609E-02  0.8564372E-01
        1   -1    0    0  501    0  0.00000000000E+00  0.00000000000E+00  0.15496847665E+04  0.15496847665E+04  0.50400001928E-02 0.  1.
       -1   -1    0    0    0  501  0.00000000000E+00  0.00000000000E+00 -0.70664117779E+03  0.70664117781E+03  0.50400001928E-02 0. -1.
    10030    2    1    2    0    0  0.00000000000E+00  0.00000000000E+00  0.84304358874E+03  0.22563259444E+04  0.20929128684E+04 0.  0.
        2    1    3    3  502    0 -0.37127935366E+03 -0.12908234954E+03  0.14670699663E+04  0.15188169401E+04  0.25500000920E-02 0.  1.
       -2    1    3    3    0  502  0.37127935366E+03  0.12908234954E+03 -0.62402637759E+03  0.73750900425E+03  0.25500000920E-02 0. -1.
</event>
<event>
 5   0  0.5462851E-05  0.2105755E+04  0.7818609E-02  0.8558713E-01
       -2   -1    0    0    0  501  0.00000000000E+00  0.00000000000E+00  0.58929111713E+03  0.58929111713E+03  0.25500000920E-02 0.  1.
        2   -1    0    0  501    0  0.00000000000E+00  0.00000000000E+00 -0.18811596826E+04  0.18811596826E+04  0.25500000920E-02 0. -1.
    10030    2    1    2    0    0  0.00000000000E+00  0.00000000000E+00 -0.12918685655E+04  0.24704507997E+04  0.21057546779E+04 0.  0.
        1    1    3    3  502    0  0.92815793584E+02 -0.16348847956E+03 -0.18613092068E+04  0.18707793076E+04  0.50400001928E-02 0. -1.
       -1    1    3    3    0  502 -0.92815793584E+02  0.16348847956E+03  0.56944064130E+03  0.59967149214E+03  0.50400001928E-02 0.  1.
</event>
<event>
 5   0  0.5866610E-05  0.2103772E+04  0.7818609E-02  0.8559583E-01
       -2   -1    0    0    0  501  0.00000000000E+00  0.00000000000E+00  0.11107704471E+04  0.11107704471E+04  0.25500000920E-02 0. -1.
        2   -1    0    0  501    0  0.00000000000E+00  0.00000000000E+00 -0.99612362060E+03  0.99612362060E+03  0.25500000920E-02 0.  1.
    10030    2    1    2    0    0  0.00000000000E+00  0.00000000000E+00  0.11464682648E+03  0.21068940677E+04  0.21037724966E+04 0.  0.
        5    1    3    3  502    0 -0.82505295610E+03 -0.16037740434E+03  0.69072474177E+03  0.10879136230E+04  0.46999998093E+01 0. -1.
       -5    1    3    3    0  502  0.82505295610E+03  0.16037740434E+03 -0.57607791528E+03  0.10189804447E+04  0.46999998093E+01 0.  1.
</event>
<event>
 5   0  0.2602060E-05  0.2072051E+04  0.7818609E-02  0.8573656E-01
        1   -1    0    0  501    0  0.00000000000E+00  0.00000000000E+00  0.85426087245E+03  0.85426087247E+03  0.50400001928E-02 0.  1.
       -1   -1    0    0    0  501  0.00000000000E+00  0.00000000000E+00 -0.12564644648E+04  0.12564644648E+04  0.50400001928E-02 0. -1.
    10030    2    1    2    0    0  0.00000000000E+00  0.00000000000E+00 -0.40220359235E+03  0.21107253373E+04  0.20720506074E+04 0.  0.
        1    1    3    3  502    0  0.16326893445E+03 -0.10050183179E+03 -0.12382363316E+04  0.12529910519E+04  0.50400001928E-02 0. -1.
       -1    1    3    3    0  502 -0.16326893445E+03  0.10050183179E+03  0.83603273928E+03  0.85773428538E+03  0.50400001928E-02 0.  1.
</event>
<event>
 5   0  0.5954140E-05  0.2105563E+04  0.7818609E-02  0.8558797E-01
        2   -1    0    0  501    0  0.00000000000E+00  0.00000000000E+00  0.94180230934E+03  0.94180230934E+03  0.25500000920E-02 0. -1.
       -2   -1    0    0    0  501  0.00000000000E+00  0.00000000000E+00 -0.11768381489E+04  0.11768381489E+04  0.25500000920E-02 0.  1.
    10030    2    1    2    0    0  0.00000000000E+00  0.00000000000E+00 -0.23503583954E+03  0.21186404582E+04  0.21055629996E+04 0.  0.
        2    1    3    3  502    0 -0.99002157355E+03  0.24706138748E+03  0.14325739774E+03  0.10303905703E+04  0.25500000920E-02 0. -1.
       -2    1    3    3    0  502  0.99002157355E+03 -0.24706138748E+03 -0.37829323728E+03  0.10882498880E+04  0.25500000920E-02 0.  1.
</event>
<event>
 5   0  0.2699285E-05  0.2027933E+04  0.7818609E-02  0.8593671E-01
        1   -1    0    0  501    0  0.00000000000E+00  0.00000000000E+00  0.11875899758E+04  0.11875899758E+04  0.50400001928E-02 0.  1.
       -1   -1    0    0    0  501  0.00000000000E+00  0.00000000000E+00 -0.86572663146E+03  0.86572663147E+03  0.50400001928E-02 0. -1.
    10030    2    1    2    0    0  0.00000000000E+00  0.00000000000E+00  0.32186334434E+03  0.20533166073E+04  0.20279332034E+04 0.  0.
        2    1    3    3  502    0 -0.20051963213E+02  0.17730612089E+03 -0.84970460198E+03  0.86823813115E+03  0.25500000920E-02 0. -1.
       -2    1    3    3    0  502  0.20051963213E+02 -0.17730612089E+03  0.11715679463E+04  0.11850784761E+04  0.25500000920E-02 0.  1.
</event>
<event>
 5   0  0.5462851E-05  0.2086285E+04  0.7818609E-02  0.8567309E-01
        2   -1    0    0  501    0  0.00000000000E+00  0.00000000000E+00  0.84356103095E+03  0.84356103095E+03  0.25500000920E-02 0. -1.
       -2   -1    0    0    0  501  0.00000000000E+00  0.00000000000E+00 -0.12899440692E+04  0.12899440692E+04  0.25500000920E-02 0.  1.
    10030    2    1    2    0    0  0.00000000000E+00  0.00000000000E+00 -0.44638303825E+03  0.21335051001E+04  0.20862852623E+04 0.  0.
        1    1    3    3  502    0 -0.80085511280E+03 -0.58705172937E+03 -0.55003116062E+03  0.11351356405E+04  0.50400001928E-02 0.  1.
       -1    1    3    3    0  502  0.80085511280E+03  0.58705172937E+03  0.10364812237E+03  0.99836945965E+03  0.50400001928E-02 0. -1.
</event>
<event>
 5   0  0.2732159E-05  0.2160682E+04  0.7818609E-02  0.8534974E-01
        1   -1    0    0  501    0  0.00000000000E+00  0.00000000000E+00  0.23006624777E+04  0.23006624777E+04  0.50400001928E-02 0. -1.
       -1   -1    0    0    0  501  0.00000000000E+00  0.00000000000E+00 -0.50730465807E+03  0.50730465810E+03  0.50400001928E-02 0.  1.
    10030    2    1    2    0    0  0.00000000000E+00  0.00000000000E+00  0.17933578197E+04  0.28079671358E+04  0.21606821068E+04 0.  0.
        3    1    3    3  502    0  0.38443911960E+03 -0.21162910098E+02 -0.41511606256E+03  0.56618253332E+03  0.10100000352E+00 0.  1.
       -3    1    3    3    0  502 -0.38443911960E+03  0.21162910098E+02  0.22084738822E+04  0.22417846025E+04  0.10100000352E+00 0. -1.
</event>
<event>
 5   0  0.2732159E-05  0.2107056E+04  0.7818609E-02  0.8558141E-01
       -1   -1    0    0    0  501  0.00000000000E+00  0.00000000000E+00  0.63001734725E+03  0.63001734727E+03  0.50400001928E-02 0. -1.
        1   -1    0    0  501    0  0.00000000000E+00  0.00000000000E+00 -0.17617317444E+04  0.17617317444E+04  0.50400001928E-02 0.  1.
    10030    2    1    2    0    0  0.00000000000E+00  0.00000000000E+00 -0.11317143971E+04  0.23917490916E+04  0.21070562975E+04 0.  0.
        3    1    3    3  502    0  0.10130447880E+04  0.24629354278E+03 -0.73801061763E+03  0.12773331334E+04  0.10100000352E+00 0.  1.
       -3    1    3    3    0  502 -0.10130447880E+04 -0.24629354278E+03 -0.39370377950E+03  0.11144159582E+04  0.10100000352E+00 0. -1.
</event>
<event>
 5   0  0.5967046E-05  0.2093389E+04  0.7818609E-02  0.8564161E-01
       -2   -1    0    0    0  501  0.00000000000E+00  0.00000000000E+00  0.15993046914E+04  0.15993046914E+04  0.25500000920E-02 0. -1.
        2   -1    0    0  501    0  0.00000000000E+00  0.00000000000E+00 -0.68502850739E+03  0.68502850739E+03  0.25500000920E-02 0.  1.
    10030    2    1    2    0    0  0.00000000000E+00  0.00000000000E+00  0.91427618401E+03  0.22843331988E+04  0.20933889324E+04 0.  0.
        4    1    3    3  502    0  0.38692334635E+03 -0.39583839382E+02 -0.60324424345E+03  0.71776165017E+03  0.12699999809E+01 0.  1.
       -4    1    3    3    0  502 -0.38692334635E+03  0.39583839382E+02  0.15175204275E+04  0.15665715486E+04  0.12699999809E+01 0. -1.
</event>
<event>
 5   0  0.5462851E-05  0.2077967E+04  0.7818609E-02  0.8571011E-01
       -2   -1    0    0    0  501  0.00000000000E+00  0.00000000000E+00  0.51224705800E+03  0.51224705801E+03  0.25500000920E-02 0.  1.
        2   -1    0    0  501    0  0.00000000000E+00  0.00000000000E+00 -0.21073565887E+04  0.21073565887E+04  0.25500000920E-02 0. -1.
    10030    2    1    2    0    0  0.00000000000E+00  0.00000000000E+00 -0.15951095307E+04  0.26196036467E+04  0.20779674807E+04 0.  0.
        1    1    3    3  502    0 -0.16951978463E+03 -0.91725850533E+03 -0.22069295320E+03  0.95854342760E+03  0.50400001928E-02 0. -1.
       -1    1    3    3    0  502  0.16951978463E+03  0.91725850533E+03 -0.13744165775E+04  0.16610602191E+04  0.50400001928E-02 0.  1.
</event>
<event>
 5   0  0.2699285E-05  0.2086906E+04  0.7818609E-02  0.8567033E-01
        1   -1    0    0  501    0  0.00000000000E+00  0.00000000000E+00  0.14814922551E+04  0.14814922551E+04  0.50400001928E-02 0. -1.
       -1   -1    0    0    0  501  0.00000000000E+00  0.00000000000E+00 -0.73493067070E+03  0.73493067072E+03  0.50400001928E-02 0.  1.
    10030    2    1    2    0    0  0.00000000000E+00  0.00000000000E+00  0.74656158442E+03  0.22164229259E+04  0.20869059363E+04 0.  0.
        2    1    3    3  502    0 -0.52790185970E+03  0.31540359780E+03  0.12685895654E+04  0.14097798723E+04  0.25500000920E-02 0. -1.
       -2    1    3    3    0  502  0.52790185970E+03 -0.31540359780E+03 -0.52202798093E+03  0.80664305356E+03  0.25500000920E-02 0.  1.
</event>
<event>
 5   0  0.2789662E-05  0.2101979E+04  0.7818609E-02  0.8560372E-01
        1   -1    0    0  501    0  0.00000000000E+00  0.00000000000E+00  0.14952079177E+04  0.14952079177E+04  0.50400001928E-02 0.  1.
       -1   -1    0    0    0  501  0.00000000000E+00  0.00000000000E+00 -0.73874616658E+03  0.73874616660E+03  0.50400001928E-02 0. -1.
    10030    2    1    2    0    0  0.00000000000E+00  0.00000000000E+00  0.75646175108E+03  0.22339540843E+04  0.21019791792E+04 0.  0.
        4    1    3    3  502    0  0.89356851999E+03  0.41411192754E+03  0.76817938544E+03  0.12490214448E+04  0.12699999809E+01 0.  1.
       -4    1    3    3    0  502 -0.89356851999E+03 -0.41411192754E+03 -0.11717634356E+02  0.98493263948E+03  0.12699999809E+01 0. -1.
</event>
<event>
 5   0  0.2604390E-05  0.2116018E+04  0.7818609E-02  0.8554220E-01
       -1   -1    0    0    0  501  0.00000000000E+00  0.00000000000E+00  0.11025783505E+04  0.11025783505E+04  0.50400001928E-02 0. -1.
        1   -1    0    0  501    0  0.00000000000E+00  0.00000000000E+00 -0.10152413613E+04  0.10152413613E+04  0.50400001928E-02 0.  1.
    10030    2    1    2    0    0  0.00000000000E+00  0.00000000000E+00  0.87336989179E+02  0.21178197118E+04  0.21160180958E+04 0.  0.
        5    1    3    3  502    0  0.10278908178E+04 -0.17238863189E+03  0.22571256015E+03  0.10664171902E+04  0.46999998093E+01 0. -1.
       -5    1    3    3    0  502 -0.10278908178E+04  0.17238863189E+03 -0.13837557097E+03  0.10514025216E+04  0.46999998093E+01 0.  1.
</event>
<event>
 5   0  0.5954140E-05  0.2075433E+04  0.7818609E-02  0.8572143E-01
       -2   -1    0    0    0  501  0.00000000000E+00  0.00000000000E+00  0.90452563176E+03  0.90452563177E+03  0.25500000920E-02 0.  1.
        2   -1    0    0  501    0  0.00000000000E+00  0.00000000000E+00 -0.11905199455E+04  0.11905199455E+04  0.25500000920E-02 0. -1.
    10030    2    1    2    0    0  0.00000000000E+00  0.00000000000E+00 -0.28599431369E+03  0.20950455772E+04  0.20754332616E+04 0.  0.
        2    1    3    3  502    0  0.24549690450E+03  0.54950398032E+03  0.71035063601E+03  0.93103242725E+03  0.25500000920E-02 0.  1.
       -2    1    3    3    0  502 -0.24549690450E+03 -0.54950398032E+03 -0.99634494971E+03  0.11640131500E+04  0.25500000920E-02 0. -1.
</event>
<event>
 5   0  0.2789662E-05  0.1876996E+04  0.7818609E-02  0.8666392E-01
       -1   -1    0    0    0  501  0.00000000000E+00  0.00000000000E+00  0.57017308299E+03  0.57017308301E+03  0.50400001928E-02 0. -1.
        1   -1    0    0  501    0  0.00000000000E+00  0.00000000000E+00 -0.15447560719E+04  0.15447560719E+04  0.50400001928E-02 0.  1.
    10030    2    1    2    0    0  0.00000000000E+00  0.00000000000E+00 -0.97458298888E+03  0.21149291549E+04  0.18769958252E+04 0.  0.
        4    1    3    3  502    0  0.92749721125E+03 -0.38018594584E+02 -0.64293259933E+03  0.11291857379E+04  0.12699999809E+01 0. -1.
       -4    1    3    3    0  502 -0.92749721125E+03  0.38018594584E+02 -0.33165038954E+03  0.98574341702E+03  0.12699999809E+01 0.  1.
</event>
<event>
 5   0  0.5866610E-05  0.2091640E+04  0.7818609E-02  0.8564935E-01
        2   -1    0    0  501    0  0.00000000000E+00  0.00000000000E+00  0.12095402557E+04  0.12095402557E+04  0.25500000920E-02 0.  1.
       -2   -1    0    0    0  501  0.00000000000E+00  0.00000000000E+00 -0.90426051828E+03  0.90426051829E+03  0.25500000920E-02 0. -1.
    10030    2    1    2    0    0  0.00000000000E+00  0.00000000000E+00  0.30527973746E+03  0.21138007740E+04  0.20916400250E+04 0.  0.
        5    1    3    3  502    0  0.73470102757E+03 -0.71805610734E+03 -0.45207762792E+02  0.10283267987E+04  0.46999998093E+01 0. -1.
       -5    1    3    3    0  502 -0.73470102757E+03  0.71805610734E+03  0.35048750025E+03  0.10854739753E+04  0.46999998093E+01 0.  1.
</event>
<event>
 5   0  0.2604390E-05  0.2100566E+04  0.7818609E-02  0.8560994E-01
        1   -1    0    0  501    0  0.00000000000E+00  0.00000000000E+00  0.20938161610E+04  0.20938161610E+04  0.50400001928E-02 0. -1.
       -1   -1    0    0    0  501  0.00000000000E+00  0.00000000000E+00 -0.52683420095E+03  0.52683420097E+03  0.50400001928E-02 0.  1.
    10030    2    1    2    0    0  0.00000000000E+00  0.00000000000E+00  0.15669819600E+04  0.26206503620E+04  0.21005656040E+04 0.  0.
        5    1    3    3  502    0 -0.10358172480E+04 -0.17310141515E+03  0.80070608925E+03  0.13206187196E+04  0.46999998093E+01 0. -1.
       -5    1    3    3    0  502  0.10358172480E+04  0.17310141515E+03  0.76627587078E+03  0.13000316424E+04  0.46999998093E+01 0.  1.
</event>
<event>
 5   0  0.2602060E-05  0.2118331E+04  0.7818609E-02  0.8553211E-01
       -1   -1    0    0    0  501  0.00000000000E+00  0.00000000000E+00  0.85359746486E+03  0.85359746488E+03  0.50400001928E-02 0. -1.
        1   -1    0    0  501    0  0.00000000000E+00  0.00000000000E+00 -0.13142390995E+04  0.13142390995E+04  0.50400001928E-02 0.  1.
    10030    2    1    2    0    0  0.00000000000E+00  0.00000000000E+00 -0.46064163462E+03  0.21678365644E+04  0.21183306291E+04 0.  0.
        1    1    3    3  502    0  0.36654928867E+03  0.97777566540E+03 -0.48899665085E+02  0.10453682653E+04  0.50400001928E-02 0. -1.
       -1    1    3    3    0  502 -0.36654928867E+03 -0.97777566540E+03 -0.41174196954E+03  0.11224682990E+04  0.50400001928E-02 0.  1.
</event>
<event>
 5   0  0.5954140E-05  0.2094067E+04  0.7818609E-02  0.8563862E-01
        2   -1    0    0  501    0  0.00000000000E+00  0.00000000000E+00  0.81314847433E+03  0.81314847434E+03  0.25500000920E-02 0. -1.
       -2   -1    0    0    0  501  0.00000000000E+00  0.00000000000E+00 -0.13481902472E+04  0.13481902472E+04  0.25500000920E-02 0.  1.
    10030    2    1    2    0    0  0.00000000000E+00  0.00000000000E+00 -0.53504177282E+03  0.21613387215E+04  0.20940667063E+04 0.  0.
        2    1    3    3  502    0  0.31183832472E+03  0.88616042324E+03 -0.74471038298E+03  0.11987981444E+04  0.25500000920E-02 0.  1.
       -2    1    3    3    0  502 -0.31183832472E+03 -0.88616042324E+03  0.20966861016E+03  0.96254057710E+03  0.25500000920E-02 0. -1.
</event>
<event>
 5   0  0.2604390E-05  0.2107348E+04  0.7818609E-02  0.8558014E-01
       -1   -1    0    0    0  501  0.00000000000E+00  0.00000000000E+00  0.83852492507E+03  0.83852492509E+03  0.50400001928E-02 0. -1.
        1   -1    0    0  501    0  0.00000000000E+00  0.00000000000E+00 -0.13240254993E+04  0.13240254993E+04  0.50400001928E-02 0.  1.
    10030    2    1    2    0    0  0.00000000000E+00  0.00000000000E+00 -0.48550057424E+03  0.21625504244E+04  0.21073475106E+04 0.  0.
        5    1    3    3  502    0  0.17913842020E+03 -0.10249777679E+04 -0.41303781170E+03  0.11195053917E+04  0.46999998093E+01 0.  1.
       -5    1    3    3    0  502 -0.17913842020E+03  0.10249777679E+04 -0.72462762535E+02  0.10430450327E+04  0.46999998093E+01 0. -1.
</event>
<event>
 5   0  0.5462851E-05  0.2118350E+04  0.7818609E-02  0.8553203E-01
        2   -1    0    0  501    0  0.00000000000E+00  0.00000000000E+00  0.13292005161E+04  0.13292005161E+04  0.25500000920E-02 0. -1.
       -2   -1    0    0    0  501  0.00000000000E+00  0.00000000000E+00 -0.84400449357E+03  0.84400449357E+03  0.25500000920E-02 0.  1.
    10030    2    1    2    0    0  0.00000000000E+00  0.00000000000E+00  0.48519602254E+03  0.21732050097E+04  0.21183495542E+04 0.  0.
        1    1    3    3  502    0 -0.73621981677E+02 -0.82274692243E+03 -0.43753156110E+03  0.93475481359E+03  0.50400001928E-02 0.  1.
       -1    1    3    3    0  502  0.73621981677E+02  0.82274692243E+03  0.92272758364E+03  0.12384501961E+04  0.50400001928E-02 0. -1.
</event>
<event>
 5   0  0.2602060E-05  0.2096986E+04  0.7818609E-02  0.8562572E-01
        1   -1    0    0  501    0  0.00000000000E+00  0.00000000000E+00  0.18964564452E+04  0.18964564452E+04  0.50400001928E-02 0. -1.
       -1   -1    0    0    0  501  0.00000000000E+00  0.00000000000E+00 -0.57968001961E+03  0.57968001963E+03  0.50400001928E-02 0.  1.
    10030    2    1    2    0    0  0.00000000000E+00  0.00000000000E+00  0.13167764255E+04  0.24761364648E+04  0.20969863227E+04 0.  0.
        1    1    3    3  502    0  0.97589424673E+03 -0.36052685320E+03  0.81229552877E+03  0.13199140952E+04  0.50400001928E-02 0.  1.
       -1    1    3    3    0  502 -0.97589424673E+03  0.36052685320E+03  0.50448089678E+03  0.11562223696E+04  0.50400001928E-02 0. -1.
</event>
<event>
 5   0  0.2699285E-05  0.2083679E+04  0.7818609E-02  0.8568467E-01
        1   -1    0    0  501    0  0.00000000000E+00  0.00000000000E+00  0.22833411858E+04  0.22833411858E+04  0.50400001928E-02 0.  1.
       -1   -1    0    0    0  501  0.00000000000E+00  0.00000000000E+00 -0.47536907650E+03  0.47536907653E+03  0.50400001928E-02 0. -1.
    10030    2    1    2    0    0  0.00000000000E+00  0.00000000000E+00  0.18079721093E+04  0.27587102623E+04  0.20836792372E+04 0.  0.
        2    1    3    3  502    0  0.86237490444E+03 -0.43572665155E+03  0.14199600431E+04  0.17175082867E+04  0.25500000920E-02 0.  1.
       -2    1    3    3    0  502 -0.86237490444E+03  0.43572665155E+03  0.38801206620E+03  0.10412019757E+04  0.25500000920E-02 0. -1.
</event>
<event>
 5   0  0.5967046E-05  0.2098205E+04  0.7818609E-02  0.8562034E-01
       -2   -1    0    0    0  501  0.00000000000E+00  0.00000000000E+00  0.12715954530E+04  0.12715954530E+04  0.25500000920E-02 0.  1.
        2   -1    0    0  501    0  0.00000000000E+00  0.00000000000E+00 -0.86553946846E+03  0.86553946846E+03  0.25500000920E-02 0. -1.
    10030    2    1    2    0    0  0.00000000000E+00  0.00000000000E+00  0.40605598450E+03  0.21371349214E+04  0.20982049971E+04 0.  0.
        4    1    3    3  502    0  0.23837702018E+03  0.25557583669E+03  0.12105584569E+04  0.12599984137E+04  0.12699999809E+01 0.  1.
       -4    1    3    3    0  502 -0.23837702018E+03 -0.25557583669E+03 -0.80450247244E+03  0.87713650768E+03  0.12699999809E+01 0. -1.
</event>
<event>
 5   0  0.5954140E-05  0.2098172E+04  0.7818609E-02  0.8562049E-01
        2   -1    0    0  501    0  0.00000000000E+00  0.00000000000E+00  0.63698304923E+03  0.63698304923E+03  0.25500000920E-02 0.  1.
       -2   -1    0    0    0  501  0.00000000000E+00  0.00000000000E+00 -0.17278030456E+04  0.17278030456E+04  0.25500000920E-02 0. -1.
    10030    2    1    2    0    0  0.00000000000E+00  0.00000000000E+00 -0.10908199964E+04  0.23647860948E+04  0.20981718256E+04 0.  0.
        2    1    3    3  502    0 -0.26201716973E+03  0.52992791460E+03 -0.15221996284E+04  0.16329630432E+04  0.25500000920E-02 0. -1.
       -2    1    3    3    0  502  0.26201716973E+03 -0.52992791460E+03  0.43137963202E+03  0.73182305159E+03  0.25500000920E-02 0.  1.
</event>
<event>
 5   0  0.5967046E-05  0.2083062E+04  0.7818609E-02  0.8568742E-01
       -2   -1    0    0    0  501  0.00000000000E+00  0.00000000000E+00  0.47133961639E+03  0.47133961640E+03  0.25500000920E-02 0.  1.
        2   -1    0    0  501    0  0.00000000000E+00  0.00000000000E+00 -0.23014972011E+04  0.23014972011E+04  0.25500000920E-02 0. -1.
    10030    2    1    2    0    0  0.00000000000E+00  0.00000000000E+00 -0.18301575847E+04  0.27728368175E+04  0.20830619846E+04 0.  0.
        4    1    3    3  502    0 -0.46638966881E+03 -0.59670976621E+03  0.36662592817E+02  0.75823982148E+03  0.12699999809E+01 0.  1.
       -4    1    3    3    0  502  0.46638966881E+03  0.59670976621E+03 -0.18668201776E+04  0.20145969961E+04  0.12699999809E+01 0. -1.
</event>
<event>
 5   0  0.2699285E-05  0.2064783E+04  0.7818609E-02  0.8576917E-01
       -1   -1    0    0    0  501  0.00000000000E+00  0.00000000000E+00  0.14299001681E+04  0.14299001681E+04  0.50400001928E-02 0.  1.
        1   -1    0    0  501    0  0.00000000000E+00  0.00000000000E+00 -0.74538947430E+03  0.74538947432E+03  0.50400001928E-02 0. -1.
    10030    2    1    2    0    0  0.00000000000E+00  0.00000000000E+00  0.68451069376E+03  0.21752896424E+04  0.20647833151E+04 0.  0.
        2    1    3    3  502    0 -0.65024865836E+03 -0.80176240364E+03  0.32787702358E+03  0.10831203129E+04  0.25500000920E-02 0.  1.
       -2    1    3    3    0  502  0.65024865836E+03  0.80176240364E+03  0.35663367018E+03  0.10921693295E+04  0.25500000920E-02 0. -1.
</event>
<event>
 5   0  0.5462851E-05  0.2102188E+04  0.7818609E-02  0.8560280E-01
       -2   -1    0    0    0  501  0.00000000000E+00  0.00000000000E+00  0.13205453007E+04  0.13205453007E+04  0.25500000920E-02 0.  1.
        2   -1    0    0  501    0  0.00000000000E+00  0.00000000000E+00 -0.83662339236E+03  0.83662339236E+03  0.25500000920E-02 0. -1.
    10030    2    1    2    0    0  0.00000000000E+00  0.00000000000E+00  0.48392190833E+03  0.21571686931E+04  0.21021884685E+04 0.  0.
        1    1    3    3  502    0 -0.72706152968E+03  0.44873732655E+03  0.87019459968E+03  0.12195172395E+04  0.50400001928E-02 0. -1.
       -1    1    3    3    0  502  0.72706152968E+03 -0.44873732655E+03 -0.38627269135E+03  0.93765145352E+03  0.50400001928E-02 0.  1.
</event>
<event>
 5   0  0.2789662E-05  0.2077167E+04  0.7818609E-02  0.8571369E-01
        1   -1    0    0  501    0  0.00000000000E+00  0.00000000000E+00  0.15298582588E+04  0.15298582589E+04  0.50400001928E-02 0.  1.
       -1   -1    0    0    0  501  0.00000000000E+00  0.00000000000E+00 -0.70506933795E+03  0.70506933797E+03  0.50400001928E-02 0. -1.
    10030    2    1    2    0    0  0.00000000000E+00  0.00000000000E+00  0.82478892089E+03  0.22349275968E+04  0.20771674461E+04 0.  0.
        4    1    3    3  502    0 -0.57176537641E+03  0.64390853772E+03 -0.21232444911E+03  0.88691439001E+03  0.12699999809E+01 0. -1.
       -4    1    3    3    0  502  0.57176537641E+03 -0.64390853772E+03  0.10371133700E+04  0.13480132068E+04  0.12699999809E+01 0.  1.
</event>
<event>
 5   0  0.2699285E-05  0.2112641E+04  0.7818609E-02  0.8555695E-01
       -1   -1    0    0    0  501  0.00000000000E+00  0.00000000000E+00  0.75576615803E+03  0.75576615805E+03  0.50400001928E-02 0.  1.
        1   -1    0    0  501    0  0.00000000000E+00  0.00000000000E+00 -0.14763998638E+04  0.14763998638E+04  0.50400001928E-02 0. -1.
    10030    2    1    2    0    0  0.00000000000E+00  0.00000000000E+00 -0.72063370578E+03  0.22321660219E+04  0.21126410512E+04 0.  0.
        2    1    3    3  502    0 -0.35275063625E+03  0.45794974646E+03 -0.12944532589E+04  0.14176601218E+04  0.25500000920E-02 0. -1.
       -2    1    3    3    0  502  0.35275063625E+03 -0.45794974646E+03  0.57381955309E+03  0.81450590002E+03  0.25500000920E-02 0.  1.
</event>
<event>
 5   0  0.2602060E-05  0.2094474E+04  0.7818609E-02  0.8563681E-01
       -1   -1    0    0    0  501  0.00000000000E+00  0.00000000000E+00  0.67297973785E+03  0.67297973787E+03  0.50400001928E-02 0. -1.
        1   -1    0    0  501    0  0.00000000000E+00  0.00000000000E+00 -0.16296267584E+04  0.16296267584E+04  0.50400001928E-02 0.  1.
    10030    2    1    2    0    0  0.00000000000E+00  0.00000000000E+00 -0.95664702054E+03  0.23026064963E+04  0.20944744340E+04 0.  0.
        1    1    3    3  502    0 -0.19388910699E+03 -0.46928013327E+03  0.52860097428E+03  0.73296372307E+03  0.50400001928E-02 0. -1.
       -1    1    3    3    0  502  0.19388910699E+03  0.46928013327E+03 -0.14852479948E+04  0.15696427732E+04  0.50400001928E-02 0.  1.
</event>
<event>
 5   0  0.5462851E-05  0.2066240E+04  0.7818609E-02  0.8576263E-01
        2   -1    0    0  501    0  0.00000000000E+00  0.00000000000E+00  0.79354114925E+03  0.79354114926E+03  0.25500000920E-02 0.  1.
       -2   -1    0    0    0  501  0.00000000000E+00  0.00000000000E+00 -0.13450301930E+04  0.13450301930E+04  0.25500000920E-02 0. -1.
    10030    2    1    2    0    0  0.00000000000E+00  0.00000000000E+00 -0.55148904378E+03  0.21385713423E+04  0.20662398749E+04 0.  0.
        1    1    3    3  502    0 -0.13578521271E+02  0.36791989706E+03 -0.12748271694E+04  0.13269264255E+04  0.50400001928E-02 0. -1.
       -1    1    3    3    0  502  0.13578521271E+02 -0.36791989706E+03  0.72333812563E+03  0.81164491676E+03  0.50400001928E-02 0.  1.
</event>
<event>
 5   0  0.2732159E-05  0.2105749E+04  0.7818609E-02  0.8558715E-01
        1   -1    0    0  501    0  0.00000000000E+00  0.00000000000E+00  0.24658685777E+04  0.24658685777E+04  0.50400001928E-02 0. -1.
       -1   -1    0    0    0  501  0.00000000000E+00  0.00000000000E+00 -0.44955544449E+03  0.44955544452E+03  0.50400001928E-02 0.  1.
    10030    2    1    2    0    0  0.00000000000E+00  0.00000000000E+00  0.20163131332E+04  0.29154240222E+04  0.21057489352E+04 0.  0.
        3    1    3    3  502    0  0.83665716234E+03 -0.47157946945E+03  0.41078998168E+03  0.10445720763E+04  0.10100000352E+00 0.  1.
       -3    1    3    3    0  502 -0.83665716234E+03  0.47157946945E+03  0.16055231515E+04  0.18708519459E+04  0.10100000352E+00 0. -1.
</event>
<event>
 5   0  0.2604390E-05  0.2115440E+04  0.7818609E-02  0.8554472E-01
        1   -1    0    0  501    0  0.00000000000E+00  0.00000000000E+00  0.86785444852E+03  0.86785444854E+03  0.50400001928E-02 0. -1.
       -1   -1    0    0    0  501  0.00000000000E+00  0.00000000000E+00 -0.12891233585E+04  0.12891233585E+04  0.50400001928E-02 0.  1.
    10030    2    1    2    0    0  0.00000000000E+00  0.00000000000E+00 -0.42126890998E+03  0.21569778071E+04  0.21154398516E+04 0.  0.
        5    1    3    3  502    0 -0.10906465239E+03 -0.37638527615E+03  0.79109636745E+03  0.88284569835E+03  0.46999998093E+01 0. -1.
       -5    1    3    3    0  502  0.10906465239E+03  0.37638527615E+03 -0.12123652774E+04  0.12741321087E+04  0.46999998093E+01 0.  1.
</event>
<event>
 5   0  0.2732159E-05  0.2093510E+04  0.7818609E-02  0.8564107E-01
        1   -1    0    0  501    0  0.00000000000E+00  0.00000000000E+00  0.12371067482E+04  0.12371067483E+04  0.50400001928E-02 0. -1.
       -1   -1    0    0    0  501  0.00000000000E+00  0.00000000000E+00 -0.88569271729E+03  0.88569271730E+03  0.50400001928E-02 0.  1.
    10030    2    1    2    0    0  0.00000000000E+00  0.00000000000E+00  0.35141403096E+03  0.21227994656E+04  0.20935103892E+04 0.  0.
        3    1    3    3  502    0  0.78744599381E+03  0.29116830542E+03  0.80963047653E+03  0.11663411568E+04  0.10100000352E+00 0. -1.
       -3    1    3    3    0  502 -0.78744599381E+03 -0.29116830542E+03 -0.45821644558E+03  0.95645830879E+03  0.10100000352E+00 0.  1.
</event>
<event>
 5   0  0.5954140E-05  0.1998117E+04  0.7818609E-02  0.8607502E-01
       -2   -1    0    0    0  501  0.00000000000E+00  0.00000000000E+00  0.65387524073E+03  0.65387524073E+03  0.25500000920E-02 0. -1.
        2   -1    0    0  501    0  0.00000000000E+00  0.00000000000E+00 -0.15264651443E+04  0.15264651443E+04  0.25500000920E-02 0.  1.
    10030    2    1    2    0    0  0.00000000000E+00  0.00000000000E+00 -0.87258990360E+03  0.21803403851E+04  0.19981168772E+04 0.  0.
        2    1    3    3  502    0 -0.23345301504E+03  0.17858039686E+03 -0.14782181289E+04  0.15071562975E+04  0.25500000920E-02 0.  1.
       -2    1    3    3    0  502  0.23345301504E+03 -0.17858039686E+03  0.60562822535E+03  0.67318408755E+03  0.25500000920E-02 0. -1.
</event>
<event>
 5   0  0.5967046E-05  0.2107443E+04  0.7818609E-02  0.8557972E-01
        2   -1    0    0  501    0  0.00000000000E+00  0.00000000000E+00  0.18484776938E+04  0.18484776938E+04  0.25500000920E-02 0. -1.
       -2   -1    0    0    0  501  0.00000000000E+00  0.00000000000E+00 -0.60067218948E+03  0.60067218948E+03  0.25500000920E-02 0.  1.
    10030    2    1    2    0    0  0.00000000000E+00  0.00000000000E+00  0.12478055044E+04  0.24491498833E+04  0.21074431367E+04 0.  0.
        4    1    3    3  502    0  0.28366835192E+03 -0.11337035928E+03  0.17958861536E+04  0.18216830849E+04  0.12699999809E+01 0. -1.
       -4    1    3    3    0  502 -0.28366835192E+03  0.11337035928E+03 -0.54808064919E+03  0.62746679846E+03  0.12699999809E+01 0.  1.
</event>
<event>
 5   0  0.5967046E-05  0.2071549E+04  0.7818609E-02  0.8573881E-01
       -2   -1    0    0    0  501  0.00000000000E+00  0.00000000000E+00  0.11197422910E+04  0.11197422910E+04  0.25500000920E-02 0. -1.
        2   -1    0    0  501    0  0.00000000000E+00  0.00000000000E+00 -0.95810341146E+03  0.95810341146E+03  0.25500000920E-02 0.  1.
    10030    2    1    2    0    0  0.00000000000E+00  0.00000000000E+00  0.16163887949E+03  0.20778457024E+04  0.20715490908E+04 0.  0.
        4    1    3    3  502    0  0.10628249155E+03  0.33322284094E+03  0.10587155625E+04  0.11149949259E+04  0.12699999809E+01 0. -1.
       -4    1    3    3    0  502 -0.10628249155E+03 -0.33322284094E+03 -0.89707668298E+03  0.96285077649E+03  0.12699999809E+01 0.  1.
</event>
<event>
 5   0  0.2017750E-05  0.2097960E+04  0.7818609E-02  0.8562143E-01
        3   -1    0    0  501    0  0.00000000000E+00  0.00000000000E+00  0.64891905020E+03  0.64891905806E+03  0.10100000352E+00 0.  1.
       -3   -1    0    0    0  501  0.00000000000E+00  0.00000000000E+00 -0.16956791691E+04  0.16956791721E+04  0.10100000352E+00 0. -1.
    10030    2    1    2    0    0  0.00000000000E+00  0.00000000000E+00 -0.10467601189E+04  0.23445982302E+04  0.20979595121E+04 0.  0.
        5    1    3    3  502    0 -0.56612129642E+03  0.85551400860E+03 -0.76806956926E+03  0.12815422328E+04  0.46999998093E+01 0. -1.
       -5    1    3    3    0  502  0.56612129642E+03 -0.85551400860E+03 -0.27869054965E+03  0.10630559974E+04  0.46999998093E+01 0.  1.
</event>
<event>
 5   0  0.2732159E-05  0.2100761E+04  0.7818609E-02  0.8560908E-01
       -1   -1    0    0    0  501  0.00000000000E+00  0.00000000000E+00  0.72229703034E+03  0.72229703036E+03  0.50400001928E-02 0. -1.
        1   -1    0    0  501    0  0.00000000000E+00  0.00000000000E+00 -0.15274865350E+04  0.15274865350E+04  0.50400001928E-02 0.  1.
    10030    2    1    2    0    0  0.00000000000E+00  0.00000000000E+00 -0.80518950466E+03  0.22497835654E+04  0.21007608033E+04 0.  0.
        3    1    3    3  502    0 -0.63948271430E+03 -0.10746660122E+03 -0.12875363953E+04  0.14416092368E+04  0.10100000352E+00 0.  1.
       -3    1    3    3    0  502  0.63948271430E+03  0.10746660122E+03  0.48234689061E+03  0.80817432857E+03  0.10100000352E+00 0. -1.
</event>
<event>
 5   0  0.2789662E-05  0.2093109E+04  0.7818609E-02  0.8564285E-01
       -1   -1    0    0    0  501  0.00000000000E+00  0.00000000000E+00  0.10127458980E+04  0.10127458980E+04  0.50400001928E-02 0.  1.
        1   -1    0    0  501    0  0.00000000000E+00  0.00000000000E+00 -0.10814920212E+04  0.10814920212E+04  0.50400001928E-02 0. -1.
    10030    2    1    2    0    0  0.00000000000E+00  0.00000000000E+00 -0.68746123238E+02  0.20942379192E+04  0.20931092739E+04 0.  0.
        4    1    3    3  502    0  0.59185456387E+03  0.35534085393E+03  0.75263613489E+03  0.10212843442E+04  0.12699999809E+01 0.  1.
       -4    1    3    3    0  502 -0.59185456387E+03 -0.35534085393E+03 -0.82138225812E+03  0.10729535750E+04  0.12699999809E+01 0. -1.
</event>
<event>
 5   0  0.5866610E-05  0.2104087E+04  0.7818609E-02  0.8559445E-01
        2   -1    0    0  501    0  0.00000000000E+00  0.00000000000E+00  0.90103336872E+03  0.90103336872E+03  0.25500000920E-02 0.  1.
       -2   -1    0    0    0  501  0.00000000000E+00  0.00000000000E+00 -0.12283619514E+04  0.12283619514E+04  0.25500000920E-02 0. -1.
    10030    2    1    2    0    0  0.00000000000E+00  0.00000000000E+00 -0.32732858272E+03  0.21293953202E+04  0.21040866019E+04 0.  0.
        5    1    3    3  502    0 -0.24913964678E+03 -0.34960937498E+03  0.80834442795E+03  0.91528142277E+03  0.46999998093E+01 0.  1.
       -5    1    3    3    0  502  0.24913964678E+03  0.34960937498E+03 -0.11356730107E+04  0.12141138974E+04  0.46999998093E+01 0. -1.
</event>
<event>
 5   0  0.2604390E-05  0.2067972E+04  0.7818609E-02  0.8575485E-01
       -1   -1    0    0    0  501  0.00000000000E+00  0.00000000000E+00  0.80985232460E+03  0.80985232462E+03  0.50400001928E-02 0. -1.
        1   -1    0    0  501    0  0.00000000000E+00  0.00000000000E+00 -0.13201500181E+04  0.13201500181E+04  0.50400001928E-02 0.  1.
    10030    2    1    2    0    0  0.00000000000E+00  0.00000000000E+00 -0.51029769352E+03  0.21300023427E+04  0.20679715288E+04 0.  0.
        5    1    3    3  502    0 -0.87385769347E+03  0.53921604609E+03 -0.38012797483E+03  0.10949431858E+04  0.46999998093E+01 0. -1.
       -5    1    3    3    0  502  0.87385769347E+03 -0.53921604609E+03 -0.13016971869E+03  0.10350591570E+04  0.46999998093E+01 0.  1.
</event>
<event>
 5   0  0.2699285E-05  0.2091354E+04  0.7818609E-02  0.8565062E-01
       -1   -1    0    0    0  501  0.00000000000E+00  0.00000000000E+00  0.13615881583E+04  0.13615881583E+04  0.50400001928E-02 0.  1.
        1   -1    0    0  501    0  0.00000000000E+00  0.00000000000E+00 -0.80306250059E+03  0.80306250061E+03  0.50400001928E-02 0. -1.
    10030    2    1    2    0    0  0.00000000000E+00  0.00000000000E+00  0.55852565772E+03  0.21646506589E+04  0.20913540028E+04 0.  0.
        2    1    3    3  502    0 -0.77016641661E+03  0.58293080381E+03  0.69389690056E+03  0.11893096905E+04  0.25500000920E-02 0.  1.
       -2    1    3    3    0  502  0.77016641661E+03 -0.58293080381E+03 -0.13537124284E+03  0.97534096843E+03  0.25500000920E-02 0. -1.
</event>
<event>
 5   0  0.5506332E-05  0.2102283E+04  0.7818609E-02  0.8560238E-01
       -2   -1    0    0    0  501  0.00000000000E+00  0.00000000000E+00  0.49642192105E+03  0.49642192106E+03  0.25500000920E-02 0.  1.
        2   -1    0    0  501    0  0.00000000000E+00  0.00000000000E+00 -0.22257252099E+04  0.22257252099E+04  0.25500000920E-02 0. -1.
    10030    2    1    2    0    0  0.00000000000E+00  0.00000000000E+00 -0.17293032888E+04  0.27221471309E+04  0.21022833153E+04 0.  0.
        3    1    3    3  502    0 -0.10332584868E+04 -0.19178135682E+03 -0.89347731107E+03  0.13793856984E+04  0.10100000352E+00 0.  1.
       -3    1    3    3    0  502  0.10332584868E+04  0.19178135682E+03 -0.83582597773E+03  0.13427614325E+04  0.10100000352E+00 0. -1.
</event>
<event>
 5   0  0.2732159E-05  0.2021565E+04  0.7818609E-02  0.8596604E-01
       -1   -1    0    0    0  501  0.00000000000E+00  0.00000000000E+00  0.12457875830E+04  0.12457875830E+04  0.50400001928E-02 0.  1.
        1   -1    0    0  501    0  0.00000000000E+00  0.00000000000E+00 -0.82010844824E+03  0.82010844826E+03  0.50400001928E-02 0. -1.
    10030    2    1    2    0    0  0.00000000000E+00  0.00000000000E+00  0.42567913475E+03  0.20658960313E+04  0.20215646629E+04 0.  0.
        3    1    3    3  502    0 -0.67711905884E+02  0.57476710574E+03 -0.63403016501E+03  0.85844999178E+03  0.10100000352E+00 0. -1.
       -3    1    3    3    0  502  0.67711905884E+02 -0.57476710574E+03  0.10597092998E+04  0.12074460395E+04  0.10100000352E+00 0.  1.
</event>
<event>
 5   0  0.2732159E-05  0.2094448E+04  0.7818609E-02  0.8563693E-01
        1   -1    0    0  501    0  0.00000000000E+00  0.00000000000E+00  0.75871168466E+03  0.75871168468E+03  0.50400001928E-02 0. -1.
       -1   -1    0    0    0  501  0.00000000000E+00  0.00000000000E+00 -0.14454472965E+04  0.14454472965E+04  0.50400001928E-02 0.  1.
    10030    2    1    2    0    0  0.00000000000E+00  0.00000000000E+00 -0.68673561181E+03  0.22041589812E+04  0.20944476632E+04 0.  0.
        3    1    3    3  502    0 -0.54925570496E+03 -0.56990097947E+02  0.59304404785E+03  0.81032768285E+03  0.10100000352E+00 0. -1.
       -3    1    3    3    0  502  0.54925570496E+03  0.56990097947E+02 -0.12797796597E+04  0.13938312983E+04  0.10100000352E+00 0.  1.
</event>
<event>
 5   0  0.2732159E-05  0.2227719E+04  0.7818609E-02  0.8506979E-01
       -1   -1    0    0    0  501  0.00000000000E+00  0.00000000000E+00  0.80465965982E+03  0.80465965983E+03  0.50400001928E-02 0.  1.
        1   -1    0    0  501    0  0.00000000000E+00  0.00000000000E+00 -0.15418728055E+04  0.15418728055E+04  0.50400001928E-02 0. -1.
    10030    2    1    2    0    0  0.00000000000E+00  0.00000000000E+00 -0.73721314571E+03  0.23465324654E+04  0.22277188756E+04 0.  0.
        3    1    3    3  502    0 -0.94058309055E+03 -0.58557647999E+03 -0.24810922535E+03  0.11354094249E+04  0.10100000352E+00 0.  1.
       -3    1    3    3    0  502  0.94058309055E+03  0.58557647999E+03 -0.48910392036E+03  0.12111230405E+04  0.10100000352E+00 0. -1.
</event>
<event>
 5   0  0.2699285E-05  0.2094663E+04  0.7818609E-02  0.8563598E-01
        1   -1    0    0  501    0  0.00000000000E+00  0.00000000000E+00  0.80736464931E+03  0.80736464933E+03  0.50400001928E-02 0. -1.
       -1   -1    0    0    0  501  0.00000000000E+00  0.00000000000E+00 -0.13586216488E+04  0.13586216488E+04  0.50400001928E-02 0.  1.
    10030    2    1    2    0    0  0.00000000000E+00  0.00000000000E+00 -0.55125699951E+03  0.21659862982E+04  0.20946628283E+04 0.  0.
        2    1    3    3  502    0  0.20336985031E+03  0.73598901042E+03  0.46562313430E+03  0.89433999277E+03  0.25500000920E-02 0. -1.
       -2    1    3    3    0  502 -0.20336985031E+03 -0.73598901042E+03 -0.10168801338E+04  0.12716463054E+04  0.25500000920E-02 0.  1.
</event>
<event>
 5   0  0.2789662E-05  0.2096071E+04  0.7818609E-02  0.8562976E-01
        1   -1    0    0  501    0  0.00000000000E+00  0.00000000000E+00  0.12316219902E+04  0.12316219902E+04  0.50400001928E-02 0. -1.
       -1   -1    0    0    0  501  0.00000000000E+00  0.00000000000E+00 -0.89181430821E+03  0.89181430822E+03  0.50400001928E-02 0.  1.
    10030    2    1    2    0    0  0.00000000000E+00  0.00000000000E+00  0.33980768195E+03  0.21234362984E+04  0.20960707175E+04 0.  0.
        4    1    3    3  502    0  0.18243772938E+03  0.94651130745E+03 -0.24681721628E+03  0.99503142231E+03  0.12699999809E+01 0.  1.
       -4    1    3    3    0  502 -0.18243772938E+03 -0.94651130745E+03  0.58662489823E+03  0.11284048761E+04  0.12699999809E+01 0. -1.
</event>
<event>
 5   0  0.2789662E-05  0.2119231E+04  0.7818609E-02  0.8552819E-01
       -1   -1    0    0    0  501  0.00000000000E+00  0.00000000000E+00  0.10085487933E+04  0.10085487933E+04  0.50400001928E-02 0.  1.
        1   -1    0    0  501    0  0.00000000000E+00  0.00000000000E+00 -0.11132680034E+04  0.11132680034E+04  0.50400001928E-02 0. -1.
    10030    2    1    2    0    0  0.00000000000E+00  0.00000000000E+00 -0.10471921009E+03  0.21218167967E+04  0.21192310884E+04 0.  0.
        4    1    3    3  502    0  0.79473205975E+03  0.38100598041E+03  0.53659180750E+03  0.10318415502E+04  0.12699999809E+01 0.  1.
       -4    1    3    3    0  502 -0.79473205975E+03 -0.38100598041E+03 -0.64131101759E+03  0.10899752465E+04  0.12699999809E+01 0. -1.
</event>
<event>
 5   0  0.5506332E-05  0.2121112E+04  0.7818609E-02  0.8552000E-01
       -2   -1    0    0    0  501  0.00000000000E+00  0.00000000000E+00  0.47205425323E+03  0.47205425324E+03  0.25500000920E-02 0. -1.
        2   -1    0    0  501    0  0.00000000000E+00  0.00000000000E+00 -0.23827317114E+04  0.23827317114E+04  0.25500000920E-02 0.  1.
    10030    2    1    2    0    0  0.00000000000E+00  0.00000000000E+00 -0.19106774582E+04  0.28547859646E+04  0.21211116318E+04 0.  0.
        3    1    3    3  502    0 -0.84127472621E+03  0.61598146746E+03 -0.69435273279E+03  0.12527178697E+04  0.10100000352E+00 0. -1.
       -3    1    3    3    0  502  0.84127472621E+03 -0.61598146746E+03 -0.12163247254E+04  0.16020680950E+04  0.10100000352E+00 0.  1.
</event>
<event>
 5   0  0.5967046E-05  0.2070862E+04  0.7818609E-02  0.8574188E-01
       -2   -1    0    0    0  501  0.00000000000E+00  0.00000000000E+00  0.96278295894E+03  0.96278295894E+03  0.25500000920E-02 0.  1.
        2   -1    0    0  501    0  0.00000000000E+00  0.00000000000E+00 -0.11135612645E+04  0.11135612645E+04  0.25500000920E-02 0. -1.
    10030    2    1    2    0    0  0.00000000000E+00  0.00000000000E+00 -0.15077830553E+03  0.20763442234E+04  0.20708624379E+04 0.  0.
        4    1    3    3  502    0  0.96270004325E+02 -0.49393241828E+03  0.83192562204E+03  0.97228545246E+03  0.12699999809E+01 0.  1.
       -4    1    3    3    0  502 -0.96270004325E+02  0.49393241828E+03 -0.98270392757E+03  0.11040587710E+04  0.12699999809E+01 0. -1.
</event>
<event>
 5   0  0.5967046E-05  0.2094411E+04  0.7818609E-02  0.8563709E-01
       -2   -1    0    0    0  501  0.00000000000E+00  0.00000000000E+00  0.11033834410E+04  0.11033834410E+04  0.25500000920E-02 0. -1.
        2   -1    0    0  501    0  0.00000000000E+00  0.00000000000E+00 -0.99388828434E+03  0.99388828435E+03  0.25500000920E-02 0.  1.
    10030    2    1    2    0    0  0.00000000000E+00  0.00000000000E+00  0.10949515669E+03  0.20972717254E+04  0.20944114927E+04 0.  0.
        4    1    3    3  502    0 -0.46662770301E+02 -0.17349149022E+03  0.10878354867E+04  0.11025717075E+04  0.12699999809E+01 0. -1.
       -4    1    3    3    0  502  0.46662770301E+02  0.17349149022E+03 -0.97834032998E+03  0.99470001784E+03  0.12699999809E+01 0.  1.
</event>
<event>
 5   0  0.2604390E-05  0.2070709E+04  0.7818609E-02  0.8574257E-01
        1   -1    0    0  501    0  0.00000000000E+00  0.00000000000E+00  0.20476289969E+04  0.20476289969E+04  0.50400001928E-02 0.  1.
       -1   -1    0    0    0  501  0.00000000000E+00  0.00000000000E+00 -0.52351232720E+03  0.52351232723E+03  0.50400001928E-02 0. -1.
    10030    2    1    2    0    0  0.00000000000E+00  0.00000000000E+00  0.15241166697E+04  0.25711413241E+04  0.20707090780E+04 0.  0.
        5    1    3    3  502    0 -0.15067496071E+03  0.87416533773E+03  0.99106740962E+02  0.89258737252E+03  0.46999998093E+01 0. -1.
       -5    1    3    3    0  502  0.15067496071E+03 -0.87416533773E+03  0.14250099287E+04  0.16785539516E+04  0.46999998093E+01 0.  1.
</event>
<event>
 5   0  0.2732159E-05  0.2108485E+04  0.7818609E-02  0.8557515E-01
       -1   -1    0    0    0  501  0.00000000000E+00  0.00000000000E+00  0.13751195403E+04  0.13751195403E+04  0.50400001928E-02 0.  1.
        1   -1    0    0  501    0  0.00000000000E+00  0.00000000000E+00 -0.80824030812E+03  0.80824030814E+03  0.50400001928E-02 0. -1.
    10030    2    1    2    0    0  0.00000000000E+00  0.00000000000E+00  0.56687923217E+03  0.21833598484E+04  0.21084848029E+04 0.  0.
        3    1    3    3  502    0  0.27884340621E+03  0.52853929351E+02  0.13348175775E+04  0.13646556922E+04  0.10100000352E+00 0.  1.
       -3    1    3    3    0  502 -0.27884340621E+03 -0.52853929351E+02 -0.76793834529E+03  0.81870415621E+03  0.10100000352E+00 0. -1.
</event>
<event>
 5   0  0.5967046E-05  0.2096996E+04  0.7818609E-02  0.8562568E-01
       -2   -1    0    0    0  501  0.00000000000E+00  0.00000000000E+00  0.39366598393E+03  0.39366598393E+03  0.25500000920E-02 0. -1.
        2   -1    0    0  501    0  0.00000000000E+00  0.00000000000E+00 -0.27925914366E+04  0.27925914366E+04  0.25500000920E-02 0.  1.
    10030    2    1    2    0    0  0.00000000000E+00  0.00000000000E+00 -0.23989254526E+04  0.31862574205E+04  0.20969961904E+04 0.  0.
        4    1    3    3  502    0  0.66301913344E+03  0.18604655902E+03  0.18926538026E+01  0.68863117013E+03  0.12699999809E+01 0. -1.
       -4    1    3    3    0  502 -0.66301913344E+03 -0.18604655902E+03 -0.24008181064E+04  0.24976262504E+04  0.12699999809E+01 0.  1.
</event>
<event>
 5   0  0.5866610E-05  0.1895725E+04  0.7818609E-02  0.8656987E-01
       -2   -1    0    0    0  501  0.00000000000E+00  0.00000000000E+00  0.86096139383E+03  0.86096139383E+03  0.25500000920E-02 0. -1.
        2   -1    0    0  501    0  0.00000000000E+00  0.00000000000E+00 -0.10435353232E+04  0.10435353232E+04  0.25500000920E-02 0.  1.
    10030    2    1    2    0    0  0.00000000000E+00  0.00000000000E+00 -0.18257392942E+03  0.19044967171E+04  0.18957253244E+04 0.  0.
        5    1    3    3  502    0 -0.16414370673E+03 -0.18561775199E+03 -0.10104104930E+04  0.10403598227E+04  0.46999998093E+01 0.  1.
       -5    1    3    3    0  502  0.16414370673E+03  0.18561775199E+03  0.82783656356E+03  0.86413689441E+03  0.46999998093E+01 0. -1.
</event>
<event>
 5   0  0.2604390E-05  0.2102954E+04  0.7818609E-02  0.8559943E-01
       -1   -1    0    0    0  501  0.00000000000E+00  0.00000000000E+00  0.11300971341E+04  0.11300971341E+04  0.50400001928E-02 0. -1.
        1   -1    0    0  501    0  0.00000000000E+00  0.00000000000E+00 -0.97832624048E+03  0.97832624050E+03  0.50400001928E-02 0.  1.
    10030    2    1    2    0    0  0.00000000000E+00  0.00000000000E+00  0.15177089357E+03  0.21084233746E+04  0.21029538089E+04 0.  0.
        5    1    3    3  502    0 -0.95529771464E+03 -0.17623332068E+03 -0.32756604202E+03  0.10251699902E+04  0.46999998093E+01 0. -1.
       -5    1    3    3    0  502  0.95529771464E+03  0.17623332068E+03  0.47933693559E+03  0.10832533844E+04  0.46999998093E+01 0.  1.
</event>
<event>
 5   0  0.2732159E-05  0.2071169E+04  0.7818609E-02  0.8574051E-01
       -1   -1    0    0    0  501  0.00000000000E+00  0.00000000000E+00  0.10779208391E+04  0.10779208391E+04  0.50400001928E-02 0. -1.
        1   -1    0    0  501    0  0.00000000000E+00  0.00000000000E+00 -0.99491082362E+03  0.99491082363E+03  0.50400001928E-02 0.  1.
    10030    2    1    2    0    0  0.00000000000E+00  0.00000000000E+00  0.83010015445E+02  0.20728316627E+04  0.20711688582E+04 0.  0.
        3    1    3    3  502    0  0.75521196266E+02 -0.20186237783E+03  0.10552265071E+04  0.10770120065E+04  0.10100000352E+00 0. -1.
       -3    1    3    3    0  502 -0.75521196266E+02  0.20186237783E+03 -0.97221649169E+03  0.99581965616E+03  0.10100000352E+00 0.  1.
</event>
<event>
 5   0  0.5954140E-05  0.2101952E+04  0.7818609E-02  0.8560384E-01
       -2   -1    0    0    0  501  0.00000000000E+00  0.00000000000E+00  0.11466526251E+04  0.11466526251E+04  0.25500000920E-02 0.  1.
        2   -1    0    0  501    0  0.00000000000E+00  0.00000000000E+00 -0.96328293954E+03  0.96328293954E+03  0.25500000920E-02 0. -1.
    10030    2    1    2    0    0  0.00000000000E+00  0.00000000000E+00  0.18336968551E+03  0.21099355646E+04  0.21019523413E+04 0.  0.
        2    1    3    3  502    0 -0.21335256483E+03 -0.82172496935E+03  0.71355343875E+03  0.11090129630E+04  0.25500000920E-02 0.  1.
       -2    1    3    3    0  502  0.21335256483E+03  0.82172496935E+03 -0.53018375323E+03  0.10009226016E+04  0.25500000920E-02 0. -1.
</event>
<event>
 5   0  0.5866610E-05  0.2115254E+04  0.7818609E-02  0.8554553E-01
        2   -1    0    0  501    0  0.00000000000E+00  0.00000000000E+00  0.75710311055E+03  0.75710311055E+03  0.25500000920E-02 0.  1.
       -2   -1    0    0    0  501  0.00000000000E+00  0.00000000000E+00 -0.14774411154E+04  0.14774411154E+04  0.25500000920E-02 0. -1.
    10030    2    1    2    0    0  0.00000000000E+00  0.00000000000E+00 -0.72033800483E+03  0.22345442259E+04  0.21152543716E+04 0.  0.
        5    1    3    3  502    0 -0.58456235237E+03  0.17279942792E+03 -0.12731903944E+04  0.14115979089E+04  0.46999998093E+01 0. -1.
       -5    1    3    3    0  502  0.58456235237E+03 -0.17279942792E+03  0.55285238954E+03  0.82294631703E+03  0.46999998093E+01 0.  1.
</event>
<event>
 5   0  0.5462851E-05  0.2081021E+04  0.7818609E-02  0.8569650E-01
       -2   -1    0    0    0  501  0.00000000000E+00  0.00000000000E+00  0.80530825932E+03  0.80530825932E+03  0.25500000920E-02 0. -1.
        2   -1    0    0  501    0  0.00000000000E+00  0.00000000000E+00 -0.13444066688E+04  0.13444066688E+04  0.25500000920E-02 0.  1.
    10030    2    1    2    0    0  0.00000000000E+00  0.00000000000E+00 -0.53909840953E+03  0.21497149282E+04  0.20810207056E+04 0.  0.
        1    1    3    3  502    0  0.51005766732E+03  0.78926028812E+03 -0.73102972162E+03  0.11905860239E+04  0.50400001928E-02 0.  1.
       -1    1    3    3    0  502 -0.51005766732E+03 -0.78926028812E+03  0.19193131209E+03  0.95912890426E+03  0.50400001928E-02 0. -1.
</event>
<event>
 5   0  0.5967046E-05  0.2068860E+04  0.7818609E-02  0.8575086E-01
        2   -1    0    0  501    0  0.00000000000E+00  0.00000000000E+00  0.16096443100E+04  0.16096443100E+04  0.25500000920E-02 0. -1.
       -2   -1    0    0    0  501  0.00000000000E+00  0.00000000000E+00 -0.66477118201E+03  0.66477118201E+03  0.25500000920E-02 0.  1.
    10030    2    1    2    0    0  0.00000000000E+00  0.00000000000E+00  0.94487312797E+03  0.22744154920E+04  0.20688597348E+04 0.  0.
        4    1    3    3  502    0  0.10049307212E+04  0.23621333681E+03  0.39983701394E+03  0.11070473095E+04  0.12699999809E+01 0. -1.
       -4    1    3    3    0  502 -0.10049307212E+04 -0.23621333681E+03  0.54503611403E+03  0.11673681825E+04  0.12699999809E+01 0.  1.
</event>
<event>
 5   0  0.5866610E-05  0.2098296E+04  0.7818609E-02  0.8561995E-01
       -2   -1    0    0    0  501  0.00000000000E+00  0.00000000000E+00  0.72927755284E+03  0.72927755284E+03  0.25500000920E-02 0.  1.
        2   -1    0    0  501    0  0.00000000000E+00  0.00000000000E+00 -0.15093171333E+04  0.15093171333E+04  0.25500000920E-02 0. -1.
    10030    2    1    2    0    0  0.00000000000E+00  0.00000000000E+00 -0.78003958043E+03  0.22385946861E+04  0.20982955992E+04 0.  0.
        5    1    3    3  502    0 -0.91052243363E+03  0.15985968712E+03 -0.91925584466E+03  0.13037099446E+04  0.46999998093E+01 0. -1.
       -5    1    3    3    0  502  0.91052243363E+03 -0.15985968712E+03  0.13921626422E+03  0.93488474152E+03  0.46999998093E+01 0.  1.
</event>
<event>
 5   0  0.5506332E-05  0.2115682E+04  0.7818609E-02  0.8554366E-01
        2   -1    0    0  501    0  0.00000000000E+00  0.00000000000E+00  0.91915170833E+03  0.91915170833E+03  0.25500000920E-02 0. -1.
       -2   -1    0    0    0  501  0.00000000000E+00  0.00000000000E+00 -0.12174573382E+04  0.12174573382E+04  0.25500000920E-02 0.  1.
    10030    2    1    2    0    0  0.00000000000E+00  0.00000000000E+00 -0.29830562985E+03  0.21366090465E+04  0.21156823885E+04 0.  0.
        3    1    3    3  502    0 -0.55307066533E+03 -0.65691390702E+03  0.47469920565E+03  0.98120455977E+03  0.10100000352E+00 0. -1.
       -3    1    3    3    0  502  0.55307066533E+03  0.65691390702E+03 -0.77300483549E+03  0.11554044867E+04  0.10100000352E+00 0.  1.
</event>
<event>
 5   0  0.2789662E-05  0.2080195E+04  0.7818609E-02  0.8570018E-01
       -1   -1    0    0    0  501  0.00000000000E+00  0.00000000000E+00  0.67971333387E+03  0.67971333389E+03  0.50400001928E-02 0.  1.
        1   -1    0    0  501    0  0.00000000000E+00  0.00000000000E+00 -0.15915579728E+04  0.15915579728E+04  0.50400001928E-02 0. -1.
    10030    2    1    2    0    0  0.00000000000E+00  0.00000000000E+00 -0.91184463892E+03  0.22712713067E+04  0.20801953521E+04 0.  0.
        4    1    3    3  502    0 -0.22490221050E+03  0.93780948389E+03 -0.30611680341E+02  0.96488668777E+03  0.12699999809E+01 0.  1.
       -4    1    3    3    0  502  0.22490221050E+03 -0.93780948389E+03 -0.88123295858E+03  0.13063846189E+04  0.12699999809E+01 0. -1.
</event>
<event>
 5   0  0.5866610E-05  0.2066005E+04  0.7818609E-02  0.8576368E-01
       -2   -1    0    0    0  501  0.00000000000E+00  0.00000000000E+00  0.79058659840E+03  0.79058659841E+03  0.25500000920E-02 0.  1.
        2   -1    0    0  501    0  0.00000000000E+00  0.00000000000E+00 -0.13497493394E+04  0.13497493394E+04  0.25500000920E-02 0. -1.
    10030    2    1    2    0    0  0.00000000000E+00  0.00000000000E+00 -0.55916274095E+03  0.21403359378E+04  0.20660045875E+04 0.  0.
        5    1    3    3  502    0 -0.15418897310E+03  0.98629967736E+03 -0.44899058250E+01  0.99830032667E+03  0.46999998093E+01 0. -1.
       -5    1    3    3    0  502  0.15418897310E+03 -0.98629967736E+03 -0.55467283513E+03  0.11420356111E+04  0.46999998093E+01 0.  1.
</event>
<event>
 5   0  0.2604390E-05  0.2095831E+04  0.7818609E-02  0.8563082E-01
        1   -1    0    0  501    0  0.00000000000E+00  0.00000000000E+00  0.11541514939E+04  0.11541514939E+04  0.50400001928E-02 0.  1.
       -1   -1    0    0    0  501  0.00000000000E+00  0.00000000000E+00 -0.95145821084E+03  0.95145821085E+03  0.50400001928E-02 0. -1.
    10030    2    1    2    0    0  0.00000000000E+00  0.00000000000E+00  0.20269328308E+03  0.21056097048E+04  0.20958310194E+04 0.  0.
        5    1    3    3  502    0  0.10782153299E+03 -0.46309092738E+03 -0.83683376880E+03  0.96249235665E+03  0.46999998093E+01 0. -1.
       -5    1    3    3    0  502 -0.10782153299E+03  0.46309092738E+03  0.10395270519E+04  0.11431173481E+04  0.46999998093E+01 0.  1.
</event>
<event>
 5   0  0.2604390E-05  0.2103324E+04  0.7818609E-02  0.8559781E-01
       -1   -1    0    0    0  501  0.00000000000E+00  0.00000000000E+00  0.88547496074E+03  0.88547496075E+03  0.50400001928E-02 0.  1.
        1   -1    0    0  501    0  0.00000000000E+00  0.00000000000E+00 -0.12490391945E+04  0.12490391945E+04  0.50400001928E-02 0. -1.
    10030    2    1    2    0    0  0.00000000000E+00  0.00000000000E+00 -0.36356423372E+03  0.21345141552E+04  0.21033239710E+04 0.  0.
        5    1    3    3  502    0 -0.49640496485E+03 -0.87882011493E+03  0.11794167553E+03  0.10162061859E+04  0.46999998093E+01 0.  1.
       -5    1    3    3    0  502  0.49640496485E+03  0.87882011493E+03 -0.48150590925E+03  0.11183079693E+04  0.46999998093E+01 0. -1.
</event>
<event>
 5   0  0.2604390E-05  0.1898363E+04  0.7818609E-02  0.8655672E-01
       -1   -1    0    0    0  501  0.00000000000E+00  0.00000000000E+00  0.67304936504E+03  0.67304936506E+03  0.50400001928E-02 0.  1.
        1   -1    0    0  501    0  0.00000000000E+00  0.00000000000E+00 -0.13386027645E+04  0.13386027645E+04  0.50400001928E-02 0. -1.
    10030    2    1    2    0    0  0.00000000000E+00  0.00000000000E+00 -0.66555339944E+03  0.20116521296E+04  0.18983632326E+04 0.  0.
        5    1    3    3  502    0 -0.87025924134E+02 -0.51527888588E+03  0.50687138238E+03  0.72802920956E+03  0.46999998093E+01 0.  1.
       -5    1    3    3    0  502  0.87025924134E+02  0.51527888588E+03 -0.11724247818E+04  0.12836229200E+04  0.46999998093E+01 0. -1.
</event>
<event>
 5   0  0.2602060E-05  0.2088891E+04  0.7818609E-02  0.8566153E-01
       -1   -1    0    0    0  501  0.00000000000E+00  0.00000000000E+00  0.91820805854E+03  0.91820805855E+03  0.50400001928E-02 0.  1.
        1   -1    0    0  501    0  0.00000000000E+00  0.00000000000E+00 -0.11880380111E+04  0.11880380112E+04  0.50400001928E-02 0. -1.
    10030    2    1    2    0    0  0.00000000000E+00  0.00000000000E+00 -0.26982995261E+03  0.21062460697E+04  0.20888906871E+04 0.  0.
        1    1    3    3  502    0  0.54959941683E+03 -0.72881778822E+03 -0.64670593862E+03  0.11186882758E+04  0.50400001928E-02 0. -1.
       -1    1    3    3    0  502 -0.54959941683E+03  0.72881778822E+03  0.37687598601E+03  0.98755779388E+03  0.50400001928E-02 0.  1.
</event>
<event>
 5   0  0.5506332E-05  0.2121968E+04  0.7818609E-02  0.8551628E-01
        2   -1    0    0  501    0  0.00000000000E+00  0.00000000000E+00  0.90721184536E+03  0.90721184536E+03  0.25500000920E-02 0.  1.
       -2   -1    0    0    0  501  0.00000000000E+00  0.00000000000E+00 -0.12408201448E+04  0.12408201448E+04  0.25500000920E-02 0. -1.
    10030    2    1    2    0    0  0.00000000000E+00  0.00000000000E+00 -0.33360829943E+03  0.21480319901E+04  0.21219677032E+04 0.  0.
        3    1    3    3  502    0 -0.23701255638E+03  0.97924513323E+03 -0.50344076998E+03  0.11262986291E+04  0.10100000352E+00 0. -1.
       -3    1    3    3    0  502  0.23701255638E+03 -0.97924513323E+03  0.16983247055E+03  0.10217333611E+04  0.10100000352E+00 0.  1.
</event>
<event>
 5   0  0.2017750E-05  0.2105499E+04  0.7818609E-02  0.8558825E-01
        4   -1    0    0  501    0  0.00000000000E+00  0.00000000000E+00  0.13552875713E+04  0.13552881663E+04  0.12699999809E+01 0.  1.
       -4   -1    0    0    0  501  0.00000000000E+00  0.00000000000E+00 -0.81774496559E+03  0.81774595178E+03  0.12699999809E+01 0. -1.
    10030    2    1    2    0    0  0.00000000000E+00  0.00000000000E+00  0.53754260570E+03  0.21730341181E+04  0.21054988068E+04 0.  0.
        5    1    3    3  502    0  0.66094594315E+03 -0.68117683997E+03  0.73879967805E+03  0.12027877956E+04  0.46999998093E+01 0.  1.
       -5    1    3    3    0  502 -0.66094594315E+03  0.68117683997E+03 -0.20125707235E+03  0.97024632246E+03  0.46999998093E+01 0. -1.
</event>
<event>
 5   0  0.2789662E-05  0.2087859E+04  0.7818609E-02  0.8566610E-01
       -1   -1    0    0    0  501  0.00000000000E+00  0.00000000000E+00  0.98095589244E+03  0.98095589245E+03  0.50400001928E-02 0. -1.
        1   -1    0    0  501    0  0.00000000000E+00  0.00000000000E+00 -0.11109460986E+04  0.11109460986E+04  0.50400001928E-02 0.  1.
    10030    2    1    2    0    0  0.00000000000E+00  0.00000000000E+00 -0.12999020619E+03  0.20919019911E+04  0.20878593072E+04 0.  0.
        4    1    3    3  502    0  0.23467358274E+03 -0.54885414965E+03  0.79309470513E+03  0.99262953423E+03  0.12699999809E+01 0. -1.
       -4    1    3    3    0  502 -0.23467358274E+03  0.54885414965E+03 -0.92308491132E+03  0.10992724569E+04  0.12699999809E+01 0.  1.
</event>
<event>
 5   0  0.5967046E-05  0.2097417E+04  0.7818609E-02  0.8562382E-01
       -2   -1    0    0    0  501  0.00000000000E+00  0.00000000000E+00  0.72612440362E+03  0.72612440363E+03  0.25500000920E-02 0. -1.
        2   -1    0    0  501    0  0.00000000000E+00  0.00000000000E+00 -0.15146026429E+04  0.15146026429E+04  0.25500000920E-02 0.  1.
    10030    2    1    2    0    0  0.00000000000E+00  0.00000000000E+00 -0.78847823923E+03  0.22407270465E+04  0.20974174032E+04 0.  0.
        4    1    3    3  502    0  0.32462394315E+03  0.94841022660E+03 -0.65087562217E+02  0.10045400271E+04  0.12699999809E+01 0. -1.
       -4    1    3    3    0  502 -0.32462394315E+03 -0.94841022660E+03 -0.72339067702E+03  0.12361870194E+04  0.12699999809E+01 0.  1.
</event>
<event>
 5   0  0.5954140E-05  0.2116015E+04  0.7818609E-02  0.8554221E-01
        2   -1    0    0  501    0  0.00000000000E+00  0.00000000000E+00  0.11869505017E+04  0.11869505017E+04  0.25500000920E-02 0. -1.
       -2   -1    0    0    0  501  0.00000000000E+00  0.00000000000E+00 -0.94307226934E+03  0.94307226934E+03  0.25500000920E-02 0.  1.
    10030    2    1    2    0    0  0.00000000000E+00  0.00000000000E+00  0.24387823238E+03  0.21300227711E+04  0.21160152204E+04 0.  0.
        2    1    3    3  502    0  0.51157471278E+03  0.31042985300E+03  0.10002428339E+04  0.11655732955E+04  0.25500000920E-02 0. -1.
       -2    1    3    3    0  502 -0.51157471278E+03 -0.31042985300E+03 -0.75636460155E+03  0.96444947554E+03  0.25500000920E-02 0.  1.
</event>
<event>
 5   0  0.2602060E-05  0.2101259E+04  0.7818609E-02  0.8560689E-01
       -1   -1    0    0    0  501  0.00000000000E+00  0.00000000000E+00  0.10053212887E+04  0.10053212887E+04  0.50400001928E-02 0.  1.
        1   -1    0    0  501    0  0.00000000000E+00  0.00000000000E+00 -0.10979801315E+04  0.10979801315E+04  0.50400001928E-02 0. -1.
    10030    2    1    2    0    0  0.00000000000E+00  0.00000000000E+00 -0.92658842813E+02  0.21033014203E+04  0.21012594327E+04 0.  0.
        1    1    3    3  502    0 -0.95280533697E+03  0.17778588405E+03 -0.45215771742E+03  0.10695290703E+04  0.50400001928E-02 0. -1.
       -1    1    3    3    0  502  0.95280533697E+03 -0.17778588405E+03  0.35949887461E+03  0.10337723500E+04  0.50400001928E-02 0.  1.
</event>
<event>
 5   0  0.5866610E-05  0.2084285E+04  0.7818609E-02  0.8568198E-01
        2   -1    0    0  501    0  0.00000000000E+00  0.00000000000E+00  0.18306682842E+04  0.18306682842E+04  0.25500000920E-02 0. -1.
       -2   -1    0    0    0  501  0.00000000000E+00  0.00000000000E+00 -0.59325904469E+03  0.59325904469E+03  0.25500000920E-02 0.  1.
    10030    2    1    2    0    0  0.00000000000E+00  0.00000000000E+00  0.12374092395E+04  0.24239273289E+04  0.20842845463E+04 0.  0.
        5    1    3    3  502    0 -0.85042877887E+02 -0.21317267227E+03 -0.56349048206E+03  0.60845582638E+03  0.46999998093E+01 0.  1.
       -5    1    3    3    0  502  0.85042877887E+02  0.21317267227E+03  0.18008997216E+04  0.18154715025E+04  0.46999998093E+01 0. -1.
</event>
<event>
 5   0  0.2732159E-05  0.1983883E+04  0.7818609E-02  0.8614193E-01
        1   -1    0    0  501    0  0.00000000000E+00  0.00000000000E+00  0.98669350816E+03  0.98669350817E+03  0.50400001928E-02 0.  1.
       -1   -1    0    0    0  501  0.00000000000E+00  0.00000000000E+00 -0.99721747653E+03  0.99721747654E+03  0.50400001928E-02 0. -1.
    10030    2    1    2    0    0  0.00000000000E+00  0.00000000000E+00 -0.10523968367E+02  0.19839109847E+04  0.19838830715E+04 0.  0.
        3    1    3    3  502    0  0.27417271977E+03 -0.16783323162E+03 -0.94368305531E+03  0.99693349477E+03  0.10100000352E+00 0. -1.
       -3    1    3    3    0  502 -0.27417271977E+03  0.16783323162E+03  0.93315908695E+03  0.98697748994E+03  0.10100000352E+00 0.  1.
</event>
<event>
 5   0  0.5967046E-05  0.2087785E+04  0.7818609E-02  0.8566643E-01
       -2   -1    0    0    0  501  0.00000000000E+00  0.00000000000E+00  0.87935714586E+03  0.87935714587E+03  0.25500000920E-02 0.  1.
        2   -1    0    0  501    0  0.00000000000E+00  0.00000000000E+00 -0.12392137285E+04  0.12392137285E+04  0.25500000920E-02 0. -1.
    10030    2    1    2    0    0  0.00000000000E+00  0.00000000000E+00 -0.35985658268E+03  0.21185708744E+04  0.20877849003E+04 0.  0.
        4    1    3    3  502    0  0.61602789520E+03 -0.44295289762E+03 -0.90744665084E+03  0.11828603782E+04  0.12699999809E+01 0. -1.
       -4    1    3    3    0  502 -0.61602789520E+03  0.44295289762E+03  0.54759006816E+03  0.93571049627E+03  0.12699999809E+01 0.  1.
</event>
<event>
 5   0  0.2017750E-05  0.2127831E+04  0.7818609E-02  0.8549082E-01
       -4   -1    0    0    0  501  0.00000000000E+00  0.00000000000E+00  0.13729842946E+04  0.13729848819E+04  0.12699999809E+01 0.  1.
        4   -1    0    0  501    0  0.00000000000E+00  0.00000000000E+00 -0.82441920959E+03  0.82442018779E+03  0.12699999809E+01 0. -1.
    10030    2    1    2    0    0  0.00000000000E+00  0.00000000000E+00  0.54856508498E+03  0.21974050697E+04  0.21278311465E+04 0.  0.
        5    1    3    3  502    0  0.52216621693E+03  0.92672064994E+03  0.25297952880E+03  0.10933844032E+04  0.46999998093E+01 0. -1.
       -5    1    3    3    0  502 -0.52216621693E+03 -0.92672064994E+03  0.29558555618E+03  0.11040206665E+04  0.46999998093E+01 0.  1.
</event>
<event>
 5   0  0.2732159E-05  0.2110498E+04  0.7818609E-02  0.8556633E-01
       -1   -1    0    0    0  501  0.00000000000E+00  0.00000000000E+00  0.13610786753E+04  0.13610786753E+04  0.50400001928E-02 0. -1.
        1   -1    0    0  501    0  0.00000000000E+00  0.00000000000E+00 -0.81813799336E+03  0.81813799337E+03  0.50400001928E-02 0.  1.
    10030    2    1    2    0    0  0.00000000000E+00  0.00000000000E+00  0.54294068190E+03  0.21792166686E+04  0.21104977386E+04 0.  0.
        3    1    3    3  502    0  0.63437159087E+03 -0.50310729286E+02  0.11406579885E+04  0.13061619890E+04  0.10100000352E+00 0. -1.
       -3    1    3    3    0  502 -0.63437159087E+03  0.50310729286E+02 -0.59771730657E+03  0.87305467959E+03  0.10100000352E+00 0.  1.
</event>
<event>
 5   0  0.2602060E-05  0.2099370E+04  0.7818609E-02  0.8561521E-01
       -1   -1    0    0    0  501  0.00000000000E+00  0.00000000000E+00  0.14070329292E+04  0.14070329292E+04  0.50400001928E-02 0. -1.
        1   -1    0    0  501    0  0.00000000000E+00  0.00000000000E+00 -0.78309381590E+03  0.78309381592E+03  0.50400001928E-02 0.  1.
    10030    2    1    2    0    0  0.00000000000E+00  0.00000000000E+00  0.62393911331E+03  0.21901267451E+04  0.20993701776E+04 0.  0.
        1    1    3    3  502    0  0.10117989430E+04  0.12364149447E+03  0.57343244792E+03  0.11695508080E+04  0.50400001928E-02 0. -1.
       -1    1    3    3    0  502 -0.10117989430E+04 -0.12364149447E+03  0.50506665394E+02  0.10205759371E+04  0.50400001928E-02 0.  1.
</event>
<event>
 5   0  0.2732159E-05  0.2112190E+04  0.7818609E-02  0.8555893E-01
        1   -1    0    0  501    0  0.00000000000E+00  0.00000000000E+00  0.11760969057E+04  0.11760969057E+04  0.50400001928E-02 0. -1.
       -1   -1    0    0    0  501  0.00000000000E+00  0.00000000000E+00 -0.94833740004E+03  0.94833740005E+03  0.50400001928E-02 0.  1.
    10030    2    1    2    0    0  0.00000000000E+00  0.00000000000E+00  0.22775950566E+03  0.21244343058E+04  0.21121900310E+04 0.  0.
        3    1    3    3  502    0  0.89220378459E+03  0.46622810675E+03 -0.20725222169E+03  0.10277887596E+04  0.10100000352E+00 0. -1.
       -3    1    3    3    0  502 -0.89220378459E+03 -0.46622810675E+03  0.43501172735E+03  0.10966455462E+04  0.10100000352E+00 0.  1.
</event>
<event>
 5   0  0.5967046E-05  0.2081780E+04  0.7818609E-02  0.8569312E-01
       -2   -1    0    0    0  501  0.00000000000E+00  0.00000000000E+00  0.11217730372E+04  0.11217730372E+04  0.25500000920E-02 0.  1.
        2   -1    0    0  501    0  0.00000000000E+00  0.00000000000E+00 -0.96583926909E+03  0.96583926910E+03  0.25500000920E-02 0. -1.
    10030    2    1    2    0    0  0.00000000000E+00  0.00000000000E+00  0.15593376806E+03  0.20876123063E+04  0.20817804402E+04 0.  0.
        4    1    3    3  502    0 -0.93350753239E+03  0.38795139010E+03 -0.17073643801E+03  0.10252293101E+04  0.12699999809E+01 0.  1.
       -4    1    3    3    0  502  0.93350753239E+03 -0.38795139010E+03  0.32667020608E+03  0.10623829962E+04  0.12699999809E+01 0. -1.
</event>
<event>
 5   0  0.5462851E-05  0.2112101E+04  0.7818609E-02  0.8555931E-01
       -2   -1    0    0    0  501  0.00000000000E+00  0.00000000000E+00  0.74262612008E+03  0.74262612009E+03  0.25500000920E-02 0.  1.
        2   -1    0    0  501    0  0.00000000000E+00  0.00000000000E+00 -0.15017557614E+04  0.15017557614E+04  0.25500000920E-02 0. -1.
    10030    2    1    2    0    0  0.00000000000E+00  0.00000000000E+00 -0.75912964133E+03  0.22443818815E+04  0.21121013749E+04 0.  0.
        1    1    3    3  502    0  0.96680754117E+03  0.38784152082E+03 -0.19518955352E+03  0.10598286790E+04  0.50400001928E-02 0.  1.
       -1    1    3    3    0  502 -0.96680754117E+03 -0.38784152082E+03 -0.56394008781E+03  0.11845532025E+04  0.50400001928E-02 0. -1.
</event>
<event>
 5   0  0.2017750E-05  0.2128609E+04  0.7818609E-02  0.8548745E-01
        4   -1    0    0  501    0  0.00000000000E+00  0.00000000000E+00  0.72099175363E+03  0.72099287216E+03  0.12699999809E+01 0. -1.
       -4   -1    0    0    0  501  0.00000000000E+00  0.00000000000E+00 -0.15710889737E+04  0.15710894870E+04  0.12699999809E+01 0.  1.
    10030    2    1    2    0    0  0.00000000000E+00  0.00000000000E+00 -0.85009722010E+03  0.22920823592E+04  0.21286089960E+04 0.  0.
        5    1    3    3  502    0 -0.36296099316E+03 -0.10004490025E+04 -0.41523347331E+03  0.11424009001E+04  0.46999998093E+01 0.  1.
       -5    1    3    3    0  502  0.36296099316E+03  0.10004490025E+04 -0.43486374679E+03  0.11496814591E+04  0.46999998093E+01 0. -1.
</event>
<event>
 5   0  0.2699285E-05  0.2105178E+04  0.7818609E-02  0.8558966E-01
       -1   -1    0    0    0  501  0.00000000000E+00  0.00000000000E+00  0.10830969176E+04  0.10830969176E+04  0.50400001928E-02 0.  1.
        1   -1    0    0  501    0  0.00000000000E+00  0.00000000000E+00 -0.10229408259E+04  0.10229408259E+04  0.50400001928E-02 0. -1.
    10030    2    1    2    0    0  0.00000000000E+00  0.00000000000E+00  0.60156091673E+02  0.21060377436E+04  0.21051784300E+04 0.  0.
        2    1    3    3  502    0 -0.64046217511E+03  0.81410647699E+03 -0.15703546798E+03  0.10476742298E+04  0.25500000920E-02 0.  1.
       -2    1    3    3    0  502  0.64046217511E+03 -0.81410647699E+03  0.21719155966E+03  0.10583635137E+04  0.25500000920E-02 0. -1.
</event>
<event>
 5   0  0.2017750E-05  0.2100190E+04  0.7818609E-02  0.8561160E-01
       -3   -1    0    0    0  501  0.00000000000E+00  0.00000000000E+00  0.57418106150E+03  0.57418107038E+03  0.10100000352E+00 0.  1.
        3   -1    0    0  501    0  0.00000000000E+00  0.00000000000E+00 -0.19204735520E+04  0.19204735546E+04  0.10100000352E+00 0. -1.
    10030    2    1    2    0    0  0.00000000000E+00  0.00000000000E+00 -0.13462924905E+04  0.24946546250E+04  0.21001900457E+04 0.  0.
        1    1    3    3  502    0 -0.10021094205E+04 -0.19286372501E+02 -0.10451915762E+04  0.14481093487E+04  0.50400001928E-02 0. -1.
       -1    1    3    3    0  502  0.10021094205E+04  0.19286372501E+02 -0.30110091425E+03  0.10465452763E+04  0.50400001928E-02 0.  1.
</event>
<event>
 5   0  0.5967046E-05  0.2106825E+04  0.7818609E-02  0.8558243E-01
        2   -1    0    0  501    0  0.00000000000E+00  0.00000000000E+00  0.20044416369E+04  0.20044416369E+04  0.25500000920E-02 0. -1.
       -2   -1    0    0    0  501  0.00000000000E+00  0.00000000000E+00 -0.55360971368E+03  0.55360971369E+03  0.25500000920E-02 0.  1.
    10030    2    1    2    0    0  0.00000000000E+00  0.00000000000E+00  0.14508319232E+04  0.25580513506E+04  0.21068254419E+04 0.  0.
        4    1    3    3  502    0 -0.75341002535E+03 -0.19745398446E+03 -0.13575913609E+03  0.79059907552E+03  0.12699999809E+01 0.  1.
       -4    1    3    3    0  502  0.75341002535E+03  0.19745398446E+03  0.15865910593E+04  0.17674522750E+04  0.12699999809E+01 0. -1.
</event>
<event>
 5   0  0.2732159E-05  0.2103260E+04  0.7818609E-02  0.8559809E-01
       -1   -1    0    0    0  501  0.00000000000E+00  0.00000000000E+00  0.10015151373E+04  0.10015151373E+04  0.50400001928E-02 0. -1.
        1   -1    0    0  501    0  0.00000000000E+00  0.00000000000E+00 -0.11042525542E+04  0.11042525542E+04  0.50400001928E-02 0.  1.
    10030    2    1    2    0    0  0.00000000000E+00  0.00000000000E+00 -0.10273741692E+03  0.21057676915E+04  0.21032599920E+04 0.  0.
        3    1    3    3  502    0 -0.23100167525E+03  0.56649461146E+03 -0.90775263792E+03  0.10946656022E+04  0.10100000352E+00 0.  1.
       -3    1    3    3    0  502  0.23100167525E+03 -0.56649461146E+03  0.80501522101E+03  0.10111020893E+04  0.10100000352E+00 0. -1.
</event>
<event>
 5   0  0.5967046E-05  0.2059348E+04  0.7818609E-02  0.8579365E-01
       -2   -1    0    0    0  501  0.00000000000E+00  0.00000000000E+00  0.79573304041E+03  0.79573304041E+03  0.25500000920E-02 0.  1.
        2   -1    0    0  501    0  0.00000000000E+00  0.00000000000E+00 -0.13323926888E+04  0.13323926888E+04  0.25500000920E-02 0. -1.
    10030    2    1    2    0    0  0.00000000000E+00  0.00000000000E+00 -0.53665964843E+03  0.21281257293E+04  0.20593483293E+04 0.  0.
        4    1    3    3  502    0  0.30024328662E+03  0.44743889374E+03  0.63840208315E+03  0.83540794075E+03  0.12699999809E+01 0.  1.
       -4    1    3    3    0  502 -0.30024328662E+03 -0.44743889374E+03 -0.11750617316E+04  0.12927177885E+04  0.12699999809E+01 0. -1.
</event>
<event>
 5   0  0.2732159E-05  0.2103994E+04  0.7818609E-02  0.8559486E-01
       -1   -1    0    0    0  501  0.00000000000E+00  0.00000000000E+00  0.11217832222E+04  0.11217832222E+04  0.50400001928E-02 0.  1.
        1   -1    0    0  501    0  0.00000000000E+00  0.00000000000E+00 -0.98655223410E+03  0.98655223411E+03  0.50400001928E-02 0. -1.
    10030    2    1    2    0    0  0.00000000000E+00  0.00000000000E+00  0.13523098810E+03  0.21083354563E+04  0.21039940533E+04 0.  0.
        3    1    3    3  502    0 -0.45020533081E+03 -0.92485113648E+03 -0.15343721709E+03  0.10399891607E+04  0.10100000352E+00 0. -1.
       -3    1    3    3    0  502  0.45020533081E+03  0.92485113648E+03  0.28866820518E+03  0.10683462956E+04  0.10100000352E+00 0.  1.
</event>
<event>
 5   0  0.2732159E-05  0.2053294E+04  0.7818609E-02  0.8582101E-01
       -1   -1    0    0    0  501  0.00000000000E+00  0.00000000000E+00  0.69251245036E+03  0.69251245038E+03  0.50400001928E-02 0.  1.
        1   -1    0    0  501    0  0.00000000000E+00  0.00000000000E+00 -0.15220001995E+04  0.15220001996E+04  0.50400001928E-02 0. -1.
    10030    2    1    2    0    0  0.00000000000E+00  0.00000000000E+00 -0.82948774919E+03  0.22145126499E+04  0.20532940244E+04 0.  0.
        3    1    3    3  502    0  0.59979964296E+03  0.43402706959E+02  0.48267090401E+03  0.77111258481E+03  0.10100000352E+00 0.  1.
       -3    1    3    3    0  502 -0.59979964296E+03 -0.43402706959E+02 -0.13121586532E+04  0.14434000651E+04  0.10100000352E+00 0. -1.
</event>
<event>
 5   0  0.5462851E-05  0.2098366E+04  0.7818609E-02  0.8561964E-01
       -2   -1    0    0    0  501  0.00000000000E+00  0.00000000000E+00  0.40396674803E+03  0.40396674804E+03  0.25500000920E-02 0.  1.
        2   -1    0    0  501    0  0.00000000000E+00  0.00000000000E+00 -0.27249391063E+04  0.27249391063E+04  0.25500000920E-02 0. -1.
    10030    2    1    2    0    0  0.00000000000E+00  0.00000000000E+00 -0.23209723583E+04  0.31289058544E+04  0.20983658303E+04 0.  0.
        1    1    3    3  502    0 -0.18046468503E+03  0.23329252235E+03  0.34087677565E+03  0.45076588129E+03  0.50400001928E-02 0.  1.
       -1    1    3    3    0  502  0.18046468503E+03 -0.23329252235E+03 -0.26618491340E+04  0.26781399731E+04  0.50400001928E-02 0. -1.
</event>
<event>
 5   0  0.5462851E-05  0.2097540E+04  0.7818609E-02  0.8562328E-01
       -2   -1    0    0    0  501  0.00000000000E+00  0.00000000000E+00  0.47636339790E+03  0.47636339791E+03  0.25500000920E-02 0.  1.
        2   -1    0    0  501    0  0.00000000000E+00  0.00000000000E+00 -0.23089905168E+04  0.23089905168E+04  0.25500000920E-02 0. -1.
    10030    2    1    2    0    0  0.00000000000E+00  0.00000000000E+00 -0.18326271189E+04  0.27853539147E+04  0.20975400528E+04 0.  0.
        1    1    3    3  502    0 -0.42358028310E+03  0.59948997439E+03  0.78391116511E+02  0.73820976206E+03  0.50400001928E-02 0.  1.
       -1    1    3    3    0  502  0.42358028310E+03 -0.59948997439E+03 -0.19110182354E+04  0.20471441526E+04  0.50400001928E-02 0. -1.
</event>
<event>
 5   0  0.5967046E-05  0.2083993E+04  0.7818609E-02  0.8568328E-01
        2   -1    0    0  501    0  0.00000000000E+00  0.00000000000E+00  0.12109858166E+04  0.12109858166E+04  0.25500000920E-02 0. -1.
       -2   -1    0    0    0  501  0.00000000000E+00  0.00000000000E+00 -0.89658891220E+03  0.89658891220E+03  0.25500000920E-02 0.  1.
    10030    2    1    2    0    0  0.00000000000E+00  0.00000000000E+00  0.31439690441E+03  0.21075747288E+04  0.20839927601E+04 0.  0.
        4    1    3    3  502    0 -0.29183348090E+03  0.63776006665E+03 -0.62213840436E+03  0.93752999433E+03  0.12699999809E+01 0.  1.
       -4    1    3    3    0  502  0.29183348090E+03 -0.63776006665E+03  0.93653530878E+03  0.11700447345E+04  0.12699999809E+01 0. -1.
</event>
<event>
 5   0  0.5967046E-05  0.2098360E+04  0.7818609E-02  0.8561966E-01
       -2   -1    0    0    0  501  0.00000000000E+00  0.00000000000E+00  0.74267405931E+03  0.74267405931E+03  0.25500000920E-02 0.  1.
        2   -1    0    0  501    0  0.00000000000E+00  0.00000000000E+00 -0.14821826748E+04  0.14821826748E+04  0.25500000920E-02 0. -1.
    10030    2    1    2    0    0  0.00000000000E+00  0.00000000000E+00 -0.73950861548E+03  0.22248567341E+04  0.20983599536E+04 0.  0.
        4    1    3    3  502    0 -0.61935298124E+03 -0.51204909780E+03  0.34543401997E+03  0.87471062014E+03  0.12699999809E+01 0.  1.
       -4    1    3    3    0  502  0.61935298124E+03  0.51204909780E+03 -0.10849426354E+04  0.13501461140E+04  0.12699999809E+01 0. -1.
</event>
<event>
 5   0  0.2602060E-05  0.2091121E+04  0.7818609E-02  0.8565165E-01
       -1   -1    0    0    0  501  0.00000000000E+00  0.00000000000E+00  0.83858985081E+03  0.83858985083E+03  0.50400001928E-02 0.  1.
        1   -1    0    0  501    0  0.00000000000E+00  0.00000000000E+00 -0.13036135817E+04  0.13036135817E+04  0.50400001928E-02 0. -1.
    10030    2    1    2    0    0  0.00000000000E+00  0.00000000000E+00 -0.46502373090E+03  0.21422034325E+04  0.20911213442E+04 0.  0.
        1    1    3    3  502    0 -0.40603271579E+03  0.74332550340E+03 -0.86051364484E+03  0.12074266451E+04  0.50400001928E-02 0. -1.
       -1    1    3    3    0  502  0.40603271579E+03 -0.74332550340E+03  0.39548991395E+03  0.93477678745E+03  0.50400001928E-02 0.  1.
</event>
<event>
 5   0  0.2732159E-05  0.2088298E+04  0.7818609E-02  0.8566416E-01
       -1   -1    0    0    0  501  0.00000000000E+00  0.00000000000E+00  0.10306655406E+04  0.10306655407E+04  0.50400001928E-02 0.  1.
        1   -1    0    0  501    0  0.00000000000E+00  0.00000000000E+00 -0.10578086863E+04  0.10578086863E+04  0.50400001928E-02 0. -1.
    10030    2    1    2    0    0  0.00000000000E+00  0.00000000000E+00 -0.27143145654E+02  0.20884742270E+04  0.20882978347E+04 0.  0.
        3    1    3    3  502    0  0.32163728691E+03  0.34005821484E+02  0.97930632820E+03  0.10313330378E+04  0.10100000352E+00 0.  1.
       -3    1    3    3    0  502 -0.32163728691E+03 -0.34005821484E+02 -0.10064494739E+04  0.10571411892E+04  0.10100000352E+00 0. -1.
</event>
<event>
 5   0  0.5954140E-05  0.2046355E+04  0.7818609E-02  0.8585250E-01
        2   -1    0    0  501    0  0.00000000000E+00  0.00000000000E+00  0.10085257751E+04  0.10085257751E+04  0.25500000920E-02 0. -1.
       -2   -1    0    0    0  501  0.00000000000E+00  0.00000000000E+00 -0.10380420839E+04  0.10380420839E+04  0.25500000920E-02 0.  1.
    10030    2    1    2    0    0  0.00000000000E+00  0.00000000000E+00 -0.29516308769E+02  0.20465678591E+04  0.20463550008E+04 0.  0.
        2    1    3    3  502    0  0.29320046940E+03  0.97533911297E+03 -0.11294828720E+03  0.10247000615E+04  0.25500000920E-02 0. -1.
       -2    1    3    3    0  502 -0.29320046940E+03 -0.97533911297E+03  0.83431978430E+02  0.10218677975E+04  0.25500000920E-02 0.  1.
</event>
<event>
 5   0  0.2699285E-05  0.2090900E+04  0.7818609E-02  0.8565263E-01
       -1   -1    0    0    0  501  0.00000000000E+00  0.00000000000E+00  0.54714748329E+03  0.54714748331E+03  0.50400001928E-02 0. -1.
        1   -1    0    0  501    0  0.00000000000E+00  0.00000000000E+00 -0.19975696317E+04  0.19975696317E+04  0.50400001928E-02 0.  1.
    10030    2    1    2    0    0  0.00000000000E+00  0.00000000000E+00 -0.14504221484E+04  0.25447171150E+04  0.20908995162E+04 0.  0.
        2    1    3    3  502    0 -0.48900890617E+03  0.91561158779E+03 -0.57373474647E+03  0.11860210155E+04  0.25500000920E-02 0.  1.
       -2    1    3    3    0  502  0.48900890617E+03 -0.91561158779E+03 -0.87668740195E+03  0.13586960995E+04  0.25500000920E-02 0. -1.
</event>
<event>
 5   0  0.2789662E-05  0.2041490E+04  0.7818609E-02  0.8587465E-01
       -1   -1    0    0    0  501  0.00000000000E+00  0.00000000000E+00  0.12336419530E+04  0.12336419530E+04  0.50400001928E-02 0. -1.
        1   -1    0    0  501    0  0.00000000000E+00  0.00000000000E+00 -0.84458885205E+03  0.84458885207E+03  0.50400001928E-02 0.  1.
    10030    2    1    2    0    0  0.00000000000E+00  0.00000000000E+00  0.38905310091E+03  0.20782308050E+04  0.20414898882E+04 0.  0.
        4    1    3    3  502    0 -0.21119185927E+03  0.69355814278E+02 -0.81964915366E+03  0.84925766314E+03  0.12699999809E+01 0.  1.
       -4    1    3    3    0  502  0.21119185927E+03 -0.69355814278E+02  0.12087022546E+04  0.12289731419E+04  0.12699999809E+01 0. -1.
</event>
<event>
 5   0  0.2789662E-05  0.2092163E+04  0.7818609E-02  0.8564704E-01
       -1   -1    0    0    0  501  0.00000000000E+00  0.00000000000E+00  0.74306225349E+03  0.74306225351E+03  0.50400001928E-02 0.  1.
        1   -1    0    0  501    0  0.00000000000E+00  0.00000000000E+00 -0.14726709228E+04  0.14726709228E+04  0.50400001928E-02 0. -1.
    10030    2    1    2    0    0  0.00000000000E+00  0.00000000000E+00 -0.72960866929E+03  0.22157331763E+04  0.20921626845E+04 0.  0.
        4    1    3    3  502    0 -0.31598107750E+03 -0.58820646335E+03  0.48802373713E+03  0.82704272306E+03  0.12699999809E+01 0.  1.
       -4    1    3    3    0  502  0.31598107750E+03  0.58820646335E+03 -0.12176324064E+04  0.13886904532E+04  0.12699999809E+01 0. -1.
</event>
<event>
 5   0  0.5954140E-05  0.2075202E+04  0.7818609E-02  0.8572246E-01
        2   -1    0    0  501    0  0.00000000000E+00  0.00000000000E+00  0.15795006780E+04  0.15795006780E+04  0.25500000920E-02 0. -1.
       -2   -1    0    0    0  501  0.00000000000E+00  0.00000000000E+00 -0.68161781910E+03  0.68161781910E+03  0.25500000920E-02 0.  1.
    10030    2    1    2    0    0  0.00000000000E+00  0.00000000000E+00  0.89788285891E+03  0.22611184971E+04  0.20752019732E+04 0.  0.
        2    1    3    3  502    0 -0.27840290287E+02 -0.62426053427E+03 -0.45360419565E+03  0.77216129321E+03  0.25500000920E-02 0.  1.
       -2    1    3    3    0  502  0.27840290287E+02  0.62426053427E+03  0.13514870546E+04  0.14889572039E+04  0.25500000920E-02 0. -1.
</event>
<event>
 5   0  0.2602060E-05  0.2093358E+04  0.7818609E-02  0.8564175E-01
        1   -1    0    0  501    0  0.00000000000E+00  0.00000000000E+00  0.14851466574E+04  0.14851466574E+04  0.50400001928E-02 0.  1.
       -1   -1    0    0    0  501  0.00000000000E+00  0.00000000000E+00 -0.73766265543E+03  0.73766265545E+03  0.50400001928E-02 0. -1.
    10030    2    1    2    0    0  0.00000000000E+00  0.00000000000E+00  0.74748400194E+03  0.22228093128E+04  0.20933582847E+04 0.  0.
        1    1    3    3  502    0 -0.17927196236E+03  0.60530061396E+03 -0.51275676072E+03  0.81329377561E+03  0.50400001928E-02 0. -1.
       -1    1    3    3    0  502  0.17927196236E+03 -0.60530061396E+03  0.12602407627E+04  0.14095155372E+04  0.50400001928E-02 0.  1.
</event>
<event>
 5   0  0.5954140E-05  0.2091745E+04  0.7818609E-02  0.8564888E-01
        2   -1    0    0  501    0  0.00000000000E+00  0.00000000000E+00  0.12693040391E+04  0.12693040391E+04  0.25500000920E-02 0.  1.
       -2   -1    0    0    0  501  0.00000000000E+00  0.00000000000E+00 -0.86177123640E+03  0.86177123640E+03  0.25500000920E-02 0. -1.
    10030    2    1    2    0    0  0.00000000000E+00  0.00000000000E+00  0.40753280269E+03  0.21310752755E+04  0.20917454062E+04 0.  0.
        2    1    3    3  502    0 -0.19186408189E+03 -0.91555616631E+03  0.68031638198E+03  0.11566699180E+04  0.25500000920E-02 0.  1.
       -2    1    3    3    0  502  0.19186408189E+03  0.91555616631E+03 -0.27278357929E+03  0.97440535750E+03  0.25500000920E-02 0. -1.
</event>
<event>
 5   0  0.5954140E-05  0.2098665E+04  0.7818609E-02  0.8561832E-01
       -2   -1    0    0    0  501  0.00000000000E+00  0.00000000000E+00  0.52690028423E+03  0.52690028424E+03  0.25500000920E-02 0. -1.
        2   -1    0    0  501    0  0.00000000000E+00  0.00000000000E+00 -0.20897657659E+04  0.20897657659E+04  0.25500000920E-02 0.  1.
    10030    2    1    2    0    0  0.00000000000E+00  0.00000000000E+00 -0.15628654817E+04  0.26166660501E+04  0.20986645049E+04 0.  0.
        2    1    3    3  502    0 -0.55826132147E+03 -0.44844468599E+03  0.17492287004E+03  0.73712709211E+03  0.25500000920E-02 0. -1.
       -2    1    3    3    0  502  0.55826132147E+03  0.44844468599E+03 -0.17377883517E+04  0.18795389580E+04  0.25500000920E-02 0.  1.
</event>
<event>
 5   0  0.5954140E-05  0.2105459E+04  0.7818609E-02  0.8558842E-01
       -2   -1    0    0    0  501  0.00000000000E+00  0.00000000000E+00  0.43462357191E+03  0.43462357192E+03  0.25500000920E-02 0.  1.
        2   -1    0    0  501    0  0.00000000000E+00  0.00000000000E+00 -0.25498831459E+04  0.25498831459E+04  0.25500000920E-02 0. -1.
    10030    2    1    2    0    0  0.00000000000E+00  0.00000000000E+00 -0.21152595740E+04  0.29845067178E+04  0.21054589246E+04 0.  0.
        2    1    3    3  502    0  0.80709378371E+03  0.56514114970E+02 -0.10289246585E+03  0.81558634150E+03  0.25500000920E-02 0.  1.
       -2    1    3    3    0  502 -0.80709378371E+03 -0.56514114970E+02 -0.20123671081E+04  0.21689203763E+04  0.25500000920E-02 0. -1.
</event>
<event>
 5   0  0.5462851E-05  0.2098423E+04  0.7818609E-02  0.8561938E-01
       -2   -1    0    0    0  501  0.00000000000E+00  0.00000000000E+00  0.91681435325E+03  0.91681435326E+03  0.25500000920E-02 0.  1.
        2   -1    0    0  501    0  0.00000000000E+00  0.00000000000E+00 -0.12007278605E+04  0.12007278605E+04  0.25500000920E-02 0. -1.
    10030    2    1    2    0    0  0.00000000000E+00  0.00000000000E+00 -0.28391350723E+03  0.21175422137E+04  0.20984227761E+04 0.  0.
        1    1    3    3  502    0 -0.13820519100E+03  0.10299353828E+04 -0.28811066936E+03  0.10783669716E+04  0.50400001928E-02 0.  1.
       -1    1    3    3    0  502  0.13820519100E+03 -0.10299353828E+04  0.41971621308E+01  0.10391752421E+04  0.50400001928E-02 0. -1.
</event>
<event>
 5   0  0.2699285E-05  0.2101987E+04  0.7818609E-02  0.8560369E-01
       -1   -1    0    0    0  501  0.00000000000E+00  0.00000000000E+00  0.72896353971E+03  0.72896353973E+03  0.50400001928E-02 0. -1.
        1   -1    0    0  501    0  0.00000000000E+00  0.00000000000E+00 -0.15152847358E+04  0.15152847358E+04  0.50400001928E-02 0.  1.
    10030    2    1    2    0    0  0.00000000000E+00  0.00000000000E+00 -0.78632119610E+03  0.22442482755E+04  0.21019869883E+04 0.  0.
        2    1    3    3  502    0  0.88915966785E+03  0.56017234875E+03 -0.40785232759E+03  0.11272717048E+04  0.25500000920E-02 0.  1.
       -2    1    3    3    0  502 -0.88915966785E+03 -0.56017234875E+03 -0.37846886851E+03  0.11169765708E+04  0.25500000920E-02 0. -1.
</event>
<event>
 5   0  0.5967046E-05  0.2118870E+04  0.7818609E-02  0.8552976E-01
        2   -1    0    0  501    0  0.00000000000E+00  0.00000000000E+00  0.17497989366E+04  0.17497989366E+04  0.25500000920E-02 0.  1.
       -2   -1    0    0    0  501  0.00000000000E+00  0.00000000000E+00 -0.64144639420E+03  0.64144639421E+03  0.25500000920E-02 0. -1.
    10030    2    1    2    0    0  0.00000000000E+00  0.00000000000E+00  0.11083525424E+04  0.23912453308E+04  0.21188697161E+04 0.  0.
        4    1    3    3  502    0 -0.93510706478E+03 -0.39925402259E+03  0.21830941684E+03  0.10399469273E+04  0.12699999809E+01 0. -1.
       -4    1    3    3    0  502  0.93510706478E+03  0.39925402259E+03  0.89004312554E+03  0.13512984035E+04  0.12699999809E+01 0.  1.
</event>
<event>
 5   0  0.5866610E-05  0.2123400E+04  0.7818609E-02  0.8551005E-01
       -2   -1    0    0    0  501  0.00000000000E+00  0.00000000000E+00  0.62675605862E+03  0.62675605863E+03  0.25500000920E-02 0.  1.
        2   -1    0    0  501    0  0.00000000000E+00  0.00000000000E+00 -0.17984784328E+04  0.17984784328E+04  0.25500000920E-02 0. -1.
    10030    2    1    2    0    0  0.00000000000E+00  0.00000000000E+00 -0.11717223742E+04  0.24252344914E+04  0.21234003429E+04 0.  0.
        5    1    3    3  502    0 -0.31105901723E+03 -0.79544670277E+02  0.56996640192E+03  0.65419328649E+03  0.46999998093E+01 0.  1.
       -5    1    3    3    0  502  0.31105901723E+03  0.79544670277E+02 -0.17416887761E+04  0.17710412049E+04  0.46999998093E+01 0. -1.
</event>
<event>
 5   0  0.2604390E-05  0.2091362E+04  0.7818609E-02  0.8565058E-01
        1   -1    0    0  501    0  0.00000000000E+00  0.00000000000E+00  0.96696334906E+03  0.96696334907E+03  0.50400001928E-02 0. -1.
       -1   -1    0    0    0  501  0.00000000000E+00  0.00000000000E+00 -0.11308068209E+04  0.11308068209E+04  0.50400001928E-02 0.  1.
    10030    2    1    2    0    0  0.00000000000E+00  0.00000000000E+00 -0.16384347185E+03  0.20977701700E+04  0.20913619971E+04 0.  0.
        5    1    3    3  502    0  0.25626085228E+03 -0.96976864438E+03 -0.37830267729E+03  0.10720335133E+04  0.46999998093E+01 0.  1.
       -5    1    3    3    0  502 -0.25626085228E+03  0.96976864438E+03  0.21445920545E+03  0.10257366567E+04  0.46999998093E+01 0. -1.
</event>
<event>
 5   0  0.5866610E-05  0.2101562E+04  0.7818609E-02  0.8560555E-01
       -2   -1    0    0    0  501  0.00000000000E+00  0.00000000000E+00  0.13749790968E+04  0.13749790968E+04  0.25500000920E-02 0. -1.
        2   -1    0    0  501    0  0.00000000000E+00  0.00000000000E+00 -0.80302400867E+03  0.80302400867E+03  0.25500000920E-02 0.  1.
    10030    2    1    2    0    0  0.00000000000E+00  0.00000000000E+00  0.57195508818E+03  0.21780031055E+04  0.21015624913E+04 0.  0.
        5    1    3    3  502    0  0.64936886708E+03  0.70922073727E+03 -0.15304018241E+03  0.97371318525E+03  0.46999998093E+01 0.  1.
       -5    1    3    3    0  502 -0.64936886708E+03 -0.70922073727E+03  0.72499527059E+03  0.12042899203E+04  0.46999998093E+01 0. -1.
</event>
<event>
 5   0  0.2604390E-05  0.2093115E+04  0.7818609E-02  0.8564282E-01
       -1   -1    0    0    0  501  0.00000000000E+00  0.00000000000E+00  0.81761973202E+03  0.81761973204E+03  0.50400001928E-02 0. -1.
        1   -1    0    0  501    0  0.00000000000E+00  0.00000000000E+00 -0.13395988767E+04  0.13395988767E+04  0.50400001928E-02 0.  1.
    10030    2    1    2    0    0  0.00000000000E+00  0.00000000000E+00 -0.52197914466E+03  0.21572186087E+04  0.20931148794E+04 0.  0.
        5    1    3    3  502    0 -0.62885756811E+03 -0.66785184307E+03 -0.78017600765E+03  0.12042361140E+04  0.46999998093E+01 0.  1.
       -5    1    3    3    0  502  0.62885756811E+03  0.66785184307E+03  0.25819686299E+03  0.95298249477E+03  0.46999998093E+01 0. -1.
</event>
<event>
 5   0  0.5866610E-05  0.2105425E+04  0.7818609E-02  0.8558857E-01
       -2   -1    0    0    0  501  0.00000000000E+00  0.00000000000E+00  0.98954702976E+03  0.98954702977E+03  0.25500000920E-02 0.  1.
        2   -1    0    0  501    0  0.00000000000E+00  0.00000000000E+00 -0.11199097913E+04  0.11199097913E+04  0.25500000920E-02 0. -1.
    10030    2    1    2    0    0  0.00000000000E+00  0.00000000000E+00 -0.13036276149E+03  0.21094568210E+04  0.21054248099E+04 0.  0.
        5    1    3    3  502    0 -0.13140593624E+03  0.17246302298E+03  0.96692258728E+03  0.99094520240E+03  0.46999998093E+01 0.  1.
       -5    1    3    3    0  502  0.13140593624E+03 -0.17246302298E+03 -0.10972853488E+04  0.11185116186E+04  0.46999998093E+01 0. -1.
</event>
<event>
 5   0  0.5954140E-05  0.2080944E+04  0.7818609E-02  0.8569685E-01
       -2   -1    0    0    0  501  0.00000000000E+00  0.00000000000E+00  0.14741744303E+04  0.14741744303E+04  0.25500000920E-02 0.  1.
        2   -1    0    0  501    0  0.00000000000E+00  0.00000000000E+00 -0.73436480609E+03  0.73436480609E+03  0.25500000920E-02 0. -1.
    10030    2    1    2    0    0  0.00000000000E+00  0.00000000000E+00  0.73980962417E+03  0.22085392364E+04  0.20809438432E+04 0.  0.
        2    1    3    3  502    0 -0.21379793180E+03  0.33261413175E+03 -0.65152034289E+03  0.76211578745E+03  0.25500000920E-02 0. -1.
       -2    1    3    3    0  502  0.21379793180E+03 -0.33261413175E+03  0.13913299671E+04  0.14464234489E+04  0.25500000920E-02 0.  1.
</event>
<event>
 5   0  0.2602060E-05  0.2097823E+04  0.7818609E-02  0.8562203E-01
       -1   -1    0    0    0  501  0.00000000000E+00  0.00000000000E+00  0.69022218112E+03  0.69022218114E+03  0.50400001928E-02 0. -1.
        1   -1    0    0  501    0  0.00000000000E+00  0.00000000000E+00 -0.15940009703E+04  0.15940009703E+04  0.50400001928E-02 0.  1.
    10030    2    1    2    0    0  0.00000000000E+00  0.00000000000E+00 -0.90377878919E+03  0.22842231515E+04  0.20978225153E+04 0.  0.
        1    1    3    3  502    0  0.90818508165E+02 -0.76374600067E+03  0.32468505652E+03  0.83485108907E+03  0.50400001928E-02 0. -1.
       -1    1    3    3    0  502 -0.90818508165E+02  0.76374600067E+03 -0.12284638457E+04  0.14493720624E+04  0.50400001928E-02 0.  1.
</event>
<event>
 5   0  0.2732159E-05  0.2116109E+04  0.7818609E-02  0.8554180E-01
       -1   -1    0    0    0  501  0.00000000000E+00  0.00000000000E+00  0.55400243545E+03  0.55400243547E+03  0.50400001928E-02 0.  1.
        1   -1    0    0  501    0  0.00000000000E+00  0.00000000000E+00 -0.20207119780E+04  0.20207119780E+04  0.50400001928E-02 0. -1.
    10030    2    1    2    0    0  0.00000000000E+00  0.00000000000E+00 -0.14667095426E+04  0.25747144135E+04  0.21161090305E+04 0.  0.
        3    1    3    3  502    0 -0.52547013620E+02  0.81839686591E+03 -0.15467805528E+04  0.17507326202E+04  0.10100000352E+00 0. -1.
       -3    1    3    3    0  502  0.52547013620E+02 -0.81839686591E+03  0.80071010241E+02  0.82398179327E+03  0.10100000352E+00 0.  1.
</event>
<event>
 5   0  0.5967046E-05  0.2104954E+04  0.7818609E-02  0.8559064E-01
       -2   -1    0    0    0  501  0.00000000000E+00  0.00000000000E+00  0.67468739822E+03  0.67468739823E+03  0.25500000920E-02 0.  1.
        2   -1    0    0  501    0  0.00000000000E+00  0.00000000000E+00 -0.16418092406E+04  0.16418092406E+04  0.25500000920E-02 0. -1.
    10030    2    1    2    0    0  0.00000000000E+00  0.00000000000E+00 -0.96712184238E+03  0.23164966388E+04  0.21049541610E+04 0.  0.
        4    1    3    3  502    0  0.17450946890E+03 -0.77268264661E+03 -0.12461781373E+04  0.14766359029E+04  0.12699999809E+01 0. -1.
       -4    1    3    3    0  502 -0.17450946890E+03  0.77268264661E+03  0.27905629488E+03  0.83986073591E+03  0.12699999809E+01 0.  1.
</event>
<event>
 5   0  0.5967046E-05  0.2047980E+04  0.7818609E-02  0.8584511E-01
       -2   -1    0    0    0  501  0.00000000000E+00  0.00000000000E+00  0.97297927846E+03  0.97297927847E+03  0.25500000920E-02 0. -1.
        2   -1    0    0  501    0  0.00000000000E+00  0.00000000000E+00 -0.10776750312E+04  0.10776750312E+04  0.25500000920E-02 0.  1.
    10030    2    1    2    0    0  0.00000000000E+00  0.00000000000E+00 -0.10469575274E+03  0.20506543097E+04  0.20479799553E+04 0.  0.
        4    1    3    3  502    0  0.92186173490E+03 -0.14400067039E+03  0.37009000827E+03  0.10037596717E+04  0.12699999809E+01 0.  1.
       -4    1    3    3    0  502 -0.92186173490E+03  0.14400067039E+03 -0.47478576102E+03  0.10468946380E+04  0.12699999809E+01 0. -1.
</event>
<event>
 5   0  0.5462851E-05  0.2088199E+04  0.7818609E-02  0.8566460E-01
       -2   -1    0    0    0  501  0.00000000000E+00  0.00000000000E+00  0.60127174066E+03  0.60127174066E+03  0.25500000920E-02 0.  1.
        2   -1    0    0  501    0  0.00000000000E+00  0.00000000000E+00 -0.18130635207E+04  0.18130635207E+04  0.25500000920E-02 0. -1.
    10030    2    1    2    0    0  0.00000000000E+00  0.00000000000E+00 -0.12117917800E+04  0.24143352613E+04  0.20881990892E+04 0.  0.
        1    1    3    3  502    0 -0.99867371551E+03 -0.19752193028E+03 -0.87401951906E+03  0.13417429794E+04  0.50400001928E-02 0. -1.
       -1    1    3    3    0  502  0.99867371551E+03  0.19752193028E+03 -0.33777226094E+03  0.10725922819E+04  0.50400001928E-02 0.  1.
</event>
<event>
 5   0  0.2017750E-05  0.2076888E+04  0.7818609E-02  0.8571493E-01
       -4   -1    0    0    0  501  0.00000000000E+00  0.00000000000E+00  0.12688482485E+04  0.12688488841E+04  0.12699999809E+01 0.  1.
        4   -1    0    0  501    0  0.00000000000E+00  0.00000000000E+00 -0.84987678789E+03  0.84987773680E+03  0.12699999809E+01 0. -1.
    10030    2    1    2    0    0  0.00000000000E+00  0.00000000000E+00  0.41897146058E+03  0.21187266208E+04  0.20768883959E+04 0.  0.
        2    1    3    3  502    0  0.73925886788E+03 -0.16647612529E+03  0.93382319846E+03  0.12025987444E+04  0.25500000920E-02 0.  1.
       -2    1    3    3    0  502 -0.73925886788E+03  0.16647612529E+03 -0.51485173788E+03  0.91612787646E+03  0.25500000920E-02 0. -1.
</event>
<event>
 5   0  0.2732159E-05  0.2107349E+04  0.7818609E-02  0.8558013E-01
       -1   -1    0    0    0  501  0.00000000000E+00  0.00000000000E+00  0.64791913254E+03  0.64791913256E+03  0.50400001928E-02 0.  1.
        1   -1    0    0  501    0  0.00000000000E+00  0.00000000000E+00 -0.17135314848E+04  0.17135314848E+04  0.50400001928E-02 0. -1.
    10030    2    1    2    0    0  0.00000000000E+00  0.00000000000E+00 -0.10656123523E+04  0.23614506174E+04  0.21073488873E+04 0.  0.
        3    1    3    3  502    0 -0.20329327841E+03  0.58738737193E+03 -0.14862059336E+04  0.16109500827E+04  0.10100000352E+00 0. -1.
       -3    1    3    3    0  502  0.20329327841E+03 -0.58738737193E+03  0.42059358128E+03  0.75050053469E+03  0.10100000352E+00 0.  1.
</event>
<event>
 5   0  0.2602060E-05  0.2100365E+04  0.7818609E-02  0.8561083E-01
       -1   -1    0    0    0  501  0.00000000000E+00  0.00000000000E+00  0.56791625009E+03  0.56791625011E+03  0.50400001928E-02 0. -1.
        1   -1    0    0  501    0  0.00000000000E+00  0.00000000000E+00 -0.19419826917E+04  0.19419826917E+04  0.50400001928E-02 0.  1.
    10030    2    1    2    0    0  0.00000000000E+00  0.00000000000E+00 -0.13740664416E+04  0.25098989418E+04  0.21003652330E+04 0.  0.
        1    1    3    3  502    0 -0.50803622741E+03  0.30428587573E+02  0.41069744613E+03  0.65398707906E+03  0.50400001928E-02 0. -1.
       -1    1    3    3    0  502  0.50803622741E+03 -0.30428587573E+02 -0.17847638877E+04  0.18559118627E+04  0.50400001928E-02 0.  1.
</event>
<event>
 5   0  0.5954140E-05  0.2108164E+04  0.7818609E-02  0.8557656E-01
       -2   -1    0    0    0  501  0.00000000000E+00  0.00000000000E+00  0.12490238436E+04  0.12490238436E+04  0.25500000920E-02 0. -1.
        2   -1    0    0  501    0  0.00000000000E+00  0.00000000000E+00 -0.88956556377E+03  0.88956556377E+03  0.25500000920E-02 0.  1.
    10030    2    1    2    0    0  0.00000000000E+00  0.00000000000E+00  0.35945827983E+03  0.21385894074E+04  0.21081637504E+04 0.  0.
        2    1    3    3  502    0  0.95661191598E+03  0.41068331251E+03  0.12051554792E+02  0.10411111281E+04  0.25500000920E-02 0.  1.
       -2    1    3    3    0  502 -0.95661191598E+03 -0.41068331251E+03  0.34740672504E+03  0.10974782793E+04  0.25500000920E-02 0. -1.
</event>
<event>
 5   0  0.2604390E-05  0.2122164E+04  0.7818609E-02  0.8551542E-01
        1   -1    0    0  501    0  0.00000000000E+00  0.00000000000E+00  0.16279890776E+04  0.16279890776E+04  0.50400001928E-02 0.  1.
       -1   -1    0    0    0  501  0.00000000000E+00  0.00000000000E+00 -0.69158609045E+03  0.69158609047E+03  0.50400001928E-02 0. -1.
    10030    2    1    2    0    0  0.00000000000E+00  0.00000000000E+00  0.93640298717E+03  0.23195751681E+04  0.21221636144E+04 0.  0.
        5    1    3    3  502    0  0.32655609671E+03  0.68544052278E+03 -0.34196794708E+03  0.83272550183E+03  0.46999998093E+01 0. -1.
       -5    1    3    3    0  502 -0.32655609671E+03 -0.68544052278E+03  0.12783709343E+04  0.14868496663E+04  0.46999998093E+01 0.  1.
</event>
<event>
 5   0  0.2732159E-05  0.2035293E+04  0.7818609E-02  0.8590296E-01
       -1   -1    0    0    0  501  0.00000000000E+00  0.00000000000E+00  0.76446334226E+03  0.76446334227E+03  0.50400001928E-02 0. -1.
        1   -1    0    0  501    0  0.00000000000E+00  0.00000000000E+00 -0.13546815621E+04  0.13546815621E+04  0.50400001928E-02 0.  1.
    10030    2    1    2    0    0  0.00000000000E+00  0.00000000000E+00 -0.59021821982E+03  0.21191449044E+04  0.20352929958E+04 0.  0.
        3    1    3    3  502    0 -0.50626992951E+02  0.25367797041E+02 -0.13530398693E+04  0.13542243225E+04  0.10100000352E+00 0.  1.
       -3    1    3    3    0  502  0.50626992951E+02 -0.25367797041E+02  0.76282164945E+03  0.76492058189E+03  0.10100000352E+00 0. -1.
</event>
<event>
 5   0  0.2699285E-05  0.2063314E+04  0.7818609E-02  0.8577578E-01
        1   -1    0    0  501    0  0.00000000000E+00  0.00000000000E+00  0.83891607911E+03  0.83891607912E+03  0.50400001928E-02 0.  1.
       -1   -1    0    0    0  501  0.00000000000E+00  0.00000000000E+00 -0.12686804912E+04  0.12686804912E+04  0.50400001928E-02 0. -1.
    10030    2    1    2    0    0  0.00000000000E+00  0.00000000000E+00 -0.42976441210E+03  0.21075965703E+04  0.20633142886E+04 0.  0.
        2    1    3    3  502    0 -0.86434041885E+03  0.32540317667E+03  0.25470684167E+03  0.95804340311E+03  0.25500000920E-02 0. -1.
       -2    1    3    3    0  502  0.86434041885E+03 -0.32540317667E+03 -0.68447125377E+03  0.11495531672E+04  0.25500000920E-02 0.  1.
</event>
<event>
 5   0  0.5954140E-05  0.2115869E+04  0.7818609E-02  0.8554285E-01
        2   -1    0    0  501    0  0.00000000000E+00  0.00000000000E+00  0.10713356759E+04  0.10713356759E+04  0.25500000920E-02 0. -1.
       -2   -1    0    0    0  501  0.00000000000E+00  0.00000000000E+00 -0.10447005772E+04  0.10447005772E+04  0.25500000920E-02 0.  1.
    10030    2    1    2    0    0  0.00000000000E+00  0.00000000000E+00  0.26635098674E+02  0.21160362530E+04  0.21158686149E+04 0.  0.
        2    1    3    3  502    0 -0.27352620413E+03 -0.10080047936E+04  0.18166017802E+03  0.10601370990E+04  0.25500000920E-02 0. -1.
       -2    1    3    3    0  502  0.27352620413E+03  0.10080047936E+04 -0.15502507934E+03  0.10558991541E+04  0.25500000920E-02 0.  1.
</event>
<event>
 5   0  0.5506332E-05  0.2122393E+04  0.7818609E-02  0.8551443E-01
       -2   -1    0    0    0  501  0.00000000000E+00  0.00000000000E+00  0.11598094139E+04  0.11598094139E+04  0.25500000920E-02 0. -1.
        2   -1    0    0  501    0  0.00000000000E+00  0.00000000000E+00 -0.97096815392E+03  0.97096815392E+03  0.25500000920E-02 0.  1.
    10030    2    1    2    0    0  0.00000000000E+00  0.00000000000E+00  0.18884125999E+03  0.21307775678E+04  0.21223929943E+04 0.  0.
        3    1    3    3  502    0  0.15992634515E+03  0.75063828665E+03  0.83018947370E+03  0.11305966768E+04  0.10100000352E+00 0. -1.
       -3    1    3    3    0  502 -0.15992634515E+03 -0.75063828665E+03 -0.64134821371E+03  0.10001808910E+04  0.10100000352E+00 0.  1.
</event>
<event>
 5   0  0.2604390E-05  0.2121803E+04  0.7818609E-02  0.8551699E-01
       -1   -1    0    0    0  501  0.00000000000E+00  0.00000000000E+00  0.12193420423E+04  0.12193420423E+04  0.50400001928E-02 0.  1.
        1   -1    0    0  501    0  0.00000000000E+00  0.00000000000E+00 -0.92304877607E+03  0.92304877609E+03  0.50400001928E-02 0. -1.
    10030    2    1    2    0    0  0.00000000000E+00  0.00000000000E+00  0.29629326621E+03  0.21423908184E+04  0.21218031763E+04 0.  0.
        5    1    3    3  502    0 -0.12884917499E+03  0.75472888831E+03  0.88962358122E+03  0.11737418843E+04  0.46999998093E+01 0.  1.
       -5    1    3    3    0  502  0.12884917499E+03 -0.75472888831E+03 -0.59333031501E+03  0.96864893406E+03  0.46999998093E+01 0. -1.
</event>
<event>
 5   0  0.2602060E-05  0.2118952E+04  0.7818609E-02  0.8552940E-01
       -1   -1    0    0    0  501  0.00000000000E+00  0.00000000000E+00  0.17031470703E+04  0.17031470703E+04  0.50400001928E-02 0. -1.
        1   -1    0    0  501    0  0.00000000000E+00  0.00000000000E+00 -0.65906787060E+03  0.65906787062E+03  0.50400001928E-02 0.  1.
    10030    2    1    2    0    0  0.00000000000E+00  0.00000000000E+00  0.10440791997E+04  0.23622149409E+04  0.21189521117E+04 0.  0.
        1    1    3    3  502    0 -0.20916352534E+03  0.99626817232E+03  0.84932479593E+03  0.13257647833E+04  0.50400001928E-02 0. -1.
       -1    1    3    3    0  502  0.20916352534E+03 -0.99626817232E+03  0.19475440377E+03  0.10364501577E+04  0.50400001928E-02 0.  1.
</event>
<event>
 5   0  0.2604390E-05  0.2117867E+04  0.7818609E-02  0.8553413E-01
       -1   -1    0    0    0  501  0.00000000000E+00  0.00000000000E+00  0.77082129789E+03  0.77082129791E+03  0.50400001928E-02 0.  1.
        1   -1    0    0  501    0  0.00000000000E+00  0.00000000000E+00 -0.14547346699E+04  0.14547346699E+04  0.50400001928E-02 0. -1.
    10030    2    1    2    0    0  0.00000000000E+00  0.00000000000E+00 -0.68391337205E+03  0.22255559678E+04  0.21178672918E+04 0.  0.
        5    1    3    3  502    0 -0.94117859811E+03  0.25067827386E+03  0.94697562613E+02  0.97859412878E+03  0.46999998093E+01 0.  1.
       -5    1    3    3    0  502  0.94117859811E+03 -0.25067827386E+03 -0.77861093466E+03  0.12469618391E+04  0.46999998093E+01 0. -1.
</event>
<event>
 5   0  0.5866610E-05  0.2102636E+04  0.7818609E-02  0.8560083E-01
       -2   -1    0    0    0  501  0.00000000000E+00  0.00000000000E+00  0.11114221116E+04  0.11114221116E+04  0.25500000920E-02 0.  1.
        2   -1    0    0  501    0  0.00000000000E+00  0.00000000000E+00 -0.99446418383E+03  0.99446418383E+03  0.25500000920E-02 0. -1.
    10030    2    1    2    0    0  0.00000000000E+00  0.00000000000E+00  0.11695792781E+03  0.21058862955E+04  0.21026359487E+04 0.  0.
        5    1    3    3  502    0  0.32014830808E+03  0.99902537465E+03  0.12714700082E+03  0.10567568728E+04  0.46999998093E+01 0. -1.
       -5    1    3    3    0  502 -0.32014830808E+03 -0.99902537465E+03 -0.10189073008E+02  0.10491294227E+04  0.46999998093E+01 0.  1.
</event>
<event>
 5   0  0.5954140E-05  0.2096186E+04  0.7818609E-02  0.8562925E-01
       -2   -1    0    0    0  501  0.00000000000E+00  0.00000000000E+00  0.57241886498E+03  0.57241886499E+03  0.25500000920E-02 0. -1.
        2   -1    0    0  501    0  0.00000000000E+00  0.00000000000E+00 -0.19190468098E+04  0.19190468098E+04  0.25500000920E-02 0.  1.
    10030    2    1    2    0    0  0.00000000000E+00  0.00000000000E+00 -0.13466279448E+04  0.24914656748E+04  0.20961856757E+04 0.  0.
        2    1    3    3  502    0  0.89282247406E+03 -0.41199908324E+03 -0.24210113451E+03  0.10126638999E+04  0.25500000920E-02 0.  1.
       -2    1    3    3    0  502 -0.89282247406E+03  0.41199908324E+03 -0.11045268103E+04  0.14788017749E+04  0.25500000920E-02 0. -1.
</event>
<event>
 5   0  0.5954140E-05  0.2083586E+04  0.7818609E-02  0.8568509E-01
        2   -1    0    0  501    0  0.00000000000E+00  0.00000000000E+00  0.88312930427E+03  0.88312930427E+03  0.25500000920E-02 0.  1.
       -2   -1    0    0    0  501  0.00000000000E+00  0.00000000000E+00 -0.12289622003E+04  0.12289622003E+04  0.25500000920E-02 0. -1.
    10030    2    1    2    0    0  0.00000000000E+00  0.00000000000E+00 -0.34583289605E+03  0.21120915046E+04  0.20835858830E+04 0.  0.
        2    1    3    3  502    0 -0.86789538107E+03  0.43763641326E+03  0.20713217673E+03  0.99381676447E+03  0.25500000920E-02 0.  1.
       -2    1    3    3    0  502  0.86789538107E+03 -0.43763641326E+03 -0.55296507278E+03  0.11182747401E+04  0.25500000920E-02 0. -1.
</event>
<event>
 5   0  0.5866610E-05  0.2061950E+04  0.7818609E-02  0.8578192E-01
        2   -1    0    0  501    0  0.00000000000E+00  0.00000000000E+00  0.15292864297E+04  0.15292864297E+04  0.25500000920E-02 0.  1.
       -2   -1    0    0    0  501  0.00000000000E+00  0.00000000000E+00 -0.69503624741E+03  0.69503624741E+03  0.25500000920E-02 0. -1.
    10030    2    1    2    0    0  0.00000000000E+00  0.00000000000E+00  0.83425018230E+03  0.22243226771E+04  0.20619500492E+04 0.  0.
        5    1    3    3  502    0  0.80506030394E+02 -0.28721593506E+02 -0.69119571222E+03  0.69647667115E+03  0.46999998093E+01 0. -1.
       -5    1    3    3    0  502 -0.80506030394E+02  0.28721593506E+02  0.15254458945E+04  0.15278460060E+04  0.46999998093E+01 0.  1.
</event>
<event>
 5   0  0.5462851E-05  0.2206951E+04  0.7818609E-02  0.8515541E-01
       -2   -1    0    0    0  501  0.00000000000E+00  0.00000000000E+00  0.65736892003E+03  0.65736892004E+03  0.25500000920E-02 0.  1.
        2   -1    0    0  501    0  0.00000000000E+00  0.00000000000E+00 -0.18523207941E+04  0.18523207941E+04  0.25500000920E-02 0. -1.
    10030    2    1    2    0    0  0.00000000000E+00  0.00000000000E+00 -0.11949518741E+04  0.25096897142E+04  0.22069509464E+04 0.  0.
        1    1    3    3  502    0 -0.10579804793E+04  0.27446891365E+03 -0.42500638932E+03  0.11727260166E+04  0.50400001928E-02 0.  1.
       -1    1    3    3    0  502  0.10579804793E+04 -0.27446891365E+03 -0.76994548477E+03  0.13369636976E+04  0.50400001928E-02 0. -1.
</event>
<event>
 5   0  0.5954140E-05  0.2093885E+04  0.7818609E-02  0.8563942E-01
       -2   -1    0    0    0  501  0.00000000000E+00  0.00000000000E+00  0.68418602762E+03  0.68418602762E+03  0.25500000920E-02 0. -1.
        2   -1    0    0  501    0  0.00000000000E+00  0.00000000000E+00 -0.16020326891E+04  0.16020326891E+04  0.25500000920E-02 0.  1.
    10030    2    1    2    0    0  0.00000000000E+00  0.00000000000E+00 -0.91784666144E+03  0.22862187167E+04  0.20938847931E+04 0.  0.
        2    1    3    3  502    0  0.44030250440E+03 -0.17028933628E+03  0.56137630679E+03  0.73349036208E+03  0.25500000920E-02 0. -1.
       -2    1    3    3    0  502 -0.44030250440E+03  0.17028933628E+03 -0.14792229682E+04  0.15527283546E+04  0.25500000920E-02 0.  1.
</event>
<event>
 5   0  0.5462851E-05  0.2249371E+04  0.7818609E-02  0.8498155E-01
       -2   -1    0    0    0  501  0.00000000000E+00  0.00000000000E+00  0.87152703149E+03  0.87152703150E+03  0.25500000920E-02 0.  1.
        2   -1    0    0  501    0  0.00000000000E+00  0.00000000000E+00 -0.14513809657E+04  0.14513809657E+04  0.25500000920E-02 0. -1.
    10030    2    1    2    0    0  0.00000000000E+00  0.00000000000E+00 -0.57985393421E+03  0.23229079972E+04  0.22493712407E+04 0.  0.
        1    1    3    3  502    0 -0.14534381488E+01  0.10246943799E+04  0.18882030936E+03  0.10419471167E+04  0.50400001928E-02 0.  1.
       -1    1    3    3    0  502  0.14534381488E+01 -0.10246943799E+04 -0.76867424358E+03  0.12809608805E+04  0.50400001928E-02 0. -1.
</event>
<event>
 5   0  0.2789662E-05  0.2087461E+04  0.7818609E-02  0.8566787E-01
        1   -1    0    0  501    0  0.00000000000E+00  0.00000000000E+00  0.10302982194E+04  0.10302982194E+04  0.50400001928E-02 0.  1.
       -1   -1    0    0    0  501  0.00000000000E+00  0.00000000000E+00 -0.10573377466E+04  0.10573377466E+04  0.50400001928E-02 0. -1.
    10030    2    1    2    0    0  0.00000000000E+00  0.00000000000E+00 -0.27039527130E+02  0.20876359660E+04  0.20874608477E+04 0.  0.
        4    1    3    3  502    0 -0.39908652576E+03  0.23787811330E+03  0.92117917114E+03  0.10317115537E+04  0.12699999809E+01 0.  1.
       -4    1    3    3    0  502  0.39908652576E+03 -0.23787811330E+03 -0.94821869827E+03  0.10559244123E+04  0.12699999809E+01 0. -1.
</event>
<event>
 5   0  0.2602060E-05  0.2089510E+04  0.7818609E-02  0.8565879E-01
       -1   -1    0    0    0  501  0.00000000000E+00  0.00000000000E+00  0.50719174328E+03  0.50719174331E+03  0.50400001928E-02 0. -1.
        1   -1    0    0  501    0  0.00000000000E+00  0.00000000000E+00 -0.21520707601E+04  0.21520707601E+04  0.50400001928E-02 0.  1.
    10030    2    1    2    0    0  0.00000000000E+00  0.00000000000E+00 -0.16448790168E+04  0.26592625034E+04  0.20895095315E+04 0.  0.
        1    1    3    3  502    0  0.27207467932E+03  0.27081824266E+03  0.41418055089E+03  0.56472354338E+03  0.50400001928E-02 0. -1.
       -1    1    3    3    0  502 -0.27207467932E+03 -0.27081824266E+03 -0.20590595677E+04  0.20945389600E+04  0.50400001928E-02 0.  1.
</event>
<event>
 5   0  0.2602060E-05  0.2081953E+04  0.7818609E-02  0.8569235E-01
        1   -1    0    0  501    0  0.00000000000E+00  0.00000000000E+00  0.21520420272E+04  0.21520420272E+04  0.50400001928E-02 0. -1.
       -1   -1    0    0    0  501  0.00000000000E+00  0.00000000000E+00 -0.50353663575E+03  0.50353663577E+03  0.50400001928E-02 0.  1.
    10030    2    1    2    0    0  0.00000000000E+00  0.00000000000E+00  0.16485053914E+04  0.26555786630E+04  0.20819529316E+04 0.  0.
        1    1    3    3  502    0 -0.83674072485E+03  0.15655081286E+03  0.60014540832E+02  0.85337268691E+03  0.50400001928E-02 0.  1.
       -1    1    3    3    0  502  0.83674072485E+03 -0.15655081286E+03  0.15884908506E+04  0.18022059760E+04  0.50400001928E-02 0. -1.
</event>
<event>
 5   0  0.5967046E-05  0.2093083E+04  0.7818609E-02  0.8564296E-01
       -2   -1    0    0    0  501  0.00000000000E+00  0.00000000000E+00  0.53045213303E+03  0.53045213303E+03  0.25500000920E-02 0. -1.
        2   -1    0    0  501    0  0.00000000000E+00  0.00000000000E+00 -0.20647466027E+04  0.20647466027E+04  0.25500000920E-02 0.  1.
    10030    2    1    2    0    0  0.00000000000E+00  0.00000000000E+00 -0.15342944696E+04  0.25951987357E+04  0.20930831226E+04 0.  0.
        4    1    3    3  502    0 -0.96766288327E+03 -0.31337780393E+03 -0.46174443477E+03  0.11170437053E+04  0.12699999809E+01 0. -1.
       -4    1    3    3    0  502  0.96766288327E+03  0.31337780393E+03 -0.10725500349E+04  0.14781550304E+04  0.12699999809E+01 0.  1.
</event>
<event>
 5   0  0.2604390E-05  0.2090761E+04  0.7818609E-02  0.8565324E-01
       -1   -1    0    0    0  501  0.00000000000E+00  0.00000000000E+00  0.86515384033E+03  0.86515384034E+03  0.50400001928E-02 0. -1.
        1   -1    0    0  501    0  0.00000000000E+00  0.00000000000E+00 -0.12631515909E+04  0.12631515909E+04  0.50400001928E-02 0.  1.
    10030    2    1    2    0    0  0.00000000000E+00  0.00000000000E+00 -0.39799775061E+03  0.21283054313E+04  0.20907610574E+04 0.  0.
        5    1    3    3  502    0 -0.68514512475E+03 -0.47883864767E+03  0.44003840300E+03  0.94465135292E+03  0.46999998093E+01 0. -1.
       -5    1    3    3    0  502  0.68514512475E+03  0.47883864767E+03 -0.83803615361E+03  0.11836540784E+04  0.46999998093E+01 0.  1.
</event>
<event>
 5   0  0.2699285E-05  0.2096779E+04  0.7818609E-02  0.8562664E-01
       -1   -1    0    0    0  501  0.00000000000E+00  0.00000000000E+00  0.90913723381E+03  0.90913723383E+03  0.50400001928E-02 0.  1.
        1   -1    0    0  501    0  0.00000000000E+00  0.00000000000E+00 -0.12089707875E+04  0.12089707875E+04  0.50400001928E-02 0. -1.
    10030    2    1    2    0    0  0.00000000000E+00  0.00000000000E+00 -0.29983355366E+03  0.21181080213E+04  0.20967788224E+04 0.  0.
        2    1    3    3  502    0  0.21986097319E+03 -0.92458085221E+03  0.29722773083E+03  0.99575746233E+03  0.25500000920E-02 0.  1.
       -2    1    3    3    0  502 -0.21986097319E+03  0.92458085221E+03 -0.59706128449E+03  0.11223505590E+04  0.25500000920E-02 0. -1.
</event>
<event>
 5   0  0.2789662E-05  0.2100686E+04  0.7818609E-02  0.8560941E-01
       -1   -1    0    0    0  501  0.00000000000E+00  0.00000000000E+00  0.13718044115E+04  0.13718044115E+04  0.50400001928E-02 0. -1.
        1   -1    0    0  501    0  0.00000000000E+00  0.00000000000E+00 -0.80421116189E+03  0.80421116191E+03  0.50400001928E-02 0.  1.
    10030    2    1    2    0    0  0.00000000000E+00  0.00000000000E+00  0.56759324959E+03  0.21760155734E+04  0.21006860019E+04 0.  0.
        4    1    3    3  502    0  0.46207023277E+02  0.10189025248E+04  0.54363298130E+03  0.11557836628E+04  0.12699999809E+01 0. -1.
       -4    1    3    3    0  502 -0.46207023277E+02 -0.10189025248E+04  0.23960268287E+02  0.10202319106E+04  0.12699999809E+01 0.  1.
</event>
<event>
 5   0  0.2602060E-05  0.2099959E+04  0.7818609E-02  0.8561261E-01
       -1   -1    0    0    0  501  0.00000000000E+00  0.00000000000E+00  0.11850719475E+04  0.11850719476E+04  0.50400001928E-02 0.  1.
        1   -1    0    0  501    0  0.00000000000E+00  0.00000000000E+00 -0.93028697562E+03  0.93028697563E+03  0.50400001928E-02 0. -1.
    10030    2    1    2    0    0  0.00000000000E+00  0.00000000000E+00  0.25478497192E+03  0.21153589232E+04  0.20999590453E+04 0.  0.
        1    1    3    3  502    0  0.13807816360E+03 -0.63984939432E+02 -0.91911851129E+03  0.93163216430E+03  0.50400001928E-02 0. -1.
       -1    1    3    3    0  502 -0.13807816360E+03  0.63984939432E+02  0.11739034832E+04  0.11837267589E+04  0.50400001928E-02 0.  1.
</event>
<event>
 5   0  0.5506332E-05  0.2095381E+04  0.7818609E-02  0.8563281E-01
       -2   -1    0    0    0  501  0.00000000000E+00  0.00000000000E+00  0.10181785140E+04  0.10181785140E+04  0.25500000920E-02 0. -1.
        2   -1    0    0  501    0  0.00000000000E+00  0.00000000000E+00 -0.10780582959E+04  0.10780582959E+04  0.25500000920E-02 0.  1.
    10030    2    1    2    0    0  0.00000000000E+00  0.00000000000E+00 -0.59879781921E+02  0.20962368099E+04  0.20953813913E+04 0.  0.
        3    1    3    3  502    0  0.49907714663E+03 -0.33717906652E+03 -0.88754598139E+03  0.10726162410E+04  0.10100000352E+00 0.  1.
       -3    1    3    3    0  502 -0.49907714663E+03  0.33717906652E+03  0.82766619947E+03  0.10236205689E+04  0.10100000352E+00 0. -1.
</event>
<event>
 5   0  0.2699285E-05  0.2098635E+04  0.7818609E-02  0.8561845E-01
        1   -1    0    0  501    0  0.00000000000E+00  0.00000000000E+00  0.13594061195E+04  0.13594061195E+04  0.50400001928E-02 0. -1.
       -1   -1    0    0    0  501  0.00000000000E+00  0.00000000000E+00 -0.80996209545E+03  0.80996209547E+03  0.50400001928E-02 0.  1.
    10030    2    1    2    0    0  0.00000000000E+00  0.00000000000E+00  0.54944402405E+03  0.21693682150E+04  0.20986352033E+04 0.  0.
        2    1    3    3  502    0 -0.70557049679E+03  0.16178553653E+03  0.10599720890E+04  0.12835673396E+04  0.25500000920E-02 0. -1.
       -2    1    3    3    0  502  0.70557049679E+03 -0.16178553653E+03 -0.51052806494E+03  0.88580087541E+03  0.25500000920E-02 0.  1.
</event>
<event>
 5   0  0.5506332E-05  0.2072020E+04  0.7818609E-02  0.8573670E-01
        2   -1    0    0  501    0  0.00000000000E+00  0.00000000000E+00  0.16731455749E+04  0.16731455749E+04  0.25500000920E-02 0. -1.
       -2   -1    0    0    0  501  0.00000000000E+00  0.00000000000E+00 -0.64149630290E+03  0.64149630290E+03  0.25500000920E-02 0.  1.
    10030    2    1    2    0    0  0.00000000000E+00  0.00000000000E+00  0.10316492720E+04  0.23146418778E+04  0.20720199811E+04 0.  0.
        3    1    3    3  502    0 -0.34679810619E+03  0.92681112359E+03  0.85844479461E+03  0.13100287252E+04  0.10100000352E+00 0.  1.
       -3    1    3    3    0  502  0.34679810619E+03 -0.92681112359E+03  0.17320447743E+03  0.10046131526E+04  0.10100000352E+00 0. -1.
</event>
<event>
 5   0  0.2604390E-05  0.2096129E+04  0.7818609E-02  0.8562951E-01
        1   -1    0    0  501    0  0.00000000000E+00  0.00000000000E+00  0.18969546022E+04  0.18969546022E+04  0.50400001928E-02 0. -1.
       -1   -1    0    0    0  501  0.00000000000E+00  0.00000000000E+00 -0.57905385254E+03  0.57905385256E+03  0.50400001928E-02 0.  1.
    10030    2    1    2    0    0  0.00000000000E+00  0.00000000000E+00  0.13179007497E+04  0.24760084548E+04  0.20961286893E+04 0.  0.
        5    1    3    3  502    0  0.64957004077E+03 -0.74279133320E+03  0.10761376890E+04  0.14600597995E+04  0.46999998093E+01 0. -1.
       -5    1    3    3    0  502 -0.64957004077E+03  0.74279133320E+03  0.24176306065E+03  0.10159486552E+04  0.46999998093E+01 0.  1.
</event>
<event>
 5   0  0.5506332E-05  0.2089924E+04  0.7818609E-02  0.8565695E-01
       -2   -1    0    0    0  501  0.00000000000E+00  0.00000000000E+00  0.10098596681E+04  0.10098596681E+04  0.25500000920E-02 0.  1.
        2   -1    0    0  501    0  0.00000000000E+00  0.00000000000E+00 -0.10812848282E+04  0.10812848282E+04  0.25500000920E-02 0. -1.
    10030    2    1    2    0    0  0.00000000000E+00  0.00000000000E+00 -0.71425160030E+02  0.20911444963E+04  0.20899243409E+04 0.  0.
        3    1    3    3  502    0 -0.93936958244E+03 -0.17641209556E+03 -0.45834465309E+03  0.10600076750E+04  0.10100000352E+00 0. -1.
       -3    1    3    3    0  502  0.93936958244E+03  0.17641209556E+03  0.38691949306E+03  0.10311368213E+04  0.10100000352E+00 0.  1.
</event>
<event>
 5   0  0.2732159E-05  0.2100186E+04  0.7818609E-02  0.8561162E-01
       -1   -1    0    0    0  501  0.00000000000E+00  0.00000000000E+00  0.43866881385E+03  0.43866881388E+03  0.50400001928E-02 0.  1.
        1   -1    0    0  501    0  0.00000000000E+00  0.00000000000E+00 -0.25137301508E+04  0.25137301508E+04  0.50400001928E-02 0. -1.
    10030    2    1    2    0    0  0.00000000000E+00  0.00000000000E+00 -0.20750613370E+04  0.29523989647E+04  0.21001857286E+04 0.  0.
        3    1    3    3  502    0 -0.18255527610E+03  0.71553797223E+01  0.41615548995E+03  0.45449205748E+03  0.10100000352E+00 0.  1.
       -3    1    3    3    0  502  0.18255527610E+03 -0.71553797223E+01 -0.24912168269E+04  0.24979069072E+04  0.10100000352E+00 0. -1.
</event>
<event>
 5   0  0.2604390E-05  0.2106476E+04  0.7818609E-02  0.8558396E-01
        1   -1    0    0  501    0  0.00000000000E+00  0.00000000000E+00  0.85730400808E+03  0.85730400809E+03  0.50400001928E-02 0. -1.
       -1   -1    0    0    0  501  0.00000000000E+00  0.00000000000E+00 -0.12939519659E+04  0.12939519659E+04  0.50400001928E-02 0.  1.
    10030    2    1    2    0    0  0.00000000000E+00  0.00000000000E+00 -0.43664795778E+03  0.21512559740E+04  0.21064759259E+04 0.  0.
        5    1    3    3  502    0 -0.86194049158E+02  0.91084278244E+03 -0.75116652771E+03  0.11837809049E+04  0.46999998093E+01 0.  1.
       -5    1    3    3    0  502  0.86194049158E+02 -0.91084278244E+03  0.31451856993E+03  0.96747506907E+03  0.46999998093E+01 0. -1.
</event>
<event>
 5   0  0.5866610E-05  0.2111314E+04  0.7818609E-02  0.8556276E-01
        2   -1    0    0  501    0  0.00000000000E+00  0.00000000000E+00  0.76829053466E+03  0.76829053466E+03  0.25500000920E-02 0.  1.
       -2   -1    0    0    0  501  0.00000000000E+00  0.00000000000E+00 -0.14505081089E+04  0.14505081089E+04  0.25500000920E-02 0. -1.
    10030    2    1    2    0    0  0.00000000000E+00  0.00000000000E+00 -0.68221757428E+03  0.22187986436E+04  0.21113139516E+04 0.  0.
        5    1    3    3  502    0 -0.37590219357E+03  0.95079679128E+03 -0.61730508957E+03  0.11943218415E+04  0.46999998093E+01 0. -1.
       -5    1    3    3    0  502  0.37590219357E+03 -0.95079679128E+03 -0.64912484715E+02  0.10244768021E+04  0.46999998093E+01 0.  1.
</event>
<event>
 5   0  0.2732159E-05  0.2100405E+04  0.7818609E-02  0.8561065E-01
       -1   -1    0    0    0  501  0.00000000000E+00  0.00000000000E+00  0.18090873041E+04  0.18090873041E+04  0.50400001928E-02 0. -1.
        1   -1    0    0  501    0  0.00000000000E+00  0.00000000000E+00 -0.60965855687E+03  0.60965855689E+03  0.50400001928E-02 0.  1.
    10030    2    1    2    0    0  0.00000000000E+00  0.00000000000E+00  0.11994287473E+04  0.24187458610E+04  0.21004052515E+04 0.  0.
        3    1    3    3  502    0 -0.63014652520E+03  0.27908303878E+03 -0.31282351808E+03  0.75685569920E+03  0.10100000352E+00 0.  1.
       -3    1    3    3    0  502  0.63014652520E+03 -0.27908303878E+03  0.15122522653E+04  0.16618901618E+04  0.10100000352E+00 0. -1.
</event>
<event>
 5   0  0.2699285E-05  0.2085096E+04  0.7818609E-02  0.8567837E-01
        1   -1    0    0  501    0  0.00000000000E+00  0.00000000000E+00  0.14152136871E+04  0.14152136871E+04  0.50400001928E-02 0. -1.
       -1   -1    0    0    0  501  0.00000000000E+00  0.00000000000E+00 -0.76801598555E+03  0.76801598557E+03  0.50400001928E-02 0.  1.
    10030    2    1    2    0    0  0.00000000000E+00  0.00000000000E+00  0.64719770156E+03  0.21832296727E+04  0.20850963860E+04 0.  0.
        2    1    3    3  502    0 -0.59213048671E+03 -0.85799815139E+03  0.33541693577E+03  0.10951181954E+04  0.25500000920E-02 0. -1.
       -2    1    3    3    0  502  0.59213048671E+03  0.85799815139E+03  0.31178076579E+03  0.10881114773E+04  0.25500000920E-02 0.  1.
</event>
<event>
 5   0  0.5954140E-05  0.2110509E+04  0.7818609E-02  0.8556628E-01
        2   -1    0    0  501    0  0.00000000000E+00  0.00000000000E+00  0.10381550243E+04  0.10381550243E+04  0.25500000920E-02 0. -1.
       -2   -1    0    0    0  501  0.00000000000E+00  0.00000000000E+00 -0.10726356481E+04  0.10726356481E+04  0.25500000920E-02 0.  1.
    10030    2    1    2    0    0  0.00000000000E+00  0.00000000000E+00 -0.34480623762E+02  0.21107906724E+04  0.21105090261E+04 0.  0.
        2    1    3    3  502    0 -0.10391099313E+04 -0.15889971941E+03 -0.10979193474E+03  0.10569072046E+04  0.25500000920E-02 0. -1.
       -2    1    3    3    0  502  0.10391099313E+04  0.15889971941E+03  0.75311310983E+02  0.10538834678E+04  0.25500000920E-02 0.  1.
</event>
<event>
 5   0  0.5954140E-05  0.2113931E+04  0.7818609E-02  0.8555131E-01
       -2   -1    0    0    0  501  0.00000000000E+00  0.00000000000E+00  0.19673246769E+04  0.19673246769E+04  0.25500000920E-02 0. -1.
        2   -1    0    0  501    0  0.00000000000E+00  0.00000000000E+00 -0.56786572337E+03  0.56786572338E+03  0.25500000920E-02 0.  1.
    10030    2    1    2    0    0  0.00000000000E+00  0.00000000000E+00  0.13994589536E+04  0.25351904003E+04  0.21139311727E+04 0.  0.
        2    1    3    3  502    0  0.79678973515E+03 -0.64783921425E+03  0.39965419776E+03  0.11019496392E+04  0.25500000920E-02 0.  1.
       -2    1    3    3    0  502 -0.79678973515E+03  0.64783921425E+03  0.99980475580E+03  0.14332407611E+04  0.25500000920E-02 0. -1.
</event>
<event>
 5   0  0.5967046E-05  0.2104127E+04  0.7818609E-02  0.8559428E-01
       -2   -1    0    0    0  501  0.00000000000E+00  0.00000000000E+00  0.95792494079E+03  0.95792494079E+03  0.25500000920E-02 0.  1.
        2   -1    0    0  501    0  0.00000000000E+00  0.00000000000E+00 -0.11554530564E+04  0.11554530564E+04  0.25500000920E-02 0. -1.
    10030    2    1    2    0    0  0.00000000000E+00  0.00000000000E+00 -0.19752811559E+03  0.21133779972E+04  0.21041267078E+04 0.  0.
        4    1    3    3  502    0 -0.62836257556E+03 -0.81149688662E+03  0.13348618616E+03  0.10349815931E+04  0.12699999809E+01 0.  1.
       -4    1    3    3    0  502  0.62836257556E+03  0.81149688662E+03 -0.33101430174E+03  0.10783964040E+04  0.12699999809E+01 0. -1.
</event>
<event>
 5   0  0.5462851E-05  0.2084414E+04  0.7818609E-02  0.8568140E-01
       -2   -1    0    0    0  501  0.00000000000E+00  0.00000000000E+00  0.82660985112E+03  0.82660985112E+03  0.25500000920E-02 0. -1.
        2   -1    0    0  501    0  0.00000000000E+00  0.00000000000E+00 -0.13140368481E+04  0.13140368481E+04  0.25500000920E-02 0.  1.
    10030    2    1    2    0    0  0.00000000000E+00  0.00000000000E+00 -0.48742699696E+03  0.21406466992E+04  0.20844143574E+04 0.  0.
        1    1    3    3  502    0  0.15692220703E+03 -0.32713709351E+02 -0.13013014353E+04  0.13111369842E+04  0.50400001928E-02 0.  1.
       -1    1    3    3    0  502 -0.15692220703E+03  0.32713709351E+02  0.81387443835E+03  0.82950971499E+03  0.50400001928E-02 0. -1.
</event>
<event>
 5   0  0.2017750E-05  0.2101286E+04  0.7818609E-02  0.8560677E-01
        4   -1    0    0  501    0  0.00000000000E+00  0.00000000000E+00  0.99079463113E+03  0.99079544507E+03  0.12699999809E+01 0.  1.
       -4   -1    0    0    0  501  0.00000000000E+00  0.00000000000E+00 -0.11141048652E+04  0.11141055891E+04  0.12699999809E+01 0. -1.
    10030    2    1    2    0    0  0.00000000000E+00  0.00000000000E+00 -0.12331023407E+03  0.21049010341E+04  0.21012860228E+04 0.  0.
        5    1    3    3  502    0  0.73441165069E+03 -0.35096980422E+03 -0.72709335241E+03  0.10914335111E+04  0.46999998093E+01 0. -1.
       -5    1    3    3    0  502 -0.73441165069E+03  0.35096980422E+03  0.60378311834E+03  0.10134675230E+04  0.46999998093E+01 0.  1.
</event>
<event>
 5   0  0.5967046E-05  0.2124489E+04  0.7818609E-02  0.8550532E-01
        2   -1    0    0  501    0  0.00000000000E+00  0.00000000000E+00  0.16544080242E+04  0.16544080242E+04  0.25500000920E-02 0. -1.
       -2   -1    0    0    0  501  0.00000000000E+00  0.00000000000E+00 -0.68203427864E+03  0.68203427865E+03  0.25500000920E-02 0.  1.
    10030    2    1    2    0    0  0.00000000000E+00  0.00000000000E+00  0.97237374557E+03  0.23364423029E+04  0.21244886287E+04 0.  0.
        4    1    3    3  502    0 -0.10087112110E+04 -0.28724658056E+03  0.30100602676E+03  0.10911531268E+04  0.12699999809E+01 0.  1.
       -4    1    3    3    0  502  0.10087112110E+04  0.28724658056E+03  0.67136771881E+03  0.12452891760E+04  0.12699999809E+01 0. -1.
</event>
<event>
 5   0  0.5506332E-05  0.2128740E+04  0.7818609E-02  0.8548688E-01
        2   -1    0    0  501    0  0.00000000000E+00  0.00000000000E+00  0.89702938837E+03  0.89702938838E+03  0.25500000920E-02 0. -1.
       -2   -1    0    0    0  501  0.00000000000E+00  0.00000000000E+00 -0.12629282136E+04  0.12629282137E+04  0.25500000920E-02 0.  1.
    10030    2    1    2    0    0  0.00000000000E+00  0.00000000000E+00 -0.36589882528E+03  0.21599576020E+04  0.21287402125E+04 0.  0.
        3    1    3    3  502    0  0.65274089389E+03  0.30283531393E+01  0.67009574267E+03  0.93547215887E+03  0.10100000352E+00 0. -1.
       -3    1    3    3    0  502 -0.65274089389E+03 -0.30283531393E+01 -0.10359945680E+04  0.12244854432E+04  0.10100000352E+00 0.  1.
</event>
<event>
 5   0  0.2732159E-05  0.2089550E+04  0.7818609E-02  0.8565861E-01
        1   -1    0    0  501    0  0.00000000000E+00  0.00000000000E+00  0.80513259722E+03  0.80513259724E+03  0.50400001928E-02 0.  1.
       -1   -1    0    0    0  501  0.00000000000E+00  0.00000000000E+00 -0.13557458615E+04  0.13557458615E+04  0.50400001928E-02 0. -1.
    10030    2    1    2    0    0  0.00000000000E+00  0.00000000000E+00 -0.55061326429E+03  0.21608784588E+04  0.20895503695E+04 0.  0.
        3    1    3    3  502    0  0.78926251240E+03 -0.47415963941E+03 -0.78591469175E+03  0.12105472275E+04  0.10100000352E+00 0. -1.
       -3    1    3    3    0  502 -0.78926251240E+03  0.47415963941E+03  0.23530142746E+03  0.95033123125E+03  0.10100000352E+00 0.  1.
</event>
<event>
 5   0  0.5866610E-05  0.2109856E+04  0.7818609E-02  0.8556914E-01
       -2   -1    0    0    0  501  0.00000000000E+00  0.00000000000E+00  0.53099963916E+03  0.53099963916E+03  0.25500000920E-02 0.  1.
        2   -1    0    0  501    0  0.00000000000E+00  0.00000000000E+00 -0.20958071492E+04  0.20958071492E+04  0.25500000920E-02 0. -1.
    10030    2    1    2    0    0  0.00000000000E+00  0.00000000000E+00 -0.15648075101E+04  0.26268067884E+04  0.21098557676E+04 0.  0.
        5    1    3    3  502    0 -0.52258950906E+03  0.84492738741E+03 -0.34073195719E+03  0.10502963590E+04  0.46999998093E+01 0.  1.
       -5    1    3    3    0  502  0.52258950906E+03 -0.84492738741E+03 -0.12240755529E+04  0.15765104294E+04  0.46999998093E+01 0. -1.
</event>
<event>
 5   0  0.2789662E-05  0.2062005E+04  0.7818609E-02  0.8578168E-01
       -1   -1    0    0    0  501  0.00000000000E+00  0.00000000000E+00  0.10847366897E+04  0.10847366897E+04  0.50400001928E-02 0. -1.
        1   -1    0    0  501    0  0.00000000000E+00  0.00000000000E+00 -0.97993026457E+03  0.97993026458E+03  0.50400001928E-02 0.  1.
    10030    2    1    2    0    0  0.00000000000E+00  0.00000000000E+00  0.10480642515E+03  0.20646669543E+04  0.20620051517E+04 0.  0.
        4    1    3    3  502    0 -0.93816985266E+03  0.43811680838E+02 -0.37344870969E+03  0.10107164229E+04  0.12699999809E+01 0.  1.
       -4    1    3    3    0  502  0.93816985266E+03 -0.43811680838E+02  0.47825513483E+03  0.10539505314E+04  0.12699999809E+01 0. -1.
</event>
<event>
 5   0  0.5462851E-05  0.2111487E+04  0.7818609E-02  0.8556200E-01
       -2   -1    0    0    0  501  0.00000000000E+00  0.00000000000E+00  0.59918238063E+03  0.59918238063E+03  0.25500000920E-02 0.  1.
        2   -1    0    0  501    0  0.00000000000E+00  0.00000000000E+00 -0.18601922757E+04  0.18601922757E+04  0.25500000920E-02 0. -1.
    10030    2    1    2    0    0  0.00000000000E+00  0.00000000000E+00 -0.12610098951E+04  0.24593746563E+04  0.21114870932E+04 0.  0.
        1    1    3    3  502    0  0.54620286912E+03  0.48245736391E+03 -0.15202255018E+04  0.16858790759E+04  0.50400001928E-02 0. -1.
       -1    1    3    3    0  502 -0.54620286912E+03 -0.48245736391E+03  0.25921560669E+03  0.77349558046E+03  0.50400001928E-02 0.  1.
</event>
<event>
 5   0  0.5954140E-05  0.2094653E+04  0.7818609E-02  0.8563603E-01
       -2   -1    0    0    0  501  0.00000000000E+00  0.00000000000E+00  0.74652932391E+03  0.74652932391E+03  0.25500000920E-02 0. -1.
        2   -1    0    0  501    0  0.00000000000E+00  0.00000000000E+00 -0.14693226232E+04  0.14693226232E+04  0.25500000920E-02 0.  1.
    10030    2    1    2    0    0  0.00000000000E+00  0.00000000000E+00 -0.72279329931E+03  0.22158519471E+04  0.20946526438E+04 0.  0.
        2    1    3    3  502    0 -0.26386155149E+02 -0.81792950011E+03 -0.10528103928E+04  0.13334596430E+04  0.25500000920E-02 0.  1.
       -2    1    3    3    0  502  0.26386155149E+02  0.81792950011E+03  0.33001709351E+03  0.88239230411E+03  0.25500000920E-02 0. -1.
</event>
<event>
 5   0  0.2604390E-05  0.2099057E+04  0.7818609E-02  0.8561659E-01
       -1   -1    0    0    0  501  0.00000000000E+00  0.00000000000E+00  0.15648440138E+04  0.15648440138E+04  0.50400001928E-02 0. -1.
        1   -1    0    0  501    0  0.00000000000E+00  0.00000000000E+00 -0.70391013805E+03  0.70391013807E+03  0.50400001928E-02 0.  1.
    10030    2    1    2    0    0  0.00000000000E+00  0.00000000000E+00  0.86093387578E+03  0.22687541519E+04  0.20990565174E+04 0.  0.
        5    1    3    3  502    0 -0.21172154007E+01 -0.74606884606E+03  0.12282916236E+04  0.14371310338E+04  0.46999998093E+01 0. -1.
       -5    1    3    3    0  502  0.21172154007E+01  0.74606884606E+03 -0.36735774785E+03  0.83162311810E+03  0.46999998093E+01 0.  1.
</event>
<event>
 5   0  0.5967046E-05  0.2105507E+04  0.7818609E-02  0.8558821E-01
       -2   -1    0    0    0  501  0.00000000000E+00  0.00000000000E+00  0.98307242145E+03  0.98307242145E+03  0.25500000920E-02 0.  1.
        2   -1    0    0  501    0  0.00000000000E+00  0.00000000000E+00 -0.11273739786E+04  0.11273739786E+04  0.25500000920E-02 0. -1.
    10030    2    1    2    0    0  0.00000000000E+00  0.00000000000E+00 -0.14430155719E+03  0.21104464001E+04  0.21055073185E+04 0.  0.
        4    1    3    3  502    0  0.21038481676E+03 -0.68734183314E+03  0.69880111852E+03  0.10025094428E+04  0.12699999809E+01 0.  1.
       -4    1    3    3    0  502 -0.21038481676E+03  0.68734183314E+03 -0.84310267570E+03  0.11079369573E+04  0.12699999809E+01 0. -1.
</event>
<event>
 5   0  0.5866610E-05  0.2027853E+04  0.7818609E-02  0.8593708E-01
       -2   -1    0    0    0  501  0.00000000000E+00  0.00000000000E+00  0.13197114875E+04  0.13197114875E+04  0.25500000920E-02 0. -1.
        2   -1    0    0  501    0  0.00000000000E+00  0.00000000000E+00 -0.77899382758E+03  0.77899382759E+03  0.25500000920E-02 0.  1.
    10030    2    1    2    0    0  0.00000000000E+00  0.00000000000E+00  0.54071765988E+03  0.20987053151E+04  0.20278531534E+04 0.  0.
        5    1    3    3  502    0  0.60447088870E+02  0.63254032834E+03 -0.54735071830E+03  0.83867515544E+03  0.46999998093E+01 0.  1.
       -5    1    3    3    0  502 -0.60447088870E+02 -0.63254032834E+03  0.10880683782E+04  0.12600301596E+04  0.46999998093E+01 0. -1.
</event>
<event>
 5   0  0.2789662E-05  0.2091255E+04  0.7818609E-02  0.8565105E-01
       -1   -1    0    0    0  501  0.00000000000E+00  0.00000000000E+00  0.75608687907E+03  0.75608687909E+03  0.50400001928E-02 0. -1.
        1   -1    0    0  501    0  0.00000000000E+00  0.00000000000E+00 -0.14460467204E+04  0.14460467204E+04  0.50400001928E-02 0.  1.
    10030    2    1    2    0    0  0.00000000000E+00  0.00000000000E+00 -0.68995984137E+03  0.22021335995E+04  0.20912550795E+04 0.  0.
        4    1    3    3  502    0  0.37539600132E+03  0.17047450523E+03 -0.13568394200E+04  0.14180968019E+04  0.12699999809E+01 0.  1.
       -4    1    3    3    0  502 -0.37539600132E+03 -0.17047450523E+03  0.66687957868E+03  0.78403679767E+03  0.12699999809E+01 0. -1.
</event>
<event>
 5   0  0.5506332E-05  0.2102763E+04  0.7818609E-02  0.8560027E-01
       -2   -1    0    0    0  501  0.00000000000E+00  0.00000000000E+00  0.56647749131E+03  0.56647749132E+03  0.25500000920E-02 0.  1.
        2   -1    0    0  501    0  0.00000000000E+00  0.00000000000E+00 -0.19513626032E+04  0.19513626032E+04  0.25500000920E-02 0. -1.
    10030    2    1    2    0    0  0.00000000000E+00  0.00000000000E+00 -0.13848851118E+04  0.25178400945E+04  0.21027629368E+04 0.  0.
        3    1    3    3  502    0 -0.31415939152E+02 -0.88343746039E+03 -0.10920855729E+02  0.88406333650E+03  0.10100000352E+00 0.  1.
       -3    1    3    3    0  502  0.31415939152E+02  0.88343746039E+03 -0.13739642561E+04  0.16337767580E+04  0.10100000352E+00 0. -1.
</event>
<event>
 5   0  0.2017750E-05  0.2072516E+04  0.7818609E-02  0.8573448E-01
        3   -1    0    0  501    0  0.00000000000E+00  0.00000000000E+00  0.53339206057E+03  0.53339207014E+03  0.10100000352E+00 0. -1.
       -3   -1    0    0    0  501  0.00000000000E+00  0.00000000000E+00 -0.20132102570E+04  0.20132102595E+04  0.10100000352E+00 0.  1.
    10030    2    1    2    0    0  0.00000000000E+00  0.00000000000E+00 -0.14798181964E+04  0.25466023297E+04  0.20725157493E+04 0.  0.
        4    1    3    3  502    0 -0.38981320381E+03 -0.90335302610E+03 -0.34018248292E+03  0.10410219778E+04  0.12699999809E+01 0. -1.
       -4    1    3    3    0  502  0.38981320381E+03  0.90335302610E+03 -0.11396357135E+04  0.15055803519E+04  0.12699999809E+01 0.  1.
</event>
<event>
 5   0  0.2732159E-05  0.2160340E+04  0.7818609E-02  0.8535119E-01
       -1   -1    0    0    0  501  0.00000000000E+00  0.00000000000E+00  0.74026561549E+03  0.74026561551E+03  0.50400001928E-02 0.  1.
        1   -1    0    0  501    0  0.00000000000E+00  0.00000000000E+00 -0.15761466308E+04  0.15761466308E+04  0.50400001928E-02 0. -1.
    10030    2    1    2    0    0  0.00000000000E+00  0.00000000000E+00 -0.83588101531E+03  0.23164122463E+04  0.21603399323E+04 0.  0.
        3    1    3    3  502    0 -0.63467640796E+03  0.71971524275E+03 -0.94971637554E+03  0.13500982844E+04  0.10100000352E+00 0. -1.
       -3    1    3    3    0  502  0.63467640796E+03 -0.71971524275E+03  0.11383536023E+03  0.96631396188E+03  0.10100000352E+00 0.  1.
</event>
<event>
 5   0  0.2732159E-05  0.2075696E+04  0.7818609E-02  0.8572026E-01
        1   -1    0    0  501    0  0.00000000000E+00  0.00000000000E+00  0.10336447913E+04  0.10336447913E+04  0.50400001928E-02 0.  1.
       -1   -1    0    0    0  501  0.00000000000E+00  0.00000000000E+00 -0.10420686562E+04  0.10420686562E+04  0.50400001928E-02 0. -1.
    10030    2    1    2    0    0  0.00000000000E+00  0.00000000000E+00 -0.84238648794E+01  0.20757134475E+04  0.20756963542E+04 0.  0.
        3    1    3    3  502    0 -0.98185988756E+03 -0.25711378104E+03  0.21252123748E+03  0.10369771559E+04  0.10100000352E+00 0.  1.
       -3    1    3    3    0  502  0.98185988756E+03  0.25711378104E+03 -0.22094510236E+03  0.10387362917E+04  0.10100000352E+00 0. -1.
</event>
<event>
 5   0  0.2602060E-05  0.2112531E+04  0.7818609E-02  0.8555743E-01
        1   -1    0    0  501    0  0.00000000000E+00  0.00000000000E+00  0.93119368363E+03  0.93119368365E+03  0.50400001928E-02 0.  1.
       -1   -1    0    0    0  501  0.00000000000E+00  0.00000000000E+00 -0.11981359776E+04  0.11981359776E+04  0.50400001928E-02 0. -1.
    10030    2    1    2    0    0  0.00000000000E+00  0.00000000000E+00 -0.26694229392E+03  0.21293296612E+04  0.21125308561E+04 0.  0.
        1    1    3    3  502    0 -0.84555642539E+02  0.10458945640E+04 -0.25547730659E+03  0.10799600687E+04  0.50400001928E-02 0. -1.
       -1    1    3    3    0  502  0.84555642539E+02 -0.10458945640E+04 -0.11464987329E+02  0.10493695925E+04  0.50400001928E-02 0.  1.
</event>
<event>
 5   0  0.5506332E-05  0.2119159E+04  0.7818609E-02  0.8552850E-01
       -2   -1    0    0    0  501  0.00000000000E+00  0.00000000000E+00  0.10455859712E+04  0.10455859713E+04  0.25500000920E-02 0.  1.
        2   -1    0    0  501    0  0.00000000000E+00  0.00000000000E+00 -0.10737607938E+04  0.10737607938E+04  0.25500000920E-02 0. -1.
    10030    2    1    2    0    0  0.00000000000E+00  0.00000000000E+00 -0.28174822535E+02  0.21193467650E+04  0.21191594772E+04 0.  0.
        3    1    3    3  502    0  0.10593063660E+04 -0.20960761777E+02 -0.25915613201E+02  0.10598306279E+04  0.10100000352E+00 0.  1.
       -3    1    3    3    0  502 -0.10593063660E+04  0.20960761777E+02 -0.22592093341E+01  0.10595161371E+04  0.10100000352E+00 0. -1.
</event>
<event>
 5   0  0.2017750E-05  0.2095887E+04  0.7818609E-02  0.8563057E-01
       -3   -1    0    0    0  501  0.00000000000E+00  0.00000000000E+00  0.17013955155E+04  0.17013955185E+04  0.10100000352E+00 0. -1.
        3   -1    0    0  501    0  0.00000000000E+00  0.00000000000E+00 -0.64546190776E+03  0.64546191566E+03  0.10100000352E+00 0.  1.
    10030    2    1    2    0    0  0.00000000000E+00  0.00000000000E+00  0.10559336077E+04  0.23468574341E+04  0.20958874093E+04 0.  0.
        5    1    3    3  502    0  0.53311186849E+03 -0.57241586597E+03 -0.25288566455E+03  0.82209575919E+03  0.46999998093E+01 0.  1.
       -5    1    3    3    0  502 -0.53311186849E+03  0.57241586597E+03  0.13088192723E+04  0.15247616750E+04  0.46999998093E+01 0. -1.
</event>
<event>
 5   0  0.5506332E-05  0.2110847E+04  0.7818609E-02  0.8556480E-01
       -2   -1    0    0    0  501  0.00000000000E+00  0.00000000000E+00  0.98446759414E+03  0.98446759414E+03  0.25500000920E-02 0.  1.
        2   -1    0    0  501    0  0.00000000000E+00  0.00000000000E+00 -0.11314931665E+04  0.11314931665E+04  0.25500000920E-02 0. -1.
    10030    2    1    2    0    0  0.00000000000E+00  0.00000000000E+00 -0.14702557232E+03  0.21159607606E+04  0.21108466125E+04 0.  0.
        3    1    3    3  502    0  0.61751810039E+03  0.68867230807E+03 -0.58299627255E+03  0.10933813682E+04  0.10100000352E+00 0. -1.
       -3    1    3    3    0  502 -0.61751810039E+03 -0.68867230807E+03  0.43597070022E+03  0.10225793925E+04  0.10100000352E+00 0.  1.
</event>
<event>
 5   0  0.5866610E-05  0.2105285E+04  0.7818609E-02  0.8558919E-01
       -2   -1    0    0    0  501  0.00000000000E+00  0.00000000000E+00  0.72038130142E+03  0.72038130142E+03  0.25500000920E-02 0.  1.
        2   -1    0    0  501    0  0.00000000000E+00  0.00000000000E+00 -0.15381521214E+04  0.15381521214E+04  0.25500000920E-02 0. -1.
    10030    2    1    2    0    0  0.00000000000E+00  0.00000000000E+00 -0.81777081997E+03  0.22585334228E+04  0.21052848045E+04 0.  0.
        5    1    3    3  502    0  0.31072796885E+03  0.33820566418E+03 -0.14249840056E+04  0.14971761580E+04  0.46999998093E+01 0. -1.
       -5    1    3    3    0  502 -0.31072796885E+03 -0.33820566418E+03  0.60721318561E+03  0.76135726481E+03  0.46999998093E+01 0.  1.
</event>
<event>
 5   0  0.2789662E-05  0.2084854E+04  0.7818609E-02  0.8567945E-01
        1   -1    0    0  501    0  0.00000000000E+00  0.00000000000E+00  0.87705384192E+03  0.87705384193E+03  0.50400001928E-02 0. -1.
       -1   -1    0    0    0  501  0.00000000000E+00  0.00000000000E+00 -0.12389825972E+04  0.12389825972E+04  0.50400001928E-02 0.  1.
    10030    2    1    2    0    0  0.00000000000E+00  0.00000000000E+00 -0.36192875529E+03  0.21160364391E+04  0.20848543805E+04 0.  0.
        4    1    3    3  502    0  0.74486241131E+03 -0.52558772739E+03 -0.69408521722E+03  0.11457828645E+04  0.12699999809E+01 0.  1.
       -4    1    3    3    0  502 -0.74486241131E+03  0.52558772739E+03  0.33215646193E+03  0.97025357463E+03  0.12699999809E+01 0. -1.
</event>
<event>
 5   0  0.2602060E-05  0.2072473E+04  0.7818609E-02  0.8573467E-01
        1   -1    0    0  501    0  0.00000000000E+00  0.00000000000E+00  0.18199615282E+04  0.18199615282E+04  0.50400001928E-02 0. -1.
       -1   -1    0    0    0  501  0.00000000000E+00  0.00000000000E+00 -0.59000475867E+03  0.59000475869E+03  0.50400001928E-02 0.  1.
    10030    2    1    2    0    0  0.00000000000E+00  0.00000000000E+00  0.12299567696E+04  0.24099662869E+04  0.20724728826E+04 0.  0.
        1    1    3    3  502    0 -0.47216530757E+03 -0.44768171275E+03  0.15528024668E+04  0.16836135229E+04  0.50400001928E-02 0. -1.
       -1    1    3    3    0  502  0.47216530757E+03  0.44768171275E+03 -0.32284569720E+03  0.72635276404E+03  0.50400001928E-02 0.  1.
</event>
<event>
 5   0  0.5954140E-05  0.2100225E+04  0.7818609E-02  0.8561144E-01
       -2   -1    0    0    0  501  0.00000000000E+00  0.00000000000E+00  0.24561450827E+04  0.24561450827E+04  0.25500000920E-02 0.  1.
        2   -1    0    0  501    0  0.00000000000E+00  0.00000000000E+00 -0.44897013393E+03  0.44897013393E+03  0.25500000920E-02 0. -1.
    10030    2    1    2    0    0  0.00000000000E+00  0.00000000000E+00  0.20071749487E+04  0.29051152166E+04  0.21002245468E+04 0.  0.
        2    1    3    3  502    0 -0.50313180145E+03 -0.58993893357E+03  0.19832167965E+04  0.21293939084E+04  0.25500000920E-02 0.  1.
       -2    1    3    3    0  502  0.50313180145E+03  0.58993893357E+03  0.23958152211E+02  0.77572130823E+03  0.25500000920E-02 0. -1.
</event>
<event>
 5   0  0.5506332E-05  0.2088056E+04  0.7818609E-02  0.8566523E-01
       -2   -1    0    0    0  501  0.00000000000E+00  0.00000000000E+00  0.10195922624E+04  0.10195922624E+04  0.25500000920E-02 0.  1.
        2   -1    0    0  501    0  0.00000000000E+00  0.00000000000E+00 -0.10690489559E+04  0.10690489559E+04  0.25500000920E-02 0. -1.
    10030    2    1    2    0    0  0.00000000000E+00  0.00000000000E+00 -0.49456693497E+02  0.20886412183E+04  0.20880555966E+04 0.  0.
        3    1    3    3  502    0 -0.71097399319E+03  0.11524332878E+03  0.73128054962E+03  0.10264191621E+04  0.10100000352E+00 0.  1.
       -3    1    3    3    0  502  0.71097399319E+03 -0.11524332878E+03 -0.78073724311E+03  0.10622220563E+04  0.10100000352E+00 0. -1.
</event>
<event>
 5   0  0.2602060E-05  0.2094664E+04  0.7818609E-02  0.8563597E-01
        1   -1    0    0  501    0  0.00000000000E+00  0.00000000000E+00  0.76048115840E+03  0.76048115842E+03  0.50400001928E-02 0.  1.
       -1   -1    0    0    0  501  0.00000000000E+00  0.00000000000E+00 -0.14423824574E+04  0.14423824574E+04  0.50400001928E-02 0. -1.
    10030    2    1    2    0    0  0.00000000000E+00  0.00000000000E+00 -0.68190129900E+03  0.22028636158E+04  0.20946643474E+04 0.  0.
        1    1    3    3  502    0  0.89649483789E+03 -0.31698374327E+03  0.12072815449E+03  0.95851811416E+03  0.50400001928E-02 0.  1.
       -1    1    3    3    0  502 -0.89649483789E+03  0.31698374327E+03 -0.80262945349E+03  0.12443455017E+04  0.50400001928E-02 0. -1.
</event>
<event>
 5   0  0.5866610E-05  0.2290060E+04  0.7818609E-02  0.8481851E-01
        2   -1    0    0  501    0  0.00000000000E+00  0.00000000000E+00  0.12999454096E+04  0.12999454096E+04  0.25500000920E-02 0.  1.
       -2   -1    0    0    0  501  0.00000000000E+00  0.00000000000E+00 -0.10085760746E+04  0.10085760746E+04  0.25500000920E-02 0. -1.
    10030    2    1    2    0    0  0.00000000000E+00  0.00000000000E+00  0.29136933501E+03  0.23085214841E+04  0.22900601200E+04 0.  0.
        5    1    3    3  502    0 -0.73230533578E+03 -0.66586800900E+03  0.72601688364E+03  0.12275071957E+04  0.46999998093E+01 0.  1.
       -5    1    3    3    0  502  0.73230533578E+03  0.66586800900E+03 -0.43464754863E+03  0.10810142884E+04  0.46999998093E+01 0. -1.
</event>
<event>
 5   0  0.2602060E-05  0.2087208E+04  0.7818609E-02  0.8566899E-01
       -1   -1    0    0    0  501  0.00000000000E+00  0.00000000000E+00  0.92447036557E+03  0.92447036558E+03  0.50400001928E-02 0. -1.
        1   -1    0    0  501    0  0.00000000000E+00  0.00000000000E+00 -0.11780901960E+04  0.11780901960E+04  0.50400001928E-02 0.  1.
    10030    2    1    2    0    0  0.00000000000E+00  0.00000000000E+00 -0.25361983042E+03  0.21025605616E+04  0.20872081585E+04 0.  0.
        1    1    3    3  502    0  0.56378097798E+03  0.86931022407E+03 -0.25246804156E+03  0.10664377004E+04  0.50400001928E-02 0. -1.
       -1    1    3    3    0  502 -0.56378097798E+03 -0.86931022407E+03 -0.11517888683E+01  0.10361228612E+04  0.50400001928E-02 0.  1.
</event>
<event>
 5   0  0.2604390E-05  0.2104981E+04  0.7818609E-02  0.8559052E-01
       -1   -1    0    0    0  501  0.00000000000E+00  0.00000000000E+00  0.59332033021E+03  0.59332033023E+03  0.50400001928E-02 0.  1.
        1   -1    0    0  501    0  0.00000000000E+00  0.00000000000E+00 -0.18670119553E+04  0.18670119553E+04  0.50400001928E-02 0. -1.
    10030    2    1    2    0    0  0.00000000000E+00  0.00000000000E+00 -0.12736916250E+04  0.24603322855E+04  0.21049809024E+04 0.  0.
        5    1    3    3  502    0  0.15588734397E+02  0.10493422029E+04 -0.54369200910E+03  0.11819412668E+04  0.46999998093E+01 0.  1.
       -5    1    3    3    0  502 -0.15588734397E+02 -0.10493422029E+04 -0.72999961595E+03  0.12783910187E+04  0.46999998093E+01 0. -1.
</event>
<event>
 5   0  0.5954140E-05  0.2071463E+04  0.7818609E-02  0.8573919E-01
       -2   -1    0    0    0  501  0.00000000000E+00  0.00000000000E+00  0.86934495550E+03  0.86934495551E+03  0.25500000920E-02 0. -1.
        2   -1    0    0  501    0  0.00000000000E+00  0.00000000000E+00 -0.12339633657E+04  0.12339633657E+04  0.25500000920E-02 0.  1.
    10030    2    1    2    0    0  0.00000000000E+00  0.00000000000E+00 -0.36461841016E+03  0.21033083212E+04  0.20714630841E+04 0.  0.
        2    1    3    3  502    0 -0.69808225496E+03  0.54620015139E+02 -0.95721776997E+03  0.11859882124E+04  0.25500000920E-02 0.  1.
       -2    1    3    3    0  502  0.69808225496E+03 -0.54620015139E+02  0.59259935981E+03  0.91732010880E+03  0.25500000920E-02 0. -1.
</event>
<event>
 5   0  0.2602060E-05  0.2116525E+04  0.7818609E-02  0.8553999E-01
        1   -1    0    0  501    0  0.00000000000E+00  0.00000000000E+00  0.94544667754E+03  0.94544667756E+03  0.50400001928E-02 0.  1.
       -1   -1    0    0    0  501  0.00000000000E+00  0.00000000000E+00 -0.11845397801E+04  0.11845397802E+04  0.50400001928E-02 0. -1.
    10030    2    1    2    0    0  0.00000000000E+00  0.00000000000E+00 -0.23909310260E+03  0.21299864577E+04  0.21165246983E+04 0.  0.
        1    1    3    3  502    0  0.23388481872E+03 -0.69407335534E+03  0.64916997244E+03  0.97870403297E+03  0.50400001928E-02 0.  1.
       -1    1    3    3    0  502 -0.23388481872E+03  0.69407335534E+03 -0.88826307504E+03  0.11512824247E+04  0.50400001928E-02 0. -1.
</event>
<event>
 5   0  0.2699285E-05  0.2091058E+04  0.7818609E-02  0.8565193E-01
        1   -1    0    0  501    0  0.00000000000E+00  0.00000000000E+00  0.16825744778E+04  0.16825744778E+04  0.50400001928E-02 0. -1.
       -1   -1    0    0    0  501  0.00000000000E+00  0.00000000000E+00 -0.64967755800E+03  0.64967755802E+03  0.50400001928E-02 0.  1.
    10030    2    1    2    0    0  0.00000000000E+00  0.00000000000E+00  0.10328969198E+04  0.23322520359E+04  0.20910579886E+04 0.  0.
        2    1    3    3  502    0 -0.58369795484E+03  0.72110072809E+03 -0.21283768648E+02  0.92797767288E+03  0.25500000920E-02 0.  1.
       -2    1    3    3    0  502  0.58369795484E+03 -0.72110072809E+03  0.10541806885E+04  0.14042743630E+04  0.25500000920E-02 0. -1.
</event>
<event>
 5   0  0.5866610E-05  0.2100775E+04  0.7818609E-02  0.8560902E-01
        2   -1    0    0  501    0  0.00000000000E+00  0.00000000000E+00  0.13878304623E+04  0.13878304623E+04  0.25500000920E-02 0.  1.
       -2   -1    0    0    0  501  0.00000000000E+00  0.00000000000E+00 -0.79499149774E+03  0.79499149775E+03  0.25500000920E-02 0. -1.
    10030    2    1    2    0    0  0.00000000000E+00  0.00000000000E+00  0.59283896459E+03  0.21828219601E+04  0.21007745409E+04 0.  0.
        5    1    3    3  502    0 -0.82644554880E+03 -0.64372913453E+03  0.37617596009E+03  0.11130722738E+04  0.46999998093E+01 0.  1.
       -5    1    3    3    0  502  0.82644554880E+03  0.64372913453E+03  0.21666300451E+03  0.10697496863E+04  0.46999998093E+01 0. -1.
</event>
<event>
 5   0  0.5967046E-05  0.2076643E+04  0.7818609E-02  0.8571603E-01
        2   -1    0    0  501    0  0.00000000000E+00  0.00000000000E+00  0.26728383486E+04  0.26728383486E+04  0.25500000920E-02 0.  1.
       -2   -1    0    0    0  501  0.00000000000E+00  0.00000000000E+00 -0.40335827850E+03  0.40335827850E+03  0.25500000920E-02 0. -1.
    10030    2    1    2    0    0  0.00000000000E+00  0.00000000000E+00  0.22694800701E+04  0.30761966271E+04  0.20766429399E+04 0.  0.
        4    1    3    3  502    0  0.62137128903E+03 -0.78841634380E+03  0.15278019441E+04  0.18280817824E+04  0.12699999809E+01 0.  1.
       -4    1    3    3    0  502 -0.62137128903E+03  0.78841634380E+03  0.74167812605E+03  0.12481148447E+04  0.12699999809E+01 0. -1.
</event>
<event>
 5   0  0.2699285E-05  0.2102876E+04  0.7818609E-02  0.8559978E-01
       -1   -1    0    0    0  501  0.00000000000E+00  0.00000000000E+00  0.85125012030E+03  0.85125012031E+03  0.50400001928E-02 0.  1.
        1   -1    0    0  501    0  0.00000000000E+00  0.00000000000E+00 -0.12987036045E+04  0.12987036045E+04  0.50400001928E-02 0. -1.
    10030    2    1    2    0    0  0.00000000000E+00  0.00000000000E+00 -0.44745348419E+03  0.21499537248E+04  0.21028757449E+04 0.  0.
        2    1    3    3  502    0 -0.84248746347E+03 -0.39246184673E+03  0.27892010712E+03  0.97036480429E+03  0.25500000920E-02 0.  1.
       -2    1    3    3    0  502  0.84248746347E+03  0.39246184673E+03 -0.72637359131E+03  0.11795889205E+04  0.25500000920E-02 0. -1.
</event>
<event>
 5   0  0.2732159E-05  0.2104968E+04  0.7818609E-02  0.8559058E-01
        1   -1    0    0  501    0  0.00000000000E+00  0.00000000000E+00  0.99257913191E+03  0.99257913192E+03  0.50400001928E-02 0. -1.
       -1   -1    0    0    0  501  0.00000000000E+00  0.00000000000E+00 -0.11160042290E+04  0.11160042290E+04  0.50400001928E-02 0.  1.
    10030    2    1    2    0    0  0.00000000000E+00  0.00000000000E+00 -0.12342509710E+03  0.21085833609E+04  0.21049679417E+04 0.  0.
        3    1    3    3  502    0 -0.16425144738E+03 -0.86171045650E+03  0.52083513642E+03  0.10201924810E+04  0.10100000352E+00 0. -1.
       -3    1    3    3    0  502  0.16425144738E+03  0.86171045650E+03 -0.64426023351E+03  0.10883908799E+04  0.10100000352E+00 0.  1.
</event>
<event>
 5   0  0.2699285E-05  0.2084597E+04  0.7818609E-02  0.8568059E-01
       -1   -1    0    0    0  501  0.00000000000E+00  0.00000000000E+00  0.58415500038E+03  0.58415500040E+03  0.50400001928E-02 0.  1.
        1   -1    0    0  501    0  0.00000000000E+00  0.00000000000E+00 -0.18597572681E+04  0.18597572681E+04  0.50400001928E-02 0. -1.
    10030    2    1    2    0    0  0.00000000000E+00  0.00000000000E+00 -0.12756022677E+04  0.24439122685E+04  0.20845973306E+04 0.  0.
        2    1    3    3  502    0 -0.47190404406E+03 -0.90829124126E+03 -0.86843309332E+03  0.13423346987E+04  0.25500000920E-02 0.  1.
       -2    1    3    3    0  502  0.47190404406E+03  0.90829124126E+03 -0.40716917442E+03  0.11015775698E+04  0.25500000920E-02 0. -1.
</event>
<event>
 5   0  0.5506332E-05  0.2086687E+04  0.7818609E-02  0.8567131E-01
        2   -1    0    0  501    0  0.00000000000E+00  0.00000000000E+00  0.20778834074E+04  0.20778834074E+04  0.25500000920E-02 0. -1.
       -2   -1    0    0    0  501  0.00000000000E+00  0.00000000000E+00 -0.52388198546E+03  0.52388198547E+03  0.25500000920E-02 0.  1.
    10030    2    1    2    0    0  0.00000000000E+00  0.00000000000E+00  0.15540014220E+04  0.26017653929E+04  0.20866870250E+04 0.  0.
        3    1    3    3  502    0  0.88268274531E+03 -0.26660063040E+03  0.16826557366E+03  0.93729293098E+03  0.10100000352E+00 0.  1.
       -3    1    3    3    0  502 -0.88268274531E+03  0.26660063040E+03  0.13857358483E+04  0.16644724619E+04  0.10100000352E+00 0. -1.
</event>
<event>
 5   0  0.2017750E-05  0.2078239E+04  0.7818609E-02  0.8570890E-01
        3   -1    0    0  501    0  0.00000000000E+00  0.00000000000E+00  0.80032791042E+03  0.80032791679E+03  0.10100000352E+00 0. -1.
       -3   -1    0    0    0  501  0.00000000000E+00  0.00000000000E+00 -0.13491588846E+04  0.13491588884E+04  0.10100000352E+00 0.  1.
    10030    2    1    2    0    0  0.00000000000E+00  0.00000000000E+00 -0.54883097415E+03  0.21494868051E+04  0.20782391795E+04 0.  0.
        1    1    3    3  502    0 -0.77999202486E+03  0.46498244930E+03 -0.79688007241E+03  0.12081448948E+04  0.50400001928E-02 0.  1.
       -1    1    3    3    0  502  0.77999202486E+03 -0.46498244930E+03  0.24804909826E+03  0.94134191034E+03  0.50400001928E-02 0. -1.
</event>
<event>
 5   0  0.2789662E-05  0.2026779E+04  0.7818609E-02  0.8594202E-01
       -1   -1    0    0    0  501  0.00000000000E+00  0.00000000000E+00  0.56092972812E+03  0.56092972814E+03  0.50400001928E-02 0. -1.
        1   -1    0    0  501    0  0.00000000000E+00  0.00000000000E+00 -0.18308150135E+04  0.18308150135E+04  0.50400001928E-02 0.  1.
    10030    2    1    2    0    0  0.00000000000E+00  0.00000000000E+00 -0.12698852854E+04  0.23917447417E+04  0.20267792853E+04 0.  0.
        4    1    3    3  502    0 -0.79561371255E+03  0.50292616971E+03 -0.10780922128E+04  0.14311604885E+04  0.12699999809E+01 0.  1.
       -4    1    3    3    0  502  0.79561371255E+03 -0.50292616971E+03 -0.19179307264E+03  0.96058425314E+03  0.12699999809E+01 0. -1.
</event>
<event>
 5   0  0.2732159E-05  0.2101339E+04  0.7818609E-02  0.8560654E-01
       -1   -1    0    0    0  501  0.00000000000E+00  0.00000000000E+00  0.76783923130E+03  0.76783923131E+03  0.50400001928E-02 0. -1.
        1   -1    0    0  501    0  0.00000000000E+00  0.00000000000E+00 -0.14376794642E+04  0.14376794642E+04  0.50400001928E-02 0.  1.
    10030    2    1    2    0    0  0.00000000000E+00  0.00000000000E+00 -0.66984023292E+03  0.22055186955E+04  0.21013392822E+04 0.  0.
        3    1    3    3  502    0 -0.19407347904E+03 -0.43741775784E+03  0.64681816707E+03  0.80459465670E+03  0.10100000352E+00 0. -1.
       -3    1    3    3    0  502  0.19407347904E+03  0.43741775784E+03 -0.13166584000E+04  0.14009240388E+04  0.10100000352E+00 0.  1.
</event>
<event>
 5   0  0.5462851E-05  0.2101128E+04  0.7818609E-02  0.8560746E-01
       -2   -1    0    0    0  501  0.00000000000E+00  0.00000000000E+00  0.45588227628E+03  0.45588227629E+03  0.25500000920E-02 0.  1.
        2   -1    0    0  501    0  0.00000000000E+00  0.00000000000E+00 -0.24209872602E+04  0.24209872602E+04  0.25500000920E-02 0. -1.
    10030    2    1    2    0    0  0.00000000000E+00  0.00000000000E+00 -0.19651049839E+04  0.28768695365E+04  0.21011284426E+04 0.  0.
        1    1    3    3  502    0 -0.55951887342E+03  0.53941105922E+03 -0.19503949051E+04  0.20995394605E+04  0.50400001928E-02 0. -1.
       -1    1    3    3    0  502  0.55951887342E+03 -0.53941105922E+03 -0.14710078818E+02  0.77733007594E+03  0.50400001928E-02 0.  1.
</event>
<event>
 5   0  0.2602060E-05  0.2099452E+04  0.7818609E-02  0.8561485E-01
        1   -1    0    0  501    0  0.00000000000E+00  0.00000000000E+00  0.14100876269E+04  0.14100876269E+04  0.50400001928E-02 0.  1.
       -1   -1    0    0    0  501  0.00000000000E+00  0.00000000000E+00 -0.78145822183E+03  0.78145822184E+03  0.50400001928E-02 0. -1.
    10030    2    1    2    0    0  0.00000000000E+00  0.00000000000E+00  0.62862940509E+03  0.21915458488E+04  0.20994518995E+04 0.  0.
        1    1    3    3  502    0 -0.38107549590E+03 -0.87395419812E+03  0.77279651255E+03  0.12272851844E+04  0.50400001928E-02 0.  1.
       -1    1    3    3    0  502  0.38107549590E+03  0.87395419812E+03 -0.14416710746E+03  0.96426066438E+03  0.50400001928E-02 0. -1.
</event>
<event>
 5   0  0.5506332E-05  0.2104984E+04  0.7818609E-02  0.8559051E-01
        2   -1    0    0  501    0  0.00000000000E+00  0.00000000000E+00  0.16424328953E+04  0.16424328953E+04  0.25500000920E-02 0. -1.
       -2   -1    0    0    0  501  0.00000000000E+00  0.00000000000E+00 -0.67445045570E+03  0.67445045570E+03  0.25500000920E-02 0.  1.
    10030    2    1    2    0    0  0.00000000000E+00  0.00000000000E+00  0.96798243958E+03  0.23168833510E+04  0.21049841944E+04 0.  0.
        3    1    3    3  502    0 -0.44509065624E+03 -0.10492054469E+03  0.15273765366E+04  0.15943629160E+04  0.10100000352E+00 0. -1.
       -3    1    3    3    0  502  0.44509065624E+03  0.10492054469E+03 -0.55939409706E+03  0.72252043500E+03  0.10100000352E+00 0.  1.
</event>
<event>
 5   0  0.5506332E-05  0.2092562E+04  0.7818609E-02  0.8564527E-01
       -2   -1    0    0    0  501  0.00000000000E+00  0.00000000000E+00  0.47349249325E+03  0.47349249326E+03  0.25500000920E-02 0. -1.
        2   -1    0    0  501    0  0.00000000000E+00  0.00000000000E+00 -0.23119763809E+04  0.23119763809E+04  0.25500000920E-02 0.  1.
    10030    2    1    2    0    0  0.00000000000E+00  0.00000000000E+00 -0.18384838876E+04  0.27854688742E+04  0.20925615508E+04 0.  0.
        3    1    3    3  502    0  0.44472694256E+03  0.58164898355E+02 -0.21775200522E+04  0.22232316111E+04  0.10100000352E+00 0.  1.
       -3    1    3    3    0  502 -0.44472694256E+03 -0.58164898355E+02  0.33903616456E+03  0.56223726301E+03  0.10100000352E+00 0. -1.
</event>
<event>
 5   0  0.5967046E-05  0.2085143E+04  0.7818609E-02  0.8567817E-01
       -2   -1    0    0    0  501  0.00000000000E+00  0.00000000000E+00  0.68994543631E+03  0.68994543631E+03  0.25500000920E-02 0. -1.
        2   -1    0    0  501    0  0.00000000000E+00  0.00000000000E+00 -0.15754214977E+04  0.15754214977E+04  0.25500000920E-02 0.  1.
    10030    2    1    2    0    0  0.00000000000E+00  0.00000000000E+00 -0.88547606143E+03  0.22653669341E+04  0.20851425588E+04 0.  0.
        4    1    3    3  502    0  0.77638741345E+03 -0.13698261518E+03 -0.11839141360E+04  0.14223909262E+04  0.12699999809E+01 0.  1.
       -4    1    3    3    0  502 -0.77638741345E+03  0.13698261518E+03  0.29843807454E+03  0.84297600788E+03  0.12699999809E+01 0. -1.
</event>
<event>
 5   0  0.2604390E-05  0.2099165E+04  0.7818609E-02  0.8561611E-01
       -1   -1    0    0    0  501  0.00000000000E+00  0.00000000000E+00  0.62341094047E+03  0.62341094049E+03  0.50400001928E-02 0.  1.
        1   -1    0    0  501    0  0.00000000000E+00  0.00000000000E+00 -0.17670909334E+04  0.17670909334E+04  0.50400001928E-02 0. -1.
    10030    2    1    2    0    0  0.00000000000E+00  0.00000000000E+00 -0.11436799929E+04  0.23905018739E+04  0.20991653777E+04 0.  0.
        5    1    3    3  502    0  0.80348562604E+03  0.32033204831E+03 -0.12488197504E+04  0.15191361464E+04  0.46999998093E+01 0. -1.
       -5    1    3    3    0  502 -0.80348562604E+03 -0.32033204831E+03  0.10513975745E+03  0.87136572748E+03  0.46999998093E+01 0.  1.
</event>
<event>
 5   0  0.5967046E-05  0.2087175E+04  0.7818609E-02  0.8566914E-01
       -2   -1    0    0    0  501  0.00000000000E+00  0.00000000000E+00  0.11296189902E+04  0.11296189902E+04  0.25500000920E-02 0.  1.
        2   -1    0    0  501    0  0.00000000000E+00  0.00000000000E+00 -0.96410856615E+03  0.96410856615E+03  0.25500000920E-02 0. -1.
    10030    2    1    2    0    0  0.00000000000E+00  0.00000000000E+00  0.16551042400E+03  0.20937275563E+04  0.20871754549E+04 0.  0.
        4    1    3    3  502    0 -0.92678628328E+03  0.30312967418E+03  0.45574676038E+03  0.10763489846E+04  0.12699999809E+01 0.  1.
       -4    1    3    3    0  502  0.92678628328E+03 -0.30312967418E+03 -0.29023633637E+03  0.10173785717E+04  0.12699999809E+01 0. -1.
</event>
<event>
 5   0  0.2604390E-05  0.2087069E+04  0.7818609E-02  0.8566961E-01
        1   -1    0    0  501    0  0.00000000000E+00  0.00000000000E+00  0.14353116539E+04  0.14353116539E+04  0.50400001928E-02 0.  1.
       -1   -1    0    0    0  501  0.00000000000E+00  0.00000000000E+00 -0.75869520023E+03  0.75869520025E+03  0.50400001928E-02 0. -1.
    10030    2    1    2    0    0  0.00000000000E+00  0.00000000000E+00  0.67661645365E+03  0.21940068541E+04  0.20870688179E+04 0.  0.
        5    1    3    3  502    0 -0.96183385696E+03 -0.84637716001E+02 -0.77767173571E+02  0.96868866755E+03  0.46999998093E+01 0. -1.
       -5    1    3    3    0  502  0.96183385696E+03  0.84637716001E+02  0.75438362722E+03  0.12253181866E+04  0.46999998093E+01 0.  1.
</event>
<event>
 5   0  0.5462851E-05  0.2102507E+04  0.7818609E-02  0.8560140E-01
       -2   -1    0    0    0  501  0.00000000000E+00  0.00000000000E+00  0.18626094776E+04  0.18626094776E+04  0.25500000920E-02 0. -1.
        2   -1    0    0  501    0  0.00000000000E+00  0.00000000000E+00 -0.59332555403E+03  0.59332555404E+03  0.25500000920E-02 0.  1.
    10030    2    1    2    0    0  0.00000000000E+00  0.00000000000E+00  0.12692839236E+04  0.24559350316E+04  0.21025068849E+04 0.  0.
        1    1    3    3  502    0  0.60964782419E+03  0.67073972430E+03  0.12566711701E+04  0.15494465712E+04  0.50400001928E-02 0. -1.
       -1    1    3    3    0  502 -0.60964782419E+03 -0.67073972430E+03  0.12612753480E+02  0.90648846042E+03  0.50400001928E-02 0.  1.
</event>
<event>
 5   0  0.2699285E-05  0.2104876E+04  0.7818609E-02  0.8559098E-01
        1   -1    0    0  501    0  0.00000000000E+00  0.00000000000E+00  0.12414842601E+04  0.12414842601E+04  0.50400001928E-02 0.  1.
       -1   -1    0    0    0  501  0.00000000000E+00  0.00000000000E+00 -0.89217867744E+03  0.89217867746E+03  0.50400001928E-02 0. -1.
    10030    2    1    2    0    0  0.00000000000E+00  0.00000000000E+00  0.34930558266E+03  0.21336629376E+04  0.21048760394E+04 0.  0.
        2    1    3    3  502    0 -0.45789960737E+03 -0.57783032542E+03 -0.58666186846E+03  0.94219535305E+03  0.25500000920E-02 0. -1.
       -2    1    3    3    0  502  0.45789960737E+03  0.57783032542E+03  0.93596745111E+03  0.11914675845E+04  0.25500000920E-02 0.  1.
</event>
<event>
 5   0  0.5866610E-05  0.2103874E+04  0.7818609E-02  0.8559539E-01
       -2   -1    0    0    0  501  0.00000000000E+00  0.00000000000E+00  0.67159107441E+03  0.67159107441E+03  0.25500000920E-02 0.  1.
        2   -1    0    0  501    0  0.00000000000E+00  0.00000000000E+00 -0.16476865648E+04  0.16476865648E+04  0.25500000920E-02 0. -1.
    10030    2    1    2    0    0  0.00000000000E+00  0.00000000000E+00 -0.97609549041E+03  0.23192776392E+04  0.21038741316E+04 0.  0.
        5    1    3    3  502    0  0.64148227530E+03 -0.17926170666E+03  0.40950914658E+03  0.78189136082E+03  0.46999998093E+01 0.  1.
       -5    1    3    3    0  502 -0.64148227530E+03  0.17926170666E+03 -0.13856046370E+04  0.15373862784E+04  0.46999998093E+01 0. -1.
</event>
<event>
 5   0  0.2732159E-05  0.2082557E+04  0.7818609E-02  0.8568966E-01
        1   -1    0    0  501    0  0.00000000000E+00  0.00000000000E+00  0.17219400092E+04  0.17219400092E+04  0.50400001928E-02 0.  1.
       -1   -1    0    0    0  501  0.00000000000E+00  0.00000000000E+00 -0.62967407101E+03  0.62967407103E+03  0.50400001928E-02 0. -1.
    10030    2    1    2    0    0  0.00000000000E+00  0.00000000000E+00  0.10922659381E+04  0.23516140802E+04  0.20825570587E+04 0.  0.
        3    1    3    3  502    0 -0.80901420370E+03 -0.41208766736E+03 -0.29580402453E+02  0.90840257474E+03  0.10100000352E+00 0.  1.
       -3    1    3    3    0  502  0.80901420370E+03  0.41208766736E+03  0.11218463406E+04  0.14432115055E+04  0.10100000352E+00 0. -1.
</event>
<event>
 5   0  0.2732159E-05  0.2112046E+04  0.7818609E-02  0.8555955E-01
        1   -1    0    0  501    0  0.00000000000E+00  0.00000000000E+00  0.26541826502E+04  0.26541826502E+04  0.50400001928E-02 0. -1.
       -1   -1    0    0    0  501  0.00000000000E+00  0.00000000000E+00 -0.42016125485E+03  0.42016125488E+03  0.50400001928E-02 0.  1.
    10030    2    1    2    0    0  0.00000000000E+00  0.00000000000E+00  0.22340213954E+04  0.30743439051E+04  0.21120461292E+04 0.  0.
        3    1    3    3  502    0  0.46774492809E+03  0.30294884703E+02 -0.26044418376E+03  0.53622223084E+03  0.10100000352E+00 0.  1.
       -3    1    3    3    0  502 -0.46774492809E+03 -0.30294884703E+02  0.24944655791E+04  0.25381216743E+04  0.10100000352E+00 0. -1.
</event>
<event>
 5   0  0.2732159E-05  0.2092399E+04  0.7818609E-02  0.8564599E-01
        1   -1    0    0  501    0  0.00000000000E+00  0.00000000000E+00  0.14467463100E+04  0.14467463100E+04  0.50400001928E-02 0.  1.
       -1   -1    0    0    0  501  0.00000000000E+00  0.00000000000E+00 -0.75654832192E+03  0.75654832193E+03  0.50400001928E-02 0. -1.
    10030    2    1    2    0    0  0.00000000000E+00  0.00000000000E+00  0.69019798807E+03  0.22032946319E+04  0.20923990949E+04 0.  0.
        3    1    3    3  502    0 -0.75321920773E+03 -0.27378272457E+03 -0.36302817251E+03  0.87982135653E+03  0.10100000352E+00 0. -1.
       -3    1    3    3    0  502  0.75321920773E+03  0.27378272457E+03  0.10532261606E+04  0.13234732754E+04  0.10100000352E+00 0.  1.
</event>
<event>
 5   0  0.2699285E-05  0.2111778E+04  0.7818609E-02  0.8556073E-01
       -1   -1    0    0    0  501  0.00000000000E+00  0.00000000000E+00  0.11167569789E+04  0.11167569789E+04  0.50400001928E-02 0. -1.
        1   -1    0    0  501    0  0.00000000000E+00  0.00000000000E+00 -0.99833870858E+03  0.99833870859E+03  0.50400001928E-02 0.  1.
    10030    2    1    2    0    0  0.00000000000E+00  0.00000000000E+00  0.11841827034E+03  0.21150956875E+04  0.21117781324E+04 0.  0.
        2    1    3    3  502    0 -0.10430331948E+04 -0.90491383088E+02 -0.78100307057E+02  0.10498602735E+04  0.25500000920E-02 0.  1.
       -2    1    3    3    0  502  0.10430331948E+04  0.90491383088E+02  0.19651857740E+03  0.10652354140E+04  0.25500000920E-02 0. -1.
</event>
<event>
 5   0  0.2604390E-05  0.2114513E+04  0.7818609E-02  0.8554877E-01
       -1   -1    0    0    0  501  0.00000000000E+00  0.00000000000E+00  0.73354421793E+03  0.73354421795E+03  0.50400001928E-02 0.  1.
        1   -1    0    0  501    0  0.00000000000E+00  0.00000000000E+00 -0.15238227769E+04  0.15238227769E+04  0.50400001928E-02 0. -1.
    10030    2    1    2    0    0  0.00000000000E+00  0.00000000000E+00 -0.79027855897E+03  0.22573669949E+04  0.21145130760E+04 0.  0.
        5    1    3    3  502    0 -0.91234820556E+03 -0.17902285155E+03  0.14219484542E+03  0.94056892019E+03  0.46999998093E+01 0.  1.
       -5    1    3    3    0  502  0.91234820556E+03  0.17902285155E+03 -0.93247340439E+03  0.13167980747E+04  0.46999998093E+01 0. -1.
</event>
<event>
 5   0  0.5866610E-05  0.2090800E+04  0.7818609E-02  0.8565307E-01
       -2   -1    0    0    0  501  0.00000000000E+00  0.00000000000E+00  0.73766243133E+03  0.73766243133E+03  0.25500000920E-02 0. -1.
        2   -1    0    0  501    0  0.00000000000E+00  0.00000000000E+00 -0.14815187605E+04  0.14815187605E+04  0.25500000920E-02 0.  1.
    10030    2    1    2    0    0  0.00000000000E+00  0.00000000000E+00 -0.74385632915E+03  0.22191811918E+04  0.20907995896E+04 0.  0.
        5    1    3    3  502    0 -0.38307889182E+03  0.97266393626E+03 -0.37590958107E+03  0.11109251430E+04  0.46999998093E+01 0. -1.
       -5    1    3    3    0  502  0.38307889182E+03 -0.97266393626E+03 -0.36794674809E+03  0.11082560488E+04  0.46999998093E+01 0.  1.
</event>
<event>
 5   0  0.2017750E-05  0.2103799E+04  0.7818609E-02  0.8559572E-01
       -3   -1    0    0    0  501  0.00000000000E+00  0.00000000000E+00  0.14769102530E+04  0.14769102565E+04  0.10100000352E+00 0. -1.
        3   -1    0    0  501    0  0.00000000000E+00  0.00000000000E+00 -0.74919445329E+03  0.74919446009E+03  0.10100000352E+00 0.  1.
    10030    2    1    2    0    0  0.00000000000E+00  0.00000000000E+00  0.72771579974E+03  0.22261047166E+04  0.21037994020E+04 0.  0.
        4    1    3    3  502    0  0.74407576139E+03 -0.58582309925E+03 -0.12064096288E+03  0.95466920822E+03  0.12699999809E+01 0.  1.
       -4    1    3    3    0  502 -0.74407576139E+03  0.58582309925E+03  0.84835676262E+03  0.12714355083E+04  0.12699999809E+01 0. -1.
</event>
<event>
 5   0  0.5462851E-05  0.2111716E+04  0.7818609E-02  0.8556100E-01
       -2   -1    0    0    0  501  0.00000000000E+00  0.00000000000E+00  0.73452012613E+03  0.73452012614E+03  0.25500000920E-02 0.  1.
        2   -1    0    0  501    0  0.00000000000E+00  0.00000000000E+00 -0.15177749324E+04  0.15177749324E+04  0.25500000920E-02 0. -1.
    10030    2    1    2    0    0  0.00000000000E+00  0.00000000000E+00 -0.78325480626E+03  0.22522950585E+04  0.21117161124E+04 0.  0.
        1    1    3    3  502    0  0.98433416205E+03 -0.89238355394E+02  0.45272688339E+01  0.98838136508E+03  0.50400001928E-02 0.  1.
       -1    1    3    3    0  502 -0.98433416205E+03  0.89238355394E+02 -0.78778207510E+03  0.12639136935E+04  0.50400001928E-02 0. -1.
</event>
<event>
 5   0  0.2602060E-05  0.2059916E+04  0.7818609E-02  0.8579109E-01
        1   -1    0    0  501    0  0.00000000000E+00  0.00000000000E+00  0.17286347162E+04  0.17286347163E+04  0.50400001928E-02 0.  1.
       -1   -1    0    0    0  501  0.00000000000E+00  0.00000000000E+00 -0.61367136903E+03  0.61367136905E+03  0.50400001928E-02 0. -1.
    10030    2    1    2    0    0  0.00000000000E+00  0.00000000000E+00  0.11149633472E+04  0.23423060853E+04  0.20599161467E+04 0.  0.
        1    1    3    3  502    0  0.66497275415E+03  0.78359570975E+03  0.63462480576E+03  0.12078740184E+04  0.50400001928E-02 0. -1.
       -1    1    3    3    0  502 -0.66497275415E+03 -0.78359570975E+03  0.48033854145E+03  0.11344320670E+04  0.50400001928E-02 0.  1.
</event>
<event>
 5   0  0.5462851E-05  0.2130923E+04  0.7818609E-02  0.8547743E-01
        2   -1    0    0  501    0  0.00000000000E+00  0.00000000000E+00  0.76661398825E+03  0.76661398825E+03  0.25500000920E-02 0.  1.
       -2   -1    0    0    0  501  0.00000000000E+00  0.00000000000E+00 -0.14808082986E+04  0.14808082986E+04  0.25500000920E-02 0. -1.
    10030    2    1    2    0    0  0.00000000000E+00  0.00000000000E+00 -0.71419431039E+03  0.22474222869E+04  0.21309231386E+04 0.  0.
        1    1    3    3  502    0  0.55770047119E+03 -0.33506372065E+03 -0.12469735814E+04  0.14064994224E+04  0.50400001928E-02 0. -1.
       -1    1    3    3    0  502 -0.55770047119E+03  0.33506372065E+03  0.53277927098E+03  0.84092286452E+03  0.50400001928E-02 0.  1.
</event>
<event>
 5   0  0.5506332E-05  0.2089887E+04  0.7818609E-02  0.8565711E-01
        2   -1    0    0  501    0  0.00000000000E+00  0.00000000000E+00  0.11331153422E+04  0.11331153422E+04  0.25500000920E-02 0. -1.
       -2   -1    0    0    0  501  0.00000000000E+00  0.00000000000E+00 -0.96363252594E+03  0.96363252594E+03  0.25500000920E-02 0.  1.
    10030    2    1    2    0    0  0.00000000000E+00  0.00000000000E+00  0.16948281624E+03  0.20967478681E+04  0.20898868863E+04 0.  0.
        3    1    3    3  502    0 -0.47845400285E+03  0.72640339632E+03  0.66571644508E+03  0.10953348906E+04  0.10100000352E+00 0. -1.
       -3    1    3    3    0  502  0.47845400285E+03 -0.72640339632E+03 -0.49623362884E+03  0.10014129776E+04  0.10100000352E+00 0.  1.
</event>
<event>
 5   0  0.2732159E-05  0.2092072E+04  0.7818609E-02  0.8564744E-01
        1   -1    0    0  501    0  0.00000000000E+00  0.00000000000E+00  0.39327990460E+03  0.39327990463E+03  0.50400001928E-02 0.  1.
       -1   -1    0    0    0  501  0.00000000000E+00  0.00000000000E+00 -0.27822196519E+04  0.27822196519E+04  0.50400001928E-02 0. -1.
    10030    2    1    2    0    0  0.00000000000E+00  0.00000000000E+00 -0.23889397473E+04  0.31754995565E+04  0.20920717763E+04 0.  0.
        3    1    3    3  502    0 -0.41014398792E+02  0.10450878824E+04 -0.12207692487E+04  0.16075348928E+04  0.10100000352E+00 0.  1.
       -3    1    3    3    0  502  0.41014398792E+02 -0.10450878824E+04 -0.11681704986E+04  0.15679646638E+04  0.10100000352E+00 0. -1.
</event>
<event>
 5   0  0.2604390E-05  0.2093608E+04  0.7818609E-02  0.8564064E-01
        1   -1    0    0  501    0  0.00000000000E+00  0.00000000000E+00  0.16260725731E+04  0.16260725731E+04  0.50400001928E-02 0. -1.
       -1   -1    0    0    0  501  0.00000000000E+00  0.00000000000E+00 -0.67389282872E+03  0.67389282874E+03  0.50400001928E-02 0.  1.
    10030    2    1    2    0    0  0.00000000000E+00  0.00000000000E+00  0.95217974438E+03  0.22999654019E+04  0.20936080302E+04 0.  0.
        5    1    3    3  502    0  0.18556351923E+02  0.91559126761E+03 -0.80964967870E+02  0.91936343387E+03  0.46999998093E+01 0.  1.
       -5    1    3    3    0  502 -0.18556351923E+02 -0.91559126761E+03  0.10331447123E+04  0.13806019680E+04  0.46999998093E+01 0. -1.
</event>
<event>
 5   0  0.2789662E-05  0.2101433E+04  0.7818609E-02  0.8560612E-01
       -1   -1    0    0    0  501  0.00000000000E+00  0.00000000000E+00  0.75162999319E+03  0.75162999321E+03  0.50400001928E-02 0.  1.
        1   -1    0    0  501    0  0.00000000000E+00  0.00000000000E+00 -0.14688147452E+04  0.14688147452E+04  0.50400001928E-02 0. -1.
    10030    2    1    2    0    0  0.00000000000E+00  0.00000000000E+00 -0.71718475199E+03  0.22204447384E+04  0.21014330510E+04 0.  0.
        4    1    3    3  502    0 -0.55074494635E+03 -0.81948525017E+03 -0.73828646597E+03  0.12328603286E+04  0.12699999809E+01 0.  1.
       -4    1    3    3    0  502  0.55074494635E+03  0.81948525017E+03  0.21101713983E+02  0.98758440977E+03  0.12699999809E+01 0. -1.
</event>
<event>
 5   0  0.5866610E-05  0.2070068E+04  0.7818609E-02  0.8574545E-01
       -2   -1    0    0    0  501  0.00000000000E+00  0.00000000000E+00  0.62281782902E+03  0.62281782903E+03  0.25500000920E-02 0.  1.
        2   -1    0    0  501    0  0.00000000000E+00  0.00000000000E+00 -0.17200778306E+04  0.17200778306E+04  0.25500000920E-02 0. -1.
    10030    2    1    2    0    0  0.00000000000E+00  0.00000000000E+00 -0.10972600015E+04  0.23428956596E+04  0.20700677672E+04 0.  0.
        5    1    3    3  502    0  0.61176761803E+03  0.24260518298E+03  0.35550205345E+03  0.74801115853E+03  0.46999998093E+01 0.  1.
       -5    1    3    3    0  502 -0.61176761803E+03 -0.24260518298E+03 -0.14527620550E+04  0.15948845011E+04  0.46999998093E+01 0. -1.
</event>
<event>
 5   0  0.5954140E-05  0.2112503E+04  0.7818609E-02  0.8555756E-01
       -2   -1    0    0    0  501  0.00000000000E+00  0.00000000000E+00  0.14988857003E+04  0.14988857003E+04  0.25500000920E-02 0. -1.
        2   -1    0    0  501    0  0.00000000000E+00  0.00000000000E+00 -0.74433128167E+03  0.74433128167E+03  0.25500000920E-02 0.  1.
    10030    2    1    2    0    0  0.00000000000E+00  0.00000000000E+00  0.75455441866E+03  0.22432169820E+04  0.21125032681E+04 0.  0.
        2    1    3    3  502    0  0.32965671484E+03  0.69398415752E+03 -0.39240357396E+03  0.86270975733E+03  0.25500000920E-02 0.  1.
       -2    1    3    3    0  502 -0.32965671484E+03 -0.69398415752E+03  0.11469579926E+04  0.13805072247E+04  0.25500000920E-02 0. -1.
</event>
<event>
 5   0  0.5506332E-05  0.2091850E+04  0.7818609E-02  0.8564842E-01
        2   -1    0    0  501    0  0.00000000000E+00  0.00000000000E+00  0.23179602993E+04  0.23179602993E+04  0.25500000920E-02 0.  1.
       -2   -1    0    0    0  501  0.00000000000E+00  0.00000000000E+00 -0.47194896508E+03  0.47194896508E+03  0.25500000920E-02 0. -1.
    10030    2    1    2    0    0  0.00000000000E+00  0.00000000000E+00  0.18460113342E+04  0.27899092644E+04  0.20918498649E+04 0.  0.
        3    1    3    3  502    0  0.24955895929E+03  0.46390676154E+03  0.21281238232E+04  0.21923503768E+04  0.10100000352E+00 0.  1.
       -3    1    3    3    0  502 -0.24955895929E+03 -0.46390676154E+03 -0.28211248894E+03  0.59755888763E+03  0.10100000352E+00 0. -1.
</event>
<event>
 5   0  0.5954140E-05  0.2105029E+04  0.7818609E-02  0.8559031E-01
        2   -1    0    0  501    0  0.00000000000E+00  0.00000000000E+00  0.14805641646E+04  0.14805641646E+04  0.25500000920E-02 0.  1.
       -2   -1    0    0    0  501  0.00000000000E+00  0.00000000000E+00 -0.74821918508E+03  0.74821918508E+03  0.25500000920E-02 0. -1.
    10030    2    1    2    0    0  0.00000000000E+00  0.00000000000E+00  0.73234497956E+03  0.22287833497E+04  0.21050287530E+04 0.  0.
        2    1    3    3  502    0  0.64734081992E+00  0.33240299614E+03  0.14235291370E+04  0.14618233049E+04  0.25500000920E-02 0.  1.
       -2    1    3    3    0  502 -0.64734081992E+00 -0.33240299614E+03 -0.69118415742E+03  0.76696004483E+03  0.25500000920E-02 0. -1.
</event>
<event>
 5   0  0.5506332E-05  0.2106759E+04  0.7818609E-02  0.8558272E-01
        2   -1    0    0  501    0  0.00000000000E+00  0.00000000000E+00  0.16053869745E+04  0.16053869745E+04  0.25500000920E-02 0. -1.
       -2   -1    0    0    0  501  0.00000000000E+00  0.00000000000E+00 -0.69117786683E+03  0.69117786683E+03  0.25500000920E-02 0.  1.
    10030    2    1    2    0    0  0.00000000000E+00  0.00000000000E+00  0.91420910770E+03  0.22965648414E+04  0.21067585951E+04 0.  0.
        3    1    3    3  502    0  0.10158002702E+04 -0.27862753563E+03  0.44494418276E+03  0.11434416595E+04  0.10100000352E+00 0.  1.
       -3    1    3    3    0  502 -0.10158002702E+04  0.27862753563E+03  0.46926492495E+03  0.11531231819E+04  0.10100000352E+00 0. -1.
</event>
<event>
 5   0  0.5866610E-05  0.2100309E+04  0.7818609E-02  0.8561107E-01
        2   -1    0    0  501    0  0.00000000000E+00  0.00000000000E+00  0.18131711691E+04  0.18131711691E+04  0.25500000920E-02 0.  1.
       -2   -1    0    0    0  501  0.00000000000E+00  0.00000000000E+00 -0.60822979918E+03  0.60822979918E+03  0.25500000920E-02 0. -1.
    10030    2    1    2    0    0  0.00000000000E+00  0.00000000000E+00  0.12049413699E+04  0.24214009683E+04  0.21003092497E+04 0.  0.
        5    1    3    3  502    0 -0.74620846077E+03 -0.73371374730E+03  0.70323855506E+03  0.12608447506E+04  0.46999998093E+01 0.  1.
       -5    1    3    3    0  502  0.74620846077E+03  0.73371374730E+03  0.50170281488E+03  0.11605562177E+04  0.46999998093E+01 0. -1.
</event>
<event>
 5   0  0.5967046E-05  0.2106684E+04  0.7818609E-02  0.8558305E-01
       -2   -1    0    0    0  501  0.00000000000E+00  0.00000000000E+00  0.16646436186E+04  0.16646436186E+04  0.25500000920E-02 0.  1.
        2   -1    0    0  501    0  0.00000000000E+00  0.00000000000E+00 -0.66652663325E+03  0.66652663325E+03  0.25500000920E-02 0. -1.
    10030    2    1    2    0    0  0.00000000000E+00  0.00000000000E+00  0.99811698538E+03  0.23311702519E+04  0.21066839409E+04 0.  0.
        4    1    3    3  502    0 -0.26239062034E+03 -0.56634170865E+03  0.14379632305E+04  0.15675878393E+04  0.12699999809E+01 0.  1.
       -4    1    3    3    0  502  0.26239062034E+03  0.56634170865E+03 -0.43984624513E+03  0.76358241262E+03  0.12699999809E+01 0. -1.
</event>
<event>
 5   0  0.5967046E-05  0.2104273E+04  0.7818609E-02  0.8559364E-01
       -2   -1    0    0    0  501  0.00000000000E+00  0.00000000000E+00  0.15051141273E+04  0.15051141273E+04  0.25500000920E-02 0. -1.
        2   -1    0    0  501    0  0.00000000000E+00  0.00000000000E+00 -0.73548629778E+03  0.73548629778E+03  0.25500000920E-02 0.  1.
    10030    2    1    2    0    0  0.00000000000E+00  0.00000000000E+00  0.76962782951E+03  0.22406004251E+04  0.21042726223E+04 0.  0.
        4    1    3    3  502    0 -0.90066387930E+03  0.50425409506E+03  0.60178376488E+03  0.11948275727E+04  0.12699999809E+01 0. -1.
       -4    1    3    3    0  502  0.90066387930E+03 -0.50425409506E+03  0.16784406463E+03  0.10457728524E+04  0.12699999809E+01 0.  1.
</event>
<event>
 5   0  0.2602060E-05  0.2097618E+04  0.7818609E-02  0.8562293E-01
        1   -1    0    0  501    0  0.00000000000E+00  0.00000000000E+00  0.76873640582E+03  0.76873640584E+03  0.50400001928E-02 0. -1.
       -1   -1    0    0    0  501  0.00000000000E+00  0.00000000000E+00 -0.14309198800E+04  0.14309198801E+04  0.50400001928E-02 0.  1.
    10030    2    1    2    0    0  0.00000000000E+00  0.00000000000E+00 -0.66218347423E+03  0.21996562859E+04  0.20976178924E+04 0.  0.
        1    1    3    3  502    0 -0.37782863433E+03  0.39664965842E+03 -0.12689782814E+04  0.13821690588E+04  0.50400001928E-02 0.  1.
       -1    1    3    3    0  502  0.37782863433E+03 -0.39664965842E+03  0.60679480716E+03  0.81748722710E+03  0.50400001928E-02 0. -1.
</event>
<event>
 5   0  0.5954140E-05  0.2111456E+04  0.7818609E-02  0.8556214E-01
       -2   -1    0    0    0  501  0.00000000000E+00  0.00000000000E+00  0.75629277972E+03  0.75629277972E+03  0.25500000920E-02 0. -1.
        2   -1    0    0  501    0  0.00000000000E+00  0.00000000000E+00 -0.14737173460E+04  0.14737173460E+04  0.25500000920E-02 0.  1.
    10030    2    1    2    0    0  0.00000000000E+00  0.00000000000E+00 -0.71742456633E+03  0.22300101258E+04  0.21114561688E+04 0.  0.
        2    1    3    3  502    0 -0.36660963512E+03 -0.31250408538E+03 -0.13508734169E+04  0.14341967844E+04  0.25500000920E-02 0.  1.
       -2    1    3    3    0  502  0.36660963512E+03  0.31250408538E+03  0.63344885058E+03  0.79581334134E+03  0.25500000920E-02 0. -1.
</event>
<event>
 5   0  0.2604390E-05  0.2092145E+04  0.7818609E-02  0.8564711E-01
       -1   -1    0    0    0  501  0.00000000000E+00  0.00000000000E+00  0.69053465395E+03  0.69053465397E+03  0.50400001928E-02 0.  1.
        1   -1    0    0  501    0  0.00000000000E+00  0.00000000000E+00 -0.15846678679E+04  0.15846678679E+04  0.50400001928E-02 0. -1.
    10030    2    1    2    0    0  0.00000000000E+00  0.00000000000E+00 -0.89413321396E+03  0.22752025219E+04  0.20921453848E+04 0.  0.
        5    1    3    3  502    0  0.10126956697E+04 -0.25882285891E+03 -0.49196057498E+03  0.11552441686E+04  0.46999998093E+01 0.  1.
       -5    1    3    3    0  502 -0.10126956697E+04  0.25882285891E+03 -0.40217263899E+03  0.11199583533E+04  0.46999998093E+01 0. -1.
</event>
<event>
 5   0  0.2602060E-05  0.2110435E+04  0.7818609E-02  0.8556660E-01
       -1   -1    0    0    0  501  0.00000000000E+00  0.00000000000E+00  0.79286502280E+03  0.79286502282E+03  0.50400001928E-02 0.  1.
        1   -1    0    0  501    0  0.00000000000E+00  0.00000000000E+00 -0.14043804709E+04  0.14043804710E+04  0.50400001928E-02 0. -1.
    10030    2    1    2    0    0  0.00000000000E+00  0.00000000000E+00 -0.61151544814E+03  0.21972454938E+04  0.21104351723E+04 0.  0.
        1    1    3    3  502    0 -0.39110802626E+03 -0.33536463880E+03  0.65301814968E+03  0.83178580957E+03  0.50400001928E-02 0.  1.
       -1    1    3    3    0  502  0.39110802626E+03  0.33536463880E+03 -0.12645335978E+04  0.13654596842E+04  0.50400001928E-02 0. -1.
</event>
<event>
 5   0  0.2604390E-05  0.2111761E+04  0.7818609E-02  0.8556080E-01
        1   -1    0    0  501    0  0.00000000000E+00  0.00000000000E+00  0.21566654611E+04  0.21566654611E+04  0.50400001928E-02 0. -1.
       -1   -1    0    0    0  501  0.00000000000E+00  0.00000000000E+00 -0.51694773502E+03  0.51694773505E+03  0.50400001928E-02 0.  1.
    10030    2    1    2    0    0  0.00000000000E+00  0.00000000000E+00  0.16397177261E+04  0.26736131962E+04  0.21117607112E+04 0.  0.
        5    1    3    3  502    0 -0.17159519956E+03 -0.18795915772E+03  0.21172372287E+04  0.21324842625E+04  0.46999998093E+01 0. -1.
       -5    1    3    3    0  502  0.17159519956E+03  0.18795915772E+03 -0.47751950258E+03  0.54112893364E+03  0.46999998093E+01 0.  1.
</event>
<event>
 5   0  0.5462851E-05  0.2099210E+04  0.7818609E-02  0.8561591E-01
       -2   -1    0    0    0  501  0.00000000000E+00  0.00000000000E+00  0.70110001741E+03  0.70110001741E+03  0.25500000920E-02 0. -1.
        2   -1    0    0  501    0  0.00000000000E+00  0.00000000000E+00 -0.15713465488E+04  0.15713465488E+04  0.25500000920E-02 0.  1.
    10030    2    1    2    0    0  0.00000000000E+00  0.00000000000E+00 -0.87024653143E+03  0.22724465663E+04  0.20992104161E+04 0.  0.
        1    1    3    3  502    0 -0.10436900219E+04  0.66411088436E+02 -0.33847015065E+03  0.10992094147E+04  0.50400001928E-02 0. -1.
       -1    1    3    3    0  502  0.10436900219E+04 -0.66411088436E+02 -0.53177638078E+03  0.11732371515E+04  0.50400001928E-02 0.  1.
</event>
<event>
 5   0  0.5506332E-05  0.2104264E+04  0.7818609E-02  0.8559367E-01
        2   -1    0    0  501    0  0.00000000000E+00  0.00000000000E+00  0.19827686444E+04  0.19827686444E+04  0.25500000920E-02 0.  1.
       -2   -1    0    0    0  501  0.00000000000E+00  0.00000000000E+00 -0.55830118422E+03  0.55830118422E+03  0.25500000920E-02 0. -1.
    10030    2    1    2    0    0  0.00000000000E+00  0.00000000000E+00  0.14244674602E+04  0.25410698286E+04  0.21042643201E+04 0.  0.
        3    1    3    3  502    0 -0.74334790393E+03 -0.71181141908E+03  0.97608528068E+03  0.14184442492E+04  0.10100000352E+00 0.  1.
       -3    1    3    3    0  502  0.74334790393E+03  0.71181141908E+03  0.44838217953E+03  0.11226255795E+04  0.10100000352E+00 0. -1.
</event>
<event>
 5   0  0.5866610E-05  0.2118454E+04  0.7818609E-02  0.8553158E-01
        2   -1    0    0  501    0  0.00000000000E+00  0.00000000000E+00  0.92423024765E+03  0.92423024765E+03  0.25500000920E-02 0. -1.
       -2   -1    0    0    0  501  0.00000000000E+00  0.00000000000E+00 -0.12139414920E+04  0.12139414921E+04  0.25500000920E-02 0.  1.
    10030    2    1    2    0    0  0.00000000000E+00  0.00000000000E+00 -0.28971124440E+03  0.21381717397E+04  0.21184536302E+04 0.  0.
        5    1    3    3  502    0 -0.10423955790E+04 -0.18745507250E+03 -0.15953085030E+03  0.10710742876E+04  0.46999998093E+01 0. -1.
       -5    1    3    3    0  502  0.10423955790E+04  0.18745507250E+03 -0.13018039410E+03  0.10670974521E+04  0.46999998093E+01 0.  1.
</event>
<event>
 5   0  0.2604390E-05  0.2091631E+04  0.7818609E-02  0.8564939E-01
       -1   -1    0    0    0  501  0.00000000000E+00  0.00000000000E+00  0.18948104383E+04  0.18948104383E+04  0.50400001928E-02 0.  1.
        1   -1    0    0  501    0  0.00000000000E+00  0.00000000000E+00 -0.57722422731E+03  0.57722422733E+03  0.50400001928E-02 0. -1.
    10030    2    1    2    0    0  0.00000000000E+00  0.00000000000E+00  0.13175862110E+04  0.24720346656E+04  0.20916314122E+04 0.  0.
        5    1    3    3  502    0  0.17880262020E+02  0.33823756678E+03  0.18281772696E+04  0.18592951822E+04  0.46999998093E+01 0.  1.
       -5    1    3    3    0  502 -0.17880262020E+02 -0.33823756678E+03 -0.51059105867E+03  0.61273948342E+03  0.46999998093E+01 0. -1.
</event>
<event>
 5   0  0.5506332E-05  0.2079419E+04  0.7818609E-02  0.8570364E-01
       -2   -1    0    0    0  501  0.00000000000E+00  0.00000000000E+00  0.17291629136E+04  0.17291629136E+04  0.25500000920E-02 0. -1.
        2   -1    0    0  501    0  0.00000000000E+00  0.00000000000E+00 -0.62515535608E+03  0.62515535609E+03  0.25500000920E-02 0.  1.
    10030    2    1    2    0    0  0.00000000000E+00  0.00000000000E+00  0.11040075575E+04  0.23543182697E+04  0.20794186274E+04 0.  0.
        3    1    3    3  502    0  0.74393391979E+03 -0.25947767302E+02  0.13738318039E+04  0.15625379353E+04  0.10100000352E+00 0. -1.
       -3    1    3    3    0  502 -0.74393391979E+03  0.25947767302E+02 -0.26982424646E+03  0.79178033432E+03  0.10100000352E+00 0.  1.
</event>
<event>
 5   0  0.5462851E-05  0.2135182E+04  0.7818609E-02  0.8545902E-01
        2   -1    0    0  501    0  0.00000000000E+00  0.00000000000E+00  0.61073844934E+03  0.61073844934E+03  0.25500000920E-02 0. -1.
       -2   -1    0    0    0  501  0.00000000000E+00  0.00000000000E+00 -0.18661844201E+04  0.18661844201E+04  0.25500000920E-02 0.  1.
    10030    2    1    2    0    0  0.00000000000E+00  0.00000000000E+00 -0.12554459707E+04  0.24769228694E+04  0.21351820334E+04 0.  0.
        1    1    3    3  502    0 -0.85135708642E+03  0.57666699082E+03 -0.96071432536E+03  0.14072404634E+04  0.50400001928E-02 0.  1.
       -1    1    3    3    0  502  0.85135708642E+03 -0.57666699082E+03 -0.29473164537E+03  0.10696824060E+04  0.50400001928E-02 0. -1.
</event>
<event>
 5   0  0.5866610E-05  0.2100965E+04  0.7818609E-02  0.8560818E-01
       -2   -1    0    0    0  501  0.00000000000E+00  0.00000000000E+00  0.79202877939E+03  0.79202877939E+03  0.25500000920E-02 0.  1.
        2   -1    0    0  501    0  0.00000000000E+00  0.00000000000E+00 -0.13932742106E+04  0.13932742106E+04  0.25500000920E-02 0. -1.
    10030    2    1    2    0    0  0.00000000000E+00  0.00000000000E+00 -0.60124543119E+03  0.21853029900E+04  0.21009647997E+04 0.  0.
        5    1    3    3  502    0  0.69990285757E+02 -0.28867794713E+02  0.78917633473E+03  0.79281357643E+03  0.46999998093E+01 0.  1.
       -5    1    3    3    0  502 -0.69990285757E+02  0.28867794713E+02 -0.13904217659E+04  0.13924894135E+04  0.46999998093E+01 0. -1.
</event>
<event>
 5   0  0.2604390E-05  0.2106034E+04  0.7818609E-02  0.8558590E-01
       -1   -1    0    0    0  501  0.00000000000E+00  0.00000000000E+00  0.87549879262E+03  0.87549879263E+03  0.50400001928E-02 0.  1.
        1   -1    0    0  501    0  0.00000000000E+00  0.00000000000E+00 -0.12665287387E+04  0.12665287387E+04  0.50400001928E-02 0. -1.
    10030    2    1    2    0    0  0.00000000000E+00  0.00000000000E+00 -0.39102994612E+03  0.21420275314E+04  0.21060336005E+04 0.  0.
        5    1    3    3  502    0  0.87352134935E+03 -0.33738237900E+03 -0.68536421505E+03  0.11604363898E+04  0.46999998093E+01 0. -1.
       -5    1    3    3    0  502 -0.87352134935E+03  0.33738237900E+03  0.29433426893E+03  0.98159114161E+03  0.46999998093E+01 0.  1.
</event>
<event>
 5   0  0.5506332E-05  0.2105661E+04  0.7818609E-02  0.8558754E-01
       -2   -1    0    0    0  501  0.00000000000E+00  0.00000000000E+00  0.68752872907E+03  0.68752872907E+03  0.25500000920E-02 0.  1.
        2   -1    0    0  501    0  0.00000000000E+00  0.00000000000E+00 -0.16122268780E+04  0.16122268780E+04  0.25500000920E-02 0. -1.
    10030    2    1    2    0    0  0.00000000000E+00  0.00000000000E+00 -0.92469814891E+03  0.22997556070E+04  0.21056612229E+04 0.  0.
        3    1    3    3  502    0 -0.47482844241E+03  0.23908535990E+03  0.53016826148E+03  0.75080107533E+03  0.10100000352E+00 0.  1.
       -3    1    3    3    0  502  0.47482844241E+03 -0.23908535990E+03 -0.14548664104E+04  0.15489545317E+04  0.10100000352E+00 0. -1.
</event>
<event>
 5   0  0.5462851E-05  0.2107057E+04  0.7818609E-02  0.8558141E-01
       -2   -1    0    0    0  501  0.00000000000E+00  0.00000000000E+00  0.86809527209E+03  0.86809527210E+03  0.25500000920E-02 0.  1.
        2   -1    0    0  501    0  0.00000000000E+00  0.00000000000E+00 -0.12785724502E+04  0.12785724503E+04  0.25500000920E-02 0. -1.
    10030    2    1    2    0    0  0.00000000000E+00  0.00000000000E+00 -0.41047717815E+03  0.21466677223E+04  0.21070573785E+04 0.  0.
        1    1    3    3  502    0 -0.69087725120E+03  0.77492673695E+03 -0.22706116880E+02  0.10384307351E+04  0.50400001928E-02 0. -1.
       -1    1    3    3    0  502  0.69087725120E+03 -0.77492673695E+03 -0.38777106127E+03  0.11082369872E+04  0.50400001928E-02 0.  1.
</event>
<event>
 5   0  0.5967046E-05  0.2101687E+04  0.7818609E-02  0.8560501E-01
        2   -1    0    0  501    0  0.00000000000E+00  0.00000000000E+00  0.21812446252E+04  0.21812446252E+04  0.25500000920E-02 0. -1.
       -2   -1    0    0    0  501  0.00000000000E+00  0.00000000000E+00 -0.50625770483E+03  0.50625770483E+03  0.25500000920E-02 0.  1.
    10030    2    1    2    0    0  0.00000000000E+00  0.00000000000E+00  0.16749869204E+04  0.26875023301E+04  0.21016868441E+04 0.  0.
        4    1    3    3  502    0  0.17968072552E+03 -0.10335913508E+04  0.75998433176E+03  0.12954435692E+04  0.12699999809E+01 0. -1.
       -4    1    3    3    0  502 -0.17968072552E+03  0.10335913508E+04  0.91500258864E+03  0.13920587609E+04  0.12699999809E+01 0.  1.
</event>
<event>
 5   0  0.5462851E-05  0.2109987E+04  0.7818609E-02  0.8556857E-01
        2   -1    0    0  501    0  0.00000000000E+00  0.00000000000E+00  0.15033851910E+04  0.15033851910E+04  0.25500000920E-02 0.  1.
       -2   -1    0    0    0  501  0.00000000000E+00  0.00000000000E+00 -0.74033668692E+03  0.74033668692E+03  0.25500000920E-02 0. -1.
    10030    2    1    2    0    0  0.00000000000E+00  0.00000000000E+00  0.76304850408E+03  0.22437218779E+04  0.21099869303E+04 0.  0.
        1    1    3    3  502    0  0.72275763204E+03 -0.75909686933E+03  0.25389822437E+03  0.10784576765E+04  0.50400001928E-02 0. -1.
       -1    1    3    3    0  502 -0.72275763204E+03  0.75909686933E+03  0.50915027972E+03  0.11652642014E+04  0.50400001928E-02 0.  1.
</event>
<event>
 5   0  0.5506332E-05  0.2025918E+04  0.7818609E-02  0.8594598E-01
        2   -1    0    0  501    0  0.00000000000E+00  0.00000000000E+00  0.16071639609E+04  0.16071639609E+04  0.25500000920E-02 0.  1.
       -2   -1    0    0    0  501  0.00000000000E+00  0.00000000000E+00 -0.63844493572E+03  0.63844493573E+03  0.25500000920E-02 0. -1.
    10030    2    1    2    0    0  0.00000000000E+00  0.00000000000E+00  0.96871902522E+03  0.22456088967E+04  0.20259177592E+04 0.  0.
        3    1    3    3  502    0  0.73903227595E+03  0.63498170507E+03  0.79136988632E+03  0.12552437125E+04  0.10100000352E+00 0.  1.
       -3    1    3    3    0  502 -0.73903227595E+03 -0.63498170507E+03  0.17734913890E+03  0.99036518414E+03  0.10100000352E+00 0. -1.
</event>
<event>
 5   0  0.5954140E-05  0.2084053E+04  0.7818609E-02  0.8568301E-01
        2   -1    0    0  501    0  0.00000000000E+00  0.00000000000E+00  0.15398416915E+04  0.15398416915E+04  0.25500000920E-02 0.  1.
       -2   -1    0    0    0  501  0.00000000000E+00  0.00000000000E+00 -0.70515023162E+03  0.70515023162E+03  0.25500000920E-02 0. -1.
    10030    2    1    2    0    0  0.00000000000E+00  0.00000000000E+00  0.83469145984E+03  0.22449919231E+04  0.20840534786E+04 0.  0.
        2    1    3    3  502    0  0.10212763547E+04 -0.71779762984E+02  0.62639930754E+03  0.12002224042E+04  0.25500000920E-02 0.  1.
       -2    1    3    3    0  502 -0.10212763547E+04  0.71779762984E+02  0.20829215231E+03  0.10447695189E+04  0.25500000920E-02 0. -1.
</event>
<event>
 5   0  0.5462851E-05  0.2090381E+04  0.7818609E-02  0.8565492E-01
        2   -1    0    0  501    0  0.00000000000E+00  0.00000000000E+00  0.14888187832E+04  0.14888187832E+04  0.25500000920E-02 0.  1.
       -2   -1    0    0    0  501  0.00000000000E+00  0.00000000000E+00 -0.73375196116E+03  0.73375196117E+03  0.25500000920E-02 0. -1.
    10030    2    1    2    0    0  0.00000000000E+00  0.00000000000E+00  0.75506682206E+03  0.22225707444E+04  0.20903814982E+04 0.  0.
        1    1    3    3  502    0 -0.35692009873E+03  0.97578541051E+03  0.25689196397E+03  0.10703002408E+04  0.50400001928E-02 0. -1.
       -1    1    3    3    0  502  0.35692009873E+03 -0.97578541051E+03  0.49817485809E+03  0.11522705036E+04  0.50400001928E-02 0.  1.
</event>
<event>
 5   0  0.5954140E-05  0.2098969E+04  0.7818609E-02  0.8561698E-01
        2   -1    0    0  501    0  0.00000000000E+00  0.00000000000E+00  0.13024078770E+04  0.13024078770E+04  0.25500000920E-02 0. -1.
       -2   -1    0    0    0  501  0.00000000000E+00  0.00000000000E+00 -0.84567784181E+03  0.84567784181E+03  0.25500000920E-02 0.  1.
    10030    2    1    2    0    0  0.00000000000E+00  0.00000000000E+00  0.45673003522E+03  0.21480857188E+04  0.20989687779E+04 0.  0.
        2    1    3    3  502    0  0.44744485972E+03 -0.39116992397E+03  0.11135897005E+04  0.12622610004E+04  0.25500000920E-02 0. -1.
       -2    1    3    3    0  502 -0.44744485972E+03  0.39116992397E+03 -0.65685966532E+03  0.88582471846E+03  0.25500000920E-02 0.  1.
</event>
<event>
 5   0  0.2602060E-05  0.2128301E+04  0.7818609E-02  0.8548878E-01
       -1   -1    0    0    0  501  0.00000000000E+00  0.00000000000E+00  0.19370270687E+04  0.19370270687E+04  0.50400001928E-02 0. -1.
        1   -1    0    0  501    0  0.00000000000E+00  0.00000000000E+00 -0.58461552544E+03  0.58461552546E+03  0.50400001928E-02 0.  1.
    10030    2    1    2    0    0  0.00000000000E+00  0.00000000000E+00  0.13524115433E+04  0.25216425942E+04  0.21283008224E+04 0.  0.
        1    1    3    3  502    0  0.23488774691E+03 -0.10167145656E+04  0.92341886507E+03  0.13934070339E+04  0.50400001928E-02 0. -1.
       -1    1    3    3    0  502 -0.23488774691E+03  0.10167145656E+04  0.42899267821E+03  0.11282355603E+04  0.50400001928E-02 0.  1.
</event>
<event>
 5   0  0.2699285E-05  0.2100270E+04  0.7818609E-02  0.8561125E-01
       -1   -1    0    0    0  501  0.00000000000E+00  0.00000000000E+00  0.13550743995E+04  0.13550743995E+04  0.50400001928E-02 0.  1.
        1   -1    0    0  501    0  0.00000000000E+00  0.00000000000E+00 -0.81381751595E+03  0.81381751596E+03  0.50400001928E-02 0. -1.
    10030    2    1    2    0    0  0.00000000000E+00  0.00000000000E+00  0.54125688357E+03  0.21688919155E+04  0.21002697748E+04 0.  0.
        2    1    3    3  502    0  0.33943975463E+03 -0.25050227065E+03  0.12637209008E+04  0.13322767167E+04  0.25500000920E-02 0.  1.
       -2    1    3    3    0  502 -0.33943975463E+03  0.25050227065E+03 -0.72246401726E+03  0.83661519880E+03  0.25500000920E-02 0. -1.
</event>
<event>
 5   0  0.2789662E-05  0.2096691E+04  0.7818609E-02  0.8562702E-01
       -1   -1    0    0    0  501  0.00000000000E+00  0.00000000000E+00  0.46595408032E+03  0.46595408035E+03  0.50400001928E-02 0. -1.
        1   -1    0    0  501    0  0.00000000000E+00  0.00000000000E+00 -0.23586627697E+04  0.23586627698E+04  0.50400001928E-02 0.  1.
    10030    2    1    2    0    0  0.00000000000E+00  0.00000000000E+00 -0.18927086894E+04  0.28246168501E+04  0.20966912426E+04 0.  0.
        4    1    3    3  502    0  0.11368664107E+03  0.62036990616E+03 -0.20744851930E+04  0.21682421225E+04  0.12699999809E+01 0.  1.
       -4    1    3    3    0  502 -0.11368664107E+03 -0.62036990616E+03  0.18177650362E+03  0.65637472758E+03  0.12699999809E+01 0. -1.
</event>
<event>
 5   0  0.2017750E-05  0.2166216E+04  0.7818609E-02  0.8532623E-01
        3   -1    0    0  501    0  0.00000000000E+00  0.00000000000E+00  0.12065197938E+04  0.12065197980E+04  0.10100000352E+00 0.  1.
       -3   -1    0    0    0  501  0.00000000000E+00  0.00000000000E+00 -0.97231925793E+03  0.97231926318E+03  0.10100000352E+00 0. -1.
    10030    2    1    2    0    0  0.00000000000E+00  0.00000000000E+00  0.23420053587E+03  0.21788390612E+04  0.21662155395E+04 0.  0.
        2    1    3    3  502    0 -0.10061449680E+04 -0.15475763329E+03  0.48918141527E+03  0.11294140422E+04  0.25500000920E-02 0.  1.
       -2    1    3    3    0  502  0.10061449680E+04  0.15475763329E+03 -0.25498087940E+03  0.10494250190E+04  0.25500000920E-02 0. -1.
</event>
<event>
 5   0  0.5506332E-05  0.2133501E+04  0.7818609E-02  0.8546628E-01
        2   -1    0    0  501    0  0.00000000000E+00  0.00000000000E+00  0.17794497829E+04  0.17794497829E+04  0.25500000920E-02 0.  1.
       -2   -1    0    0    0  501  0.00000000000E+00  0.00000000000E+00 -0.63949944358E+03  0.63949944359E+03  0.25500000920E-02 0. -1.
    10030    2    1    2    0    0  0.00000000000E+00  0.00000000000E+00  0.11399503393E+04  0.24189492265E+04  0.21335014844E+04 0.  0.
        3    1    3    3  502    0 -0.58827781744E+02 -0.63682413315E+03 -0.39804210109E+03  0.75328826415E+03  0.10100000352E+00 0. -1.
       -3    1    3    3    0  502  0.58827781744E+02  0.63682413315E+03  0.15379924404E+04  0.16656609623E+04  0.10100000352E+00 0.  1.
</event>
<event>
 5   0  0.5506332E-05  0.2118628E+04  0.7818609E-02  0.8553082E-01
        2   -1    0    0  501    0  0.00000000000E+00  0.00000000000E+00  0.13493207062E+04  0.13493207062E+04  0.25500000920E-02 0. -1.
       -2   -1    0    0    0  501  0.00000000000E+00  0.00000000000E+00 -0.83163770003E+03  0.83163770003E+03  0.25500000920E-02 0.  1.
    10030    2    1    2    0    0  0.00000000000E+00  0.00000000000E+00  0.51768300615E+03  0.21809584062E+04  0.21186278283E+04 0.  0.
        3    1    3    3  502    0 -0.87830719984E+03  0.30677358388E+03  0.78031413539E+03  0.12142585100E+04  0.10100000352E+00 0.  1.
       -3    1    3    3    0  502  0.87830719984E+03 -0.30677358388E+03 -0.26263112924E+03  0.96669989619E+03  0.10100000352E+00 0. -1.
</event>
<event>
 5   0  0.2732159E-05  0.2114385E+04  0.7818609E-02  0.8554933E-01
       -1   -1    0    0    0  501  0.00000000000E+00  0.00000000000E+00  0.11055448435E+04  0.11055448435E+04  0.50400001928E-02 0. -1.
        1   -1    0    0  501    0  0.00000000000E+00  0.00000000000E+00 -0.10109544866E+04  0.10109544866E+04  0.50400001928E-02 0.  1.
    10030    2    1    2    0    0  0.00000000000E+00  0.00000000000E+00  0.94590356842E+02  0.21164993301E+04  0.21143845626E+04 0.  0.
        3    1    3    3  502    0 -0.25516196596E+03  0.76296829169E+03  0.73385818501E+03  0.10889334639E+04  0.10100000352E+00 0.  1.
       -3    1    3    3    0  502  0.25516196596E+03 -0.76296829169E+03 -0.63926782816E+03  0.10275658662E+04  0.10100000352E+00 0. -1.
</event>
<event>
 5   0  0.2789662E-05  0.2063089E+04  0.7818609E-02  0.8577680E-01
        1   -1    0    0  501    0  0.00000000000E+00  0.00000000000E+00  0.21216441538E+04  0.21216441538E+04  0.50400001928E-02 0. -1.
       -1   -1    0    0    0  501  0.00000000000E+00  0.00000000000E+00 -0.50153739827E+03  0.50153739829E+03  0.50400001928E-02 0.  1.
    10030    2    1    2    0    0  0.00000000000E+00  0.00000000000E+00  0.16201067555E+04  0.26231815521E+04  0.20630888386E+04 0.  0.
        4    1    3    3  502    0 -0.88846237149E+03 -0.48957460836E+02  0.14653915745E+03  0.90179684857E+03  0.12699999809E+01 0.  1.
       -4    1    3    3    0  502  0.88846237149E+03  0.48957460836E+02  0.14735675981E+04  0.17213847035E+04  0.12699999809E+01 0. -1.
</event>
<event>
 5   0  0.2604390E-05  0.2105637E+04  0.7818609E-02  0.8558764E-01
       -1   -1    0    0    0  501  0.00000000000E+00  0.00000000000E+00  0.87025054430E+03  0.87025054432E+03  0.50400001928E-02 0. -1.
        1   -1    0    0  501    0  0.00000000000E+00  0.00000000000E+00 -0.12736865373E+04  0.12736865373E+04  0.50400001928E-02 0.  1.
    10030    2    1    2    0    0  0.00000000000E+00  0.00000000000E+00 -0.40343599303E+03  0.21439370817E+04  0.21056366281E+04 0.  0.
        5    1    3    3  502    0 -0.41584181187E+03  0.54623408587E+03 -0.10144272686E+04  0.12249003479E+04  0.46999998093E+01 0.  1.
       -5    1    3    3    0  502  0.41584181187E+03 -0.54623408587E+03  0.61099127560E+03  0.91903673371E+03  0.46999998093E+01 0. -1.
</event>
<event>
 5   0  0.5967046E-05  0.2099919E+04  0.7818609E-02  0.8561279E-01
        2   -1    0    0  501    0  0.00000000000E+00  0.00000000000E+00  0.12249485196E+04  0.12249485196E+04  0.25500000920E-02 0.  1.
       -2   -1    0    0    0  501  0.00000000000E+00  0.00000000000E+00 -0.89996826679E+03  0.89996826679E+03  0.25500000920E-02 0. -1.
    10030    2    1    2    0    0  0.00000000000E+00  0.00000000000E+00  0.32498025280E+03  0.21249167864E+04  0.20999188518E+04 0.  0.
        4    1    3    3  502    0  0.12816344481E+03  0.10369863202E+04  0.58079032487E+02  0.10464899826E+04  0.12699999809E+01 0.  1.
       -4    1    3    3    0  502 -0.12816344481E+03 -0.10369863202E+04  0.26690122031E+03  0.10784268038E+04  0.12699999809E+01 0. -1.
</event>
<event>
 5   0  0.5967046E-05  0.2103199E+04  0.7818609E-02  0.8559836E-01
       -2   -1    0    0    0  501  0.00000000000E+00  0.00000000000E+00  0.10484971286E+04  0.10484971286E+04  0.25500000920E-02 0.  1.
        2   -1    0    0  501    0  0.00000000000E+00  0.00000000000E+00 -0.10547109897E+04  0.10547109897E+04  0.25500000920E-02 0. -1.
    10030    2    1    2    0    0  0.00000000000E+00  0.00000000000E+00 -0.62138611147E+01  0.21032081183E+04  0.21031989390E+04 0.  0.
        4    1    3    3  502    0 -0.35998106143E+03 -0.28284723844E+03 -0.94982691553E+03  0.10544011131E+04  0.12699999809E+01 0. -1.
       -4    1    3    3    0  502  0.35998106143E+03  0.28284723844E+03  0.94361305442E+03  0.10488070052E+04  0.12699999809E+01 0.  1.
</event>
<event>
 5   0  0.5506332E-05  0.2098280E+04  0.7818609E-02  0.8562002E-01
        2   -1    0    0  501    0  0.00000000000E+00  0.00000000000E+00  0.14662971588E+04  0.14662971588E+04  0.25500000920E-02 0. -1.
       -2   -1    0    0    0  501  0.00000000000E+00  0.00000000000E+00 -0.75066266049E+03  0.75066266049E+03  0.25500000920E-02 0.  1.
    10030    2    1    2    0    0  0.00000000000E+00  0.00000000000E+00  0.71563449830E+03  0.22169598193E+04  0.20982797967E+04 0.  0.
        3    1    3    3  502    0  0.76315538550E+03  0.27269730358E+03  0.10617789089E+04  0.13357186917E+04  0.10100000352E+00 0. -1.
       -3    1    3    3    0  502 -0.76315538550E+03 -0.27269730358E+03 -0.34614441057E+03  0.88124112760E+03  0.10100000352E+00 0.  1.
</event>
<event>
 5   0  0.2602060E-05  0.2027197E+04  0.7818609E-02  0.8594010E-01
       -1   -1    0    0    0  501  0.00000000000E+00  0.00000000000E+00  0.12470587235E+04  0.12470587235E+04  0.50400001928E-02 0.  1.
        1   -1    0    0  501    0  0.00000000000E+00  0.00000000000E+00 -0.82384416377E+03  0.82384416378E+03  0.50400001928E-02 0. -1.
    10030    2    1    2    0    0  0.00000000000E+00  0.00000000000E+00  0.42321455970E+03  0.20709028873E+04  0.20271971303E+04 0.  0.
        1    1    3    3  502    0  0.94236119621E+03  0.29513484827E+03 -0.21865151407E+02  0.98773847128E+03  0.50400001928E-02 0. -1.
       -1    1    3    3    0  502 -0.94236119621E+03 -0.29513484827E+03  0.44507971111E+03  0.10831644160E+04  0.50400001928E-02 0.  1.
</event>
<event>
 5   0  0.5967046E-05  0.2082559E+04  0.7818609E-02  0.8568965E-01
       -2   -1    0    0    0  501  0.00000000000E+00  0.00000000000E+00  0.72884450357E+03  0.72884450357E+03  0.25500000920E-02 0.  1.
        2   -1    0    0  501    0  0.00000000000E+00  0.00000000000E+00 -0.14876465379E+04  0.14876465379E+04  0.25500000920E-02 0. -1.
    10030    2    1    2    0    0  0.00000000000E+00  0.00000000000E+00 -0.75880203437E+03  0.22164910415E+04  0.20825590051E+04 0.  0.
        4    1    3    3  502    0 -0.32615637793E+03 -0.89251784426E+03 -0.83257184297E+03  0.12633857573E+04  0.12699999809E+01 0. -1.
       -4    1    3    3    0  502  0.32615637793E+03  0.89251784426E+03  0.73769808604E+02  0.95310528419E+03  0.12699999809E+01 0.  1.
</event>
<event>
 5   0  0.2789662E-05  0.2089204E+04  0.7818609E-02  0.8566014E-01
       -1   -1    0    0    0  501  0.00000000000E+00  0.00000000000E+00  0.14541969347E+04  0.14541969347E+04  0.50400001928E-02 0.  1.
        1   -1    0    0  501    0  0.00000000000E+00  0.00000000000E+00 -0.75037495051E+03  0.75037495052E+03  0.50400001928E-02 0. -1.
    10030    2    1    2    0    0  0.00000000000E+00  0.00000000000E+00  0.70382198422E+03  0.22045718853E+04  0.20892036310E+04 0.  0.
        4    1    3    3  502    0  0.97116907860E+03  0.25224598041E+03  0.65845941664E+03  0.12001532528E+04  0.12699999809E+01 0.  1.
       -4    1    3    3    0  502 -0.97116907860E+03 -0.25224598041E+03  0.45362567582E+02  0.10044186325E+04  0.12699999809E+01 0. -1.
</event>
<event>
 5   0  0.5462851E-05  0.2098375E+04  0.7818609E-02  0.8561959E-01
       -2   -1    0    0    0  501  0.00000000000E+00  0.00000000000E+00  0.54629269607E+03  0.54629269608E+03  0.25500000920E-02 0.  1.
        2   -1    0    0  501    0  0.00000000000E+00  0.00000000000E+00 -0.20150274346E+04  0.20150274346E+04  0.25500000920E-02 0. -1.
    10030    2    1    2    0    0  0.00000000000E+00  0.00000000000E+00 -0.14687347385E+04  0.25613201307E+04  0.20983753429E+04 0.  0.
        1    1    3    3  502    0 -0.58938177433E+03 -0.36195682976E+03 -0.16973520305E+04  0.18328632076E+04  0.50400001928E-02 0. -1.
       -1    1    3    3    0  502  0.58938177433E+03  0.36195682976E+03  0.22861729195E+03  0.72845692304E+03  0.50400001928E-02 0.  1.
</event>
<event>
 5   0  0.5866610E-05  0.2094994E+04  0.7818609E-02  0.8563452E-01
       -2   -1    0    0    0  501  0.00000000000E+00  0.00000000000E+00  0.91312516777E+03  0.91312516778E+03  0.25500000920E-02 0.  1.
        2   -1    0    0  501    0  0.00000000000E+00  0.00000000000E+00 -0.12016424486E+04  0.12016424486E+04  0.25500000920E-02 0. -1.
    10030    2    1    2    0    0  0.00000000000E+00  0.00000000000E+00 -0.28851728079E+03  0.21147676163E+04  0.20949939976E+04 0.  0.
        5    1    3    3  502    0 -0.59541946648E+03 -0.56836703749E+03 -0.79818662038E+03  0.11465990587E+04  0.46999998093E+01 0. -1.
       -5    1    3    3    0  502  0.59541946648E+03  0.56836703749E+03  0.50966933959E+03  0.96816855768E+03  0.46999998093E+01 0.  1.
</event>
<event>
 5   0  0.2602060E-05  0.2106709E+04  0.7818609E-02  0.8558294E-01
       -1   -1    0    0    0  501  0.00000000000E+00  0.00000000000E+00  0.98211136309E+03  0.98211136310E+03  0.50400001928E-02 0. -1.
        1   -1    0    0  501    0  0.00000000000E+00  0.00000000000E+00 -0.11297654774E+04  0.11297654774E+04  0.50400001928E-02 0.  1.
    10030    2    1    2    0    0  0.00000000000E+00  0.00000000000E+00 -0.14765411428E+03  0.21118768405E+04  0.21067088199E+04 0.  0.
        1    1    3    3  502    0  0.19574518975E+02  0.76185877003E+03 -0.80275839543E+03  0.11069024296E+04  0.50400001928E-02 0.  1.
       -1    1    3    3    0  502 -0.19574518975E+02 -0.76185877003E+03  0.65510428115E+03  0.10049744109E+04  0.50400001928E-02 0. -1.
</event>
<event>
 5   0  0.2602060E-05  0.2092724E+04  0.7818609E-02  0.8564455E-01
       -1   -1    0    0    0  501  0.00000000000E+00  0.00000000000E+00  0.74282563197E+03  0.74282563199E+03  0.50400001928E-02 0. -1.
        1   -1    0    0  501    0  0.00000000000E+00  0.00000000000E+00 -0.14739306080E+04  0.14739306081E+04  0.50400001928E-02 0.  1.
    10030    2    1    2    0    0  0.00000000000E+00  0.00000000000E+00 -0.73110497607E+03  0.22167562400E+04  0.20927240004E+04 0.  0.
        1    1    3    3  502    0  0.96640011976E+03  0.35537892812E+03 -0.16837470071E+03  0.10433472164E+04  0.50400001928E-02 0. -1.
       -1    1    3    3    0  502 -0.96640011976E+03 -0.35537892812E+03 -0.56273027536E+03  0.11734090237E+04  0.50400001928E-02 0.  1.
</event>
<event>
 5   0  0.2789662E-05  0.2102002E+04  0.7818609E-02  0.8560362E-01
        1   -1    0    0  501    0  0.00000000000E+00  0.00000000000E+00  0.11281643851E+04  0.11281643851E+04  0.50400001928E-02 0. -1.
       -1   -1    0    0    0  501  0.00000000000E+00  0.00000000000E+00 -0.97911519908E+03  0.97911519909E+03  0.50400001928E-02 0.  1.
    10030    2    1    2    0    0  0.00000000000E+00  0.00000000000E+00  0.14904918605E+03  0.21072795842E+04  0.21020018045E+04 0.  0.
        4    1    3    3  502    0  0.13088801800E+03 -0.10125844143E+04 -0.17538512029E+03  0.10359635238E+04  0.12699999809E+01 0.  1.
       -4    1    3    3    0  502 -0.13088801800E+03  0.10125844143E+04  0.32443430633E+03  0.10713160604E+04  0.12699999809E+01 0. -1.
</event>
<event>
 5   0  0.5967046E-05  0.2091960E+04  0.7818609E-02  0.8564793E-01
       -2   -1    0    0    0  501  0.00000000000E+00  0.00000000000E+00  0.20736070757E+04  0.20736070757E+04  0.25500000920E-02 0. -1.
        2   -1    0    0  501    0  0.00000000000E+00  0.00000000000E+00 -0.52761890825E+03  0.52761890826E+03  0.25500000920E-02 0.  1.
    10030    2    1    2    0    0  0.00000000000E+00  0.00000000000E+00  0.15459881675E+04  0.26012259840E+04  0.20919601348E+04 0.  0.
        4    1    3    3  502    0 -0.75922380550E+03  0.98642589597E+02 -0.11318806086E+03  0.77392783729E+03  0.12699999809E+01 0.  1.
       -4    1    3    3    0  502  0.75922380550E+03 -0.98642589597E+02  0.16591762283E+04  0.18272981467E+04  0.12699999809E+01 0. -1.
</event>
<event>
 5   0  0.2602060E-05  0.2098054E+04  0.7818609E-02  0.8562101E-01
       -1   -1    0    0    0  501  0.00000000000E+00  0.00000000000E+00  0.91297429240E+03  0.91297429241E+03  0.50400001928E-02 0. -1.
        1   -1    0    0  501    0  0.00000000000E+00  0.00000000000E+00 -0.12053541329E+04  0.12053541329E+04  0.50400001928E-02 0.  1.
    10030    2    1    2    0    0  0.00000000000E+00  0.00000000000E+00 -0.29237984049E+03  0.21183284253E+04  0.20980537044E+04 0.  0.
        1    1    3    3  502    0  0.58739122686E+03  0.52420536844E+03 -0.84616982306E+03  0.11557781323E+04  0.50400001928E-02 0.  1.
       -1    1    3    3    0  502 -0.58739122686E+03 -0.52420536844E+03  0.55378998258E+03  0.96255029298E+03  0.50400001928E-02 0. -1.
</event>
<event>
 5   0  0.5462851E-05  0.2092927E+04  0.7818609E-02  0.8564365E-01
       -2   -1    0    0    0  501  0.00000000000E+00  0.00000000000E+00  0.85838587469E+03  0.85838587469E+03  0.25500000920E-02 0.  1.
        2   -1    0    0  501    0  0.00000000000E+00  0.00000000000E+00 -0.12757504628E+04  0.12757504628E+04  0.25500000920E-02 0. -1.
    10030    2    1    2    0    0  0.00000000000E+00  0.00000000000E+00 -0.41736458808E+03  0.21341363375E+04  0.20929273058E+04 0.  0.
        1    1    3    3  502    0 -0.95663334580E+03 -0.17485432426E+03 -0.60276930761E+03  0.11441382046E+04  0.50400001928E-02 0. -1.
       -1    1    3    3    0  502  0.95663334580E+03  0.17485432426E+03  0.18540471953E+03  0.98999813286E+03  0.50400001928E-02 0.  1.
</event>
<event>
 5   0  0.2017750E-05  0.2097131E+04  0.7818609E-02  0.8562508E-01
       -3   -1    0    0    0  501  0.00000000000E+00  0.00000000000E+00  0.10501238301E+04  0.10501238349E+04  0.10100000352E+00 0. -1.
        3   -1    0    0  501    0  0.00000000000E+00  0.00000000000E+00 -0.10470095114E+04  0.10470095163E+04  0.10100000352E+00 0.  1.
    10030    2    1    2    0    0  0.00000000000E+00  0.00000000000E+00  0.31143186456E+01  0.20971333512E+04  0.20971310388E+04 0.  0.
        2    1    3    3  502    0 -0.79172699185E+03 -0.19154337671E+03  0.66183749001E+03  0.10495472157E+04  0.25500000920E-02 0.  1.
       -2    1    3    3    0  502  0.79172699185E+03  0.19154337671E+03 -0.65872317137E+03  0.10475861355E+04  0.25500000920E-02 0. -1.
</event>
<event>
 5   0  0.5506332E-05  0.2094215E+04  0.7818609E-02  0.8563796E-01
        2   -1    0    0  501    0  0.00000000000E+00  0.00000000000E+00  0.95402612863E+03  0.95402612863E+03  0.25500000920E-02 0. -1.
       -2   -1    0    0    0  501  0.00000000000E+00  0.00000000000E+00 -0.11492709225E+04  0.11492709225E+04  0.25500000920E-02 0.  1.
    10030    2    1    2    0    0  0.00000000000E+00  0.00000000000E+00 -0.19524479391E+03  0.21032970512E+04  0.20942153557E+04 0.  0.
        3    1    3    3  502    0  0.54938154783E+03  0.30374181270E+03  0.74407833870E+03  0.97351515561E+03  0.10100000352E+00 0. -1.
       -3    1    3    3    0  502 -0.54938154783E+03 -0.30374181270E+03 -0.93932313261E+03  0.11297818956E+04  0.10100000352E+00 0.  1.
</event>
<event>
 5   0  0.2602060E-05  0.2080240E+04  0.7818609E-02  0.8569998E-01
        1   -1    0    0  501    0  0.00000000000E+00  0.00000000000E+00  0.90319196155E+03  0.90319196156E+03  0.50400001928E-02 0.  1.
       -1   -1    0    0    0  501  0.00000000000E+00  0.00000000000E+00 -0.11978070702E+04  0.11978070702E+04  0.50400001928E-02 0. -1.
    10030    2    1    2    0    0  0.00000000000E+00  0.00000000000E+00 -0.29461510862E+03  0.21009990317E+04  0.20802400989E+04 0.  0.
        1    1    3    3  502    0 -0.31806134961E+03  0.96262705535E+03 -0.38208337756E+03  0.10834212372E+04  0.50400001928E-02 0.  1.
       -1    1    3    3    0  502  0.31806134961E+03 -0.96262705535E+03  0.87468268941E+02  0.10175777945E+04  0.50400001928E-02 0. -1.
</event>
<event>
 5   0  0.2017750E-05  0.2075353E+04  0.7818609E-02  0.8572179E-01
       -3   -1    0    0    0  501  0.00000000000E+00  0.00000000000E+00  0.12652882654E+04  0.12652882694E+04  0.10100000352E+00 0.  1.
        3   -1    0    0  501    0  0.00000000000E+00  0.00000000000E+00 -0.85100956803E+03  0.85100957402E+03  0.10100000352E+00 0. -1.
    10030    2    1    2    0    0  0.00000000000E+00  0.00000000000E+00  0.41427869739E+03  0.21162978435E+04  0.20753529153E+04 0.  0.
        4    1    3    3  502    0  0.27874653387E+03  0.99733847303E+03  0.27468174509E+03  0.10713707733E+04  0.12699999809E+01 0. -1.
       -4    1    3    3    0  502 -0.27874653387E+03 -0.99733847303E+03  0.13959695230E+03  0.10449270701E+04  0.12699999809E+01 0.  1.
</event>
<event>
 5   0  0.5866610E-05  0.2119719E+04  0.7818609E-02  0.8552606E-01
        2   -1    0    0  501    0  0.00000000000E+00  0.00000000000E+00  0.10108819994E+04  0.10108819994E+04  0.25500000920E-02 0.  1.
       -2   -1    0    0    0  501  0.00000000000E+00  0.00000000000E+00 -0.11112104275E+04  0.11112104275E+04  0.25500000920E-02 0. -1.
    10030    2    1    2    0    0  0.00000000000E+00  0.00000000000E+00 -0.10032842812E+03  0.21220924269E+04  0.21197194330E+04 0.  0.
        5    1    3    3  502    0 -0.75821826765E+03 -0.52867613382E+03  0.46895956688E+03  0.10365030445E+04  0.46999998093E+01 0.  1.
       -5    1    3    3    0  502  0.75821826765E+03  0.52867613382E+03 -0.56928799500E+03  0.10855893824E+04  0.46999998093E+01 0. -1.
</event>
<event>
 5   0  0.2602060E-05  0.2084934E+04  0.7818609E-02  0.8567909E-01
       -1   -1    0    0    0  501  0.00000000000E+00  0.00000000000E+00  0.84959058719E+03  0.84959058721E+03  0.50400001928E-02 0. -1.
        1   -1    0    0  501    0  0.00000000000E+00  0.00000000000E+00 -0.12791301827E+04  0.12791301827E+04  0.50400001928E-02 0.  1.
    10030    2    1    2    0    0  0.00000000000E+00  0.00000000000E+00 -0.42953959547E+03  0.21287207699E+04  0.20849335366E+04 0.  0.
        1    1    3    3  502    0  0.84393534115E+03 -0.24675834982E+03 -0.78654938697E+03  0.11797357676E+04  0.50400001928E-02 0.  1.
       -1    1    3    3    0  502 -0.84393534115E+03  0.24675834982E+03  0.35700979150E+03  0.94898500225E+03  0.50400001928E-02 0. -1.
</event>
<event>
 5   0  0.2604390E-05  0.2089738E+04  0.7818609E-02  0.8565777E-01
        1   -1    0    0  501    0  0.00000000000E+00  0.00000000000E+00  0.11995400334E+04  0.11995400334E+04  0.50400001928E-02 0. -1.
       -1   -1    0    0    0  501  0.00000000000E+00  0.00000000000E+00 -0.91014151696E+03  0.91014151697E+03  0.50400001928E-02 0.  1.
    10030    2    1    2    0    0  0.00000000000E+00  0.00000000000E+00  0.28939851646E+03  0.21096815504E+04  0.20897379603E+04 0.  0.
        5    1    3    3  502    0 -0.76596653272E+03 -0.68414978889E+02  0.85879972309E+03  0.11527985049E+04  0.46999998093E+01 0. -1.
       -5    1    3    3    0  502  0.76596653272E+03  0.68414978889E+02 -0.56940120663E+03  0.95688304547E+03  0.46999998093E+01 0.  1.
</event>
<event>
 5   0  0.2732159E-05  0.2117522E+04  0.7818609E-02  0.8553564E-01
        1   -1    0    0  501    0  0.00000000000E+00  0.00000000000E+00  0.15960481930E+04  0.15960481930E+04  0.50400001928E-02 0. -1.
       -1   -1    0    0    0  501  0.00000000000E+00  0.00000000000E+00 -0.70234379235E+03  0.70234379237E+03  0.50400001928E-02 0.  1.
    10030    2    1    2    0    0  0.00000000000E+00  0.00000000000E+00  0.89370440061E+03  0.22983919853E+04  0.21175217030E+04 0.  0.
        3    1    3    3  502    0 -0.22079297757E+02 -0.55040375810E+03  0.14282644196E+04  0.15308073213E+04  0.10100000352E+00 0. -1.
       -3    1    3    3    0  502  0.22079297757E+02  0.55040375810E+03 -0.53456001903E+03  0.76758466404E+03  0.10100000352E+00 0.  1.
</event>
<event>
 5   0  0.5967046E-05  0.2109802E+04  0.7818609E-02  0.8556938E-01
        2   -1    0    0  501    0  0.00000000000E+00  0.00000000000E+00  0.21524869174E+04  0.21524869174E+04  0.25500000920E-02 0.  1.
       -2   -1    0    0    0  501  0.00000000000E+00  0.00000000000E+00 -0.51699068980E+03  0.51699068981E+03  0.25500000920E-02 0. -1.
    10030    2    1    2    0    0  0.00000000000E+00  0.00000000000E+00  0.16354962276E+04  0.26694776072E+04  0.21098015985E+04 0.  0.
        4    1    3    3  502    0  0.57454782048E+03 -0.85947711690E+02  0.19318519871E+04  0.20173115575E+04  0.12699999809E+01 0.  1.
       -4    1    3    3    0  502 -0.57454782048E+03  0.85947711690E+02 -0.29635575956E+03  0.65216604963E+03  0.12699999809E+01 0. -1.
</event>
<event>
 5   0  0.2699285E-05  0.2082160E+04  0.7818609E-02  0.8569143E-01
       -1   -1    0    0    0  501  0.00000000000E+00  0.00000000000E+00  0.76529227091E+03  0.76529227092E+03  0.50400001928E-02 0. -1.
        1   -1    0    0  501    0  0.00000000000E+00  0.00000000000E+00 -0.14162530756E+04  0.14162530756E+04  0.50400001928E-02 0.  1.
    10030    2    1    2    0    0  0.00000000000E+00  0.00000000000E+00 -0.65096080472E+03  0.21815453466E+04  0.20821599674E+04 0.  0.
        2    1    3    3  502    0 -0.99053078193E+03 -0.29217884194E+03 -0.46339879972E+03  0.11319267437E+04  0.25500000920E-02 0. -1.
       -2    1    3    3    0  502  0.99053078193E+03  0.29217884194E+03 -0.18756200500E+03  0.10496186028E+04  0.25500000920E-02 0.  1.
</event>
<event>
 5   0  0.5462851E-05  0.1899418E+04  0.7818609E-02  0.8655146E-01
       -2   -1    0    0    0  501  0.00000000000E+00  0.00000000000E+00  0.89272914985E+03  0.89272914985E+03  0.25500000920E-02 0. -1.
        2   -1    0    0  501    0  0.00000000000E+00  0.00000000000E+00 -0.10103257803E+04  0.10103257803E+04  0.25500000920E-02 0.  1.
    10030    2    1    2    0    0  0.00000000000E+00  0.00000000000E+00 -0.11759663049E+03  0.19030549302E+04  0.18994180951E+04 0.  0.
        1    1    3    3  502    0  0.56999017859E+03  0.16088306938E+02  0.70212911920E+03  0.90450701344E+03  0.50400001928E-02 0. -1.
       -1    1    3    3    0  502 -0.56999017859E+03 -0.16088306938E+02 -0.81972574969E+03  0.99854791675E+03  0.50400001928E-02 0.  1.
</event>
<event>
 5   0  0.5462851E-05  0.2113415E+04  0.7818609E-02  0.8555357E-01
        2   -1    0    0  501    0  0.00000000000E+00  0.00000000000E+00  0.13730796356E+04  0.13730796356E+04  0.25500000920E-02 0. -1.
       -2   -1    0    0    0  501  0.00000000000E+00  0.00000000000E+00 -0.81323068960E+03  0.81323068960E+03  0.25500000920E-02 0.  1.
    10030    2    1    2    0    0  0.00000000000E+00  0.00000000000E+00  0.55984894598E+03  0.21863103252E+04  0.21134147713E+04 0.  0.
        1    1    3    3  502    0 -0.43754894091E+03 -0.95051836647E+03  0.43230149713E+03  0.11321743793E+04  0.50400001928E-02 0. -1.
       -1    1    3    3    0  502  0.43754894091E+03  0.95051836647E+03  0.12754744885E+03  0.10541359459E+04  0.50400001928E-02 0.  1.
</event>
<event>
 5   0  0.5967046E-05  0.2109550E+04  0.7818609E-02  0.8557048E-01
        2   -1    0    0  501    0  0.00000000000E+00  0.00000000000E+00  0.15533571031E+04  0.15533571031E+04  0.25500000920E-02 0. -1.
       -2   -1    0    0    0  501  0.00000000000E+00  0.00000000000E+00 -0.71622296751E+03  0.71622296751E+03  0.25500000920E-02 0.  1.
    10030    2    1    2    0    0  0.00000000000E+00  0.00000000000E+00  0.83713413560E+03  0.22695800706E+04  0.21095497472E+04 0.  0.
        4    1    3    3  502    0 -0.80105200825E+03 -0.75247370602E+02 -0.31523088173E+03  0.86412881470E+03  0.12699999809E+01 0.  1.
       -4    1    3    3    0  502  0.80105200825E+03  0.75247370602E+02  0.11523650173E+04  0.14054512559E+04  0.12699999809E+01 0. -1.
</event>
<event>
 5   0  0.5967046E-05  0.2100744E+04  0.7818609E-02  0.8560916E-01
       -2   -1    0    0    0  501  0.00000000000E+00  0.00000000000E+00  0.65539459949E+03  0.65539459950E+03  0.25500000920E-02 0. -1.
        2   -1    0    0  501    0  0.00000000000E+00  0.00000000000E+00 -0.16833853068E+04  0.16833853068E+04  0.25500000920E-02 0.  1.
    10030    2    1    2    0    0  0.00000000000E+00  0.00000000000E+00 -0.10279907073E+04  0.23387799063E+04  0.21007442861E+04 0.  0.
        4    1    3    3  502    0  0.27477094322E+03 -0.11732708914E+02  0.61459766682E+03  0.67332654237E+03  0.12699999809E+01 0. -1.
       -4    1    3    3    0  502 -0.27477094322E+03  0.11732708914E+02 -0.16425883741E+04  0.16654533639E+04  0.12699999809E+01 0.  1.
</event>
<event>
 5   0  0.5506332E-05  0.2122659E+04  0.7818609E-02  0.8551327E-01
       -2   -1    0    0    0  501  0.00000000000E+00  0.00000000000E+00  0.93994101072E+03  0.93994101072E+03  0.25500000920E-02 0.  1.
        2   -1    0    0  501    0  0.00000000000E+00  0.00000000000E+00 -0.11983946781E+04  0.11983946781E+04  0.25500000920E-02 0. -1.
    10030    2    1    2    0    0  0.00000000000E+00  0.00000000000E+00 -0.25845366736E+03  0.21383356888E+04  0.21226589975E+04 0.  0.
        3    1    3    3  502    0 -0.28859047724E+03  0.95673161402E+03 -0.48935894312E+03  0.11126958390E+04  0.10100000352E+00 0.  1.
       -3    1    3    3    0  502  0.28859047724E+03 -0.95673161402E+03  0.23090527576E+03  0.10256398498E+04  0.10100000352E+00 0. -1.
</event>
<event>
 5   0  0.2732159E-05  0.1958254E+04  0.7818609E-02  0.8626391E-01
       -1   -1    0    0    0  501  0.00000000000E+00  0.00000000000E+00  0.14470255431E+04  0.14470255431E+04  0.50400001928E-02 0. -1.
        1   -1    0    0  501    0  0.00000000000E+00  0.00000000000E+00 -0.66252423189E+03  0.66252423191E+03  0.50400001928E-02 0.  1.
    10030    2    1    2    0    0  0.00000000000E+00  0.00000000000E+00  0.78450131125E+03  0.21095497750E+04  0.19582538002E+04 0.  0.
        3    1    3    3  502    0 -0.41297403397E+03 -0.54983718362E+03  0.11431106030E+04  0.13340053756E+04  0.10100000352E+00 0. -1.
       -3    1    3    3    0  502  0.41297403397E+03  0.54983718362E+03 -0.35860929173E+03  0.77554439947E+03  0.10100000352E+00 0.  1.
</event>
<event>
 5   0  0.2789662E-05  0.2104858E+04  0.7818609E-02  0.8559106E-01
       -1   -1    0    0    0  501  0.00000000000E+00  0.00000000000E+00  0.91219312536E+03  0.91219312537E+03  0.50400001928E-02 0. -1.
        1   -1    0    0  501    0  0.00000000000E+00  0.00000000000E+00 -0.12142239464E+04  0.12142239464E+04  0.50400001928E-02 0.  1.
    10030    2    1    2    0    0  0.00000000000E+00  0.00000000000E+00 -0.30203082103E+03  0.21264170718E+04  0.21048579397E+04 0.  0.
        4    1    3    3  502    0 -0.19853626247E+03 -0.75829299841E+02 -0.11923194152E+04  0.12111126830E+04  0.12699999809E+01 0.  1.
       -4    1    3    3    0  502  0.19853626247E+03  0.75829299841E+02  0.89028859417E+03  0.91530438874E+03  0.12699999809E+01 0. -1.
</event>
<event>
 5   0  0.5506332E-05  0.2089653E+04  0.7818609E-02  0.8565815E-01
       -2   -1    0    0    0  501  0.00000000000E+00  0.00000000000E+00  0.65380612900E+03  0.65380612900E+03  0.25500000920E-02 0. -1.
        2   -1    0    0  501    0  0.00000000000E+00  0.00000000000E+00 -0.16697028823E+04  0.16697028823E+04  0.25500000920E-02 0.  1.
    10030    2    1    2    0    0  0.00000000000E+00  0.00000000000E+00 -0.10158967533E+04  0.23235090113E+04  0.20896525817E+04 0.  0.
        3    1    3    3  502    0 -0.55158595202E+03  0.76710028378E+03 -0.10039308403E+04  0.13786105505E+04  0.10100000352E+00 0.  1.
       -3    1    3    3    0  502  0.55158595202E+03 -0.76710028378E+03 -0.11965913030E+02  0.94489846074E+03  0.10100000352E+00 0. -1.
</event>
<event>
 5   0  0.5954140E-05  0.2100697E+04  0.7818609E-02  0.8560936E-01
        2   -1    0    0  501    0  0.00000000000E+00  0.00000000000E+00  0.12125255118E+04  0.12125255118E+04  0.25500000920E-02 0. -1.
       -2   -1    0    0    0  501  0.00000000000E+00  0.00000000000E+00 -0.90986314320E+03  0.90986314320E+03  0.25500000920E-02 0.  1.
    10030    2    1    2    0    0  0.00000000000E+00  0.00000000000E+00  0.30266236862E+03  0.21223886550E+04  0.21006972875E+04 0.  0.
        2    1    3    3  502    0  0.26750869521E+03  0.18922076711E+03 -0.85690454530E+03  0.91741528246E+03  0.25500000920E-02 0.  1.
       -2    1    3    3    0  502 -0.26750869521E+03 -0.18922076711E+03  0.11595669139E+04  0.12049733726E+04  0.25500000920E-02 0. -1.
</event>
<event>
 5   0  0.2602060E-05  0.2013162E+04  0.7818609E-02  0.8600492E-01
        1   -1    0    0  501    0  0.00000000000E+00  0.00000000000E+00  0.96820483588E+03  0.96820483589E+03  0.50400001928E-02 0.  1.
       -1   -1    0    0    0  501  0.00000000000E+00  0.00000000000E+00 -0.10464780000E+04  0.10464780000E+04  0.50400001928E-02 0. -1.
    10030    2    1    2    0    0  0.00000000000E+00  0.00000000000E+00 -0.78273164077E+02  0.20146828359E+04  0.20131617523E+04 0.  0.
        1    1    3    3  502    0  0.43211707958E+03  0.57000304391E+02  0.86886966311E+03  0.97206414225E+03  0.50400001928E-02 0.  1.
       -1    1    3    3    0  502 -0.43211707958E+03 -0.57000304391E+02 -0.94714282718E+03  0.10426186936E+04  0.50400001928E-02 0. -1.
</event>
<event>
 5   0  0.5462851E-05  0.2080242E+04  0.7818609E-02  0.8569997E-01
       -2   -1    0    0    0  501  0.00000000000E+00  0.00000000000E+00  0.45927289166E+03  0.45927289167E+03  0.25500000920E-02 0. -1.
        2   -1    0    0  501    0  0.00000000000E+00  0.00000000000E+00 -0.23555746485E+04  0.23555746485E+04  0.25500000920E-02 0.  1.
    10030    2    1    2    0    0  0.00000000000E+00  0.00000000000E+00 -0.18963017569E+04  0.28148475402E+04  0.20802418901E+04 0.  0.
        1    1    3    3  502    0 -0.36010467094E+03  0.49218351268E+03 -0.20882675396E+04  0.21754956449E+04  0.50400001928E-02 0.  1.
       -1    1    3    3    0  502  0.36010467094E+03 -0.49218351268E+03  0.19196578273E+03  0.63935189525E+03  0.50400001928E-02 0. -1.
</event>
<event>
 5   0  0.2699285E-05  0.2099325E+04  0.7818609E-02  0.8561541E-01
       -1   -1    0    0    0  501  0.00000000000E+00  0.00000000000E+00  0.10225915907E+04  0.10225915908E+04  0.50400001928E-02 0. -1.
        1   -1    0    0  501    0  0.00000000000E+00  0.00000000000E+00 -0.10774500364E+04  0.10774500364E+04  0.50400001928E-02 0.  1.
    10030    2    1    2    0    0  0.00000000000E+00  0.00000000000E+00 -0.54858445683E+02  0.21000416272E+04  0.20993249836E+04 0.  0.
        2    1    3    3  502    0 -0.49331676118E+03 -0.74334919694E+02  0.89641418832E+03  0.10258876665E+04  0.25500000920E-02 0. -1.
       -2    1    3    3    0  502  0.49331676118E+03  0.74334919694E+02 -0.95127263400E+03  0.10741539607E+04  0.25500000920E-02 0.  1.
</event>
<event>
 5   0  0.5866610E-05  0.2097451E+04  0.7818609E-02  0.8562367E-01
        2   -1    0    0  501    0  0.00000000000E+00  0.00000000000E+00  0.10556456160E+04  0.10556456160E+04  0.25500000920E-02 0.  1.
       -2   -1    0    0    0  501  0.00000000000E+00  0.00000000000E+00 -0.10418508272E+04  0.10418508272E+04  0.25500000920E-02 0. -1.
    10030    2    1    2    0    0  0.00000000000E+00  0.00000000000E+00  0.13794788815E+02  0.20974964432E+04  0.20974510800E+04 0.  0.
        5    1    3    3  502    0  0.34060393117E+03 -0.19932143751E+03 -0.96475271303E+03  0.10423578851E+04  0.46999998093E+01 0. -1.
       -5    1    3    3    0  502 -0.34060393117E+03  0.19932143751E+03  0.97854750184E+03  0.10551385581E+04  0.46999998093E+01 0.  1.
</event>
<event>
 5   0  0.2699285E-05  0.2087435E+04  0.7818609E-02  0.8566799E-01
        1   -1    0    0  501    0  0.00000000000E+00  0.00000000000E+00  0.14557197459E+04  0.14557197459E+04  0.50400001928E-02 0. -1.
       -1   -1    0    0    0  501  0.00000000000E+00  0.00000000000E+00 -0.74832110559E+03  0.74832110561E+03  0.50400001928E-02 0.  1.
    10030    2    1    2    0    0  0.00000000000E+00  0.00000000000E+00  0.70739864032E+03  0.22040408515E+04  0.20874346071E+04 0.  0.
        2    1    3    3  502    0 -0.26907625979E+03  0.29983452838E+03  0.13703147745E+04  0.14283085659E+04  0.25500000920E-02 0. -1.
       -2    1    3    3    0  502  0.26907625979E+03 -0.29983452838E+03 -0.66291613422E+03  0.77573228566E+03  0.25500000920E-02 0.  1.
</event>
<event>
 5   0  0.2732159E-05  0.2038054E+04  0.7818609E-02  0.8589033E-01
        1   -1    0    0  501    0  0.00000000000E+00  0.00000000000E+00  0.14807026588E+04  0.14807026588E+04  0.50400001928E-02 0.  1.
       -1   -1    0    0    0  501  0.00000000000E+00  0.00000000000E+00 -0.70129920318E+03  0.70129920320E+03  0.50400001928E-02 0. -1.
    10030    2    1    2    0    0  0.00000000000E+00  0.00000000000E+00  0.77940345563E+03  0.21820018620E+04  0.20380535761E+04 0.  0.
        3    1    3    3  502    0  0.49372486956E+03 -0.31304803974E+03 -0.50390729727E+03  0.77180690361E+03  0.10100000352E+00 0. -1.
       -3    1    3    3    0  502 -0.49372486956E+03  0.31304803974E+03  0.12833107529E+04  0.14101949584E+04  0.10100000352E+00 0.  1.
</event>
<event>
 5   0  0.2604390E-05  0.2068187E+04  0.7818609E-02  0.8575388E-01
        1   -1    0    0  501    0  0.00000000000E+00  0.00000000000E+00  0.19492038123E+04  0.19492038123E+04  0.50400001928E-02 0.  1.
       -1   -1    0    0    0  501  0.00000000000E+00  0.00000000000E+00 -0.54860833566E+03  0.54860833568E+03  0.50400001928E-02 0. -1.
    10030    2    1    2    0    0  0.00000000000E+00  0.00000000000E+00  0.14005954767E+04  0.24978121480E+04  0.20681870896E+04 0.  0.
        5    1    3    3  502    0  0.94334148221E+03 -0.23281311267E+03  0.11276914031E+04  0.14885580567E+04  0.46999998093E+01 0.  1.
       -5    1    3    3    0  502 -0.94334148221E+03  0.23281311267E+03  0.27290407355E+03  0.10092540913E+04  0.46999998093E+01 0. -1.
</event>
<event>
 5   0  0.5462851E-05  0.2079350E+04  0.7818609E-02  0.8570395E-01
        2   -1    0    0  501    0  0.00000000000E+00  0.00000000000E+00  0.10593179337E+04  0.10593179337E+04  0.25500000920E-02 0. -1.
       -2   -1    0    0    0  501  0.00000000000E+00  0.00000000000E+00 -0.10203958598E+04  0.10203958598E+04  0.25500000920E-02 0.  1.
    10030    2    1    2    0    0  0.00000000000E+00  0.00000000000E+00  0.38922073933E+02  0.20797137935E+04  0.20793495461E+04 0.  0.
        1    1    3    3  502    0  0.41498402119E+03 -0.51691772164E+03  0.82054326448E+03  0.10548492393E+04  0.50400001928E-02 0. -1.
       -1    1    3    3    0  502 -0.41498402119E+03  0.51691772164E+03 -0.78162119055E+03  0.10248645541E+04  0.50400001928E-02 0.  1.
</event>
<event>
 5   0  0.2732159E-05  0.2106282E+04  0.7818609E-02  0.8558481E-01
       -1   -1    0    0    0  501  0.00000000000E+00  0.00000000000E+00  0.14411518838E+04  0.14411518838E+04  0.50400001928E-02 0.  1.
        1   -1    0    0  501    0  0.00000000000E+00  0.00000000000E+00 -0.76959652758E+03  0.76959652759E+03  0.50400001928E-02 0. -1.
    10030    2    1    2    0    0  0.00000000000E+00  0.00000000000E+00  0.67155535621E+03  0.22107484114E+04  0.21062815439E+04 0.  0.
        3    1    3    3  502    0 -0.40098270704E+03 -0.59268026165E+03  0.11467904385E+04  0.13517341987E+04  0.10100000352E+00 0.  1.
       -3    1    3    3    0  502  0.40098270704E+03  0.59268026165E+03 -0.47523508232E+03  0.85901421267E+03  0.10100000352E+00 0. -1.
</event>
<event>
 5   0  0.5954140E-05  0.2096834E+04  0.7818609E-02  0.8562639E-01
       -2   -1    0    0    0  501  0.00000000000E+00  0.00000000000E+00  0.11142677706E+04  0.11142677706E+04  0.25500000920E-02 0.  1.
        2   -1    0    0  501    0  0.00000000000E+00  0.00000000000E+00 -0.98645794549E+03  0.98645794550E+03  0.25500000920E-02 0. -1.
    10030    2    1    2    0    0  0.00000000000E+00  0.00000000000E+00  0.12780982507E+03  0.21007257161E+04  0.20968340857E+04 0.  0.
        2    1    3    3  502    0 -0.75887897436E+03  0.40297169868E+03  0.66576507938E+03  0.10869805098E+04  0.25500000920E-02 0.  1.
       -2    1    3    3    0  502  0.75887897436E+03 -0.40297169868E+03 -0.53795525431E+03  0.10137452063E+04  0.25500000920E-02 0. -1.
</event>
<event>
 5   0  0.2789662E-05  0.2107703E+04  0.7818609E-02  0.8557858E-01
       -1   -1    0    0    0  501  0.00000000000E+00  0.00000000000E+00  0.59605920119E+03  0.59605920121E+03  0.50400001928E-02 0.  1.
        1   -1    0    0  501    0  0.00000000000E+00  0.00000000000E+00 -0.18632434346E+04  0.18632434346E+04  0.50400001928E-02 0. -1.
    10030    2    1    2    0    0  0.00000000000E+00  0.00000000000E+00 -0.12671842334E+04  0.24593026358E+04  0.21077033883E+04 0.  0.
        4    1    3    3  502    0 -0.56721327513E+03  0.84978468587E+03 -0.33216286606E+03  0.10743363972E+04  0.12699999809E+01 0.  1.
       -4    1    3    3    0  502  0.56721327513E+03 -0.84978468587E+03 -0.93502136735E+03  0.13849662386E+04  0.12699999809E+01 0. -1.
</event>
<event>
 5   0  0.2604390E-05  0.2107978E+04  0.7818609E-02  0.8557737E-01
       -1   -1    0    0    0  501  0.00000000000E+00  0.00000000000E+00  0.85767118011E+03  0.85767118013E+03  0.50400001928E-02 0. -1.
        1   -1    0    0  501    0  0.00000000000E+00  0.00000000000E+00 -0.12952433222E+04  0.12952433222E+04  0.50400001928E-02 0.  1.
    10030    2    1    2    0    0  0.00000000000E+00  0.00000000000E+00 -0.43757214213E+03  0.21529145024E+04  0.21079780537E+04 0.  0.
        5    1    3    3  502    0  0.28753766568E+03  0.74284677959E+03  0.48612380951E+03  0.93318684908E+03  0.46999998093E+01 0. -1.
       -5    1    3    3    0  502 -0.28753766568E+03 -0.74284677959E+03 -0.92369595164E+03  0.12197276533E+04  0.46999998093E+01 0.  1.
</event>
<event>
 5   0  0.5866610E-05  0.2095445E+04  0.7818609E-02  0.8563252E-01
        2   -1    0    0  501    0  0.00000000000E+00  0.00000000000E+00  0.17872055055E+04  0.17872055055E+04  0.25500000920E-02 0.  1.
       -2   -1    0    0    0  501  0.00000000000E+00  0.00000000000E+00 -0.61421178236E+03  0.61421178236E+03  0.25500000920E-02 0. -1.
    10030    2    1    2    0    0  0.00000000000E+00  0.00000000000E+00  0.11729937232E+04  0.24014172879E+04  0.20954452310E+04 0.  0.
        5    1    3    3  502    0 -0.77828181037E+03 -0.33223310846E+03  0.12944345474E+04  0.15465071297E+04  0.46999998093E+01 0.  1.
       -5    1    3    3    0  502  0.77828181037E+03  0.33223310846E+03 -0.12144082427E+03  0.85491015815E+03  0.46999998093E+01 0. -1.
</event>
<event>
 5   0  0.2604390E-05  0.1972265E+04  0.7818609E-02  0.8619698E-01
       -1   -1    0    0    0  501  0.00000000000E+00  0.00000000000E+00  0.61315136175E+03  0.61315136177E+03  0.50400001928E-02 0.  1.
        1   -1    0    0  501    0  0.00000000000E+00  0.00000000000E+00 -0.15859992634E+04  0.15859992634E+04  0.50400001928E-02 0. -1.
    10030    2    1    2    0    0  0.00000000000E+00  0.00000000000E+00 -0.97284790167E+03  0.21991506252E+04  0.19722653048E+04 0.  0.
        5    1    3    3  502    0 -0.84910832426E+02  0.96336293368E+03 -0.27148603145E+03  0.10044922831E+04  0.46999998093E+01 0.  1.
       -5    1    3    3    0  502  0.84910832426E+02 -0.96336293368E+03 -0.70136187022E+03  0.11946583421E+04  0.46999998093E+01 0. -1.
</event>
<event>
 5   0  0.2699285E-05  0.2120167E+04  0.7818609E-02  0.8552411E-01
        1   -1    0    0  501    0  0.00000000000E+00  0.00000000000E+00  0.17094781692E+04  0.17094781692E+04  0.50400001928E-02 0. -1.
       -1   -1    0    0    0  501  0.00000000000E+00  0.00000000000E+00 -0.65737995340E+03  0.65737995342E+03  0.50400001928E-02 0.  1.
    10030    2    1    2    0    0  0.00000000000E+00  0.00000000000E+00  0.10520982158E+04  0.23668581227E+04  0.21201666720E+04 0.  0.
        2    1    3    3  502    0  0.55061653661E+03 -0.45287806863E+03 -0.34977339006E+03  0.79411494120E+03  0.25500000920E-02 0.  1.
       -2    1    3    3    0  502 -0.55061653661E+03  0.45287806863E+03  0.14018716059E+04  0.15727431815E+04  0.25500000920E-02 0. -1.
</event>
<event>
 5   0  0.5462851E-05  0.2094771E+04  0.7818609E-02  0.8563550E-01
        2   -1    0    0  501    0  0.00000000000E+00  0.00000000000E+00  0.40989236245E+03  0.40989236246E+03  0.25500000920E-02 0. -1.
       -2   -1    0    0    0  501  0.00000000000E+00  0.00000000000E+00 -0.26763535850E+04  0.26763535850E+04  0.25500000920E-02 0.  1.
    10030    2    1    2    0    0  0.00000000000E+00  0.00000000000E+00 -0.22664612225E+04  0.30862459474E+04  0.20947714851E+04 0.  0.
        1    1    3    3  502    0 -0.62163525187E+03  0.94540905458E+02 -0.23673400881E+04  0.24494218628E+04  0.50400001928E-02 0.  1.
       -1    1    3    3    0  502  0.62163525187E+03 -0.94540905458E+02  0.10087886561E+03  0.63682408460E+03  0.50400001928E-02 0. -1.
</event>
<event>
 5   0  0.2602060E-05  0.2072268E+04  0.7818609E-02  0.8573559E-01
        1   -1    0    0  501    0  0.00000000000E+00  0.00000000000E+00  0.11044316522E+04  0.11044316522E+04  0.50400001928E-02 0. -1.
       -1   -1    0    0    0  501  0.00000000000E+00  0.00000000000E+00 -0.97206022503E+03  0.97206022505E+03  0.50400001928E-02 0.  1.
    10030    2    1    2    0    0  0.00000000000E+00  0.00000000000E+00  0.13237142719E+03  0.20764918773E+04  0.20722684000E+04 0.  0.
        1    1    3    3  502    0 -0.74344601085E+03  0.21009997483E+03  0.75804212261E+03  0.10823501421E+04  0.50400001928E-02 0. -1.
       -1    1    3    3    0  502  0.74344601085E+03 -0.21009997483E+03 -0.62567069542E+03  0.99414173516E+03  0.50400001928E-02 0.  1.
</event>
<event>
 5   0  0.5462851E-05  0.2119163E+04  0.7818609E-02  0.8552848E-01
       -2   -1    0    0    0  501  0.00000000000E+00  0.00000000000E+00  0.66929912627E+03  0.66929912627E+03  0.25500000920E-02 0.  1.
        2   -1    0    0  501    0  0.00000000000E+00  0.00000000000E+00 -0.16774463184E+04  0.16774463184E+04  0.25500000920E-02 0. -1.
    10030    2    1    2    0    0  0.00000000000E+00  0.00000000000E+00 -0.10081471922E+04  0.23467454447E+04  0.21191633777E+04 0.  0.
        1    1    3    3  502    0 -0.62449020241E+03 -0.50766134052E+03 -0.12672954085E+04  0.15012480481E+04  0.50400001928E-02 0. -1.
       -1    1    3    3    0  502  0.62449020241E+03  0.50766134052E+03  0.25914821633E+03  0.84549739658E+03  0.50400001928E-02 0.  1.
</event>
<event>
 5   0  0.5462851E-05  0.2125691E+04  0.7818609E-02  0.8550010E-01
       -2   -1    0    0    0  501  0.00000000000E+00  0.00000000000E+00  0.14166029336E+04  0.14166029336E+04  0.25500000920E-02 0.  1.
        2   -1    0    0  501    0  0.00000000000E+00  0.00000000000E+00 -0.79742903091E+03  0.79742903092E+03  0.25500000920E-02 0. -1.
    10030    2    1    2    0    0  0.00000000000E+00  0.00000000000E+00  0.61917390265E+03  0.22140319645E+04  0.21256907626E+04 0.  0.
        1    1    3    3  502    0  0.99066376621E+03  0.33544939864E+03  0.11279211506E+03  0.10519805407E+04  0.50400001928E-02 0.  1.
       -1    1    3    3    0  502 -0.99066376621E+03 -0.33544939864E+03  0.50638178759E+03  0.11620514238E+04  0.50400001928E-02 0. -1.
</event>
<event>
 5   0  0.2789662E-05  0.2251939E+04  0.7818609E-02  0.8497116E-01
       -1   -1    0    0    0  501  0.00000000000E+00  0.00000000000E+00  0.16750315973E+04  0.16750315973E+04  0.50400001928E-02 0. -1.
        1   -1    0    0  501    0  0.00000000000E+00  0.00000000000E+00 -0.75688570686E+03  0.75688570688E+03  0.50400001928E-02 0.  1.
    10030    2    1    2    0    0  0.00000000000E+00  0.00000000000E+00  0.91814589044E+03  0.24319173042E+04  0.22519391418E+04 0.  0.
        4    1    3    3  502    0 -0.39613752909E+03  0.46894760648E+03 -0.56027737875E+03  0.83111320144E+03  0.12699999809E+01 0.  1.
       -4    1    3    3    0  502  0.39613752909E+03 -0.46894760648E+03  0.14784232692E+04  0.16008041027E+04  0.12699999809E+01 0. -1.
</event>
<event>
 5   0  0.2604390E-05  0.2084862E+04  0.7818609E-02  0.8567941E-01
        1   -1    0    0  501    0  0.00000000000E+00  0.00000000000E+00  0.11815448369E+04  0.11815448369E+04  0.50400001928E-02 0. -1.
       -1   -1    0    0    0  501  0.00000000000E+00  0.00000000000E+00 -0.91969638711E+03  0.91969638713E+03  0.50400001928E-02 0.  1.
    10030    2    1    2    0    0  0.00000000000E+00  0.00000000000E+00  0.26184844980E+03  0.21012412241E+04  0.20848621228E+04 0.  0.
        5    1    3    3  502    0 -0.86646795664E+03  0.66376448612E+02 -0.44933131478E+03  0.97831143980E+03  0.46999998093E+01 0.  1.
       -5    1    3    3    0  502  0.86646795664E+03 -0.66376448612E+02  0.71117976458E+03  0.11229297843E+04  0.46999998093E+01 0. -1.
</event>
<event>
 5   0  0.5462851E-05  0.2105986E+04  0.7818609E-02  0.8558611E-01
        2   -1    0    0  501    0  0.00000000000E+00  0.00000000000E+00  0.12979301741E+04  0.12979301741E+04  0.25500000920E-02 0.  1.
       -2   -1    0    0    0  501  0.00000000000E+00  0.00000000000E+00 -0.85427922061E+03  0.85427922061E+03  0.25500000920E-02 0. -1.
    10030    2    1    2    0    0  0.00000000000E+00  0.00000000000E+00  0.44365095348E+03  0.21522093947E+04  0.21059864933E+04 0.  0.
        1    1    3    3  502    0  0.86590724136E+03  0.59848562305E+03  0.19266168021E+03  0.10700929467E+04  0.50400001928E-02 0.  1.
       -1    1    3    3    0  502 -0.86590724136E+03 -0.59848562305E+03  0.25098927327E+03  0.10821164480E+04  0.50400001928E-02 0. -1.
</event>
<event>
 5   0  0.2789662E-05  0.2087518E+04  0.7818609E-02  0.8566762E-01
        1   -1    0    0  501    0  0.00000000000E+00  0.00000000000E+00  0.52962539109E+03  0.52962539111E+03  0.50400001928E-02 0.  1.
       -1   -1    0    0    0  501  0.00000000000E+00  0.00000000000E+00 -0.20569878152E+04  0.20569878152E+04  0.50400001928E-02 0. -1.
    10030    2    1    2    0    0  0.00000000000E+00  0.00000000000E+00 -0.15273624241E+04  0.25866132063E+04  0.20875181208E+04 0.  0.
        4    1    3    3  502    0  0.33940568601E+03  0.36192857913E+03 -0.19015117080E+04  0.19651811379E+04  0.12699999809E+01 0. -1.
       -4    1    3    3    0  502 -0.33940568601E+03 -0.36192857913E+03  0.37414928392E+03  0.62143206841E+03  0.12699999809E+01 0.  1.
</event>
<event>
 5   0  0.2602060E-05  0.2071847E+04  0.7818609E-02  0.8573748E-01
       -1   -1    0    0    0  501  0.00000000000E+00  0.00000000000E+00  0.85224624568E+03  0.85224624569E+03  0.50400001928E-02 0.  1.
        1   -1    0    0  501    0  0.00000000000E+00  0.00000000000E+00 -0.12591866688E+04  0.12591866688E+04  0.50400001928E-02 0. -1.
    10030    2    1    2    0    0  0.00000000000E+00  0.00000000000E+00 -0.40694042314E+03  0.21114329145E+04  0.20718466267E+04 0.  0.
        1    1    3    3  502    0 -0.77107427806E+03  0.31407347346E+03 -0.83163973722E+03  0.11767847473E+04  0.50400001928E-02 0. -1.
       -1    1    3    3    0  502  0.77107427806E+03 -0.31407347346E+03  0.42469931407E+03  0.93464816718E+03  0.50400001928E-02 0.  1.
</event>
<event>
 5   0  0.2604390E-05  0.2093082E+04  0.7818609E-02  0.8564297E-01
       -1   -1    0    0    0  501  0.00000000000E+00  0.00000000000E+00  0.48091028396E+03  0.48091028399E+03  0.50400001928E-02 0. -1.
        1   -1    0    0  501    0  0.00000000000E+00  0.00000000000E+00 -0.22774467330E+04  0.22774467330E+04  0.50400001928E-02 0.  1.
    10030    2    1    2    0    0  0.00000000000E+00  0.00000000000E+00 -0.17965364491E+04  0.27583570170E+04  0.20930815131E+04 0.  0.
        5    1    3    3  502    0  0.32805696672E+03  0.82347032820E+03 -0.16511430647E+03  0.90167043815E+03  0.46999998093E+01 0. -1.
       -5    1    3    3    0  502 -0.32805696672E+03 -0.82347032820E+03 -0.16314221426E+04  0.18566865789E+04  0.46999998093E+01 0.  1.
</event>
<event>
 5   0  0.5462851E-05  0.2140248E+04  0.7818609E-02  0.8543718E-01
        2   -1    0    0  501    0  0.00000000000E+00  0.00000000000E+00  0.10543317180E+04  0.10543317180E+04  0.25500000920E-02 0.  1.
       -2   -1    0    0    0  501  0.00000000000E+00  0.00000000000E+00 -0.10861526508E+04  0.10861526508E+04  0.25500000920E-02 0. -1.
    10030    2    1    2    0    0  0.00000000000E+00  0.00000000000E+00 -0.31820932833E+02  0.21404843688E+04  0.21402478271E+04 0.  0.
        1    1    3    3  502    0  0.10662862165E+04 -0.61306604877E+02  0.50733187879E+02  0.10692514445E+04  0.50400001928E-02 0. -1.
       -1    1    3    3    0  502 -0.10662862165E+04  0.61306604877E+02 -0.82554120712E+02  0.10712329243E+04  0.50400001928E-02 0.  1.
</event>
<event>
 5   0  0.5954140E-05  0.2086886E+04  0.7818609E-02  0.8567042E-01
       -2   -1    0    0    0  501  0.00000000000E+00  0.00000000000E+00  0.72421591740E+03  0.72421591741E+03  0.25500000920E-02 0.  1.
        2   -1    0    0  501    0  0.00000000000E+00  0.00000000000E+00 -0.15033816091E+04  0.15033816091E+04  0.25500000920E-02 0. -1.
    10030    2    1    2    0    0  0.00000000000E+00  0.00000000000E+00 -0.77916569171E+03  0.22275975265E+04  0.20868856138E+04 0.  0.
        2    1    3    3  502    0  0.25505638442E+03 -0.44320625044E+03 -0.13604644537E+04  0.14533922628E+04  0.25500000920E-02 0. -1.
       -2    1    3    3    0  502 -0.25505638442E+03  0.44320625044E+03  0.58129876202E+03  0.77420526374E+03  0.25500000920E-02 0.  1.
</event>
<event>
 5   0  0.2604390E-05  0.2051214E+04  0.7818609E-02  0.8583044E-01
       -1   -1    0    0    0  501  0.00000000000E+00  0.00000000000E+00  0.99118055180E+03  0.99118055181E+03  0.50400001928E-02 0.  1.
        1   -1    0    0  501    0  0.00000000000E+00  0.00000000000E+00 -0.10612287807E+04  0.10612287807E+04  0.50400001928E-02 0. -1.
    10030    2    1    2    0    0  0.00000000000E+00  0.00000000000E+00 -0.70048228934E+02  0.20524093326E+04  0.20512136198E+04 0.  0.
        5    1    3    3  502    0 -0.71089020534E+03  0.19570586197E+02 -0.77444024016E+03  0.10514407579E+04  0.46999998093E+01 0. -1.
       -5    1    3    3    0  502  0.71089020534E+03 -0.19570586197E+02  0.70439201123E+03  0.10009685746E+04  0.46999998093E+01 0.  1.
</event>
<event>
 5   0  0.2602060E-05  0.2113559E+04  0.7818609E-02  0.8555294E-01
        1   -1    0    0  501    0  0.00000000000E+00  0.00000000000E+00  0.10029967394E+04  0.10029967394E+04  0.50400001928E-02 0.  1.
       -1   -1    0    0    0  501  0.00000000000E+00  0.00000000000E+00 -0.11134459638E+04  0.11134459638E+04  0.50400001928E-02 0. -1.
    10030    2    1    2    0    0  0.00000000000E+00  0.00000000000E+00 -0.11044922445E+03  0.21164427032E+04  0.21135587725E+04 0.  0.
        1    1    3    3  502    0  0.17671208814E+03  0.55986565002E+03 -0.93511918714E+03  0.11041397567E+04  0.50400001928E-02 0. -1.
       -1    1    3    3    0  502 -0.17671208814E+03 -0.55986565002E+03  0.82466996269E+03  0.10123029465E+04  0.50400001928E-02 0.  1.
</event>
<event>
 5   0  0.5506332E-05  0.2094348E+04  0.7818609E-02  0.8563737E-01
       -2   -1    0    0    0  501  0.00000000000E+00  0.00000000000E+00  0.86369663814E+03  0.86369663815E+03  0.25500000920E-02 0.  1.
        2   -1    0    0  501    0  0.00000000000E+00  0.00000000000E+00 -0.12696282175E+04  0.12696282175E+04  0.25500000920E-02 0. -1.
    10030    2    1    2    0    0  0.00000000000E+00  0.00000000000E+00 -0.40593157933E+03  0.21333248556E+04  0.20943482262E+04 0.  0.
        3    1    3    3  502    0  0.41665820472E+03  0.93156310294E+03  0.36266171131E+02  0.10211410871E+04  0.10100000352E+00 0.  1.
       -3    1    3    3    0  502 -0.41665820472E+03 -0.93156310294E+03 -0.44219775046E+03  0.11121837686E+04  0.10100000352E+00 0. -1.
</event>
<event>
 5   0  0.5967046E-05  0.2065298E+04  0.7818609E-02  0.8576686E-01
        2   -1    0    0  501    0  0.00000000000E+00  0.00000000000E+00  0.10279618173E+04  0.10279618173E+04  0.25500000920E-02 0.  1.
       -2   -1    0    0    0  501  0.00000000000E+00  0.00000000000E+00 -0.10373576882E+04  0.10373576882E+04  0.25500000920E-02 0. -1.
    10030    2    1    2    0    0  0.00000000000E+00  0.00000000000E+00 -0.93958708890E+01  0.20653195056E+04  0.20652981329E+04 0.  0.
        4    1    3    3  502    0  0.52250853328E+02  0.64532543540E+02  0.10246172780E+04  0.10279770328E+04  0.12699999809E+01 0.  1.
       -4    1    3    3    0  502 -0.52250853328E+02 -0.64532543540E+02 -0.10340131488E+04  0.10373424727E+04  0.12699999809E+01 0. -1.
</event>
<event>
 5   0  0.5967046E-05  0.2098823E+04  0.7818609E-02  0.8561762E-01
       -2   -1    0    0    0  501  0.00000000000E+00  0.00000000000E+00  0.87361704807E+03  0.87361704807E+03  0.25500000920E-02 0.  1.
        2   -1    0    0  501    0  0.00000000000E+00  0.00000000000E+00 -0.12605808636E+04  0.12605808636E+04  0.25500000920E-02 0. -1.
    10030    2    1    2    0    0  0.00000000000E+00  0.00000000000E+00 -0.38696381558E+03  0.21341979117E+04  0.20988234161E+04 0.  0.
        4    1    3    3  502    0 -0.75047337569E+03  0.73022395925E+03 -0.12284160884E+03  0.10542907531E+04  0.12699999809E+01 0.  1.
       -4    1    3    3    0  502  0.75047337569E+03 -0.73022395925E+03 -0.26412220674E+03  0.10799071586E+04  0.12699999809E+01 0. -1.
</event>
<event>
 5   0  0.2732159E-05  0.2093583E+04  0.7818609E-02  0.8564076E-01
       -1   -1    0    0    0  501  0.00000000000E+00  0.00000000000E+00  0.19063768844E+04  0.19063768844E+04  0.50400001928E-02 0. -1.
        1   -1    0    0  501    0  0.00000000000E+00  0.00000000000E+00 -0.57479293317E+03  0.57479293319E+03  0.50400001928E-02 0.  1.
    10030    2    1    2    0    0  0.00000000000E+00  0.00000000000E+00  0.13315839512E+04  0.24811698176E+04  0.20935825383E+04 0.  0.
        3    1    3    3  502    0  0.69498250656E+03 -0.35097761596E+03 -0.16344925659E+03  0.79555115549E+03  0.10100000352E+00 0.  1.
       -3    1    3    3    0  502 -0.69498250656E+03  0.35097761596E+03  0.14950332078E+04  0.16856186621E+04  0.10100000352E+00 0. -1.
</event>
<event>
 5   0  0.2604390E-05  0.2099799E+04  0.7818609E-02  0.8561332E-01
        1   -1    0    0  501    0  0.00000000000E+00  0.00000000000E+00  0.18926714158E+04  0.18926714158E+04  0.50400001928E-02 0. -1.
       -1   -1    0    0    0  501  0.00000000000E+00  0.00000000000E+00 -0.58239822840E+03  0.58239822842E+03  0.50400001928E-02 0.  1.
    10030    2    1    2    0    0  0.00000000000E+00  0.00000000000E+00  0.13102731874E+04  0.24750696442E+04  0.20997985423E+04 0.  0.
        5    1    3    3  502    0  0.44777364430E+03 -0.93733020804E+03  0.47568777760E+03  0.11425366984E+04  0.46999998093E+01 0. -1.
       -5    1    3    3    0  502 -0.44777364430E+03  0.93733020804E+03  0.83458540980E+03  0.13325329458E+04  0.46999998093E+01 0.  1.
</event>
<event>
 5   0  0.2732159E-05  0.2102550E+04  0.7818609E-02  0.8560121E-01
       -1   -1    0    0    0  501  0.00000000000E+00  0.00000000000E+00  0.81986033114E+03  0.81986033116E+03  0.50400001928E-02 0.  1.
        1   -1    0    0  501    0  0.00000000000E+00  0.00000000000E+00 -0.13480094049E+04  0.13480094049E+04  0.50400001928E-02 0. -1.
    10030    2    1    2    0    0  0.00000000000E+00  0.00000000000E+00 -0.52814907376E+03  0.21678697361E+04  0.21025502963E+04 0.  0.
        3    1    3    3  502    0  0.10241798245E+04 -0.12938922776E+03 -0.59170822780E+02  0.10340150297E+04  0.10100000352E+00 0.  1.
       -3    1    3    3    0  502 -0.10241798245E+04  0.12938922776E+03 -0.46897825098E+03  0.11338547064E+04  0.10100000352E+00 0. -1.
</event>
<event>
 5   0  0.2699285E-05  0.2004081E+04  0.7818609E-02  0.8604715E-01
        1   -1    0    0  501    0  0.00000000000E+00  0.00000000000E+00  0.11705259752E+04  0.11705259752E+04  0.50400001928E-02 0. -1.
       -1   -1    0    0    0  501  0.00000000000E+00  0.00000000000E+00 -0.85780698790E+03  0.85780698792E+03  0.50400001928E-02 0.  1.
    10030    2    1    2    0    0  0.00000000000E+00  0.00000000000E+00  0.31271898730E+03  0.20283329631E+04  0.20040811970E+04 0.  0.
        2    1    3    3  502    0  0.44118967935E+02  0.35873178013E+03 -0.78953578162E+03  0.86833272648E+03  0.25500000920E-02 0.  1.
       -2    1    3    3    0  502 -0.44118967935E+02 -0.35873178013E+03  0.11022547689E+04  0.11600002366E+04  0.25500000920E-02 0. -1.
</event>
<event>
 5   0  0.5506332E-05  0.2080179E+04  0.7818609E-02  0.8570025E-01
       -2   -1    0    0    0  501  0.00000000000E+00  0.00000000000E+00  0.54577164700E+03  0.54577164700E+03  0.25500000920E-02 0.  1.
        2   -1    0    0  501    0  0.00000000000E+00  0.00000000000E+00 -0.19821229760E+04  0.19821229760E+04  0.25500000920E-02 0. -1.
    10030    2    1    2    0    0  0.00000000000E+00  0.00000000000E+00 -0.14363513290E+04  0.25278946230E+04  0.20801793396E+04 0.  0.
        3    1    3    3  502    0 -0.46726866603E+03  0.35908642265E+03  0.32331434007E+03  0.67217202998E+03  0.10100000352E+00 0.  1.
       -3    1    3    3    0  502  0.46726866603E+03 -0.35908642265E+03 -0.17596656691E+04  0.18557225931E+04  0.10100000352E+00 0. -1.
</event>
<event>
 5   0  0.5506332E-05  0.2102379E+04  0.7818609E-02  0.8560196E-01
        2   -1    0    0  501    0  0.00000000000E+00  0.00000000000E+00  0.18849091908E+04  0.18849091908E+04  0.25500000920E-02 0.  1.
       -2   -1    0    0    0  501  0.00000000000E+00  0.00000000000E+00 -0.58623502503E+03  0.58623502503E+03  0.25500000920E-02 0. -1.
    10030    2    1    2    0    0  0.00000000000E+00  0.00000000000E+00  0.12986741658E+04  0.24711442158E+04  0.21023794012E+04 0.  0.
        3    1    3    3  502    0  0.73355420693E+03  0.68047839162E+03  0.10281147037E+04  0.14346332180E+04  0.10100000352E+00 0.  1.
       -3    1    3    3    0  502 -0.73355420693E+03 -0.68047839162E+03  0.27055946207E+03  0.10365109979E+04  0.10100000352E+00 0. -1.
</event>
<event>
 5   0  0.2732159E-05  0.2097432E+04  0.7818609E-02  0.8562375E-01
        1   -1    0    0  501    0  0.00000000000E+00  0.00000000000E+00  0.10593075705E+04  0.10593075705E+04  0.50400001928E-02 0.  1.
       -1   -1    0    0    0  501  0.00000000000E+00  0.00000000000E+00 -0.10382303144E+04  0.10382303144E+04  0.50400001928E-02 0. -1.
    10030    2    1    2    0    0  0.00000000000E+00  0.00000000000E+00  0.21077256077E+02  0.20975378850E+04  0.20974319841E+04 0.  0.
        3    1    3    3  502    0 -0.20374625824E+03  0.96672436579E+02 -0.10136942805E+04  0.10384768665E+04  0.10100000352E+00 0. -1.
       -3    1    3    3    0  502  0.20374625824E+03 -0.96672436579E+02  0.10347715366E+04  0.10590610185E+04  0.10100000352E+00 0.  1.
</event>
<event>
 5   0  0.5967046E-05  0.2091178E+04  0.7818609E-02  0.8565139E-01
        2   -1    0    0  501    0  0.00000000000E+00  0.00000000000E+00  0.16994383712E+04  0.16994383712E+04  0.25500000920E-02 0. -1.
       -2   -1    0    0    0  501  0.00000000000E+00  0.00000000000E+00 -0.64330457474E+03  0.64330457475E+03  0.25500000920E-02 0.  1.
    10030    2    1    2    0    0  0.00000000000E+00  0.00000000000E+00  0.10561337964E+04  0.23427429459E+04  0.20911781165E+04 0.  0.
        4    1    3    3  502    0  0.44991919740E+03  0.58451217610E+03  0.13582774340E+04  0.15456393398E+04  0.12699999809E+01 0. -1.
       -4    1    3    3    0  502 -0.44991919740E+03 -0.58451217610E+03 -0.30214363758E+03  0.79710360609E+03  0.12699999809E+01 0.  1.
</event>
<event>
 5   0  0.5462851E-05  0.2092600E+04  0.7818609E-02  0.8564510E-01
       -2   -1    0    0    0  501  0.00000000000E+00  0.00000000000E+00  0.10961251944E+04  0.10961251944E+04  0.25500000920E-02 0.  1.
        2   -1    0    0  501    0  0.00000000000E+00  0.00000000000E+00 -0.99873991572E+03  0.99873991572E+03  0.25500000920E-02 0. -1.
    10030    2    1    2    0    0  0.00000000000E+00  0.00000000000E+00  0.97385278630E+02  0.20948651101E+04  0.20926002812E+04 0.  0.
        1    1    3    3  502    0  0.17523236277E+03  0.28814254179E+02 -0.98354280560E+03  0.99944639310E+03  0.50400001928E-02 0. -1.
       -1    1    3    3    0  502 -0.17523236277E+03 -0.28814254179E+02  0.10809280842E+04  0.10954187170E+04  0.50400001928E-02 0.  1.
</event>
<event>
 5   0  0.5967046E-05  0.2187041E+04  0.7818609E-02  0.8523841E-01
        2   -1    0    0  501    0  0.00000000000E+00  0.00000000000E+00  0.34171065697E+04  0.34171065697E+04  0.25500000920E-02 0.  1.
       -2   -1    0    0    0  501  0.00000000000E+00  0.00000000000E+00 -0.34994138755E+03  0.34994138756E+03  0.25500000920E-02 0. -1.
    10030    2    1    2    0    0  0.00000000000E+00  0.00000000000E+00  0.30671651821E+04  0.37670479573E+04  0.21870409365E+04 0.  0.
        4    1    3    3  502    0 -0.94755308794E+03  0.41403658499E+03  0.21462056899E+04  0.23823273546E+04  0.12699999809E+01 0. -1.
       -4    1    3    3    0  502  0.94755308794E+03 -0.41403658499E+03  0.92095949221E+03  0.13847206026E+04  0.12699999809E+01 0.  1.
</event>
<event>
 5   0  0.2604390E-05  0.2101383E+04  0.7818609E-02  0.8560634E-01
       -1   -1    0    0    0  501  0.00000000000E+00  0.00000000000E+00  0.12058653069E+04  0.12058653069E+04  0.50400001928E-02 0.  1.
        1   -1    0    0  501    0  0.00000000000E+00  0.00000000000E+00 -0.91548606678E+03  0.91548606680E+03  0.50400001928E-02 0. -1.
    10030    2    1    2    0    0  0.00000000000E+00  0.00000000000E+00  0.29037924015E+03  0.21213513737E+04  0.21013832463E+04 0.  0.
        5    1    3    3  502    0 -0.12519682022E+02 -0.23347299939E+03 -0.88888008753E+03  0.91912800190E+03  0.46999998093E+01 0. -1.
       -5    1    3    3    0  502  0.12519682022E+02  0.23347299939E+03  0.11792593277E+04  0.12022233718E+04  0.46999998093E+01 0.  1.
</event>
<event>
 5   0  0.5462851E-05  0.2101674E+04  0.7818609E-02  0.8560506E-01
       -2   -1    0    0    0  501  0.00000000000E+00  0.00000000000E+00  0.61055417946E+03  0.61055417947E+03  0.25500000920E-02 0.  1.
        2   -1    0    0  501    0  0.00000000000E+00  0.00000000000E+00 -0.18086165642E+04  0.18086165642E+04  0.25500000920E-02 0. -1.
    10030    2    1    2    0    0  0.00000000000E+00  0.00000000000E+00 -0.11980623847E+04  0.24191707436E+04  0.21016740017E+04 0.  0.
        1    1    3    3  502    0 -0.95699605556E+02  0.71990398245E+03  0.27520381427E+03  0.77663202217E+03  0.50400001928E-02 0.  1.
       -1    1    3    3    0  502  0.95699605556E+02 -0.71990398245E+03 -0.14732661990E+04  0.16425387215E+04  0.50400001928E-02 0. -1.
</event>
<event>
 5   0  0.5506332E-05  0.2085013E+04  0.7818609E-02  0.8567874E-01
       -2   -1    0    0    0  501  0.00000000000E+00  0.00000000000E+00  0.67761160352E+03  0.67761160353E+03  0.25500000920E-02 0. -1.
        2   -1    0    0  501    0  0.00000000000E+00  0.00000000000E+00 -0.16038976604E+04  0.16038976604E+04  0.25500000920E-02 0.  1.
    10030    2    1    2    0    0  0.00000000000E+00  0.00000000000E+00 -0.92628605683E+03  0.22815092639E+04  0.20850128686E+04 0.  0.
        3    1    3    3  502    0 -0.97895558250E+03 -0.30613125740E+03 -0.66712246006E+03  0.12235696818E+04  0.10100000352E+00 0.  1.
       -3    1    3    3    0  502  0.97895558250E+03  0.30613125740E+03 -0.25916359677E+03  0.10579395821E+04  0.10100000352E+00 0. -1.
</event>
<event>
 5   0  0.2789662E-05  0.2104390E+04  0.7818609E-02  0.8559312E-01
        1   -1    0    0  501    0  0.00000000000E+00  0.00000000000E+00  0.15129026446E+04  0.15129026446E+04  0.50400001928E-02 0.  1.
       -1   -1    0    0    0  501  0.00000000000E+00  0.00000000000E+00 -0.73178161419E+03  0.73178161421E+03  0.50400001928E-02 0. -1.
    10030    2    1    2    0    0  0.00000000000E+00  0.00000000000E+00  0.78112103036E+03  0.22446842588E+04  0.21043900203E+04 0.  0.
        4    1    3    3  502    0 -0.17341616509E+03  0.58698527147E+03  0.13034731976E+04  0.14400239113E+04  0.12699999809E+01 0.  1.
       -4    1    3    3    0  502  0.17341616509E+03 -0.58698527147E+03 -0.52235216727E+03  0.80466034747E+03  0.12699999809E+01 0. -1.
</event>
<event>
 5   0  0.5866610E-05  0.2093224E+04  0.7818609E-02  0.8564234E-01
        2   -1    0    0  501    0  0.00000000000E+00  0.00000000000E+00  0.15124113951E+04  0.15124113951E+04  0.25500000920E-02 0.  1.
       -2   -1    0    0    0  501  0.00000000000E+00  0.00000000000E+00 -0.72427171491E+03  0.72427171491E+03  0.25500000920E-02 0. -1.
    10030    2    1    2    0    0  0.00000000000E+00  0.00000000000E+00  0.78813968015E+03  0.22366831100E+04  0.20932241110E+04 0.  0.
        5    1    3    3  502    0 -0.26556762256E+03  0.49466571403E+03  0.13378677332E+04  0.14509074720E+04  0.46999998093E+01 0.  1.
       -5    1    3    3    0  502  0.26556762256E+03 -0.49466571403E+03 -0.54972805310E+03  0.78577563792E+03  0.46999998093E+01 0. -1.
</event>
<event>
 5   0  0.5954140E-05  0.2090863E+04  0.7818609E-02  0.8565279E-01
        2   -1    0    0  501    0  0.00000000000E+00  0.00000000000E+00  0.11468471429E+04  0.11468471429E+04  0.25500000920E-02 0. -1.
       -2   -1    0    0    0  501  0.00000000000E+00  0.00000000000E+00 -0.95298369495E+03  0.95298369495E+03  0.25500000920E-02 0.  1.
    10030    2    1    2    0    0  0.00000000000E+00  0.00000000000E+00  0.19386344795E+03  0.20998308378E+04  0.20908626237E+04 0.  0.
        2    1    3    3  502    0  0.15660392844E+02 -0.92091886831E+03  0.59361323882E+03  0.10957707275E+04  0.25500000920E-02 0. -1.
       -2    1    3    3    0  502 -0.15660392844E+02  0.92091886831E+03 -0.39974979087E+03  0.10040601104E+04  0.25500000920E-02 0.  1.
</event>
<event>
 5   0  0.5954140E-05  0.2096493E+04  0.7818609E-02  0.8562790E-01
       -2   -1    0    0    0  501  0.00000000000E+00  0.00000000000E+00  0.57729136236E+03  0.57729136237E+03  0.25500000920E-02 0.  1.
        2   -1    0    0  501    0  0.00000000000E+00  0.00000000000E+00 -0.19034073711E+04  0.19034073711E+04  0.25500000920E-02 0. -1.
    10030    2    1    2    0    0  0.00000000000E+00  0.00000000000E+00 -0.13261160088E+04  0.24806987335E+04  0.20964929138E+04 0.  0.
        2    1    3    3  502    0 -0.10534424385E+03 -0.64187464347E+03  0.30960873744E+03  0.72038742211E+03  0.25500000920E-02 0.  1.
       -2    1    3    3    0  502  0.10534424385E+03  0.64187464347E+03 -0.16357247462E+04  0.17603113114E+04  0.25500000920E-02 0. -1.
</event>
<event>
 5   0  0.2732159E-05  0.2102527E+04  0.7818609E-02  0.8560131E-01
        1   -1    0    0  501    0  0.00000000000E+00  0.00000000000E+00  0.16862578970E+04  0.16862578970E+04  0.50400001928E-02 0. -1.
       -1   -1    0    0    0  501  0.00000000000E+00  0.00000000000E+00 -0.65538928853E+03  0.65538928855E+03  0.50400001928E-02 0.  1.
    10030    2    1    2    0    0  0.00000000000E+00  0.00000000000E+00  0.10308686085E+04  0.23416471856E+04  0.21025273967E+04 0.  0.
        3    1    3    3  502    0 -0.35520188194E+03 -0.36010838914E+03 -0.51095623691E+03  0.71897337580E+03  0.10100000352E+00 0.  1.
       -3    1    3    3    0  502  0.35520188194E+03  0.36010838914E+03  0.15418248454E+04  0.16226738098E+04  0.10100000352E+00 0. -1.
</event>
<event>
 5   0  0.2699285E-05  0.2101140E+04  0.7818609E-02  0.8560741E-01
        1   -1    0    0  501    0  0.00000000000E+00  0.00000000000E+00  0.12544020182E+04  0.12544020182E+04  0.50400001928E-02 0. -1.
       -1   -1    0    0    0  501  0.00000000000E+00  0.00000000000E+00 -0.87985946907E+03  0.87985946909E+03  0.50400001928E-02 0.  1.
    10030    2    1    2    0    0  0.00000000000E+00  0.00000000000E+00  0.37454254912E+03  0.21342614873E+04  0.21011401607E+04 0.  0.
        2    1    3    3  502    0  0.49707164636E+03 -0.98192239684E+02 -0.74754882618E+03  0.90307872585E+03  0.25500000920E-02 0.  1.
       -2    1    3    3    0  502 -0.49707164636E+03  0.98192239684E+02  0.11220913753E+04  0.12311827614E+04  0.25500000920E-02 0. -1.
</event>
<event>
 5   0  0.5462851E-05  0.1948861E+04  0.7818609E-02  0.8630910E-01
       -2   -1    0    0    0  501  0.00000000000E+00  0.00000000000E+00  0.16112024848E+04  0.16112024848E+04  0.25500000920E-02 0. -1.
        2   -1    0    0  501    0  0.00000000000E+00  0.00000000000E+00 -0.58932053350E+03  0.58932053350E+03  0.25500000920E-02 0.  1.
    10030    2    1    2    0    0  0.00000000000E+00  0.00000000000E+00  0.10218819513E+04  0.22005230183E+04  0.19488609062E+04 0.  0.
        1    1    3    3  502    0 -0.93637008637E+02 -0.92297230317E+03  0.17433634447E+03  0.94394858061E+03  0.50400001928E-02 0.  1.
       -1    1    3    3    0  502  0.93637008637E+02  0.92297230317E+03  0.84754560684E+03  0.12565744377E+04  0.50400001928E-02 0. -1.
</event>
<event>
 5   0  0.2699285E-05  0.2110346E+04  0.7818609E-02  0.8556699E-01
        1   -1    0    0  501    0  0.00000000000E+00  0.00000000000E+00  0.25798075640E+04  0.25798075640E+04  0.50400001928E-02 0.  1.
       -1   -1    0    0    0  501  0.00000000000E+00  0.00000000000E+00 -0.43157878024E+03  0.43157878027E+03  0.50400001928E-02 0. -1.
    10030    2    1    2    0    0  0.00000000000E+00  0.00000000000E+00  0.21482287837E+04  0.30113863442E+04  0.21103461344E+04 0.  0.
        2    1    3    3  502    0  0.94031060072E+03 -0.54952050194E+02  0.17527647363E+04  0.19898210911E+04  0.25500000920E-02 0.  1.
       -2    1    3    3    0  502 -0.94031060072E+03  0.54952050194E+02  0.39546404740E+03  0.10215652532E+04  0.25500000920E-02 0. -1.
</event>
<event>
 5   0  0.2604390E-05  0.2108868E+04  0.7818609E-02  0.8557347E-01
        1   -1    0    0  501    0  0.00000000000E+00  0.00000000000E+00  0.20455010374E+04  0.20455010375E+04  0.50400001928E-02 0.  1.
       -1   -1    0    0    0  501  0.00000000000E+00  0.00000000000E+00 -0.54354947195E+03  0.54354947197E+03  0.50400001928E-02 0. -1.
    10030    2    1    2    0    0  0.00000000000E+00  0.00000000000E+00  0.15019515655E+04  0.25890505094E+04  0.21088679511E+04 0.  0.
        5    1    3    3  502    0 -0.69189639763E+03  0.51305629833E+03  0.43367050270E+01  0.86138741999E+03  0.46999998093E+01 0. -1.
       -5    1    3    3    0  502  0.69189639763E+03 -0.51305629833E+03  0.14976148605E+04  0.17276630894E+04  0.46999998093E+01 0.  1.
</event>
<event>
 5   0  0.5866610E-05  0.2116320E+04  0.7818609E-02  0.8554088E-01
        2   -1    0    0  501    0  0.00000000000E+00  0.00000000000E+00  0.73071518296E+03  0.73071518296E+03  0.25500000920E-02 0. -1.
       -2   -1    0    0    0  501  0.00000000000E+00  0.00000000000E+00 -0.15323379636E+04  0.15323379637E+04  0.25500000920E-02 0.  1.
    10030    2    1    2    0    0  0.00000000000E+00  0.00000000000E+00 -0.80162278069E+03  0.22630531466E+04  0.21163200282E+04 0.  0.
        5    1    3    3  502    0  0.10214243718E+04  0.20556739201E+03 -0.59831952573E+03  0.12014882624E+04  0.46999998093E+01 0.  1.
       -5    1    3    3    0  502 -0.10214243718E+04 -0.20556739201E+03 -0.20330325496E+03  0.10615648842E+04  0.46999998093E+01 0. -1.
</event>
<event>
 5   0  0.2699285E-05  0.2087447E+04  0.7818609E-02  0.8566793E-01
       -1   -1    0    0    0  501  0.00000000000E+00  0.00000000000E+00  0.58397906757E+03  0.58397906759E+03  0.50400001928E-02 0. -1.
        1   -1    0    0  501    0  0.00000000000E+00  0.00000000000E+00 -0.18654079618E+04  0.18654079618E+04  0.50400001928E-02 0.  1.
    10030    2    1    2    0    0  0.00000000000E+00  0.00000000000E+00 -0.12814288943E+04  0.24493870294E+04  0.20874474386E+04 0.  0.
        2    1    3    3  502    0  0.98491313515E+03 -0.21552338450E+03 -0.95743154836E+03  0.13903882130E+04  0.25500000920E-02 0. -1.
       -2    1    3    3    0  502 -0.98491313515E+03  0.21552338450E+03 -0.32399734590E+03  0.10589988164E+04  0.25500000920E-02 0.  1.
</event>
<event>
 5   0  0.2732159E-05  0.2093569E+04  0.7818609E-02  0.8564082E-01
        1   -1    0    0  501    0  0.00000000000E+00  0.00000000000E+00  0.11356591009E+04  0.11356591009E+04  0.50400001928E-02 0.  1.
       -1   -1    0    0    0  501  0.00000000000E+00  0.00000000000E+00 -0.96486492857E+03  0.96486492859E+03  0.50400001928E-02 0. -1.
    10030    2    1    2    0    0  0.00000000000E+00  0.00000000000E+00  0.17079417236E+03  0.21005240295E+04  0.20935688547E+04 0.  0.
        3    1    3    3  502    0  0.34429673435E+03  0.68494335962E+03 -0.62976119626E+03  0.99211230296E+03  0.10100000352E+00 0. -1.
       -3    1    3    3    0  502 -0.34429673435E+03 -0.68494335962E+03  0.80055536862E+03  0.11084117266E+04  0.10100000352E+00 0.  1.
</event>
<event>
 5   0  0.2604390E-05  0.2106336E+04  0.7818609E-02  0.8558457E-01
       -1   -1    0    0    0  501  0.00000000000E+00  0.00000000000E+00  0.87543123364E+03  0.87543123365E+03  0.50400001928E-02 0. -1.
        1   -1    0    0  501    0  0.00000000000E+00  0.00000000000E+00 -0.12669906845E+04  0.12669906845E+04  0.50400001928E-02 0.  1.
    10030    2    1    2    0    0  0.00000000000E+00  0.00000000000E+00 -0.39155945083E+03  0.21424219181E+04  0.21063363624E+04 0.  0.
        5    1    3    3  502    0 -0.31037739966E+02 -0.91736903563E+03 -0.72097038411E+03  0.11671973585E+04  0.46999998093E+01 0.  1.
       -5    1    3    3    0  502  0.31037739966E+02  0.91736903563E+03  0.32941093328E+03  0.97522455967E+03  0.46999998093E+01 0. -1.
</event>
<event>
 5   0  0.5954140E-05  0.2029801E+04  0.7818609E-02  0.8592813E-01
        2   -1    0    0  501    0  0.00000000000E+00  0.00000000000E+00  0.24014266230E+04  0.24014266230E+04  0.25500000920E-02 0. -1.
       -2   -1    0    0    0  501  0.00000000000E+00  0.00000000000E+00 -0.42892148504E+03  0.42892148504E+03  0.25500000920E-02 0.  1.
    10030    2    1    2    0    0  0.00000000000E+00  0.00000000000E+00  0.19725051379E+04  0.28303481080E+04  0.20298014419E+04 0.  0.
        2    1    3    3  502    0  0.78001887411E+03 -0.64112259976E+03  0.11295151349E+04  0.15150155352E+04  0.25500000920E-02 0.  1.
       -2    1    3    3    0  502 -0.78001887411E+03  0.64112259976E+03  0.84299000303E+03  0.13153325728E+04  0.25500000920E-02 0. -1.
</event>
<event>
 5   0  0.5506332E-05  0.2106441E+04  0.7818609E-02  0.8558412E-01
       -2   -1    0    0    0  501  0.00000000000E+00  0.00000000000E+00  0.10007660049E+04  0.10007660049E+04  0.25500000920E-02 0. -1.
        2   -1    0    0  501    0  0.00000000000E+00  0.00000000000E+00 -0.11084238396E+04  0.11084238397E+04  0.25500000920E-02 0.  1.
    10030    2    1    2    0    0  0.00000000000E+00  0.00000000000E+00 -0.10765783476E+03  0.21091898445E+04  0.21064405026E+04 0.  0.
        3    1    3    3  502    0 -0.17975352170E+03  0.93184985449E+03 -0.51117161282E+03  0.10779387310E+04  0.10100000352E+00 0.  1.
       -3    1    3    3    0  502  0.17975352170E+03 -0.93184985449E+03  0.40351377806E+03  0.10312511135E+04  0.10100000352E+00 0. -1.
</event>
<event>
 5   0  0.2732159E-05  0.2073821E+04  0.7818609E-02  0.8572864E-01
        1   -1    0    0  501    0  0.00000000000E+00  0.00000000000E+00  0.69620207941E+03  0.69620207942E+03  0.50400001928E-02 0. -1.
       -1   -1    0    0    0  501  0.00000000000E+00  0.00000000000E+00 -0.15443546102E+04  0.15443546102E+04  0.50400001928E-02 0.  1.
    10030    2    1    2    0    0  0.00000000000E+00  0.00000000000E+00 -0.84815253076E+03  0.22405566896E+04  0.20738205235E+04 0.  0.
        3    1    3    3  502    0  0.41001622271E+02 -0.77411187716E+03  0.31995229309E+03  0.83862972249E+03  0.10100000352E+00 0. -1.
       -3    1    3    3    0  502 -0.41001622271E+02  0.77411187716E+03 -0.11681048239E+04  0.14019269671E+04  0.10100000352E+00 0.  1.
</event>
<event>
 5   0  0.5462851E-05  0.2098031E+04  0.7818609E-02  0.8562111E-01
       -2   -1    0    0    0  501  0.00000000000E+00  0.00000000000E+00  0.73357953007E+03  0.73357953007E+03  0.25500000920E-02 0.  1.
        2   -1    0    0  501    0  0.00000000000E+00  0.00000000000E+00 -0.15000876716E+04  0.15000876716E+04  0.25500000920E-02 0. -1.
    10030    2    1    2    0    0  0.00000000000E+00  0.00000000000E+00 -0.76650814154E+03  0.22336672017E+04  0.20980310858E+04 0.  0.
        1    1    3    3  502    0 -0.86488432151E+03  0.58831582614E+02 -0.10121613686E+04  0.13326502470E+04  0.50400001928E-02 0.  1.
       -1    1    3    3    0  502  0.86488432151E+03 -0.58831582614E+02  0.24565322702E+03  0.90101695471E+03  0.50400001928E-02 0. -1.
</event>
<event>
 5   0  0.5462851E-05  0.2096606E+04  0.7818609E-02  0.8562740E-01
        2   -1    0    0  501    0  0.00000000000E+00  0.00000000000E+00  0.16966309529E+04  0.16966309529E+04  0.25500000920E-02 0.  1.
       -2   -1    0    0    0  501  0.00000000000E+00  0.00000000000E+00 -0.64771824849E+03  0.64771824850E+03  0.25500000920E-02 0. -1.
    10030    2    1    2    0    0  0.00000000000E+00  0.00000000000E+00  0.10489127044E+04  0.23443492014E+04  0.20966056655E+04 0.  0.
        1    1    3    3  502    0 -0.45000856302E+03  0.91665501674E+03  0.25943800672E+03  0.10535996421E+04  0.50400001928E-02 0.  1.
       -1    1    3    3    0  502  0.45000856302E+03 -0.91665501674E+03  0.78947469772E+03  0.12907495593E+04  0.50400001928E-02 0. -1.
</event>
<event>
 5   0  0.5866610E-05  0.2105278E+04  0.7818609E-02  0.8558922E-01
       -2   -1    0    0    0  501  0.00000000000E+00  0.00000000000E+00  0.12796610309E+04  0.12796610309E+04  0.25500000920E-02 0.  1.
        2   -1    0    0  501    0  0.00000000000E+00  0.00000000000E+00 -0.86589259048E+03  0.86589259048E+03  0.25500000920E-02 0. -1.
    10030    2    1    2    0    0  0.00000000000E+00  0.00000000000E+00  0.41376844046E+03  0.21455536214E+04  0.21052781337E+04 0.  0.
        5    1    3    3  502    0  0.28442847681E+03  0.69995659081E+03  0.95383691087E+03  0.12168260886E+04  0.46999998093E+01 0.  1.
       -5    1    3    3    0  502 -0.28442847681E+03 -0.69995659081E+03 -0.54006847041E+03  0.92872753279E+03  0.46999998093E+01 0. -1.
</event>
<event>
 5   0  0.5506332E-05  0.2120353E+04  0.7818609E-02  0.8552330E-01
        2   -1    0    0  501    0  0.00000000000E+00  0.00000000000E+00  0.13379430859E+04  0.13379430860E+04  0.25500000920E-02 0. -1.
       -2   -1    0    0    0  501  0.00000000000E+00  0.00000000000E+00 -0.84007597670E+03  0.84007597670E+03  0.25500000920E-02 0.  1.
    10030    2    1    2    0    0  0.00000000000E+00  0.00000000000E+00  0.49786710925E+03  0.21780190627E+04  0.21203526543E+04 0.  0.
        3    1    3    3  502    0  0.34392222882E+03  0.95111915680E+03  0.57548464793E+03  0.11636549059E+04  0.10100000352E+00 0.  1.
       -3    1    3    3    0  502 -0.34392222882E+03 -0.95111915680E+03 -0.77617538677E+02  0.10143641567E+04  0.10100000352E+00 0. -1.
</event>
<event>
 5   0  0.2602060E-05  0.2181811E+04  0.7818609E-02  0.8526037E-01
        1   -1    0    0  501    0  0.00000000000E+00  0.00000000000E+00  0.86612273852E+03  0.86612273853E+03  0.50400001928E-02 0. -1.
       -1   -1    0    0    0  501  0.00000000000E+00  0.00000000000E+00 -0.13740251941E+04  0.13740251941E+04  0.50400001928E-02 0.  1.
    10030    2    1    2    0    0  0.00000000000E+00  0.00000000000E+00 -0.50790245554E+03  0.22401479326E+04  0.21818106828E+04 0.  0.
        1    1    3    3  502    0 -0.94835667150E+03 -0.17355657630E+03  0.27016025733E+03  0.10012436398E+04  0.50400001928E-02 0. -1.
       -1    1    3    3    0  502  0.94835667150E+03  0.17355657630E+03 -0.77806271287E+03  0.12389042928E+04  0.50400001928E-02 0.  1.
</event>
<event>
 5   0  0.2602060E-05  0.2092480E+04  0.7818609E-02  0.8564563E-01
       -1   -1    0    0    0  501  0.00000000000E+00  0.00000000000E+00  0.14313775969E+04  0.14313775969E+04  0.50400001928E-02 0. -1.
        1   -1    0    0  501    0  0.00000000000E+00  0.00000000000E+00 -0.76473069847E+03  0.76473069848E+03  0.50400001928E-02 0.  1.
    10030    2    1    2    0    0  0.00000000000E+00  0.00000000000E+00  0.66664689839E+03  0.21961082954E+04  0.20924802407E+04 0.  0.
        1    1    3    3  502    0 -0.23804219277E+03 -0.82627008536E+03  0.95885390256E+03  0.12879391080E+04  0.50400001928E-02 0. -1.
       -1    1    3    3    0  502  0.23804219277E+03  0.82627008536E+03 -0.29220700417E+03  0.90816918733E+03  0.50400001928E-02 0.  1.
</event>
<event>
 5   0  0.2732159E-05  0.1971193E+04  0.7818609E-02  0.8620209E-01
        1   -1    0    0  501    0  0.00000000000E+00  0.00000000000E+00  0.10099875659E+04  0.10099875660E+04  0.50400001928E-02 0.  1.
       -1   -1    0    0    0  501  0.00000000000E+00  0.00000000000E+00 -0.96179428272E+03  0.96179428273E+03  0.50400001928E-02 0. -1.
    10030    2    1    2    0    0  0.00000000000E+00  0.00000000000E+00  0.48193283221E+02  0.19717818487E+04  0.19711928029E+04 0.  0.
        3    1    3    3  502    0  0.86591707897E+03 -0.46863671739E+03  0.68466359796E+02  0.98697538630E+03  0.10100000352E+00 0.  1.
       -3    1    3    3    0  502 -0.86591707897E+03  0.46863671739E+03 -0.20273076575E+02  0.98480646239E+03  0.10100000352E+00 0. -1.
</event>
<event>
 5   0  0.5866610E-05  0.2083725E+04  0.7818609E-02  0.8568447E-01
       -2   -1    0    0    0  501  0.00000000000E+00  0.00000000000E+00  0.39765750536E+03  0.39765750537E+03  0.25500000920E-02 0. -1.
        2   -1    0    0  501    0  0.00000000000E+00  0.00000000000E+00 -0.27296793746E+04  0.27296793746E+04  0.25500000920E-02 0.  1.
    10030    2    1    2    0    0  0.00000000000E+00  0.00000000000E+00 -0.23320218693E+04  0.31273368800E+04  0.20837250208E+04 0.  0.
        5    1    3    3  502    0  0.20576613540E+03  0.78850173540E+03 -0.19175830709E+03  0.83717861149E+03  0.46999998093E+01 0. -1.
       -5    1    3    3    0  502 -0.20576613540E+03 -0.78850173540E+03 -0.21402635622E+04  0.22901582685E+04  0.46999998093E+01 0.  1.
</event>
<event>
 5   0  0.5462851E-05  0.2095395E+04  0.7818609E-02  0.8563275E-01
        2   -1    0    0  501    0  0.00000000000E+00  0.00000000000E+00  0.50651031464E+03  0.50651031465E+03  0.25500000920E-02 0. -1.
       -2   -1    0    0    0  501  0.00000000000E+00  0.00000000000E+00 -0.21671228205E+04  0.21671228205E+04  0.25500000920E-02 0.  1.
    10030    2    1    2    0    0  0.00000000000E+00  0.00000000000E+00 -0.16606125058E+04  0.26736331351E+04  0.20953950097E+04 0.  0.
        1    1    3    3  502    0  0.34699862798E+03  0.81085289827E+03 -0.15518476968E+04  0.17849710767E+04  0.50400001928E-02 0.  1.
       -1    1    3    3    0  502 -0.34699862798E+03 -0.81085289827E+03 -0.10876480904E+03  0.88866205847E+03  0.50400001928E-02 0. -1.
</event>
<event>
 5   0  0.2604390E-05  0.2101218E+04  0.7818609E-02  0.8560707E-01
       -1   -1    0    0    0  501  0.00000000000E+00  0.00000000000E+00  0.11823569475E+04  0.11823569475E+04  0.50400001928E-02 0. -1.
        1   -1    0    0  501    0  0.00000000000E+00  0.00000000000E+00 -0.93354129253E+03  0.93354129254E+03  0.50400001928E-02 0.  1.
    10030    2    1    2    0    0  0.00000000000E+00  0.00000000000E+00  0.24881565499E+03  0.21158982401E+04  0.21012177736E+04 0.  0.
        5    1    3    3  502    0  0.56630450555E+03 -0.21139140443E+03  0.98969582854E+03  0.11597012727E+04  0.46999998093E+01 0. -1.
       -5    1    3    3    0  502 -0.56630450555E+03  0.21139140443E+03 -0.74088017354E+03  0.95619696738E+03  0.46999998093E+01 0.  1.
</event>
<event>
 5   0  0.2604390E-05  0.2104110E+04  0.7818609E-02  0.8559435E-01
        1   -1    0    0  501    0  0.00000000000E+00  0.00000000000E+00  0.18084062483E+04  0.18084062483E+04  0.50400001928E-02 0. -1.
       -1   -1    0    0    0  501  0.00000000000E+00  0.00000000000E+00 -0.61204125945E+03  0.61204125947E+03  0.50400001928E-02 0.  1.
    10030    2    1    2    0    0  0.00000000000E+00  0.00000000000E+00  0.11963649888E+04  0.24204475077E+04  0.21041095388E+04 0.  0.
        5    1    3    3  502    0  0.64628800792E+03  0.15702489460E+03 -0.33950727120E+03  0.74674780475E+03  0.46999998093E+01 0.  1.
       -5    1    3    3    0  502 -0.64628800792E+03 -0.15702489460E+03  0.15358722600E+04  0.16736997030E+04  0.46999998093E+01 0. -1.
</event>
<event>
 5   0  0.5462851E-05  0.2098640E+04  0.7818609E-02  0.8561843E-01
        2   -1    0    0  501    0  0.00000000000E+00  0.00000000000E+00  0.10563323823E+04  0.10563323823E+04  0.25500000920E-02 0. -1.
       -2   -1    0    0    0  501  0.00000000000E+00  0.00000000000E+00 -0.10423545820E+04  0.10423545820E+04  0.25500000920E-02 0.  1.
    10030    2    1    2    0    0  0.00000000000E+00  0.00000000000E+00  0.13977800253E+02  0.20986869643E+04  0.20986404159E+04 0.  0.
        1    1    3    3  502    0 -0.69480245923E+03 -0.54801473511E+03  0.57091832695E+03  0.10530993986E+04  0.50400001928E-02 0. -1.
       -1    1    3    3    0  502  0.69480245923E+03  0.54801473511E+03 -0.55694052669E+03  0.10455875657E+04  0.50400001928E-02 0.  1.
</event>
<event>
 5   0  0.2732159E-05  0.2154524E+04  0.7818609E-02  0.8537598E-01
        1   -1    0    0  501    0  0.00000000000E+00  0.00000000000E+00  0.86422133619E+03  0.86422133621E+03  0.50400001928E-02 0. -1.
       -1   -1    0    0    0  501  0.00000000000E+00  0.00000000000E+00 -0.13428200076E+04  0.13428200076E+04  0.50400001928E-02 0.  1.
    10030    2    1    2    0    0  0.00000000000E+00  0.00000000000E+00 -0.47859867144E+03  0.22070413438E+04  0.21545242642E+04 0.  0.
        3    1    3    3  502    0  0.62318646208E+03 -0.81775279334E+03  0.90117661712E+02  0.10320863339E+04  0.10100000352E+00 0. -1.
       -3    1    3    3    0  502 -0.62318646208E+03  0.81775279334E+03 -0.56871633315E+03  0.11749550099E+04  0.10100000352E+00 0.  1.
</event>
<event>
 5   0  0.2699285E-05  0.2091479E+04  0.7818609E-02  0.8565006E-01
       -1   -1    0    0    0  501  0.00000000000E+00  0.00000000000E+00  0.65334558383E+03  0.65334558385E+03  0.50400001928E-02 0.  1.
        1   -1    0    0  501    0  0.00000000000E+00  0.00000000000E+00 -0.16738017397E+04  0.16738017397E+04  0.50400001928E-02 0. -1.
    10030    2    1    2    0    0  0.00000000000E+00  0.00000000000E+00 -0.10204561558E+04  0.23271473235E+04  0.20914788785E+04 0.  0.
        2    1    3    3  502    0 -0.63433909452E+03  0.74203514772E+03 -0.92739969372E+03  0.13465037836E+04  0.25500000920E-02 0. -1.
       -2    1    3    3    0  502  0.63433909452E+03 -0.74203514772E+03 -0.93056462121E+02  0.98064353994E+03  0.25500000920E-02 0.  1.
</event>
<event>
 5   0  0.2789662E-05  0.2096100E+04  0.7818609E-02  0.8562963E-01
       -1   -1    0    0    0  501  0.00000000000E+00  0.00000000000E+00  0.88942045224E+03  0.88942045225E+03  0.50400001928E-02 0. -1.
        1   -1    0    0  501    0  0.00000000000E+00  0.00000000000E+00 -0.12349715661E+04  0.12349715662E+04  0.50400001928E-02 0.  1.
    10030    2    1    2    0    0  0.00000000000E+00  0.00000000000E+00 -0.34555111391E+03  0.21243920184E+04  0.20961001588E+04 0.  0.
        4    1    3    3  502    0  0.33015874341E+02  0.86935646128E+03  0.41952383680E+03  0.96585328455E+03  0.12699999809E+01 0.  1.
       -4    1    3    3    0  502 -0.33015874341E+02 -0.86935646128E+03 -0.76507495071E+03  0.11585387339E+04  0.12699999809E+01 0. -1.
</event>
<event>
 5   0  0.2789662E-05  0.2107184E+04  0.7818609E-02  0.8558085E-01
       -1   -1    0    0    0  501  0.00000000000E+00  0.00000000000E+00  0.78379843268E+03  0.78379843269E+03  0.50400001928E-02 0.  1.
        1   -1    0    0  501    0  0.00000000000E+00  0.00000000000E+00 -0.14162519454E+04  0.14162519454E+04  0.50400001928E-02 0. -1.
    10030    2    1    2    0    0  0.00000000000E+00  0.00000000000E+00 -0.63245351273E+03  0.22000503781E+04  0.21071839551E+04 0.  0.
        4    1    3    3  502    0  0.14200426430E+03  0.79906111896E+03 -0.10176924093E+04  0.13016771242E+04  0.12699999809E+01 0. -1.
       -4    1    3    3    0  502 -0.14200426430E+03 -0.79906111896E+03  0.38523889658E+03  0.89837325386E+03  0.12699999809E+01 0.  1.
</event>
<event>
 5   0  0.2602060E-05  0.2080123E+04  0.7818609E-02  0.8570050E-01
       -1   -1    0    0    0  501  0.00000000000E+00  0.00000000000E+00  0.13440364513E+04  0.13440364513E+04  0.50400001928E-02 0.  1.
        1   -1    0    0  501    0  0.00000000000E+00  0.00000000000E+00 -0.80483523540E+03  0.80483523542E+03  0.50400001928E-02 0. -1.
    10030    2    1    2    0    0  0.00000000000E+00  0.00000000000E+00  0.53920121590E+03  0.21488716867E+04  0.20801229711E+04 0.  0.
        1    1    3    3  502    0 -0.52627261628E+03 -0.79779127490E+03  0.69339570735E+03  0.11807757585E+04  0.50400001928E-02 0.  1.
       -1    1    3    3    0  502  0.52627261628E+03  0.79779127490E+03 -0.15419449145E+03  0.96809592819E+03  0.50400001928E-02 0. -1.
</event>
<event>
 5   0  0.2732159E-05  0.2100222E+04  0.7818609E-02  0.8561146E-01
        1   -1    0    0  501    0  0.00000000000E+00  0.00000000000E+00  0.87688004251E+03  0.87688004253E+03  0.50400001928E-02 0.  1.
       -1   -1    0    0    0  501  0.00000000000E+00  0.00000000000E+00 -0.12575646145E+04  0.12575646146E+04  0.50400001928E-02 0. -1.
    10030    2    1    2    0    0  0.00000000000E+00  0.00000000000E+00 -0.38068457203E+03  0.21344446571E+04  0.21002221908E+04 0.  0.
        3    1    3    3  502    0 -0.51753332191E+02  0.27775337981E+02  0.87520933914E+03  0.87717801746E+03  0.10100000352E+00 0.  1.
       -3    1    3    3    0  502  0.51753332191E+02 -0.27775337981E+02 -0.12558939112E+04  0.12572666396E+04  0.10100000352E+00 0. -1.
</event>
<event>
 5   0  0.2789662E-05  0.2316062E+04  0.7818609E-02  0.8471615E-01
       -1   -1    0    0    0  501  0.00000000000E+00  0.00000000000E+00  0.67156666367E+03  0.67156666369E+03  0.50400001928E-02 0. -1.
        1   -1    0    0  501    0  0.00000000000E+00  0.00000000000E+00 -0.19968773737E+04  0.19968773737E+04  0.50400001928E-02 0.  1.
    10030    2    1    2    0    0  0.00000000000E+00  0.00000000000E+00 -0.13253107100E+04  0.26684440374E+04  0.23160624133E+04 0.  0.
        4    1    3    3  502    0  0.74075443263E+03  0.16368465323E+03 -0.16707179313E+04  0.18348868668E+04  0.12699999809E+01 0.  1.
       -4    1    3    3    0  502 -0.74075443263E+03 -0.16368465323E+03  0.34540722128E+03  0.83355717056E+03  0.12699999809E+01 0. -1.
</event>
<event>
 5   0  0.5506332E-05  0.2124077E+04  0.7818609E-02  0.8550711E-01
       -2   -1    0    0    0  501  0.00000000000E+00  0.00000000000E+00  0.58159934381E+03  0.58159934381E+03  0.25500000920E-02 0. -1.
        2   -1    0    0  501    0  0.00000000000E+00  0.00000000000E+00 -0.19393514410E+04  0.19393514410E+04  0.25500000920E-02 0.  1.
    10030    2    1    2    0    0  0.00000000000E+00  0.00000000000E+00 -0.13577520972E+04  0.25209507848E+04  0.21240767646E+04 0.  0.
        3    1    3    3  502    0 -0.41923970094E+03  0.17598485820E+03  0.46024389196E+03  0.64695984995E+03  0.10100000352E+00 0. -1.
       -3    1    3    3    0  502  0.41923970094E+03 -0.17598485820E+03 -0.18179959892E+04  0.18739909349E+04  0.10100000352E+00 0.  1.
</event>
<event>
 5   0  0.2699285E-05  0.2098768E+04  0.7818609E-02  0.8561786E-01
       -1   -1    0    0    0  501  0.00000000000E+00  0.00000000000E+00  0.56222758159E+03  0.56222758162E+03  0.50400001928E-02 0. -1.
        1   -1    0    0  501    0  0.00000000000E+00  0.00000000000E+00 -0.19586504281E+04  0.19586504282E+04  0.50400001928E-02 0.  1.
    10030    2    1    2    0    0  0.00000000000E+00  0.00000000000E+00 -0.13964228466E+04  0.25208780098E+04  0.20987684898E+04 0.  0.
        2    1    3    3  502    0  0.37199945663E+03 -0.22147053092E+03  0.44996020785E+03  0.62441731274E+03  0.25500000920E-02 0. -1.
       -2    1    3    3    0  502 -0.37199945663E+03  0.22147053092E+03 -0.18463830544E+04  0.18964606970E+04  0.25500000920E-02 0.  1.
</event>
<event>
 5   0  0.2732159E-05  0.2052243E+04  0.7818609E-02  0.8582578E-01
       -1   -1    0    0    0  501  0.00000000000E+00  0.00000000000E+00  0.63740014492E+03  0.63740014494E+03  0.50400001928E-02 0. -1.
        1   -1    0    0  501    0  0.00000000000E+00  0.00000000000E+00 -0.16519057289E+04  0.16519057289E+04  0.50400001928E-02 0.  1.
    10030    2    1    2    0    0  0.00000000000E+00  0.00000000000E+00 -0.10145055840E+04  0.22893058738E+04  0.20522426280E+04 0.  0.
        3    1    3    3  502    0  0.37841406325E+03  0.24939177642E+03  0.51970604714E+03  0.68955626823E+03  0.10100000352E+00 0. -1.
       -3    1    3    3    0  502 -0.37841406325E+03 -0.24939177642E+03 -0.15342116311E+04  0.15997496056E+04  0.10100000352E+00 0.  1.
</event>
<event>
 5   0  0.2699285E-05  0.2087722E+04  0.7818609E-02  0.8566671E-01
       -1   -1    0    0    0  501  0.00000000000E+00  0.00000000000E+00  0.15969374148E+04  0.15969374148E+04  0.50400001928E-02 0.  1.
        1   -1    0    0  501    0  0.00000000000E+00  0.00000000000E+00 -0.68233454751E+03  0.68233454753E+03  0.50400001928E-02 0. -1.
    10030    2    1    2    0    0  0.00000000000E+00  0.00000000000E+00  0.91460286730E+03  0.22792719623E+04  0.20877217902E+04 0.  0.
        2    1    3    3  502    0 -0.45916733826E+03  0.48458872346E+03 -0.41881393034E+03  0.78807739701E+03  0.25500000920E-02 0. -1.
       -2    1    3    3    0  502  0.45916733826E+03 -0.48458872346E+03  0.13334167976E+04  0.14911945653E+04  0.25500000920E-02 0.  1.
</event>
<event>
 5   0  0.5462851E-05  0.2113288E+04  0.7818609E-02  0.8555412E-01
       -2   -1    0    0    0  501  0.00000000000E+00  0.00000000000E+00  0.53155007512E+03  0.53155007512E+03  0.25500000920E-02 0.  1.
        2   -1    0    0  501    0  0.00000000000E+00  0.00000000000E+00 -0.21004548387E+04  0.21004548387E+04  0.25500000920E-02 0. -1.
    10030    2    1    2    0    0  0.00000000000E+00  0.00000000000E+00 -0.15689047636E+04  0.26320049138E+04  0.21132883640E+04 0.  0.
        1    1    3    3  502    0 -0.92198330748E+03 -0.26197321280E+03 -0.23052075086E+03  0.98581083383E+03  0.50400001928E-02 0.  1.
       -1    1    3    3    0  502  0.92198330748E+03  0.26197321280E+03 -0.13383840127E+04  0.16461940800E+04  0.50400001928E-02 0. -1.
</event>
<event>
 5   0  0.2602060E-05  0.2079590E+04  0.7818609E-02  0.8570288E-01
        1   -1    0    0  501    0  0.00000000000E+00  0.00000000000E+00  0.14752986838E+04  0.14752986838E+04  0.50400001928E-02 0.  1.
       -1   -1    0    0    0  501  0.00000000000E+00  0.00000000000E+00 -0.73285064340E+03  0.73285064342E+03  0.50400001928E-02 0. -1.
    10030    2    1    2    0    0  0.00000000000E+00  0.00000000000E+00  0.74244804040E+03  0.22081493272E+04  0.20795899496E+04 0.  0.
        1    1    3    3  502    0 -0.39349095849E+03 -0.89437615617E+03 -0.63267522281E+01  0.97713042679E+03  0.50400001928E-02 0. -1.
       -1    1    3    3    0  502  0.39349095849E+03  0.89437615617E+03  0.74877479262E+03  0.12310189004E+04  0.50400001928E-02 0.  1.
</event>
<event>
 5   0  0.5954140E-05  0.2165339E+04  0.7818609E-02  0.8532995E-01
        2   -1    0    0  501    0  0.00000000000E+00  0.00000000000E+00  0.10208575674E+04  0.10208575674E+04  0.25500000920E-02 0.  1.
       -2   -1    0    0    0  501  0.00000000000E+00  0.00000000000E+00 -0.11482237501E+04  0.11482237501E+04  0.25500000920E-02 0. -1.
    10030    2    1    2    0    0  0.00000000000E+00  0.00000000000E+00 -0.12736618270E+03  0.21690813174E+04  0.21653386842E+04 0.  0.
        2    1    3    3  502    0  0.52689863675E+03  0.87401249192E+03 -0.42576724394E+03  0.11058018609E+04  0.25500000920E-02 0.  1.
       -2    1    3    3    0  502 -0.52689863675E+03 -0.87401249192E+03  0.29840106124E+03  0.10632794566E+04  0.25500000920E-02 0. -1.
</event>
<event>
 5   0  0.2017750E-05  0.2105059E+04  0.7818609E-02  0.8559018E-01
       -3   -1    0    0    0  501  0.00000000000E+00  0.00000000000E+00  0.83371512501E+03  0.83371513113E+03  0.10100000352E+00 0. -1.
        3   -1    0    0  501    0  0.00000000000E+00  0.00000000000E+00 -0.13287736441E+04  0.13287736479E+04  0.10100000352E+00 0.  1.
    10030    2    1    2    0    0  0.00000000000E+00  0.00000000000E+00 -0.49505851905E+03  0.21624887790E+04  0.21050593298E+04 0.  0.
        1    1    3    3  502    0 -0.76186866320E+03  0.25598339910E+03  0.45060466603E+03  0.92142060192E+03  0.50400001928E-02 0. -1.
       -1    1    3    3    0  502  0.76186866320E+03 -0.25598339910E+03 -0.94566318508E+03  0.12410681771E+04  0.50400001928E-02 0.  1.
</event>
<event>
 5   0  0.2602060E-05  0.2091570E+04  0.7818609E-02  0.8564966E-01
        1   -1    0    0  501    0  0.00000000000E+00  0.00000000000E+00  0.13989222880E+04  0.13989222880E+04  0.50400001928E-02 0.  1.
       -1   -1    0    0    0  501  0.00000000000E+00  0.00000000000E+00 -0.78179221324E+03  0.78179221326E+03  0.50400001928E-02 0. -1.
    10030    2    1    2    0    0  0.00000000000E+00  0.00000000000E+00  0.61713007480E+03  0.21807145013E+04  0.20915702730E+04 0.  0.
        1    1    3    3  502    0 -0.17588609000E+03  0.79647028307E+03 -0.37382661743E+03  0.89724420778E+03  0.50400001928E-02 0. -1.
       -1    1    3    3    0  502  0.17588609000E+03 -0.79647028307E+03  0.99095669222E+03  0.12834702935E+04  0.50400001928E-02 0.  1.
</event>
<event>
 5   0  0.2732159E-05  0.2076720E+04  0.7818609E-02  0.8571568E-01
       -1   -1    0    0    0  501  0.00000000000E+00  0.00000000000E+00  0.42393484805E+03  0.42393484808E+03  0.50400001928E-02 0.  1.
        1   -1    0    0  501    0  0.00000000000E+00  0.00000000000E+00 -0.25432963357E+04  0.25432963357E+04  0.50400001928E-02 0. -1.
    10030    2    1    2    0    0  0.00000000000E+00  0.00000000000E+00 -0.21193614876E+04  0.29672311837E+04  0.20767204392E+04 0.  0.
        3    1    3    3  502    0 -0.37089994431E+02 -0.77966680820E+03 -0.20381115201E+04  0.21824652524E+04  0.10100000352E+00 0. -1.
       -3    1    3    3    0  502  0.37089994431E+02  0.77966680820E+03 -0.81249967483E+02  0.78476593129E+03  0.10100000352E+00 0.  1.
</event>
<event>
 5   0  0.5506332E-05  0.2127324E+04  0.7818609E-02  0.8549301E-01
       -2   -1    0    0    0  501  0.00000000000E+00  0.00000000000E+00  0.95899492422E+03  0.95899492422E+03  0.25500000920E-02 0.  1.
        2   -1    0    0  501    0  0.00000000000E+00  0.00000000000E+00 -0.11797531366E+04  0.11797531366E+04  0.25500000920E-02 0. -1.
    10030    2    1    2    0    0  0.00000000000E+00  0.00000000000E+00 -0.22075821242E+03  0.21387480609E+04  0.21273243945E+04 0.  0.
        3    1    3    3  502    0 -0.75469230700E+03 -0.33645119764E+03 -0.78376490389E+03  0.11388798538E+04  0.10100000352E+00 0. -1.
       -3    1    3    3    0  502  0.75469230700E+03  0.33645119764E+03  0.56300669147E+03  0.99986820706E+03  0.10100000352E+00 0.  1.
</event>
<event>
 5   0  0.5967046E-05  0.2123727E+04  0.7818609E-02  0.8550863E-01
        2   -1    0    0  501    0  0.00000000000E+00  0.00000000000E+00  0.21744890144E+04  0.21744890144E+04  0.25500000920E-02 0.  1.
       -2   -1    0    0    0  501  0.00000000000E+00  0.00000000000E+00 -0.51853756326E+03  0.51853756326E+03  0.25500000920E-02 0. -1.
    10030    2    1    2    0    0  0.00000000000E+00  0.00000000000E+00  0.16559514512E+04  0.26930265777E+04  0.21237271339E+04 0.  0.
        4    1    3    3  502    0  0.57078175314E+03  0.64545093161E+03  0.41004093655E+02  0.86260168295E+03  0.12699999809E+01 0. -1.
       -4    1    3    3    0  502 -0.57078175314E+03 -0.64545093161E+03  0.16149473575E+04  0.18304248947E+04  0.12699999809E+01 0.  1.
</event>
<event>
 5   0  0.2602060E-05  0.2099872E+04  0.7818609E-02  0.8561300E-01
       -1   -1    0    0    0  501  0.00000000000E+00  0.00000000000E+00  0.84866364002E+03  0.84866364003E+03  0.50400001928E-02 0. -1.
        1   -1    0    0  501    0  0.00000000000E+00  0.00000000000E+00 -0.12989432539E+04  0.12989432539E+04  0.50400001928E-02 0.  1.
    10030    2    1    2    0    0  0.00000000000E+00  0.00000000000E+00 -0.45027961384E+03  0.21476068939E+04  0.20998722914E+04 0.  0.
        1    1    3    3  502    0  0.43394724751E+03  0.52516012516E+02 -0.12014595215E+04  0.12785042538E+04  0.50400001928E-02 0.  1.
       -1    1    3    3    0  502 -0.43394724751E+03 -0.52516012516E+02  0.75117990769E+03  0.86910264005E+03  0.50400001928E-02 0. -1.
</event>
<event>
 5   0  0.2604390E-05  0.1999749E+04  0.7818609E-02  0.8606738E-01
        1   -1    0    0  501    0  0.00000000000E+00  0.00000000000E+00  0.20442718999E+04  0.20442718999E+04  0.50400001928E-02 0.  1.
       -1   -1    0    0    0  501  0.00000000000E+00  0.00000000000E+00 -0.48904870940E+03  0.48904870943E+03  0.50400001928E-02 0. -1.
    10030    2    1    2    0    0  0.00000000000E+00  0.00000000000E+00  0.15552231905E+04  0.25333206094E+04  0.19997485186E+04 0.  0.
        5    1    3    3  502    0  0.56847447868E+03 -0.72532450385E+03  0.12690128197E+04  0.15683349436E+04  0.46999998093E+01 0.  1.
       -5    1    3    3    0  502 -0.56847447868E+03  0.72532450385E+03  0.28621037089E+03  0.96498566580E+03  0.46999998093E+01 0. -1.
</event>
<event>
 5   0  0.5506332E-05  0.2095966E+04  0.7818609E-02  0.8563023E-01
        2   -1    0    0  501    0  0.00000000000E+00  0.00000000000E+00  0.23068490264E+04  0.23068490264E+04  0.25500000920E-02 0.  1.
       -2   -1    0    0    0  501  0.00000000000E+00  0.00000000000E+00 -0.47609005830E+03  0.47609005830E+03  0.25500000920E-02 0. -1.
    10030    2    1    2    0    0  0.00000000000E+00  0.00000000000E+00  0.18307589681E+04  0.27829390848E+04  0.20959655412E+04 0.  0.
        3    1    3    3  502    0  0.34920009647E+01 -0.94719680937E+03  0.31999515543E+03  0.99979542880E+03  0.10100000352E+00 0. -1.
       -3    1    3    3    0  502 -0.34920009647E+01  0.94719680937E+03  0.15107638127E+04  0.17831436560E+04  0.10100000352E+00 0.  1.
</event>
<event>
 5   0  0.2789662E-05  0.2081590E+04  0.7818609E-02  0.8569397E-01
       -1   -1    0    0    0  501  0.00000000000E+00  0.00000000000E+00  0.14682880686E+04  0.14682880686E+04  0.50400001928E-02 0.  1.
        1   -1    0    0  501    0  0.00000000000E+00  0.00000000000E+00 -0.73776715938E+03  0.73776715939E+03  0.50400001928E-02 0. -1.
    10030    2    1    2    0    0  0.00000000000E+00  0.00000000000E+00  0.73052090924E+03  0.22060552280E+04  0.20815904665E+04 0.  0.
        4    1    3    3  502    0  0.38317001533E+03 -0.73721404839E+03 -0.29907792852E+03  0.88303625861E+03  0.12699999809E+01 0. -1.
       -4    1    3    3    0  502 -0.38317001533E+03  0.73721404839E+03  0.10295988378E+04  0.13230189694E+04  0.12699999809E+01 0.  1.
</event>
<event>
 5   0  0.5506332E-05  0.2094307E+04  0.7818609E-02  0.8563755E-01
       -2   -1    0    0    0  501  0.00000000000E+00  0.00000000000E+00  0.74097045381E+03  0.74097045381E+03  0.25500000920E-02 0. -1.
        2   -1    0    0  501    0  0.00000000000E+00  0.00000000000E+00 -0.14798573860E+04  0.14798573860E+04  0.25500000920E-02 0.  1.
    10030    2    1    2    0    0  0.00000000000E+00  0.00000000000E+00 -0.73888693219E+03  0.22208278398E+04  0.20943071397E+04 0.  0.
        3    1    3    3  502    0  0.33978258038E+03 -0.49353636455E+03 -0.12801020881E+04  0.14133972234E+04  0.10100000352E+00 0.  1.
       -3    1    3    3    0  502 -0.33978258038E+03  0.49353636455E+03  0.54121515592E+03  0.80743061637E+03  0.10100000352E+00 0. -1.
</event>
<event>
 5   0  0.2017750E-05  0.2098150E+04  0.7818609E-02  0.8562059E-01
        3   -1    0    0  501    0  0.00000000000E+00  0.00000000000E+00  0.86852886159E+03  0.86852886747E+03  0.10100000352E+00 0. -1.
       -3   -1    0    0    0  501  0.00000000000E+00  0.00000000000E+00 -0.12671523202E+04  0.12671523243E+04  0.10100000352E+00 0.  1.
    10030    2    1    2    0    0  0.00000000000E+00  0.00000000000E+00 -0.39862345865E+03  0.21356811917E+04  0.20981500163E+04 0.  0.
        4    1    3    3  502    0  0.99463146636E+03 -0.31150041409E+02 -0.53735879497E+03  0.11309368534E+04  0.12699999809E+01 0.  1.
       -4    1    3    3    0  502 -0.99463146636E+03  0.31150041409E+02  0.13873533632E+03  0.10047443383E+04  0.12699999809E+01 0. -1.
</event>
<event>
 5   0  0.2699285E-05  0.2100026E+04  0.7818609E-02  0.8561232E-01
        1   -1    0    0  501    0  0.00000000000E+00  0.00000000000E+00  0.20044379504E+04  0.20044379504E+04  0.50400001928E-02 0. -1.
       -1   -1    0    0    0  501  0.00000000000E+00  0.00000000000E+00 -0.55004291006E+03  0.55004291008E+03  0.50400001928E-02 0.  1.
    10030    2    1    2    0    0  0.00000000000E+00  0.00000000000E+00  0.14543950403E+04  0.25544808604E+04  0.21000256030E+04 0.  0.
        2    1    3    3  502    0  0.72080835858E+03 -0.27504792036E+03 -0.13919587424E+03  0.78395888905E+03  0.25500000920E-02 0.  1.
       -2    1    3    3    0  502 -0.72080835858E+03  0.27504792036E+03  0.15935909145E+04  0.17705219714E+04  0.25500000920E-02 0. -1.
</event>
<event>
 5   0  0.5866610E-05  0.2109211E+04  0.7818609E-02  0.8557197E-01
        2   -1    0    0  501    0  0.00000000000E+00  0.00000000000E+00  0.25005704581E+04  0.25005704581E+04  0.25500000920E-02 0.  1.
       -2   -1    0    0    0  501  0.00000000000E+00  0.00000000000E+00 -0.44477566961E+03  0.44477566962E+03  0.25500000920E-02 0. -1.
    10030    2    1    2    0    0  0.00000000000E+00  0.00000000000E+00  0.20557947885E+04  0.29453461277E+04  0.21092111321E+04 0.  0.
        5    1    3    3  502    0 -0.15920034658E+01  0.10430663111E+04  0.81075084715E+03  0.13211089622E+04  0.46999998093E+01 0. -1.
       -5    1    3    3    0  502  0.15920034658E+01 -0.10430663111E+04  0.12450439414E+04  0.16242371655E+04  0.46999998093E+01 0.  1.
</event>
<event>
 5   0  0.2602060E-05  0.2115919E+04  0.7818609E-02  0.8554263E-01
       -1   -1    0    0    0  501  0.00000000000E+00  0.00000000000E+00  0.81539944175E+03  0.81539944177E+03  0.50400001928E-02 0. -1.
        1   -1    0    0  501    0  0.00000000000E+00  0.00000000000E+00 -0.13726745418E+04  0.13726745418E+04  0.50400001928E-02 0.  1.
    10030    2    1    2    0    0  0.00000000000E+00  0.00000000000E+00 -0.55727510006E+03  0.21880739836E+04  0.21159187651E+04 0.  0.
        1    1    3    3  502    0  0.12327065625E+03  0.24397670720E+03  0.77825112311E+03  0.82486065429E+03  0.50400001928E-02 0. -1.
       -1    1    3    3    0  502 -0.12327065625E+03 -0.24397670720E+03 -0.13355262232E+04  0.13632133293E+04  0.50400001928E-02 0.  1.
</event>
<event>
 5   0  0.2602060E-05  0.2100746E+04  0.7818609E-02  0.8560915E-01
       -1   -1    0    0    0  501  0.00000000000E+00  0.00000000000E+00  0.73170174835E+03  0.73170174837E+03  0.50400001928E-02 0.  1.
        1   -1    0    0  501    0  0.00000000000E+00  0.00000000000E+00 -0.15078324587E+04  0.15078324587E+04  0.50400001928E-02 0. -1.
    10030    2    1    2    0    0  0.00000000000E+00  0.00000000000E+00 -0.77613071036E+03  0.22395342071E+04  0.21007461972E+04 0.  0.
        1    1    3    3  502    0  0.80047037678E+03 -0.60477741370E+03 -0.56426098378E+02  0.10048345380E+04  0.50400001928E-02 0.  1.
       -1    1    3    3    0  502 -0.80047037678E+03  0.60477741370E+03 -0.71970461198E+03  0.12346996690E+04  0.50400001928E-02 0. -1.
</event>
<event>
 5   0  0.5506332E-05  0.2099367E+04  0.7818609E-02  0.8561522E-01
       -2   -1    0    0    0  501  0.00000000000E+00  0.00000000000E+00  0.48153686702E+03  0.48153686703E+03  0.25500000920E-02 0.  1.
        2   -1    0    0  501    0  0.00000000000E+00  0.00000000000E+00 -0.22881636509E+04  0.22881636509E+04  0.25500000920E-02 0. -1.
    10030    2    1    2    0    0  0.00000000000E+00  0.00000000000E+00 -0.18066267839E+04  0.27697005179E+04  0.20993667195E+04 0.  0.
        3    1    3    3  502    0  0.42347406592E+03 -0.10371457283E+03  0.35642959423E+03  0.56314213389E+03  0.10100000352E+00 0.  1.
       -3    1    3    3    0  502 -0.42347406592E+03  0.10371457283E+03 -0.21630563781E+04  0.22065583840E+04  0.10100000352E+00 0. -1.
</event>
<event>
 5   0  0.2789662E-05  0.2098860E+04  0.7818609E-02  0.8561746E-01
       -1   -1    0    0    0  501  0.00000000000E+00  0.00000000000E+00  0.71652150066E+03  0.71652150068E+03  0.50400001928E-02 0.  1.
        1   -1    0    0  501    0  0.00000000000E+00  0.00000000000E+00 -0.15370139820E+04  0.15370139820E+04  0.50400001928E-02 0. -1.
    10030    2    1    2    0    0  0.00000000000E+00  0.00000000000E+00 -0.82049248135E+03  0.22535354827E+04  0.20988602288E+04 0.  0.
        4    1    3    3  502    0 -0.48637857065E+02 -0.10859957887E+03  0.70925378512E+03  0.71916761209E+03  0.12699999809E+01 0.  1.
       -4    1    3    3    0  502  0.48637857065E+02  0.10859957887E+03 -0.15297462665E+04  0.15343678706E+04  0.12699999809E+01 0. -1.
</event>
<event>
 5   0  0.2602060E-05  0.2116590E+04  0.7818609E-02  0.8553970E-01
        1   -1    0    0  501    0  0.00000000000E+00  0.00000000000E+00  0.12810393682E+04  0.12810393682E+04  0.50400001928E-02 0.  1.
       -1   -1    0    0    0  501  0.00000000000E+00  0.00000000000E+00 -0.87428133097E+03  0.87428133098E+03  0.50400001928E-02 0. -1.
    10030    2    1    2    0    0  0.00000000000E+00  0.00000000000E+00  0.40675803722E+03  0.21553206992E+04  0.21165904695E+04 0.  0.
        1    1    3    3  502    0 -0.46210742586E+03 -0.54835753380E+03 -0.58916175077E+03  0.92808988062E+03  0.50400001928E-02 0. -1.
       -1    1    3    3    0  502  0.46210742586E+03  0.54835753380E+03  0.99591978799E+03  0.12272308186E+04  0.50400001928E-02 0.  1.
</event>
<event>
 5   0  0.5866610E-05  0.2120145E+04  0.7818609E-02  0.8552421E-01
       -2   -1    0    0    0  501  0.00000000000E+00  0.00000000000E+00  0.59381987610E+03  0.59381987611E+03  0.25500000920E-02 0.  1.
        2   -1    0    0  501    0  0.00000000000E+00  0.00000000000E+00 -0.18924156371E+04  0.18924156371E+04  0.25500000920E-02 0. -1.
    10030    2    1    2    0    0  0.00000000000E+00  0.00000000000E+00 -0.12985957610E+04  0.24862355132E+04  0.21201452961E+04 0.  0.
        5    1    3    3  502    0 -0.90353394761E+03  0.31151615109E+03 -0.11870880021E+04  0.15240130976E+04  0.46999998093E+01 0.  1.
       -5    1    3    3    0  502  0.90353394761E+03 -0.31151615109E+03 -0.11150775891E+03  0.96222241564E+03  0.46999998093E+01 0. -1.
</event>
<event>
 5   0  0.2604390E-05  0.2100835E+04  0.7818609E-02  0.8560876E-01
       -1   -1    0    0    0  501  0.00000000000E+00  0.00000000000E+00  0.64222568434E+03  0.64222568436E+03  0.50400001928E-02 0.  1.
        1   -1    0    0  501    0  0.00000000000E+00  0.00000000000E+00 -0.17180513397E+04  0.17180513397E+04  0.50400001928E-02 0. -1.
    10030    2    1    2    0    0  0.00000000000E+00  0.00000000000E+00 -0.10758256553E+04  0.23602770240E+04  0.21008347840E+04 0.  0.
        5    1    3    3  502    0  0.61125133943E+03 -0.79322253816E+03 -0.18170221788E+03  0.10177759974E+04  0.46999998093E+01 0.  1.
       -5    1    3    3    0  502 -0.61125133943E+03  0.79322253816E+03 -0.89412343743E+03  0.13425010266E+04  0.46999998093E+01 0. -1.
</event>
<event>
 5   0  0.5506332E-05  0.2085994E+04  0.7818609E-02  0.8567438E-01
       -2   -1    0    0    0  501  0.00000000000E+00  0.00000000000E+00  0.50707163529E+03  0.50707163530E+03  0.25500000920E-02 0. -1.
        2   -1    0    0  501    0  0.00000000000E+00  0.00000000000E+00 -0.21453434379E+04  0.21453434379E+04  0.25500000920E-02 0.  1.
    10030    2    1    2    0    0  0.00000000000E+00  0.00000000000E+00 -0.16382718026E+04  0.26524150732E+04  0.20859940607E+04 0.  0.
        3    1    3    3  502    0 -0.38827631650E+03  0.83029399847E+03 -0.14519673716E+04  0.17170777153E+04  0.10100000352E+00 0.  1.
       -3    1    3    3    0  502  0.38827631650E+03 -0.83029399847E+03 -0.18630443095E+03  0.93533735788E+03  0.10100000352E+00 0. -1.
</event>
<event>
 5   0  0.2699285E-05  0.2098160E+04  0.7818609E-02  0.8562055E-01
       -1   -1    0    0    0  501  0.00000000000E+00  0.00000000000E+00  0.59551641819E+03  0.59551641821E+03  0.50400001928E-02 0.  1.
        1   -1    0    0  501    0  0.00000000000E+00  0.00000000000E+00 -0.18480906501E+04  0.18480906501E+04  0.50400001928E-02 0. -1.
    10030    2    1    2    0    0  0.00000000000E+00  0.00000000000E+00 -0.12525742319E+04  0.24436070683E+04  0.20981595025E+04 0.  0.
        2    1    3    3  502    0 -0.12960849265E+03  0.83720642332E+03  0.94339407366E+02  0.85241590811E+03  0.25500000920E-02 0.  1.
       -2    1    3    3    0  502  0.12960849265E+03 -0.83720642332E+03 -0.13469136392E+04  0.15911911602E+04  0.25500000920E-02 0. -1.
</event>
<event>
 5   0  0.2789662E-05  0.2140951E+04  0.7818609E-02  0.8543415E-01
       -1   -1    0    0    0  501  0.00000000000E+00  0.00000000000E+00  0.13647433593E+04  0.13647433593E+04  0.50400001928E-02 0. -1.
        1   -1    0    0  501    0  0.00000000000E+00  0.00000000000E+00 -0.83965833321E+03  0.83965833323E+03  0.50400001928E-02 0.  1.
    10030    2    1    2    0    0  0.00000000000E+00  0.00000000000E+00  0.52508502604E+03  0.22044016925E+04  0.21409513160E+04 0.  0.
        4    1    3    3  502    0 -0.83378148277E+03  0.66657852715E+03  0.34490074164E+03  0.11218184471E+04  0.12699999809E+01 0.  1.
       -4    1    3    3    0  502  0.83378148277E+03 -0.66657852715E+03  0.18018428441E+03  0.10825832453E+04  0.12699999809E+01 0. -1.
</event>
<event>
 5   0  0.2602060E-05  0.2090120E+04  0.7818609E-02  0.8565608E-01
       -1   -1    0    0    0  501  0.00000000000E+00  0.00000000000E+00  0.61871679625E+03  0.61871679627E+03  0.50400001928E-02 0. -1.
        1   -1    0    0  501    0  0.00000000000E+00  0.00000000000E+00 -0.17651861237E+04  0.17651861237E+04  0.50400001928E-02 0.  1.
    10030    2    1    2    0    0  0.00000000000E+00  0.00000000000E+00 -0.11464693275E+04  0.23839029200E+04  0.20901199040E+04 0.  0.
        1    1    3    3  502    0 -0.85042324278E+03 -0.57675234379E+03 -0.35596706553E+03  0.10874628774E+04  0.50400001928E-02 0. -1.
       -1    1    3    3    0  502  0.85042324278E+03  0.57675234379E+03 -0.79050226196E+03  0.12964400426E+04  0.50400001928E-02 0.  1.
</event>
<event>
 5   0  0.2789662E-05  0.2105087E+04  0.7818609E-02  0.8559006E-01
        1   -1    0    0  501    0  0.00000000000E+00  0.00000000000E+00  0.10768058006E+04  0.10768058006E+04  0.50400001928E-02 0.  1.
       -1   -1    0    0    0  501  0.00000000000E+00  0.00000000000E+00 -0.10288274498E+04  0.10288274499E+04  0.50400001928E-02 0. -1.
    10030    2    1    2    0    0  0.00000000000E+00  0.00000000000E+00  0.47978350757E+02  0.21056332505E+04  0.21050865691E+04 0.  0.
        4    1    3    3  502    0 -0.81667495237E+03  0.29209133493E+03 -0.57246294440E+03  0.10392260396E+04  0.12699999809E+01 0. -1.
       -4    1    3    3    0  502  0.81667495237E+03 -0.29209133493E+03  0.62044129515E+03  0.10664072109E+04  0.12699999809E+01 0.  1.
</event>
<event>
 5   0  0.5954140E-05  0.2097709E+04  0.7818609E-02  0.8562253E-01
        2   -1    0    0  501    0  0.00000000000E+00  0.00000000000E+00  0.20792958541E+04  0.20792958541E+04  0.25500000920E-02 0. -1.
       -2   -1    0    0    0  501  0.00000000000E+00  0.00000000000E+00 -0.52907117993E+03  0.52907117994E+03  0.25500000920E-02 0.  1.
    10030    2    1    2    0    0  0.00000000000E+00  0.00000000000E+00  0.15502246742E+04  0.26083670341E+04  0.20977087605E+04 0.  0.
        2    1    3    3  502    0 -0.47772216191E+03  0.51155356725E+03  0.17464182934E+04  0.18814575126E+04  0.25500000920E-02 0. -1.
       -2    1    3    3    0  502  0.47772216191E+03 -0.51155356725E+03 -0.19619361924E+03  0.72690952145E+03  0.25500000920E-02 0.  1.
</event>
<event>
 5   0  0.5462851E-05  0.2110707E+04  0.7818609E-02  0.8556541E-01
        2   -1    0    0  501    0  0.00000000000E+00  0.00000000000E+00  0.20485022757E+04  0.20485022757E+04  0.25500000920E-02 0.  1.
       -2   -1    0    0    0  501  0.00000000000E+00  0.00000000000E+00 -0.54370016267E+03  0.54370016268E+03  0.25500000920E-02 0. -1.
    10030    2    1    2    0    0  0.00000000000E+00  0.00000000000E+00  0.15048021130E+04  0.25922024383E+04  0.21107070100E+04 0.  0.
        1    1    3    3  502    0 -0.40765427840E+03 -0.80802705692E+03  0.85721343407E+02  0.90908629082E+03  0.50400001928E-02 0. -1.
       -1    1    3    3    0  502  0.40765427840E+03  0.80802705692E+03  0.14190807696E+04  0.16831161475E+04  0.50400001928E-02 0.  1.
</event>
<event>
 5   0  0.5506332E-05  0.2105610E+04  0.7818609E-02  0.8558776E-01
        2   -1    0    0  501    0  0.00000000000E+00  0.00000000000E+00  0.49907485398E+03  0.49907485398E+03  0.25500000920E-02 0. -1.
       -2   -1    0    0    0  501  0.00000000000E+00  0.00000000000E+00 -0.22209068911E+04  0.22209068911E+04  0.25500000920E-02 0.  1.
    10030    2    1    2    0    0  0.00000000000E+00  0.00000000000E+00 -0.17218320371E+04  0.27199817451E+04  0.21056103936E+04 0.  0.
        3    1    3    3  502    0 -0.80888168425E+03 -0.57956876400E+03 -0.13050496776E+04  0.16411411282E+04  0.10100000352E+00 0. -1.
       -3    1    3    3    0  502  0.80888168425E+03  0.57956876400E+03 -0.41678235951E+03  0.10788406169E+04  0.10100000352E+00 0.  1.
</event>
<event>
 5   0  0.5462851E-05  0.2093942E+04  0.7818609E-02  0.8563917E-01
        2   -1    0    0  501    0  0.00000000000E+00  0.00000000000E+00  0.20418335658E+04  0.20418335658E+04  0.25500000920E-02 0. -1.
       -2   -1    0    0    0  501  0.00000000000E+00  0.00000000000E+00 -0.53684493842E+03  0.53684493843E+03  0.25500000920E-02 0.  1.
    10030    2    1    2    0    0  0.00000000000E+00  0.00000000000E+00  0.15049886273E+04  0.25786785042E+04  0.20939417517E+04 0.  0.
        1    1    3    3  502    0 -0.79030654476E+03  0.24519763452E+03  0.15424209463E+04  0.17503624454E+04  0.50400001928E-02 0. -1.
       -1    1    3    3    0  502  0.79030654476E+03 -0.24519763452E+03 -0.37432318996E+02  0.82831605876E+03  0.50400001928E-02 0.  1.
</event>
<event>
 5   0  0.5967046E-05  0.2087324E+04  0.7818609E-02  0.8566848E-01
       -2   -1    0    0    0  501  0.00000000000E+00  0.00000000000E+00  0.11258105904E+04  0.11258105904E+04  0.25500000920E-02 0. -1.
        2   -1    0    0  501    0  0.00000000000E+00  0.00000000000E+00 -0.96750789515E+03  0.96750789515E+03  0.25500000920E-02 0.  1.
    10030    2    1    2    0    0  0.00000000000E+00  0.00000000000E+00  0.15830269523E+03  0.20933184855E+04  0.20873242533E+04 0.  0.
        4    1    3    3  502    0 -0.82667169615E+03  0.63609991949E+03  0.11417758071E+03  0.10493080261E+04  0.12699999809E+01 0. -1.
       -4    1    3    3    0  502  0.82667169615E+03 -0.63609991949E+03  0.44125114519E+02  0.10440104594E+04  0.12699999809E+01 0.  1.
</event>
<event>
 5   0  0.2732159E-05  0.2098985E+04  0.7818609E-02  0.8561691E-01
        1   -1    0    0  501    0  0.00000000000E+00  0.00000000000E+00  0.94249063595E+03  0.94249063596E+03  0.50400001928E-02 0. -1.
       -1   -1    0    0    0  501  0.00000000000E+00  0.00000000000E+00 -0.11686420026E+04  0.11686420026E+04  0.50400001928E-02 0.  1.
    10030    2    1    2    0    0  0.00000000000E+00  0.00000000000E+00 -0.22615136665E+03  0.21111326386E+04  0.20989846538E+04 0.  0.
        3    1    3    3  502    0 -0.46480163781E+03  0.20345395679E+00  0.83332365675E+03  0.95418495639E+03  0.10100000352E+00 0. -1.
       -3    1    3    3    0  502  0.46480163781E+03 -0.20345395679E+00 -0.10594750234E+04  0.11569476822E+04  0.10100000352E+00 0.  1.
</event>
<event>
 5   0  0.2602060E-05  0.2096047E+04  0.7818609E-02  0.8562987E-01
        1   -1    0    0  501    0  0.00000000000E+00  0.00000000000E+00  0.80434701556E+03  0.80434701557E+03  0.50400001928E-02 0.  1.
       -1   -1    0    0    0  501  0.00000000000E+00  0.00000000000E+00 -0.13655215556E+04  0.13655215556E+04  0.50400001928E-02 0. -1.
    10030    2    1    2    0    0  0.00000000000E+00  0.00000000000E+00 -0.56117454006E+03  0.21698685712E+04  0.20960469346E+04 0.  0.
        1    1    3    3  502    0  0.89283342684E+03  0.53151416287E+03 -0.42213003130E+03  0.11215402787E+04  0.50400001928E-02 0.  1.
       -1    1    3    3    0  502 -0.89283342684E+03 -0.53151416287E+03 -0.13904450876E+03  0.10483282925E+04  0.50400001928E-02 0. -1.
</event>
<event>
 5   0  0.2017750E-05  0.2109075E+04  0.7818609E-02  0.8557256E-01
       -3   -1    0    0    0  501  0.00000000000E+00  0.00000000000E+00  0.19446697781E+04  0.19446697807E+04  0.10100000352E+00 0.  1.
        3   -1    0    0  501    0  0.00000000000E+00  0.00000000000E+00 -0.57184475103E+03  0.57184475995E+03  0.10100000352E+00 0. -1.
    10030    2    1    2    0    0  0.00000000000E+00  0.00000000000E+00  0.13728250271E+04  0.25165145407E+04  0.21090748869E+04 0.  0.
        1    1    3    3  502    0 -0.64758618398E+03 -0.47406790671E+03  0.15026245236E+04  0.17035224404E+04  0.50400001928E-02 0.  1.
       -1    1    3    3    0  502  0.64758618398E+03  0.47406790671E+03 -0.12979949654E+03  0.81299210031E+03  0.50400001928E-02 0. -1.
</event>
<event>
 5   0  0.2602060E-05  0.2102202E+04  0.7818609E-02  0.8560274E-01
        1   -1    0    0  501    0  0.00000000000E+00  0.00000000000E+00  0.68305082895E+03  0.68305082896E+03  0.50400001928E-02 0. -1.
       -1   -1    0    0    0  501  0.00000000000E+00  0.00000000000E+00 -0.16174686802E+04  0.16174686802E+04  0.50400001928E-02 0.  1.
    10030    2    1    2    0    0  0.00000000000E+00  0.00000000000E+00 -0.93441785125E+03  0.23005195092E+04  0.21022020101E+04 0.  0.
        1    1    3    3  502    0 -0.37509505994E+02 -0.48485292705E+03 -0.14869557833E+04  0.15644573581E+04  0.50400001928E-02 0.  1.
       -1    1    3    3    0  502  0.37509505994E+02  0.48485292705E+03  0.55253793201E+03  0.73606215107E+03  0.50400001928E-02 0. -1.
</event>
<event>
 5   0  0.2789662E-05  0.2153902E+04  0.7818609E-02  0.8537864E-01
        1   -1    0    0  501    0  0.00000000000E+00  0.00000000000E+00  0.72242187807E+03  0.72242187808E+03  0.50400001928E-02 0. -1.
       -1   -1    0    0    0  501  0.00000000000E+00  0.00000000000E+00 -0.16054656773E+04  0.16054656773E+04  0.50400001928E-02 0.  1.
    10030    2    1    2    0    0  0.00000000000E+00  0.00000000000E+00 -0.88304379926E+03  0.23278875554E+04  0.21539020682E+04 0.  0.
        4    1    3    3  502    0 -0.42503385981E+02 -0.71111413924E+03 -0.13144337854E+04  0.14950677730E+04  0.12699999809E+01 0.  1.
       -4    1    3    3    0  502  0.42503385981E+02  0.71111413924E+03  0.43138998616E+03  0.83281978237E+03  0.12699999809E+01 0. -1.
</event>
<event>
 5   0  0.2732159E-05  0.2101450E+04  0.7818609E-02  0.8560605E-01
        1   -1    0    0  501    0  0.00000000000E+00  0.00000000000E+00  0.12073913313E+04  0.12073913313E+04  0.50400001928E-02 0.  1.
       -1   -1    0    0    0  501  0.00000000000E+00  0.00000000000E+00 -0.91438721778E+03  0.91438721779E+03  0.50400001928E-02 0. -1.
    10030    2    1    2    0    0  0.00000000000E+00  0.00000000000E+00  0.29300411354E+03  0.21217785491E+04  0.21014501662E+04 0.  0.
        3    1    3    3  502    0  0.28953441063E+02 -0.71503621422E+03 -0.63029594666E+03  0.95361841423E+03  0.10100000352E+00 0. -1.
       -3    1    3    3    0  502 -0.28953441063E+02  0.71503621422E+03  0.92330006020E+03  0.11681601349E+04  0.10100000352E+00 0.  1.
</event>
<event>
 5   0  0.5967046E-05  0.2098734E+04  0.7818609E-02  0.8561801E-01
       -2   -1    0    0    0  501  0.00000000000E+00  0.00000000000E+00  0.56516775974E+03  0.56516775975E+03  0.25500000920E-02 0. -1.
        2   -1    0    0  501    0  0.00000000000E+00  0.00000000000E+00 -0.19483971868E+04  0.19483971868E+04  0.25500000920E-02 0.  1.
    10030    2    1    2    0    0  0.00000000000E+00  0.00000000000E+00 -0.13832294270E+04  0.25135649465E+04  0.20987341643E+04 0.  0.
        4    1    3    3  502    0 -0.58507612164E+03  0.68907250559E+03 -0.53324244888E+02  0.90552751149E+03  0.12699999809E+01 0. -1.
       -4    1    3    3    0  502  0.58507612164E+03 -0.68907250559E+03 -0.13299051821E+04  0.16080374350E+04  0.12699999809E+01 0.  1.
</event>
<event>
 5   0  0.2699285E-05  0.2105382E+04  0.7818609E-02  0.8558876E-01
       -1   -1    0    0    0  501  0.00000000000E+00  0.00000000000E+00  0.83040494168E+03  0.83040494169E+03  0.50400001928E-02 0.  1.
        1   -1    0    0  501    0  0.00000000000E+00  0.00000000000E+00 -0.13344799120E+04  0.13344799121E+04  0.50400001928E-02 0. -1.
    10030    2    1    2    0    0  0.00000000000E+00  0.00000000000E+00 -0.50407497037E+03  0.21648848538E+04  0.21053823535E+04 0.  0.
        2    1    3    3  502    0  0.74194080854E+02 -0.87102676748E+03 -0.85509923694E+03  0.12228602113E+04  0.25500000920E-02 0. -1.
       -2    1    3    3    0  502 -0.74194080854E+02  0.87102676748E+03  0.35102426657E+03  0.94202464247E+03  0.25500000920E-02 0.  1.
</event>
<event>
 5   0  0.2732159E-05  0.2111921E+04  0.7818609E-02  0.8556010E-01
        1   -1    0    0  501    0  0.00000000000E+00  0.00000000000E+00  0.38424405821E+03  0.38424405825E+03  0.50400001928E-02 0. -1.
       -1   -1    0    0    0  501  0.00000000000E+00  0.00000000000E+00 -0.29019386015E+04  0.29019386015E+04  0.50400001928E-02 0.  1.
    10030    2    1    2    0    0  0.00000000000E+00  0.00000000000E+00 -0.25176945432E+04  0.32861826597E+04  0.21119210828E+04 0.  0.
        3    1    3    3  502    0  0.48922396546E+03 -0.12385976369E+03 -0.27021484887E+04  0.27488702760E+04  0.10100000352E+00 0.  1.
       -3    1    3    3    0  502 -0.48922396546E+03  0.12385976369E+03  0.18445394544E+03  0.53731238366E+03  0.10100000352E+00 0. -1.
</event>
<event>
 5   0  0.5866610E-05  0.2098802E+04  0.7818609E-02  0.8561771E-01
        2   -1    0    0  501    0  0.00000000000E+00  0.00000000000E+00  0.23449962166E+04  0.23449962166E+04  0.25500000920E-02 0.  1.
       -2   -1    0    0    0  501  0.00000000000E+00  0.00000000000E+00 -0.46961390218E+03  0.46961390219E+03  0.25500000920E-02 0. -1.
    10030    2    1    2    0    0  0.00000000000E+00  0.00000000000E+00  0.18753823145E+04  0.28146101188E+04  0.20988023479E+04 0.  0.
        5    1    3    3  502    0 -0.45507569866E+03 -0.69421674101E+03  0.76706510079E+02  0.83362866655E+03  0.46999998093E+01 0. -1.
       -5    1    3    3    0  502  0.45507569866E+03  0.69421674101E+03  0.17986758044E+04  0.19809814523E+04  0.46999998093E+01 0.  1.
</event>
<event>
 5   0  0.2699285E-05  0.2085075E+04  0.7818609E-02  0.8567847E-01
        1   -1    0    0  501    0  0.00000000000E+00  0.00000000000E+00  0.93578080789E+03  0.93578080790E+03  0.50400001928E-02 0. -1.
       -1   -1    0    0    0  501  0.00000000000E+00  0.00000000000E+00 -0.11614732327E+04  0.11614732327E+04  0.50400001928E-02 0.  1.
    10030    2    1    2    0    0  0.00000000000E+00  0.00000000000E+00 -0.22569242476E+03  0.20972540406E+04  0.20850749243E+04 0.  0.
        2    1    3    3  502    0  0.10124069663E+03  0.10163272963E+04  0.97452786589E+02  0.10259960514E+04  0.25500000920E-02 0.  1.
       -2    1    3    3    0  502 -0.10124069663E+03 -0.10163272963E+04 -0.32314521135E+03  0.10712579892E+04  0.25500000920E-02 0. -1.
</event>
<event>
 5   0  0.2604390E-05  0.2081221E+04  0.7818609E-02  0.8569561E-01
        1   -1    0    0  501    0  0.00000000000E+00  0.00000000000E+00  0.76742153922E+03  0.76742153924E+03  0.50400001928E-02 0.  1.
       -1   -1    0    0    0  501  0.00000000000E+00  0.00000000000E+00 -0.14110495864E+04  0.14110495864E+04  0.50400001928E-02 0. -1.
    10030    2    1    2    0    0  0.00000000000E+00  0.00000000000E+00 -0.64362804720E+03  0.21784711257E+04  0.20812206472E+04 0.  0.
        5    1    3    3  502    0 -0.35921736420E+03 -0.88508879875E+02 -0.13398753250E+04  0.13900211916E+04  0.46999998093E+01 0. -1.
       -5    1    3    3    0  502  0.35921736420E+03  0.88508879875E+02  0.69624727784E+03  0.78844993402E+03  0.46999998093E+01 0.  1.
</event>
<event>
 5   0  0.2604390E-05  0.2089644E+04  0.7818609E-02  0.8565819E-01
       -1   -1    0    0    0  501  0.00000000000E+00  0.00000000000E+00  0.14930052308E+04  0.14930052308E+04  0.50400001928E-02 0. -1.
        1   -1    0    0  501    0  0.00000000000E+00  0.00000000000E+00 -0.73117847238E+03  0.73117847240E+03  0.50400001928E-02 0.  1.
    10030    2    1    2    0    0  0.00000000000E+00  0.00000000000E+00  0.76182675845E+03  0.22241837032E+04  0.20896442606E+04 0.  0.
        5    1    3    3  502    0 -0.24796847363E+03  0.84956118453E+03  0.97199502015E+03  0.13145489642E+04  0.46999998093E+01 0. -1.
       -5    1    3    3    0  502  0.24796847363E+03 -0.84956118453E+03 -0.21016826171E+03  0.90963473900E+03  0.46999998093E+01 0.  1.
</event>
<event>
 5   0  0.5954140E-05  0.2057522E+04  0.7818609E-02  0.8580190E-01
        2   -1    0    0  501    0  0.00000000000E+00  0.00000000000E+00  0.13876345856E+04  0.13876345856E+04  0.25500000920E-02 0. -1.
       -2   -1    0    0    0  501  0.00000000000E+00  0.00000000000E+00 -0.76270024786E+03  0.76270024786E+03  0.25500000920E-02 0.  1.
    10030    2    1    2    0    0  0.00000000000E+00  0.00000000000E+00  0.62493433771E+03  0.21503348334E+04  0.20575220459E+04 0.  0.
        2    1    3    3  502    0  0.50322556293E+03  0.71528542378E+03 -0.25370807517E+03  0.91062450663E+03  0.25500000920E-02 0.  1.
       -2    1    3    3    0  502 -0.50322556293E+03 -0.71528542378E+03  0.87864241288E+03  0.12397103268E+04  0.25500000920E-02 0. -1.
</event>
<event>
 5   0  0.5954140E-05  0.2061410E+04  0.7818609E-02  0.8578436E-01
        2   -1    0    0  501    0  0.00000000000E+00  0.00000000000E+00  0.13998457862E+04  0.13998457862E+04  0.25500000920E-02 0. -1.
       -2   -1    0    0    0  501  0.00000000000E+00  0.00000000000E+00 -0.75890697377E+03  0.75890697378E+03  0.25500000920E-02 0.  1.
    10030    2    1    2    0    0  0.00000000000E+00  0.00000000000E+00  0.64093881246E+03  0.21587527600E+04  0.20614099344E+04 0.  0.
        2    1    3    3  502    0 -0.88893320673E+03 -0.52095637166E+03  0.34924308468E+03  0.10879193534E+04  0.25500000920E-02 0.  1.
       -2    1    3    3    0  502  0.88893320673E+03  0.52095637166E+03  0.29169572778E+03  0.10708334067E+04  0.25500000920E-02 0. -1.
</event>
<event>
 5   0  0.5866610E-05  0.2090196E+04  0.7818609E-02  0.8565574E-01
        2   -1    0    0  501    0  0.00000000000E+00  0.00000000000E+00  0.14016748959E+04  0.14016748959E+04  0.25500000920E-02 0.  1.
       -2   -1    0    0    0  501  0.00000000000E+00  0.00000000000E+00 -0.77923221170E+03  0.77923221171E+03  0.25500000920E-02 0. -1.
    10030    2    1    2    0    0  0.00000000000E+00  0.00000000000E+00  0.62244268417E+03  0.21809071076E+04  0.20901963824E+04 0.  0.
        5    1    3    3  502    0 -0.17435511773E+03  0.26112403228E+03 -0.72884447329E+03  0.79361314477E+03  0.46999998093E+01 0. -1.
       -5    1    3    3    0  502  0.17435511773E+03 -0.26112403228E+03  0.13512871575E+04  0.13872939628E+04  0.46999998093E+01 0.  1.
</event>
<event>
 5   0  0.5967046E-05  0.2096684E+04  0.7818609E-02  0.8562705E-01
       -2   -1    0    0    0  501  0.00000000000E+00  0.00000000000E+00  0.43587818196E+03  0.43587818196E+03  0.25500000920E-02 0. -1.
        2   -1    0    0  501    0  0.00000000000E+00  0.00000000000E+00 -0.25213951501E+04  0.25213951501E+04  0.25500000920E-02 0.  1.
    10030    2    1    2    0    0  0.00000000000E+00  0.00000000000E+00 -0.20855169681E+04  0.29572733321E+04  0.20966841765E+04 0.  0.
        4    1    3    3  502    0  0.85717624536E+03 -0.11062810228E+03 -0.20590740329E+03  0.88847575333E+03  0.12699999809E+01 0.  1.
       -4    1    3    3    0  502 -0.85717624536E+03  0.11062810228E+03 -0.18796095649E+04  0.20687975787E+04  0.12699999809E+01 0. -1.
</event>
<event>
 5   0  0.2602060E-05  0.2105700E+04  0.7818609E-02  0.8558737E-01
        1   -1    0    0  501    0  0.00000000000E+00  0.00000000000E+00  0.97139543287E+03  0.97139543288E+03  0.50400001928E-02 0.  1.
       -1   -1    0    0    0  501  0.00000000000E+00  0.00000000000E+00 -0.11411345061E+04  0.11411345061E+04  0.50400001928E-02 0. -1.
    10030    2    1    2    0    0  0.00000000000E+00  0.00000000000E+00 -0.16973907324E+03  0.21125299390E+04  0.21056997389E+04 0.  0.
        1    1    3    3  502    0  0.76578910833E+01 -0.69270377704E+03  0.71054243975E+03  0.99235463658E+03  0.50400001928E-02 0.  1.
       -1    1    3    3    0  502 -0.76578910833E+01  0.69270377704E+03 -0.88028151300E+03  0.11201753024E+04  0.50400001928E-02 0. -1.
</event>
<event>
 5   0  0.5967046E-05  0.1945964E+04  0.7818609E-02  0.8632310E-01
       -2   -1    0    0    0  501  0.00000000000E+00  0.00000000000E+00  0.18080712217E+04  0.18080712217E+04  0.25500000920E-02 0. -1.
        2   -1    0    0  501    0  0.00000000000E+00  0.00000000000E+00 -0.52359305912E+03  0.52359305913E+03  0.25500000920E-02 0.  1.
    10030    2    1    2    0    0  0.00000000000E+00  0.00000000000E+00  0.12844781626E+04  0.23316642808E+04  0.19459635578E+04 0.  0.
        4    1    3    3  502    0  0.12036618172E+03 -0.86226991930E+03  0.12175082498E+03  0.87910312689E+03  0.12699999809E+01 0.  1.
       -4    1    3    3    0  502 -0.12036618172E+03  0.86226991930E+03  0.11627273376E+04  0.14525611539E+04  0.12699999809E+01 0. -1.
</event>
<event>
 5   0  0.2789662E-05  0.2184753E+04  0.7818609E-02  0.8524801E-01
        1   -1    0    0  501    0  0.00000000000E+00  0.00000000000E+00  0.17739696392E+04  0.17739696392E+04  0.50400001928E-02 0. -1.
       -1   -1    0    0    0  501  0.00000000000E+00  0.00000000000E+00 -0.67266478677E+03  0.67266478679E+03  0.50400001928E-02 0.  1.
    10030    2    1    2    0    0  0.00000000000E+00  0.00000000000E+00  0.11013048524E+04  0.24466344260E+04  0.21847534498E+04 0.  0.
        4    1    3    3  502    0  0.72448595918E+03 -0.73572871539E+03  0.94991095213E+03  0.14030356651E+04  0.12699999809E+01 0. -1.
       -4    1    3    3    0  502 -0.72448595918E+03  0.73572871539E+03  0.15139390027E+03  0.10435987608E+04  0.12699999809E+01 0.  1.
</event>
<event>
 5   0  0.5462851E-05  0.2111948E+04  0.7818609E-02  0.8555999E-01
       -2   -1    0    0    0  501  0.00000000000E+00  0.00000000000E+00  0.99108849234E+03  0.99108849234E+03  0.25500000920E-02 0. -1.
        2   -1    0    0  501    0  0.00000000000E+00  0.00000000000E+00 -0.11251069934E+04  0.11251069934E+04  0.25500000920E-02 0.  1.
    10030    2    1    2    0    0  0.00000000000E+00  0.00000000000E+00 -0.13401850106E+03  0.21161954857E+04  0.21119475314E+04 0.  0.
        1    1    3    3  502    0  0.51406112545E+03  0.88214902295E+03 -0.33705988021E+03  0.10752000289E+04  0.50400001928E-02 0. -1.
       -1    1    3    3    0  502 -0.51406112545E+03 -0.88214902295E+03  0.20304137915E+03  0.10409954568E+04  0.50400001928E-02 0.  1.
</event>
<event>
 5   0  0.2732159E-05  0.2097180E+04  0.7818609E-02  0.8562486E-01
        1   -1    0    0  501    0  0.00000000000E+00  0.00000000000E+00  0.11139828556E+04  0.11139828556E+04  0.50400001928E-02 0. -1.
       -1   -1    0    0    0  501  0.00000000000E+00  0.00000000000E+00 -0.98703622123E+03  0.98703622125E+03  0.50400001928E-02 0.  1.
    10030    2    1    2    0    0  0.00000000000E+00  0.00000000000E+00  0.12694663440E+03  0.21010190769E+04  0.20971804199E+04 0.  0.
        3    1    3    3  502    0 -0.23526616106E+02  0.42147974506E+03  0.10250962474E+04  0.11086121972E+04  0.10100000352E+00 0. -1.
       -3    1    3    3    0  502  0.23526616106E+02 -0.42147974506E+03 -0.89814961304E+03  0.99240687965E+03  0.10100000352E+00 0.  1.
</event>
<event>
 5   0  0.5506332E-05  0.2106394E+04  0.7818609E-02  0.8558432E-01
        2   -1    0    0  501    0  0.00000000000E+00  0.00000000000E+00  0.10408595347E+04  0.10408595347E+04  0.25500000920E-02 0. -1.
       -2   -1    0    0    0  501  0.00000000000E+00  0.00000000000E+00 -0.10656802187E+04  0.10656802187E+04  0.25500000920E-02 0.  1.
    10030    2    1    2    0    0  0.00000000000E+00  0.00000000000E+00 -0.24820684006E+02  0.21065397535E+04  0.21063935213E+04 0.  0.
        3    1    3    3  502    0 -0.10471483960E+04 -0.21703635643E+02 -0.12301908467E+03  0.10545731442E+04  0.10100000352E+00 0. -1.
       -3    1    3    3    0  502  0.10471483960E+04  0.21703635643E+02  0.98198400667E+02  0.10519666093E+04  0.10100000352E+00 0.  1.
</event>
<event>
 5   0  0.2604390E-05  0.2098867E+04  0.7818609E-02  0.8561742E-01
        1   -1    0    0  501    0  0.00000000000E+00  0.00000000000E+00  0.88576071586E+03  0.88576071587E+03  0.50400001928E-02 0.  1.
       -1   -1    0    0    0  501  0.00000000000E+00  0.00000000000E+00 -0.12433504850E+04  0.12433504850E+04  0.50400001928E-02 0. -1.
    10030    2    1    2    0    0  0.00000000000E+00  0.00000000000E+00 -0.35758976918E+03  0.21291112009E+04  0.20988673285E+04 0.  0.
        5    1    3    3  502    0  0.74222635850E+02  0.46965300453E+03 -0.11277998745E+04  0.12239434592E+04  0.46999998093E+01 0. -1.
       -5    1    3    3    0  502 -0.74222635850E+02 -0.46965300453E+03  0.77021010532E+03  0.90516774174E+03  0.46999998093E+01 0.  1.
</event>
<event>
 5   0  0.5462851E-05  0.2097104E+04  0.7818609E-02  0.8562520E-01
        2   -1    0    0  501    0  0.00000000000E+00  0.00000000000E+00  0.21243459126E+04  0.21243459126E+04  0.25500000920E-02 0. -1.
       -2   -1    0    0    0  501  0.00000000000E+00  0.00000000000E+00 -0.51755272947E+03  0.51755272948E+03  0.25500000920E-02 0.  1.
    10030    2    1    2    0    0  0.00000000000E+00  0.00000000000E+00  0.16067931831E+04  0.26418986421E+04  0.20971037413E+04 0.  0.
        1    1    3    3  502    0 -0.35259892011E+03  0.85939677837E+03  0.14161392195E+04  0.16936171675E+04  0.50400001928E-02 0. -1.
       -1    1    3    3    0  502  0.35259892011E+03 -0.85939677837E+03  0.19065396366E+03  0.94828147458E+03  0.50400001928E-02 0.  1.
</event>
<event>
 5   0  0.5506332E-05  0.2099637E+04  0.7818609E-02  0.8561403E-01
        2   -1    0    0  501    0  0.00000000000E+00  0.00000000000E+00  0.19182704458E+04  0.19182704458E+04  0.25500000920E-02 0. -1.
       -2   -1    0    0    0  501  0.00000000000E+00  0.00000000000E+00 -0.57453775563E+03  0.57453775564E+03  0.25500000920E-02 0.  1.
    10030    2    1    2    0    0  0.00000000000E+00  0.00000000000E+00  0.13437326902E+04  0.24928082014E+04  0.20996369178E+04 0.  0.
        3    1    3    3  502    0 -0.98370636878E+03 -0.21634532805E+03  0.10233329918E+04  0.14358600012E+04  0.10100000352E+00 0. -1.
       -3    1    3    3    0  502  0.98370636878E+03  0.21634532805E+03  0.32039969840E+03  0.10569482002E+04  0.10100000352E+00 0.  1.
</event>
<event>
 5   0  0.2017750E-05  0.2100867E+04  0.7818609E-02  0.8560862E-01
        3   -1    0    0  501    0  0.00000000000E+00  0.00000000000E+00  0.85039559218E+03  0.85039559817E+03  0.10100000352E+00 0.  1.
       -3   -1    0    0    0  501  0.00000000000E+00  0.00000000000E+00 -0.12975258593E+04  0.12975258632E+04  0.10100000352E+00 0. -1.
    10030    2    1    2    0    0  0.00000000000E+00  0.00000000000E+00 -0.44713026713E+03  0.21479214614E+04  0.21008667565E+04 0.  0.
        1    1    3    3  502    0  0.49457377404E+03 -0.35408837640E+03 -0.10991510657E+04  0.12562304174E+04  0.50400001928E-02 0. -1.
       -1    1    3    3    0  502 -0.49457377404E+03  0.35408837640E+03  0.65202079856E+03  0.89169104405E+03  0.50400001928E-02 0.  1.
</event>
<event>
 5   0  0.2789662E-05  0.2117004E+04  0.7818609E-02  0.8553790E-01
        1   -1    0    0  501    0  0.00000000000E+00  0.00000000000E+00  0.77797384675E+03  0.77797384677E+03  0.50400001928E-02 0. -1.
       -1   -1    0    0    0  501  0.00000000000E+00  0.00000000000E+00 -0.14401858547E+04  0.14401858547E+04  0.50400001928E-02 0.  1.
    10030    2    1    2    0    0  0.00000000000E+00  0.00000000000E+00 -0.66221200796E+03  0.22181597015E+04  0.21170044208E+04 0.  0.
        4    1    3    3  502    0 -0.84146391514E+03  0.40442583580E+03  0.19152999820E+03  0.95305148353E+03  0.12699999809E+01 0. -1.
       -4    1    3    3    0  502  0.84146391514E+03 -0.40442583580E+03 -0.85374200616E+03  0.12651082180E+04  0.12699999809E+01 0.  1.
</event>
<event>
 5   0  0.2699285E-05  0.2094654E+04  0.7818609E-02  0.8563602E-01
       -1   -1    0    0    0  501  0.00000000000E+00  0.00000000000E+00  0.68451174124E+03  0.68451174126E+03  0.50400001928E-02 0.  1.
        1   -1    0    0  501    0  0.00000000000E+00  0.00000000000E+00 -0.16024473155E+04  0.16024473155E+04  0.50400001928E-02 0. -1.
    10030    2    1    2    0    0  0.00000000000E+00  0.00000000000E+00 -0.91793557427E+03  0.22869590568E+04  0.20946541502E+04 0.  0.
        2    1    3    3  502    0 -0.95535650398E+03 -0.37177472806E+03 -0.22487371325E+03  0.10495192638E+04  0.25500000920E-02 0.  1.
       -2    1    3    3    0  502  0.95535650398E+03  0.37177472806E+03 -0.69306186102E+03  0.12374397930E+04  0.25500000920E-02 0. -1.
</event>
<event>
 5   0  0.5967046E-05  0.2117354E+04  0.7818609E-02  0.8553637E-01
       -2   -1    0    0    0  501  0.00000000000E+00  0.00000000000E+00  0.10803098357E+04  0.10803098357E+04  0.25500000920E-02 0.  1.
        2   -1    0    0  501    0  0.00000000000E+00  0.00000000000E+00 -0.10374775010E+04  0.10374775010E+04  0.25500000920E-02 0. -1.
    10030    2    1    2    0    0  0.00000000000E+00  0.00000000000E+00  0.42832334640E+02  0.21177873367E+04  0.21173541496E+04 0.  0.
        4    1    3    3  502    0 -0.78964051656E+03 -0.58888296185E+03  0.40941336715E+03  0.10667409274E+04  0.12699999809E+01 0. -1.
       -4    1    3    3    0  502  0.78964051656E+03  0.58888296185E+03 -0.36658103251E+03  0.10510464093E+04  0.12699999809E+01 0.  1.
</event>
<event>
 5   0  0.5462851E-05  0.2102505E+04  0.7818609E-02  0.8560141E-01
       -2   -1    0    0    0  501  0.00000000000E+00  0.00000000000E+00  0.62157561989E+03  0.62157561990E+03  0.25500000920E-02 0. -1.
        2   -1    0    0  501    0  0.00000000000E+00  0.00000000000E+00 -0.17779522788E+04  0.17779522788E+04  0.25500000920E-02 0.  1.
    10030    2    1    2    0    0  0.00000000000E+00  0.00000000000E+00 -0.11563766589E+04  0.23995278987E+04  0.21025049725E+04 0.  0.
        1    1    3    3  502    0  0.28780007827E+03  0.25136182730E+02  0.57538264919E+03  0.64383686268E+03  0.50400001928E-02 0. -1.
       -1    1    3    3    0  502 -0.28780007827E+03 -0.25136182730E+02 -0.17317593081E+04  0.17556910360E+04  0.50400001928E-02 0.  1.
</event>
<event>
 5   0  0.2602060E-05  0.2141685E+04  0.7818609E-02  0.8543100E-01
        1   -1    0    0  501    0  0.00000000000E+00  0.00000000000E+00  0.15480106540E+04  0.15480106540E+04  0.50400001928E-02 0. -1.
       -1   -1    0    0    0  501  0.00000000000E+00  0.00000000000E+00 -0.74075985306E+03  0.74075985307E+03  0.50400001928E-02 0.  1.
    10030    2    1    2    0    0  0.00000000000E+00  0.00000000000E+00  0.80725080098E+03  0.22887705071E+04  0.21416854528E+04 0.  0.
        1    1    3    3  502    0  0.42660027632E+03  0.18267806498E+03  0.14349654257E+04  0.15081395307E+04  0.50400001928E-02 0. -1.
       -1    1    3    3    0  502 -0.42660027632E+03 -0.18267806498E+03 -0.62771462472E+03  0.78063097638E+03  0.50400001928E-02 0.  1.
</event>
<event>
 5   0  0.5866610E-05  0.2098126E+04  0.7818609E-02  0.8562069E-01
        2   -1    0    0  501    0  0.00000000000E+00  0.00000000000E+00  0.17823696239E+04  0.17823696239E+04  0.25500000920E-02 0.  1.
       -2   -1    0    0    0  501  0.00000000000E+00  0.00000000000E+00 -0.61745535325E+03  0.61745535325E+03  0.25500000920E-02 0. -1.
    10030    2    1    2    0    0  0.00000000000E+00  0.00000000000E+00  0.11649142706E+04  0.23998249771E+04  0.20981264650E+04 0.  0.
        5    1    3    3  502    0  0.74670975406E+03 -0.38623844099E+03 -0.13527351285E+03  0.85151430017E+03  0.46999998093E+01 0.  1.
       -5    1    3    3    0  502 -0.74670975406E+03  0.38623844099E+03  0.13001877835E+04  0.15483106770E+04  0.46999998093E+01 0. -1.
</event>
<event>
 5   0  0.2789662E-05  0.2097165E+04  0.7818609E-02  0.8562493E-01
        1   -1    0    0  501    0  0.00000000000E+00  0.00000000000E+00  0.11970751773E+04  0.11970751773E+04  0.50400001928E-02 0. -1.
       -1   -1    0    0    0  501  0.00000000000E+00  0.00000000000E+00 -0.91850961152E+03  0.91850961154E+03  0.50400001928E-02 0.  1.
    10030    2    1    2    0    0  0.00000000000E+00  0.00000000000E+00  0.27856556574E+03  0.21155847888E+04  0.20971648062E+04 0.  0.
        4    1    3    3  502    0 -0.78696925657E+03 -0.11890708781E+03 -0.54940221810E+03  0.96711111899E+03  0.12699999809E+01 0.  1.
       -4    1    3    3    0  502  0.78696925657E+03  0.11890708781E+03  0.82796778384E+03  0.11484736698E+04  0.12699999809E+01 0. -1.
</event>
<event>
 5   0  0.2604390E-05  0.2106904E+04  0.7818609E-02  0.8558208E-01
       -1   -1    0    0    0  501  0.00000000000E+00  0.00000000000E+00  0.92997025950E+03  0.92997025951E+03  0.50400001928E-02 0.  1.
        1   -1    0    0  501    0  0.00000000000E+00  0.00000000000E+00 -0.11933294239E+04  0.11933294239E+04  0.50400001928E-02 0. -1.
    10030    2    1    2    0    0  0.00000000000E+00  0.00000000000E+00 -0.26335916441E+03  0.21232996834E+04  0.21069037700E+04 0.  0.
        5    1    3    3  502    0 -0.45312153861E+03 -0.48234240893E+03 -0.95767079744E+03  0.11640999847E+04  0.46999998093E+01 0. -1.
       -5    1    3    3    0  502  0.45312153861E+03  0.48234240893E+03  0.69431163303E+03  0.95919969869E+03  0.46999998093E+01 0.  1.
</event>
<event>
 5   0  0.2699285E-05  0.2133896E+04  0.7818609E-02  0.8546457E-01
        1   -1    0    0  501    0  0.00000000000E+00  0.00000000000E+00  0.13133635553E+04  0.13133635553E+04  0.50400001928E-02 0.  1.
       -1   -1    0    0    0  501  0.00000000000E+00  0.00000000000E+00 -0.86676565458E+03  0.86676565460E+03  0.50400001928E-02 0. -1.
    10030    2    1    2    0    0  0.00000000000E+00  0.00000000000E+00  0.44659790071E+03  0.21801292099E+04  0.21338963628E+04 0.  0.
        2    1    3    3  502    0 -0.87225976160E+03 -0.55735875935E+03 -0.40940565624E+02  0.10359353301E+04  0.25500000920E-02 0. -1.
       -2    1    3    3    0  502  0.87225976160E+03  0.55735875935E+03  0.48753846634E+03  0.11441938798E+04  0.25500000920E-02 0.  1.
</event>
<event>
 5   0  0.5967046E-05  0.2120982E+04  0.7818609E-02  0.8552057E-01
        2   -1    0    0  501    0  0.00000000000E+00  0.00000000000E+00  0.11936458052E+04  0.11936458052E+04  0.25500000920E-02 0. -1.
       -2   -1    0    0    0  501  0.00000000000E+00  0.00000000000E+00 -0.94218965039E+03  0.94218965040E+03  0.25500000920E-02 0.  1.
    10030    2    1    2    0    0  0.00000000000E+00  0.00000000000E+00  0.25145615476E+03  0.21358354556E+04  0.21209815877E+04 0.  0.
        4    1    3    3  502    0 -0.73782789367E+03 -0.11430510433E+03  0.88411820258E+03  0.11572045051E+04  0.12699999809E+01 0. -1.
       -4    1    3    3    0  502  0.73782789367E+03  0.11430510433E+03 -0.63266204782E+03  0.97863095047E+03  0.12699999809E+01 0.  1.
</event>
<event>
 5   0  0.2602060E-05  0.2071075E+04  0.7818609E-02  0.8574093E-01
       -1   -1    0    0    0  501  0.00000000000E+00  0.00000000000E+00  0.88491184098E+03  0.88491184100E+03  0.50400001928E-02 0. -1.
        1   -1    0    0  501    0  0.00000000000E+00  0.00000000000E+00 -0.12118021230E+04  0.12118021230E+04  0.50400001928E-02 0.  1.
    10030    2    1    2    0    0  0.00000000000E+00  0.00000000000E+00 -0.32689028198E+03  0.20967139640E+04  0.20710751291E+04 0.  0.
        1    1    3    3  502    0 -0.30818954973E+03  0.97480726556E+03 -0.33012856953E+03  0.10743439282E+04  0.50400001928E-02 0.  1.
       -1    1    3    3    0  502  0.30818954973E+03 -0.97480726556E+03  0.32382875579E+01  0.10223700358E+04  0.50400001928E-02 0. -1.
</event>
<event>
 5   0  0.2732159E-05  0.2094936E+04  0.7818609E-02  0.8563477E-01
        1   -1    0    0  501    0  0.00000000000E+00  0.00000000000E+00  0.83052442177E+03  0.83052442179E+03  0.50400001928E-02 0.  1.
       -1   -1    0    0    0  501  0.00000000000E+00  0.00000000000E+00 -0.13210805871E+04  0.13210805871E+04  0.50400001928E-02 0. -1.
    10030    2    1    2    0    0  0.00000000000E+00  0.00000000000E+00 -0.49055616536E+03  0.21516050089E+04  0.20949364580E+04 0.  0.
        3    1    3    3  502    0 -0.44092557590E+03  0.94182621935E+03 -0.37412148365E+03  0.11051782144E+04  0.10100000352E+00 0.  1.
       -3    1    3    3    0  502  0.44092557590E+03 -0.94182621935E+03 -0.11643468171E+03  0.10464267945E+04  0.10100000352E+00 0. -1.
</event>
<event>
 5   0  0.5954140E-05  0.2068427E+04  0.7818609E-02  0.8575280E-01
       -2   -1    0    0    0  501  0.00000000000E+00  0.00000000000E+00  0.96492213793E+03  0.96492213793E+03  0.25500000920E-02 0.  1.
        2   -1    0    0  501    0  0.00000000000E+00  0.00000000000E+00 -0.11084811139E+04  0.11084811139E+04  0.25500000920E-02 0. -1.
    10030    2    1    2    0    0  0.00000000000E+00  0.00000000000E+00 -0.14355897598E+03  0.20734032518E+04  0.20684273894E+04 0.  0.
        2    1    3    3  502    0 -0.30002706060E+03 -0.17420901689E+03  0.90485014475E+03  0.96908142234E+03  0.25500000920E-02 0.  1.
       -2    1    3    3    0  502  0.30002706060E+03  0.17420901689E+03 -0.10484091207E+04  0.11043218295E+04  0.25500000920E-02 0. -1.
</event>
<event>
 5   0  0.5967046E-05  0.2091701E+04  0.7818609E-02  0.8564908E-01
       -2   -1    0    0    0  501  0.00000000000E+00  0.00000000000E+00  0.11166413697E+04  0.11166413697E+04  0.25500000920E-02 0.  1.
        2   -1    0    0  501    0  0.00000000000E+00  0.00000000000E+00 -0.97954795892E+03  0.97954795892E+03  0.25500000920E-02 0. -1.
    10030    2    1    2    0    0  0.00000000000E+00  0.00000000000E+00  0.13709341080E+03  0.20961893287E+04  0.20917014840E+04 0.  0.
        4    1    3    3  502    0 -0.47666535971E+03  0.90480780440E+03  0.28791161272E+03  0.10624414044E+04  0.12699999809E+01 0.  1.
       -4    1    3    3    0  502  0.47666535971E+03 -0.90480780440E+03 -0.15081820192E+03  0.10337479243E+04  0.12699999809E+01 0. -1.
</event>
<event>
 5   0  0.2604390E-05  0.2101406E+04  0.7818609E-02  0.8560624E-01
        1   -1    0    0  501    0  0.00000000000E+00  0.00000000000E+00  0.17750381433E+04  0.17750381433E+04  0.50400001928E-02 0.  1.
       -1   -1    0    0    0  501  0.00000000000E+00  0.00000000000E+00 -0.62194525381E+03  0.62194525383E+03  0.50400001928E-02 0. -1.
    10030    2    1    2    0    0  0.00000000000E+00  0.00000000000E+00  0.11530928895E+04  0.23969833971E+04  0.21014057662E+04 0.  0.
        5    1    3    3  502    0  0.89303306502E+03  0.27403244498E+03  0.11251925740E+04  0.14624234184E+04  0.46999998093E+01 0.  1.
       -5    1    3    3    0  502 -0.89303306502E+03 -0.27403244498E+03  0.27900315430E+02  0.93455997867E+03  0.46999998093E+01 0. -1.
</event>
<event>
 5   0  0.5967046E-05  0.2061527E+04  0.7818609E-02  0.8578383E-01
       -2   -1    0    0    0  501  0.00000000000E+00  0.00000000000E+00  0.10080408211E+04  0.10080408211E+04  0.25500000920E-02 0.  1.
        2   -1    0    0  501    0  0.00000000000E+00  0.00000000000E+00 -0.10539987539E+04  0.10539987539E+04  0.25500000920E-02 0. -1.
    10030    2    1    2    0    0  0.00000000000E+00  0.00000000000E+00 -0.45957932821E+02  0.20620395750E+04  0.20615273651E+04 0.  0.
        4    1    3    3  502    0 -0.48799760967E+03 -0.36228560708E+03  0.80974192201E+03  0.10124604295E+04  0.12699999809E+01 0.  1.
       -4    1    3    3    0  502  0.48799760967E+03  0.36228560708E+03 -0.85569985483E+03  0.10495791455E+04  0.12699999809E+01 0. -1.
</event>
<event>
 5   0  0.2699285E-05  0.2229618E+04  0.7818609E-02  0.8506201E-01
        1   -1    0    0  501    0  0.00000000000E+00  0.00000000000E+00  0.18212481227E+04  0.18212481227E+04  0.50400001928E-02 0. -1.
       -1   -1    0    0    0  501  0.00000000000E+00  0.00000000000E+00 -0.68238885977E+03  0.68238885979E+03  0.50400001928E-02 0.  1.
    10030    2    1    2    0    0  0.00000000000E+00  0.00000000000E+00  0.11388592629E+04  0.25036369825E+04  0.22296182900E+04 0.  0.
        2    1    3    3  502    0  0.91727433515E+03  0.28151126407E+03 -0.67917045892E+02  0.96190099431E+03  0.25500000920E-02 0.  1.
       -2    1    3    3    0  502 -0.91727433515E+03 -0.28151126407E+03  0.12067763088E+04  0.15417359882E+04  0.25500000920E-02 0. -1.
</event>
<event>
 5   0  0.5866610E-05  0.2136315E+04  0.7818609E-02  0.8545413E-01
        2   -1    0    0  501    0  0.00000000000E+00  0.00000000000E+00  0.13458613545E+04  0.13458613545E+04  0.25500000920E-02 0.  1.
       -2   -1    0    0    0  501  0.00000000000E+00  0.00000000000E+00 -0.84775444367E+03  0.84775444367E+03  0.25500000920E-02 0. -1.
    10030    2    1    2    0    0  0.00000000000E+00  0.00000000000E+00  0.49810691082E+03  0.21936157982E+04  0.21363145310E+04 0.  0.
        5    1    3    3  502    0  0.85423855280E+03  0.31171403457E+03  0.82448528005E+03  0.12274718781E+04  0.46999998093E+01 0.  1.
       -5    1    3    3    0  502 -0.85423855280E+03 -0.31171403457E+03 -0.32637836922E+03  0.96614392009E+03  0.46999998093E+01 0. -1.
</event>
<event>
 5   0  0.2789662E-05  0.2054122E+04  0.7818609E-02  0.8581727E-01
       -1   -1    0    0    0  501  0.00000000000E+00  0.00000000000E+00  0.65191889286E+03  0.65191889288E+03  0.50400001928E-02 0.  1.
        1   -1    0    0  501    0  0.00000000000E+00  0.00000000000E+00 -0.16180762929E+04  0.16180762929E+04  0.50400001928E-02 0. -1.
    10030    2    1    2    0    0  0.00000000000E+00  0.00000000000E+00 -0.96615740005E+03  0.22699951858E+04  0.20541222023E+04 0.  0.
        4    1    3    3  502    0 -0.23399626122E+03 -0.99914603068E+03 -0.53003995531E+03  0.11549852848E+04  0.12699999809E+01 0. -1.
       -4    1    3    3    0  502  0.23399626122E+03  0.99914603068E+03 -0.43611744474E+03  0.11150099010E+04  0.12699999809E+01 0.  1.
</event>
<event>
 5   0  0.5506332E-05  0.2082473E+04  0.7818609E-02  0.8569004E-01
       -2   -1    0    0    0  501  0.00000000000E+00  0.00000000000E+00  0.74528577269E+03  0.74528577270E+03  0.25500000920E-02 0.  1.
        2   -1    0    0  501    0  0.00000000000E+00  0.00000000000E+00 -0.14547081586E+04  0.14547081586E+04  0.25500000920E-02 0. -1.
    10030    2    1    2    0    0  0.00000000000E+00  0.00000000000E+00 -0.70942238586E+03  0.21999939313E+04  0.20824728512E+04 0.  0.
        3    1    3    3  502    0  0.70615610430E+03  0.59437354678E+03  0.15439428807E+03  0.93582795595E+03  0.10100000352E+00 0.  1.
       -3    1    3    3    0  502 -0.70615610430E+03 -0.59437354678E+03 -0.86381667393E+03  0.12641659753E+04  0.10100000352E+00 0. -1.
</event>
<event>
 5   0  0.2699285E-05  0.2192599E+04  0.7818609E-02  0.8521515E-01
        1   -1    0    0  501    0  0.00000000000E+00  0.00000000000E+00  0.13121718796E+04  0.13121718796E+04  0.50400001928E-02 0. -1.
       -1   -1    0    0    0  501  0.00000000000E+00  0.00000000000E+00 -0.91594115920E+03  0.91594115921E+03  0.50400001928E-02 0.  1.
    10030    2    1    2    0    0  0.00000000000E+00  0.00000000000E+00  0.39623072036E+03  0.22281130388E+04  0.21925986705E+04 0.  0.
        2    1    3    3  502    0  0.43810471354E+02  0.62472821441E+03  0.11125052933E+04  0.12766646885E+04  0.25500000920E-02 0. -1.
       -2    1    3    3    0  502 -0.43810471354E+02 -0.62472821441E+03 -0.71627457297E+03  0.95144835024E+03  0.25500000920E-02 0.  1.
</event>
<event>
 5   0  0.5954140E-05  0.2105569E+04  0.7818609E-02  0.8558794E-01
       -2   -1    0    0    0  501  0.00000000000E+00  0.00000000000E+00  0.15208427823E+04  0.15208427823E+04  0.25500000920E-02 0.  1.
        2   -1    0    0  501    0  0.00000000000E+00  0.00000000000E+00 -0.72877689796E+03  0.72877689796E+03  0.25500000920E-02 0. -1.
    10030    2    1    2    0    0  0.00000000000E+00  0.00000000000E+00  0.79206588437E+03  0.22496196803E+04  0.21055688877E+04 0.  0.
        2    1    3    3  502    0 -0.75186082661E+03  0.47573814094E+03  0.99732673284E+03  0.13365186469E+04  0.25500000920E-02 0.  1.
       -2    1    3    3    0  502  0.75186082661E+03 -0.47573814094E+03 -0.20526084848E+03  0.91310103343E+03  0.25500000920E-02 0. -1.
</event>
<event>
 5   0  0.5967046E-05  0.2104519E+04  0.7818609E-02  0.8559255E-01
        2   -1    0    0  501    0  0.00000000000E+00  0.00000000000E+00  0.99534940030E+03  0.99534940030E+03  0.25500000920E-02 0. -1.
       -2   -1    0    0    0  501  0.00000000000E+00  0.00000000000E+00 -0.11124231862E+04  0.11124231862E+04  0.25500000920E-02 0.  1.
    10030    2    1    2    0    0  0.00000000000E+00  0.00000000000E+00 -0.11707378590E+03  0.21077725865E+04  0.21045187110E+04 0.  0.
        4    1    3    3  502    0  0.94928904315E+03 -0.24804760127E+03 -0.43934949364E+03  0.10750380879E+04  0.12699999809E+01 0.  1.
       -4    1    3    3    0  502 -0.94928904315E+03  0.24804760127E+03  0.32227570774E+03  0.10327344986E+04  0.12699999809E+01 0. -1.
</event>
<event>
 5   0  0.5866610E-05  0.2081083E+04  0.7818609E-02  0.8569623E-01
        2   -1    0    0  501    0  0.00000000000E+00  0.00000000000E+00  0.30093537048E+04  0.30093537048E+04  0.25500000920E-02 0.  1.
       -2   -1    0    0    0  501  0.00000000000E+00  0.00000000000E+00 -0.35978704794E+03  0.35978704794E+03  0.25500000920E-02 0. -1.
    10030    2    1    2    0    0  0.00000000000E+00  0.00000000000E+00  0.26495666569E+04  0.33691407528E+04  0.20810828774E+04 0.  0.
        5    1    3    3  502    0  0.79435213736E+03 -0.56618507959E+03  0.19110608172E+04  0.21456319347E+04  0.46999998093E+01 0.  1.
       -5    1    3    3    0  502 -0.79435213736E+03  0.56618507959E+03  0.73850583970E+03  0.12235088180E+04  0.46999998093E+01 0. -1.
</event>
<event>
 5   0  0.2602060E-05  0.2093146E+04  0.7818609E-02  0.8564269E-01
        1   -1    0    0  501    0  0.00000000000E+00  0.00000000000E+00  0.14201920490E+04  0.14201920490E+04  0.50400001928E-02 0. -1.
       -1   -1    0    0    0  501  0.00000000000E+00  0.00000000000E+00 -0.77124425631E+03  0.77124425633E+03  0.50400001928E-02 0.  1.
    10030    2    1    2    0    0  0.00000000000E+00  0.00000000000E+00  0.64894779267E+03  0.21914363053E+04  0.20931459201E+04 0.  0.
        1    1    3    3  502    0  0.74521057254E+03  0.69434663467E+03  0.57630796740E+03  0.11702935187E+04  0.50400001928E-02 0.  1.
       -1    1    3    3    0  502 -0.74521057254E+03 -0.69434663467E+03  0.72639825270E+02  0.10211427867E+04  0.50400001928E-02 0. -1.
</event>
<event>
 5   0  0.2699285E-05  0.2111250E+04  0.7818609E-02  0.8556304E-01
       -1   -1    0    0    0  501  0.00000000000E+00  0.00000000000E+00  0.12021657508E+04  0.12021657508E+04  0.50400001928E-02 0.  1.
        1   -1    0    0  501    0  0.00000000000E+00  0.00000000000E+00 -0.92694745722E+03  0.92694745723E+03  0.50400001928E-02 0. -1.
    10030    2    1    2    0    0  0.00000000000E+00  0.00000000000E+00  0.27521829362E+03  0.21291132081E+04  0.21112503271E+04 0.  0.
        2    1    3    3  502    0  0.90009707663E+03 -0.15134111203E+03 -0.39722279755E+03  0.99542193589E+03  0.25500000920E-02 0. -1.
       -2    1    3    3    0  502 -0.90009707663E+03  0.15134111203E+03  0.67244109117E+03  0.11336912722E+04  0.25500000920E-02 0.  1.
</event>
<event>
 5   0  0.5866610E-05  0.2089514E+04  0.7818609E-02  0.8565877E-01
        2   -1    0    0  501    0  0.00000000000E+00  0.00000000000E+00  0.87502310914E+03  0.87502310914E+03  0.25500000920E-02 0.  1.
       -2   -1    0    0    0  501  0.00000000000E+00  0.00000000000E+00 -0.12474147028E+04  0.12474147028E+04  0.25500000920E-02 0. -1.
    10030    2    1    2    0    0  0.00000000000E+00  0.00000000000E+00 -0.37239159369E+03  0.21224378120E+04  0.20895135239E+04 0.  0.
        5    1    3    3  502    0  0.24632714930E+03 -0.33401628944E+03  0.78768715161E+03  0.89034660942E+03  0.46999998093E+01 0.  1.
       -5    1    3    3    0  502 -0.24632714930E+03  0.33401628944E+03 -0.11600787453E+04  0.12320912026E+04  0.46999998093E+01 0. -1.
</event>
<event>
 5   0  0.2732159E-05  0.2094742E+04  0.7818609E-02  0.8563563E-01
        1   -1    0    0  501    0  0.00000000000E+00  0.00000000000E+00  0.10075171408E+04  0.10075171408E+04  0.50400001928E-02 0.  1.
       -1   -1    0    0    0  501  0.00000000000E+00  0.00000000000E+00 -0.10888015276E+04  0.10888015276E+04  0.50400001928E-02 0. -1.
    10030    2    1    2    0    0  0.00000000000E+00  0.00000000000E+00 -0.81284386797E+02  0.20963186685E+04  0.20947421818E+04 0.  0.
        3    1    3    3  502    0  0.73160063220E+03 -0.74651074820E+03  0.26254278400E+02  0.10455654353E+04  0.10100000352E+00 0.  1.
       -3    1    3    3    0  502 -0.73160063220E+03  0.74651074820E+03 -0.10753866520E+03  0.10507532331E+04  0.10100000352E+00 0. -1.
</event>
<event>
 5   0  0.5462851E-05  0.2102215E+04  0.7818609E-02  0.8560268E-01
        2   -1    0    0  501    0  0.00000000000E+00  0.00000000000E+00  0.14196649703E+04  0.14196649703E+04  0.25500000920E-02 0. -1.
       -2   -1    0    0    0  501  0.00000000000E+00  0.00000000000E+00 -0.77823082156E+03  0.77823082156E+03  0.25500000920E-02 0.  1.
    10030    2    1    2    0    0  0.00000000000E+00  0.00000000000E+00  0.64143414872E+03  0.21978957918E+04  0.21022150567E+04 0.  0.
        1    1    3    3  502    0  0.69687593108E+03  0.29572826225E+03 -0.44167415673E+03  0.87645155551E+03  0.50400001928E-02 0.  1.
       -1    1    3    3    0  502 -0.69687593108E+03 -0.29572826225E+03  0.10831083054E+04  0.13214442363E+04  0.50400001928E-02 0. -1.
</event>
<event>
 5   0  0.2602060E-05  0.2106956E+04  0.7818609E-02  0.8558185E-01
       -1   -1    0    0    0  501  0.00000000000E+00  0.00000000000E+00  0.85405466759E+03  0.85405466761E+03  0.50400001928E-02 0.  1.
        1   -1    0    0  501    0  0.00000000000E+00  0.00000000000E+00 -0.12994667904E+04  0.12994667904E+04  0.50400001928E-02 0. -1.
    10030    2    1    2    0    0  0.00000000000E+00  0.00000000000E+00 -0.44541212276E+03  0.21535214580E+04  0.21069557923E+04 0.  0.
        1    1    3    3  502    0  0.49849667617E+02  0.99348550893E+03 -0.57723990240E+03  0.11500888447E+04  0.50400001928E-02 0. -1.
       -1    1    3    3    0  502 -0.49849667617E+02 -0.99348550893E+03  0.13182777964E+03  0.10034326132E+04  0.50400001928E-02 0.  1.
</event>
<event>
 5   0  0.5462851E-05  0.2117725E+04  0.7818609E-02  0.8553475E-01
       -2   -1    0    0    0  501  0.00000000000E+00  0.00000000000E+00  0.10145527900E+04  0.10145527900E+04  0.25500000920E-02 0.  1.
        2   -1    0    0  501    0  0.00000000000E+00  0.00000000000E+00 -0.11051072606E+04  0.11051072606E+04  0.25500000920E-02 0. -1.
    10030    2    1    2    0    0  0.00000000000E+00  0.00000000000E+00 -0.90554470547E+02  0.21196600506E+04  0.21177248684E+04 0.  0.
        1    1    3    3  502    0  0.46510518781E+03  0.26254144361E+03 -0.96040961538E+03  0.10989256002E+04  0.50400001928E-02 0. -1.
       -1    1    3    3    0  502 -0.46510518781E+03 -0.26254144361E+03  0.86985514483E+03  0.10207344505E+04  0.50400001928E-02 0.  1.
</event>
<event>
 5   0  0.5462851E-05  0.2095579E+04  0.7818609E-02  0.8563193E-01
       -2   -1    0    0    0  501  0.00000000000E+00  0.00000000000E+00  0.76209247067E+03  0.76209247068E+03  0.25500000920E-02 0.  1.
        2   -1    0    0  501    0  0.00000000000E+00  0.00000000000E+00 -0.14405897259E+04  0.14405897259E+04  0.25500000920E-02 0. -1.
    10030    2    1    2    0    0  0.00000000000E+00  0.00000000000E+00 -0.67849725524E+03  0.22026821966E+04  0.20955787587E+04 0.  0.
        1    1    3    3  502    0  0.18293657136E+03  0.64861775020E+03  0.50406058565E+03  0.84157462477E+03  0.50400001928E-02 0.  1.
       -1    1    3    3    0  502 -0.18293657136E+03 -0.64861775020E+03 -0.11825578409E+04  0.13611075718E+04  0.50400001928E-02 0. -1.
</event>
<event>
 5   0  0.5866610E-05  0.2093602E+04  0.7818609E-02  0.8564067E-01
        2   -1    0    0  501    0  0.00000000000E+00  0.00000000000E+00  0.14132129861E+04  0.14132129861E+04  0.25500000920E-02 0.  1.
       -2   -1    0    0    0  501  0.00000000000E+00  0.00000000000E+00 -0.77539111418E+03  0.77539111419E+03  0.25500000920E-02 0. -1.
    10030    2    1    2    0    0  0.00000000000E+00  0.00000000000E+00  0.63782187195E+03  0.21886041003E+04  0.20936024378E+04 0.  0.
        5    1    3    3  502    0  0.61858555497E+03 -0.30188598281E+03 -0.50553809123E+03  0.85403400818E+03  0.46999998093E+01 0. -1.
       -5    1    3    3    0  502 -0.61858555497E+03  0.30188598281E+03  0.11433599632E+04  0.13345700921E+04  0.46999998093E+01 0.  1.
</event>
<event>
 5   0  0.5506332E-05  0.2096031E+04  0.7818609E-02  0.8562994E-01
       -2   -1    0    0    0  501  0.00000000000E+00  0.00000000000E+00  0.59982803745E+03  0.59982803746E+03  0.25500000920E-02 0. -1.
        2   -1    0    0  501    0  0.00000000000E+00  0.00000000000E+00 -0.18310855433E+04  0.18310855433E+04  0.25500000920E-02 0.  1.
    10030    2    1    2    0    0  0.00000000000E+00  0.00000000000E+00 -0.12312575059E+04  0.24309135808E+04  0.20960309615E+04 0.  0.
        3    1    3    3  502    0  0.93583447303E+03  0.44817039561E+03 -0.44480928188E+03  0.11289367440E+04  0.10100000352E+00 0.  1.
       -3    1    3    3    0  502 -0.93583447303E+03 -0.44817039561E+03 -0.78644822400E+03  0.13019768368E+04  0.10100000352E+00 0. -1.
</event>
<event>
 5   0  0.2699285E-05  0.2086331E+04  0.7818609E-02  0.8567289E-01
       -1   -1    0    0    0  501  0.00000000000E+00  0.00000000000E+00  0.44616078681E+03  0.44616078684E+03  0.50400001928E-02 0.  1.
        1   -1    0    0  501    0  0.00000000000E+00  0.00000000000E+00 -0.24390183398E+04  0.24390183398E+04  0.50400001928E-02 0. -1.
    10030    2    1    2    0    0  0.00000000000E+00  0.00000000000E+00 -0.19928575530E+04  0.28851791266E+04  0.20863310778E+04 0.  0.
        2    1    3    3  502    0 -0.54816533193E+03  0.19771050967E+03 -0.21929493479E+04  0.22690530006E+04  0.25500000920E-02 0. -1.
       -2    1    3    3    0  502  0.54816533193E+03 -0.19771050967E+03  0.20009179498E+03  0.61612612604E+03  0.25500000920E-02 0.  1.
</event>
<event>
 5   0  0.2732159E-05  0.2096348E+04  0.7818609E-02  0.8562854E-01
        1   -1    0    0  501    0  0.00000000000E+00  0.00000000000E+00  0.21757229524E+04  0.21757229524E+04  0.50400001928E-02 0. -1.
       -1   -1    0    0    0  501  0.00000000000E+00  0.00000000000E+00 -0.50496729140E+03  0.50496729143E+03  0.50400001928E-02 0.  1.
    10030    2    1    2    0    0  0.00000000000E+00  0.00000000000E+00  0.16707556610E+04  0.26806902438E+04  0.20963481830E+04 0.  0.
        3    1    3    3  502    0 -0.27974484991E+02 -0.44245186138E+03  0.20499295734E+04  0.20973215032E+04  0.10100000352E+00 0. -1.
       -3    1    3    3    0  502  0.27974484991E+02  0.44245186138E+03 -0.37917391246E+03  0.58336874063E+03  0.10100000352E+00 0.  1.
</event>
<event>
 5   0  0.2699285E-05  0.2107326E+04  0.7818609E-02  0.8558023E-01
        1   -1    0    0  501    0  0.00000000000E+00  0.00000000000E+00  0.14358802600E+04  0.14358802600E+04  0.50400001928E-02 0.  1.
       -1   -1    0    0    0  501  0.00000000000E+00  0.00000000000E+00 -0.77318813794E+03  0.77318813796E+03  0.50400001928E-02 0. -1.
    10030    2    1    2    0    0  0.00000000000E+00  0.00000000000E+00  0.66269212207E+03  0.22090683980E+04  0.21073258738E+04 0.  0.
        2    1    3    3  502    0 -0.73503148529E+02 -0.85360503765E+03  0.97427729766E+03  0.12974053052E+04  0.25500000920E-02 0.  1.
       -2    1    3    3    0  502  0.73503148529E+02  0.85360503765E+03 -0.31158517559E+03  0.91166309281E+03  0.25500000920E-02 0. -1.
</event>
<event>
 5   0  0.2602060E-05  0.2097310E+04  0.7818609E-02  0.8562429E-01
        1   -1    0    0  501    0  0.00000000000E+00  0.00000000000E+00  0.63147190896E+03  0.63147190898E+03  0.50400001928E-02 0. -1.
       -1   -1    0    0    0  501  0.00000000000E+00  0.00000000000E+00 -0.17414504593E+04  0.17414504593E+04  0.50400001928E-02 0.  1.
    10030    2    1    2    0    0  0.00000000000E+00  0.00000000000E+00 -0.11099785503E+04  0.23729223683E+04  0.20973097491E+04 0.  0.
        1    1    3    3  502    0  0.30811655857E+03 -0.54510657318E+02  0.57742393387E+03  0.65675385408E+03  0.50400001928E-02 0. -1.
       -1    1    3    3    0  502 -0.30811655857E+03  0.54510657318E+02 -0.16874024842E+04  0.17161685142E+04  0.50400001928E-02 0.  1.
</event>
<event>
 5   0  0.5462851E-05  0.2109140E+04  0.7818609E-02  0.8557228E-01
        2   -1    0    0  501    0  0.00000000000E+00  0.00000000000E+00  0.67593148971E+03  0.67593148972E+03  0.25500000920E-02 0.  1.
       -2   -1    0    0    0  501  0.00000000000E+00  0.00000000000E+00 -0.16453116886E+04  0.16453116886E+04  0.25500000920E-02 0. -1.
    10030    2    1    2    0    0  0.00000000000E+00  0.00000000000E+00 -0.96938019893E+03  0.23212431784E+04  0.21091400909E+04 0.  0.
        1    1    3    3  502    0  0.89996539239E+03  0.54578923633E+03 -0.41256846046E+03  0.11305026902E+04  0.50400001928E-02 0. -1.
       -1    1    3    3    0  502 -0.89996539239E+03 -0.54578923633E+03 -0.55681173847E+03  0.11907404882E+04  0.50400001928E-02 0.  1.
</event>
<event>
 5   0  0.2732159E-05  0.2122928E+04  0.7818609E-02  0.8551210E-01
        1   -1    0    0  501    0  0.00000000000E+00  0.00000000000E+00  0.10082894173E+04  0.10082894173E+04  0.50400001928E-02 0. -1.
       -1   -1    0    0    0  501  0.00000000000E+00  0.00000000000E+00 -0.11174426424E+04  0.11174426425E+04  0.50400001928E-02 0.  1.
    10030    2    1    2    0    0  0.00000000000E+00  0.00000000000E+00 -0.10915322513E+03  0.21257320598E+04  0.21229277810E+04 0.  0.
        3    1    3    3  502    0 -0.95322851259E+03  0.33677053201E+03  0.26934195804E+03  0.10462332861E+04  0.10100000352E+00 0. -1.
       -3    1    3    3    0  502  0.95322851259E+03 -0.33677053201E+03 -0.37849518317E+03  0.10794987737E+04  0.10100000352E+00 0.  1.
</event>
<event>
 5   0  0.5954140E-05  0.2070517E+04  0.7818609E-02  0.8574343E-01
       -2   -1    0    0    0  501  0.00000000000E+00  0.00000000000E+00  0.13887659971E+04  0.13887659971E+04  0.25500000920E-02 0.  1.
        2   -1    0    0  501    0  0.00000000000E+00  0.00000000000E+00 -0.77173550156E+03  0.77173550157E+03  0.25500000920E-02 0. -1.
    10030    2    1    2    0    0  0.00000000000E+00  0.00000000000E+00  0.61703049555E+03  0.21605014987E+04  0.20705168662E+04 0.  0.
        2    1    3    3  502    0  0.49465537058E+02 -0.33511818610E+02  0.13869654151E+04  0.13882517582E+04  0.25500000920E-02 0.  1.
       -2    1    3    3    0  502 -0.49465537058E+02  0.33511818610E+02 -0.76993491956E+03  0.77224974051E+03  0.25500000920E-02 0. -1.
</event>
<event>
 5   0  0.2604390E-05  0.2077135E+04  0.7818609E-02  0.8571383E-01
        1   -1    0    0  501    0  0.00000000000E+00  0.00000000000E+00  0.23157748241E+04  0.23157748241E+04  0.50400001928E-02 0. -1.
       -1   -1    0    0    0  501  0.00000000000E+00  0.00000000000E+00 -0.46577192057E+03  0.46577192059E+03  0.50400001928E-02 0.  1.
    10030    2    1    2    0    0  0.00000000000E+00  0.00000000000E+00  0.18500029036E+04  0.27815467447E+04  0.20771354193E+04 0.  0.
        5    1    3    3  502    0  0.19605354568E+03  0.17222255589E+03  0.22711419719E+04  0.22860895757E+04  0.46999998093E+01 0. -1.
       -5    1    3    3    0  502 -0.19605354568E+03 -0.17222255589E+03 -0.42113906831E+03  0.49545716907E+03  0.46999998093E+01 0.  1.
</event>
<event>
 5   0  0.5967046E-05  0.2104691E+04  0.7818609E-02  0.8559180E-01
        2   -1    0    0  501    0  0.00000000000E+00  0.00000000000E+00  0.82311157129E+03  0.82311157130E+03  0.25500000920E-02 0. -1.
       -2   -1    0    0    0  501  0.00000000000E+00  0.00000000000E+00 -0.13454203160E+04  0.13454203160E+04  0.25500000920E-02 0.  1.
    10030    2    1    2    0    0  0.00000000000E+00  0.00000000000E+00 -0.52230874473E+03  0.21685318873E+04  0.21046909801E+04 0.  0.
        4    1    3    3  502    0  0.33386490817E+03  0.97458367749E+03 -0.39811919246E+02  0.10309537929E+04  0.12699999809E+01 0.  1.
       -4    1    3    3    0  502 -0.33386490817E+03 -0.97458367749E+03 -0.48249682548E+03  0.11375780944E+04  0.12699999809E+01 0. -1.
</event>
<event>
 5   0  0.5462851E-05  0.2137665E+04  0.7818609E-02  0.8544831E-01
        2   -1    0    0  501    0  0.00000000000E+00  0.00000000000E+00  0.99617994715E+03  0.99617994716E+03  0.25500000920E-02 0. -1.
       -2   -1    0    0    0  501  0.00000000000E+00  0.00000000000E+00 -0.11467835571E+04  0.11467835571E+04  0.25500000920E-02 0.  1.
    10030    2    1    2    0    0  0.00000000000E+00  0.00000000000E+00 -0.15060360994E+03  0.21429635043E+04  0.21376648786E+04 0.  0.
        1    1    3    3  502    0  0.84598399592E+03  0.21137818167E+03  0.54431853275E+03  0.10279359524E+04  0.50400001928E-02 0. -1.
       -1    1    3    3    0  502 -0.84598399592E+03 -0.21137818167E+03 -0.69492214269E+03  0.11150275519E+04  0.50400001928E-02 0.  1.
</event>
<event>
 5   0  0.5462851E-05  0.2026997E+04  0.7818609E-02  0.8594102E-01
       -2   -1    0    0    0  501  0.00000000000E+00  0.00000000000E+00  0.10635429410E+04  0.10635429410E+04  0.25500000920E-02 0. -1.
        2   -1    0    0  501    0  0.00000000000E+00  0.00000000000E+00 -0.96580843623E+03  0.96580843624E+03  0.25500000920E-02 0.  1.
    10030    2    1    2    0    0  0.00000000000E+00  0.00000000000E+00  0.97734504721E+02  0.20293513772E+04  0.20269965414E+04 0.  0.
        1    1    3    3  502    0  0.97823937317E+03  0.26239657156E+03  0.11749761030E+02  0.10128880930E+04  0.50400001928E-02 0. -1.
       -1    1    3    3    0  502 -0.97823937317E+03 -0.26239657156E+03  0.85984743691E+02  0.10164632842E+04  0.50400001928E-02 0.  1.
</event>
<event>
 5   0  0.2789662E-05  0.2096863E+04  0.7818609E-02  0.8562627E-01
       -1   -1    0    0    0  501  0.00000000000E+00  0.00000000000E+00  0.69388220066E+03  0.69388220068E+03  0.50400001928E-02 0. -1.
        1   -1    0    0  501    0  0.00000000000E+00  0.00000000000E+00 -0.15841423671E+04  0.15841423671E+04  0.50400001928E-02 0.  1.
    10030    2    1    2    0    0  0.00000000000E+00  0.00000000000E+00 -0.89026016642E+03  0.22780245678E+04  0.20968626010E+04 0.  0.
        4    1    3    3  502    0  0.93874736142E+03  0.13266123505E+03 -0.93141969179E+03  0.13290560060E+04  0.12699999809E+01 0.  1.
       -4    1    3    3    0  502 -0.93874736142E+03 -0.13266123505E+03  0.41159525364E+02  0.94896856181E+03  0.12699999809E+01 0. -1.
</event>
<event>
 5   0  0.5967046E-05  0.2107366E+04  0.7818609E-02  0.8558006E-01
        2   -1    0    0  501    0  0.00000000000E+00  0.00000000000E+00  0.16531180709E+04  0.16531180709E+04  0.25500000920E-02 0. -1.
       -2   -1    0    0    0  501  0.00000000000E+00  0.00000000000E+00 -0.67160818098E+03  0.67160818099E+03  0.25500000920E-02 0.  1.
    10030    2    1    2    0    0  0.00000000000E+00  0.00000000000E+00  0.98150988991E+03  0.23247262519E+04  0.21073657685E+04 0.  0.
        4    1    3    3  502    0  0.26992535863E+03  0.81959057594E+03 -0.17631165903E+03  0.88072460248E+03  0.12699999809E+01 0.  1.
       -4    1    3    3    0  502 -0.26992535863E+03 -0.81959057594E+03  0.11578215489E+04  0.14440016494E+04  0.12699999809E+01 0. -1.
</event>
<event>
 5   0  0.5967046E-05  0.2102623E+04  0.7818609E-02  0.8560089E-01
        2   -1    0    0  501    0  0.00000000000E+00  0.00000000000E+00  0.25388455801E+04  0.25388455801E+04  0.25500000920E-02 0.  1.
       -2   -1    0    0    0  501  0.00000000000E+00  0.00000000000E+00 -0.43533779259E+03  0.43533779260E+03  0.25500000920E-02 0. -1.
    10030    2    1    2    0    0  0.00000000000E+00  0.00000000000E+00  0.21035077875E+04  0.29741833727E+04  0.21026225820E+04 0.  0.
        4    1    3    3  502    0 -0.24158166255E+02  0.10508763478E+04  0.10774147982E+04  0.15052405042E+04  0.12699999809E+01 0. -1.
       -4    1    3    3    0  502  0.24158166255E+02 -0.10508763478E+04  0.10260929894E+04  0.14689428685E+04  0.12699999809E+01 0.  1.
</event>
<event>
 5   0  0.2699285E-05  0.2105769E+04  0.7818609E-02  0.8558706E-01
        1   -1    0    0  501    0  0.00000000000E+00  0.00000000000E+00  0.13080998633E+04  0.13080998633E+04  0.50400001928E-02 0.  1.
       -1   -1    0    0    0  501  0.00000000000E+00  0.00000000000E+00 -0.84746270838E+03  0.84746270839E+03  0.50400001928E-02 0. -1.
    10030    2    1    2    0    0  0.00000000000E+00  0.00000000000E+00  0.46063715495E+03  0.21555625717E+04  0.21057690785E+04 0.  0.
        2    1    3    3  502    0 -0.88376774722E+03  0.51360147195E+03 -0.28106888258E+02  0.10225565511E+04  0.25500000920E-02 0.  1.
       -2    1    3    3    0  502  0.88376774722E+03 -0.51360147195E+03  0.48874404321E+03  0.11330060206E+04  0.25500000920E-02 0. -1.
</event>
<event>
 5   0  0.5462851E-05  0.2141463E+04  0.7818609E-02  0.8543196E-01
       -2   -1    0    0    0  501  0.00000000000E+00  0.00000000000E+00  0.89372656276E+03  0.89372656276E+03  0.25500000920E-02 0. -1.
        2   -1    0    0  501    0  0.00000000000E+00  0.00000000000E+00 -0.12827921507E+04  0.12827921507E+04  0.25500000920E-02 0.  1.
    10030    2    1    2    0    0  0.00000000000E+00  0.00000000000E+00 -0.38906558798E+03  0.21765187135E+04  0.21414625092E+04 0.  0.
        1    1    3    3  502    0 -0.42872803964E+03  0.85653565968E+03 -0.68091065358E+03  0.11752022747E+04  0.50400001928E-02 0.  1.
       -1    1    3    3    0  502  0.42872803964E+03 -0.85653565968E+03  0.29184506560E+03  0.10013164388E+04  0.50400001928E-02 0. -1.
</event>
<event>
 5   0  0.2604390E-05  0.2078216E+04  0.7818609E-02  0.8570901E-01
       -1   -1    0    0    0  501  0.00000000000E+00  0.00000000000E+00  0.12811551688E+04  0.12811551688E+04  0.50400001928E-02 0.  1.
        1   -1    0    0  501    0  0.00000000000E+00  0.00000000000E+00 -0.84279050788E+03  0.84279050789E+03  0.50400001928E-02 0. -1.
    10030    2    1    2    0    0  0.00000000000E+00  0.00000000000E+00  0.43836466090E+03  0.21239456767E+04  0.20782159805E+04 0.  0.
        5    1    3    3  502    0  0.84921719222E+02 -0.90583033368E+03  0.73220714820E+03  0.11678568789E+04  0.46999998093E+01 0.  1.
       -5    1    3    3    0  502 -0.84921719222E+02  0.90583033368E+03 -0.29384248730E+03  0.95608879774E+03  0.46999998093E+01 0. -1.
</event>
<event>
 5   0  0.2604390E-05  0.2124172E+04  0.7818609E-02  0.8550669E-01
        1   -1    0    0  501    0  0.00000000000E+00  0.00000000000E+00  0.56184727006E+03  0.56184727009E+03  0.50400001928E-02 0. -1.
       -1   -1    0    0    0  501  0.00000000000E+00  0.00000000000E+00 -0.20077112521E+04  0.20077112521E+04  0.50400001928E-02 0.  1.
    10030    2    1    2    0    0  0.00000000000E+00  0.00000000000E+00 -0.14458639821E+04  0.25695585222E+04  0.21241723905E+04 0.  0.
        5    1    3    3  502    0  0.35409618158E+03 -0.34834974313E+03  0.41266457705E+03  0.64579082720E+03  0.46999998093E+01 0. -1.
       -5    1    3    3    0  502 -0.35409618158E+03  0.34834974313E+03 -0.18585285591E+04  0.19237676950E+04  0.46999998093E+01 0.  1.
</event>
<event>
 5   0  0.2604390E-05  0.2055373E+04  0.7818609E-02  0.8581161E-01
       -1   -1    0    0    0  501  0.00000000000E+00  0.00000000000E+00  0.47593516217E+03  0.47593516220E+03  0.50400001928E-02 0. -1.
        1   -1    0    0  501    0  0.00000000000E+00  0.00000000000E+00 -0.22190822438E+04  0.22190822438E+04  0.50400001928E-02 0.  1.
    10030    2    1    2    0    0  0.00000000000E+00  0.00000000000E+00 -0.17431470816E+04  0.26950174060E+04  0.20553727327E+04 0.  0.
        5    1    3    3  502    0  0.72040431202E+03  0.69919694078E+03 -0.11596167467E+04  0.15338160985E+04  0.46999998093E+01 0.  1.
       -5    1    3    3    0  502 -0.72040431202E+03 -0.69919694078E+03 -0.58353033490E+03  0.11612013075E+04  0.46999998093E+01 0. -1.
</event>
<event>
 5   0  0.2699285E-05  0.2098665E+04  0.7818609E-02  0.8561832E-01
        1   -1    0    0  501    0  0.00000000000E+00  0.00000000000E+00  0.67556019708E+03  0.67556019710E+03  0.50400001928E-02 0.  1.
       -1   -1    0    0    0  501  0.00000000000E+00  0.00000000000E+00 -0.16299048426E+04  0.16299048426E+04  0.50400001928E-02 0. -1.
    10030    2    1    2    0    0  0.00000000000E+00  0.00000000000E+00 -0.95434464554E+03  0.23054650397E+04  0.20986651345E+04 0.  0.
        2    1    3    3  502    0 -0.67698086236E+03  0.68960846682E+03 -0.27930517505E+02  0.96676938270E+03  0.25500000920E-02 0. -1.
       -2    1    3    3    0  502  0.67698086236E+03 -0.68960846682E+03 -0.92641412804E+03  0.13386956570E+04  0.25500000920E-02 0.  1.
</event>
<event>
 5   0  0.5506332E-05  0.2077786E+04  0.7818609E-02  0.8571092E-01
       -2   -1    0    0    0  501  0.00000000000E+00  0.00000000000E+00  0.88347033940E+03  0.88347033940E+03  0.25500000920E-02 0. -1.
        2   -1    0    0  501    0  0.00000000000E+00  0.00000000000E+00 -0.12216582120E+04  0.12216582120E+04  0.25500000920E-02 0.  1.
    10030    2    1    2    0    0  0.00000000000E+00  0.00000000000E+00 -0.33818787259E+03  0.21051285514E+04  0.20777861249E+04 0.  0.
        3    1    3    3  502    0 -0.83939394490E+03  0.61188571227E+03 -0.15118463195E+03  0.10496871547E+04  0.10100000352E+00 0.  1.
       -3    1    3    3    0  502  0.83939394490E+03 -0.61188571227E+03 -0.18700324065E+03  0.10554413967E+04  0.10100000352E+00 0. -1.
</event>
<event>
 5   0  0.5866610E-05  0.2095770E+04  0.7818609E-02  0.8563109E-01
       -2   -1    0    0    0  501  0.00000000000E+00  0.00000000000E+00  0.91950119412E+03  0.91950119413E+03  0.25500000920E-02 0.  1.
        2   -1    0    0  501    0  0.00000000000E+00  0.00000000000E+00 -0.11941944832E+04  0.11941944832E+04  0.25500000920E-02 0. -1.
    10030    2    1    2    0    0  0.00000000000E+00  0.00000000000E+00 -0.27469328910E+03  0.21136956774E+04  0.20957702673E+04 0.  0.
        5    1    3    3  502    0 -0.49385497179E+03  0.19541586403E+03 -0.10483783763E+04  0.11752444014E+04  0.46999998093E+01 0. -1.
       -5    1    3    3    0  502  0.49385497179E+03 -0.19541586403E+03  0.77368508725E+03  0.93845127593E+03  0.46999998093E+01 0.  1.
</event>
<event>
 5   0  0.5954140E-05  0.2057976E+04  0.7818609E-02  0.8579985E-01
       -2   -1    0    0    0  501  0.00000000000E+00  0.00000000000E+00  0.83181991991E+03  0.83181991991E+03  0.25500000920E-02 0. -1.
        2   -1    0    0  501    0  0.00000000000E+00  0.00000000000E+00 -0.12728912632E+04  0.12728912632E+04  0.25500000920E-02 0.  1.
    10030    2    1    2    0    0  0.00000000000E+00  0.00000000000E+00 -0.44107134330E+03  0.21047111831E+04  0.20579760043E+04 0.  0.
        2    1    3    3  502    0  0.77373489741E+03 -0.36972589189E+02 -0.91325318178E+03  0.11975241283E+04  0.25500000920E-02 0.  1.
       -2    1    3    3    0  502 -0.77373489741E+03  0.36972589189E+02  0.47218183848E+03  0.90718705481E+03  0.25500000920E-02 0. -1.
</event>
<event>
 5   0  0.2789662E-05  0.2096228E+04  0.7818609E-02  0.8562907E-01
        1   -1    0    0  501    0  0.00000000000E+00  0.00000000000E+00  0.10891539879E+04  0.10891539880E+04  0.50400001928E-02 0. -1.
       -1   -1    0    0    0  501  0.00000000000E+00  0.00000000000E+00 -0.10086207147E+04  0.10086207147E+04  0.50400001928E-02 0.  1.
    10030    2    1    2    0    0  0.00000000000E+00  0.00000000000E+00  0.80533273274E+02  0.20977747026E+04  0.20962283022E+04 0.  0.
        4    1    3    3  502    0  0.32008515654E+03 -0.39536460746E+03  0.95733449147E+03  0.10840934562E+04  0.12699999809E+01 0. -1.
       -4    1    3    3    0  502 -0.32008515654E+03  0.39536460746E+03 -0.87680121820E+03  0.10136812465E+04  0.12699999809E+01 0.  1.
</event>
<event>
 5   0  0.5462851E-05  0.2098981E+04  0.7818609E-02  0.8561693E-01
        2   -1    0    0  501    0  0.00000000000E+00  0.00000000000E+00  0.95406197716E+03  0.95406197716E+03  0.25500000920E-02 0. -1.
       -2   -1    0    0    0  501  0.00000000000E+00  0.00000000000E+00 -0.11544636831E+04  0.11544636832E+04  0.25500000920E-02 0.  1.
    10030    2    1    2    0    0  0.00000000000E+00  0.00000000000E+00 -0.20040170599E+03  0.21085256603E+04  0.20989806136E+04 0.  0.
        1    1    3    3  502    0 -0.10413265082E+04 -0.13062141085E+03 -0.97532772247E+02  0.10540092464E+04  0.50400001928E-02 0.  1.
       -1    1    3    3    0  502  0.10413265082E+04  0.13062141085E+03 -0.10286893374E+03  0.10545164139E+04  0.50400001928E-02 0. -1.
</event>
<event>
 5   0  0.2699285E-05  0.2108910E+04  0.7818609E-02  0.8557329E-01
        1   -1    0    0  501    0  0.00000000000E+00  0.00000000000E+00  0.11839111389E+04  0.11839111389E+04  0.50400001928E-02 0. -1.
       -1   -1    0    0    0  501  0.00000000000E+00  0.00000000000E+00 -0.93915422824E+03  0.93915422826E+03  0.50400001928E-02 0.  1.
    10030    2    1    2    0    0  0.00000000000E+00  0.00000000000E+00  0.24475691066E+03  0.21230653672E+04  0.21089098150E+04 0.  0.
        2    1    3    3  502    0  0.61965543077E+03 -0.41501653212E+03 -0.62805350674E+03  0.97501937526E+03  0.25500000920E-02 0.  1.
       -2    1    3    3    0  502 -0.61965543077E+03  0.41501653212E+03  0.87281041740E+03  0.11480459919E+04  0.25500000920E-02 0. -1.
</event>
<event>
 5   0  0.2602060E-05  0.2113321E+04  0.7818609E-02  0.8555398E-01
       -1   -1    0    0    0  501  0.00000000000E+00  0.00000000000E+00  0.96308290576E+03  0.96308290577E+03  0.50400001928E-02 0.  1.
        1   -1    0    0  501    0  0.00000000000E+00  0.00000000000E+00 -0.11593307920E+04  0.11593307920E+04  0.50400001928E-02 0. -1.
    10030    2    1    2    0    0  0.00000000000E+00  0.00000000000E+00 -0.19624788622E+03  0.21224136978E+04  0.21133212419E+04 0.  0.
        1    1    3    3  502    0  0.82811530831E+03 -0.11670695909E+03  0.55051565274E+03  0.10012307237E+04  0.50400001928E-02 0.  1.
       -1    1    3    3    0  502 -0.82811530831E+03  0.11670695909E+03 -0.74676353896E+03  0.11211829741E+04  0.50400001928E-02 0. -1.
</event>
<event>
 5   0  0.2732159E-05  0.2140240E+04  0.7818609E-02  0.8543721E-01
        1   -1    0    0  501    0  0.00000000000E+00  0.00000000000E+00  0.14752594022E+04  0.14752594022E+04  0.50400001928E-02 0. -1.
       -1   -1    0    0    0  501  0.00000000000E+00  0.00000000000E+00 -0.77624113804E+03  0.77624113805E+03  0.50400001928E-02 0.  1.
    10030    2    1    2    0    0  0.00000000000E+00  0.00000000000E+00  0.69901826411E+03  0.22515005402E+04  0.21402402083E+04 0.  0.
        3    1    3    3  502    0  0.71468479516E+02 -0.73546046242E+03  0.11637938809E+04  0.13785594085E+04  0.10100000352E+00 0. -1.
       -3    1    3    3    0  502 -0.71468479516E+02  0.73546046242E+03 -0.46477561675E+03  0.87294113174E+03  0.10100000352E+00 0.  1.
</event>
<event>
 5   0  0.2699285E-05  0.2106361E+04  0.7818609E-02  0.8558446E-01
        1   -1    0    0  501    0  0.00000000000E+00  0.00000000000E+00  0.12139534144E+04  0.12139534144E+04  0.50400001928E-02 0. -1.
       -1   -1    0    0    0  501  0.00000000000E+00  0.00000000000E+00 -0.91370024625E+03  0.91370024627E+03  0.50400001928E-02 0.  1.
    10030    2    1    2    0    0  0.00000000000E+00  0.00000000000E+00  0.30025316811E+03  0.21276536606E+04  0.21063613495E+04 0.  0.
        2    1    3    3  502    0  0.48871377284E+03 -0.55854709107E+03  0.90492411088E+03  0.11703433903E+04  0.25500000920E-02 0. -1.
       -2    1    3    3    0  502 -0.48871377284E+03  0.55854709107E+03 -0.60467094277E+03  0.95731027036E+03  0.25500000920E-02 0.  1.
</event>
<event>
 5   0  0.2732159E-05  0.2096208E+04  0.7818609E-02  0.8562916E-01
       -1   -1    0    0    0  501  0.00000000000E+00  0.00000000000E+00  0.40794008051E+03  0.40794008054E+03  0.50400001928E-02 0.  1.
        1   -1    0    0  501    0  0.00000000000E+00  0.00000000000E+00 -0.26928507767E+04  0.26928507767E+04  0.50400001928E-02 0. -1.
    10030    2    1    2    0    0  0.00000000000E+00  0.00000000000E+00 -0.22849106962E+04  0.31007908573E+04  0.20962077786E+04 0.  0.
        3    1    3    3  502    0  0.76199669284E+02  0.84927952381E+03 -0.24092099692E+03  0.88607281649E+03  0.10100000352E+00 0.  1.
       -3    1    3    3    0  502 -0.76199669284E+02 -0.84927952381E+03 -0.20439896993E+04  0.22147180408E+04  0.10100000352E+00 0. -1.
</event>
<event>
 5   0  0.2602060E-05  0.2101709E+04  0.7818609E-02  0.8560491E-01
       -1   -1    0    0    0  501  0.00000000000E+00  0.00000000000E+00  0.68444100129E+03  0.68444100131E+03  0.50400001928E-02 0.  1.
        1   -1    0    0  501    0  0.00000000000E+00  0.00000000000E+00 -0.16134261666E+04  0.16134261666E+04  0.50400001928E-02 0. -1.
    10030    2    1    2    0    0  0.00000000000E+00  0.00000000000E+00 -0.92898516528E+03  0.22978671679E+04  0.21017088485E+04 0.  0.
        1    1    3    3  502    0  0.21647254727E+03 -0.35076993388E+03 -0.15213530325E+04  0.15762027026E+04  0.50400001928E-02 0. -1.
       -1    1    3    3    0  502 -0.21647254727E+03  0.35076993388E+03  0.59236786724E+03  0.72166446525E+03  0.50400001928E-02 0.  1.
</event>
<event>
 5   0  0.2699285E-05  0.2094901E+04  0.7818609E-02  0.8563493E-01
       -1   -1    0    0    0  501  0.00000000000E+00  0.00000000000E+00  0.63936273884E+03  0.63936273886E+03  0.50400001928E-02 0.  1.
        1   -1    0    0  501    0  0.00000000000E+00  0.00000000000E+00 -0.17160089089E+04  0.17160089089E+04  0.50400001928E-02 0. -1.
    10030    2    1    2    0    0  0.00000000000E+00  0.00000000000E+00 -0.10766461701E+04  0.23553716478E+04  0.20949006238E+04 0.  0.
        2    1    3    3  502    0 -0.58666212453E+03 -0.62986969536E+03  0.13274984376E+03  0.87093673853E+03  0.25500000920E-02 0.  1.
       -2    1    3    3    0  502  0.58666212453E+03  0.62986969536E+03 -0.12093960138E+04  0.14844349092E+04  0.25500000920E-02 0. -1.
</event>
<event>
 5   0  0.5954140E-05  0.2099332E+04  0.7818609E-02  0.8561538E-01
        2   -1    0    0  501    0  0.00000000000E+00  0.00000000000E+00  0.23022098304E+04  0.23022098304E+04  0.25500000920E-02 0. -1.
       -2   -1    0    0    0  501  0.00000000000E+00  0.00000000000E+00 -0.47858291551E+03  0.47858291552E+03  0.25500000920E-02 0.  1.
    10030    2    1    2    0    0  0.00000000000E+00  0.00000000000E+00  0.18236269149E+04  0.27807927459E+04  0.20993316010E+04 0.  0.
        2    1    3    3  502    0  0.34439951215E+03 -0.98075386867E+03  0.11051750946E+04  0.15172017548E+04  0.25500000920E-02 0.  1.
       -2    1    3    3    0  502 -0.34439951215E+03  0.98075386867E+03  0.71845182025E+03  0.12635909911E+04  0.25500000920E-02 0. -1.
</event>
<event>
 5   0  0.2699285E-05  0.2102561E+04  0.7818609E-02  0.8560116E-01
        1   -1    0    0  501    0  0.00000000000E+00  0.00000000000E+00  0.15132611665E+04  0.15132611665E+04  0.50400001928E-02 0. -1.
       -1   -1    0    0    0  501  0.00000000000E+00  0.00000000000E+00 -0.73033733667E+03  0.73033733669E+03  0.50400001928E-02 0.  1.
    10030    2    1    2    0    0  0.00000000000E+00  0.00000000000E+00  0.78292382985E+03  0.22435985032E+04  0.21025614189E+04 0.  0.
        2    1    3    3  502    0  0.67259726164E+03  0.67947265627E+03 -0.75036973433E+02  0.95901027855E+03  0.25500000920E-02 0. -1.
       -2    1    3    3    0  502 -0.67259726164E+03 -0.67947265627E+03  0.85796080329E+03  0.12845882247E+04  0.25500000920E-02 0.  1.
</event>
<event>
 5   0  0.2604390E-05  0.2128941E+04  0.7818609E-02  0.8548601E-01
        1   -1    0    0  501    0  0.00000000000E+00  0.00000000000E+00  0.10154467411E+04  0.10154467411E+04  0.50400001928E-02 0.  1.
       -1   -1    0    0    0  501  0.00000000000E+00  0.00000000000E+00 -0.11158610609E+04  0.11158610609E+04  0.50400001928E-02 0. -1.
    10030    2    1    2    0    0  0.00000000000E+00  0.00000000000E+00 -0.10041431983E+03  0.21313078020E+04  0.21289410305E+04 0.  0.
        5    1    3    3  502    0 -0.42275855410E+03  0.73054514559E+02 -0.10254634674E+04  0.11116020736E+04  0.46999998093E+01 0. -1.
       -5    1    3    3    0  502  0.42275855410E+03 -0.73054514559E+02  0.92504914753E+03  0.10197057284E+04  0.46999998093E+01 0.  1.
</event>
<event>
 5   0  0.5506332E-05  0.2090920E+04  0.7818609E-02  0.8565254E-01
       -2   -1    0    0    0  501  0.00000000000E+00  0.00000000000E+00  0.41093704397E+03  0.41093704398E+03  0.25500000920E-02 0.  1.
        2   -1    0    0  501    0  0.00000000000E+00  0.00000000000E+00 -0.26597428332E+04  0.26597428333E+04  0.25500000920E-02 0. -1.
    10030    2    1    2    0    0  0.00000000000E+00  0.00000000000E+00 -0.22488057893E+04  0.30706798772E+04  0.20909202353E+04 0.  0.
        3    1    3    3  502    0 -0.71123436115E+03  0.48572587120E+03 -0.25408857419E+03  0.89796712199E+03  0.10100000352E+00 0.  1.
       -3    1    3    3    0  502  0.71123436115E+03 -0.48572587120E+03 -0.19947172151E+04  0.21727127552E+04  0.10100000352E+00 0. -1.
</event>
<event>
 5   0  0.5506332E-05  0.2174752E+04  0.7818609E-02  0.8529011E-01
        2   -1    0    0  501    0  0.00000000000E+00  0.00000000000E+00  0.18635740107E+04  0.18635740107E+04  0.25500000920E-02 0. -1.
       -2   -1    0    0    0  501  0.00000000000E+00  0.00000000000E+00 -0.63447284207E+03  0.63447284208E+03  0.25500000920E-02 0.  1.
    10030    2    1    2    0    0  0.00000000000E+00  0.00000000000E+00  0.12291011686E+04  0.24980468528E+04  0.21747524907E+04 0.  0.
        3    1    3    3  502    0  0.50035287727E+03 -0.34193045682E+03  0.16516034388E+04  0.17592792184E+04  0.10100000352E+00 0. -1.
       -3    1    3    3    0  502 -0.50035287727E+03  0.34193045682E+03 -0.42250227016E+03  0.73876763437E+03  0.10100000352E+00 0.  1.
</event>
<event>
 5   0  0.5967046E-05  0.2122204E+04  0.7818609E-02  0.8551525E-01
        2   -1    0    0  501    0  0.00000000000E+00  0.00000000000E+00  0.12504546676E+04  0.12504546676E+04  0.25500000920E-02 0. -1.
       -2   -1    0    0    0  501  0.00000000000E+00  0.00000000000E+00 -0.90042279910E+03  0.90042279911E+03  0.25500000920E-02 0.  1.
    10030    2    1    2    0    0  0.00000000000E+00  0.00000000000E+00  0.35003186847E+03  0.21508774667E+04  0.21222044123E+04 0.  0.
        4    1    3    3  502    0  0.30770318075E+03  0.17246477196E+03  0.11892922960E+04  0.12405011581E+04  0.12699999809E+01 0. -1.
       -4    1    3    3    0  502 -0.30770318075E+03 -0.17246477196E+03 -0.83926042756E+03  0.91037630856E+03  0.12699999809E+01 0.  1.
</event>
<event>
 5   0  0.5506332E-05  0.2100371E+04  0.7818609E-02  0.8561080E-01
        2   -1    0    0  501    0  0.00000000000E+00  0.00000000000E+00  0.16745052228E+04  0.16745052228E+04  0.25500000920E-02 0. -1.
       -2   -1    0    0    0  501  0.00000000000E+00  0.00000000000E+00 -0.65863640201E+03  0.65863640202E+03  0.25500000920E-02 0.  1.
    10030    2    1    2    0    0  0.00000000000E+00  0.00000000000E+00  0.10158688208E+04  0.23331416248E+04  0.21003714863E+04 0.  0.
        3    1    3    3  502    0 -0.35001209997E+03 -0.42941387117E+03  0.14989888769E+04  0.15980839797E+04  0.10100000352E+00 0. -1.
       -3    1    3    3    0  502  0.35001209997E+03  0.42941387117E+03 -0.48312005610E+03  0.73505764514E+03  0.10100000352E+00 0.  1.
</event>
<event>
 5   0  0.5462851E-05  0.2095963E+04  0.7818609E-02  0.8563024E-01
        2   -1    0    0  501    0  0.00000000000E+00  0.00000000000E+00  0.16181510168E+04  0.16181510169E+04  0.25500000920E-02 0. -1.
       -2   -1    0    0    0  501  0.00000000000E+00  0.00000000000E+00 -0.67871616449E+03  0.67871616449E+03  0.25500000920E-02 0.  1.
    10030    2    1    2    0    0  0.00000000000E+00  0.00000000000E+00  0.93943485236E+03  0.22968671813E+04  0.20959630261E+04 0.  0.
        1    1    3    3  502    0  0.95812577635E+03  0.42281477638E+03  0.42744656726E+03  0.11311445117E+04  0.50400001928E-02 0.  1.
       -1    1    3    3    0  502 -0.95812577635E+03 -0.42281477638E+03  0.51198828510E+03  0.11657226697E+04  0.50400001928E-02 0. -1.
</event>
<event>
 5   0  0.5506332E-05  0.2100221E+04  0.7818609E-02  0.8561146E-01
        2   -1    0    0  501    0  0.00000000000E+00  0.00000000000E+00  0.97813776836E+03  0.97813776836E+03  0.25500000920E-02 0. -1.
       -2   -1    0    0    0  501  0.00000000000E+00  0.00000000000E+00 -0.11273789019E+04  0.11273789019E+04  0.25500000920E-02 0.  1.
    10030    2    1    2    0    0  0.00000000000E+00  0.00000000000E+00 -0.14924113357E+03  0.21055166703E+04  0.21002208296E+04 0.  0.
        3    1    3    3  502    0 -0.17525437280E+03  0.66343565821E+03  0.72228691118E+03  0.99627273376E+03  0.10100000352E+00 0. -1.
       -3    1    3    3    0  502  0.17525437280E+03 -0.66343565821E+03 -0.87152804474E+03  0.11092439365E+04  0.10100000352E+00 0.  1.
</event>
<event>
 5   0  0.5866610E-05  0.2011721E+04  0.7818609E-02  0.8601160E-01
       -2   -1    0    0    0  501  0.00000000000E+00  0.00000000000E+00  0.43280094149E+03  0.43280094150E+03  0.25500000920E-02 0. -1.
        2   -1    0    0  501    0  0.00000000000E+00  0.00000000000E+00 -0.23376930181E+04  0.23376930181E+04  0.25500000920E-02 0.  1.
    10030    2    1    2    0    0  0.00000000000E+00  0.00000000000E+00 -0.19048920766E+04  0.27704939596E+04  0.20117213914E+04 0.  0.
        5    1    3    3  502    0  0.59282858524E+03  0.39293213137E+02  0.16531173069E+03  0.61671690943E+03  0.46999998093E+01 0. -1.
       -5    1    3    3    0  502 -0.59282858524E+03 -0.39293213137E+02 -0.20702038073E+04  0.21537770502E+04  0.46999998093E+01 0.  1.
</event>
<event>
 5   0  0.2604390E-05  0.2047892E+04  0.7818609E-02  0.8584551E-01
        1   -1    0    0  501    0  0.00000000000E+00  0.00000000000E+00  0.76734080758E+03  0.76734080760E+03  0.50400001928E-02 0. -1.
       -1   -1    0    0    0  501  0.00000000000E+00  0.00000000000E+00 -0.13663614973E+04  0.13663614973E+04  0.50400001928E-02 0.  1.
    10030    2    1    2    0    0  0.00000000000E+00  0.00000000000E+00 -0.59902068969E+03  0.21337023049E+04  0.20478915350E+04 0.  0.
        5    1    3    3  502    0  0.82055017210E+03 -0.11093655540E+03  0.32808609188E+03  0.89065822734E+03  0.46999998093E+01 0. -1.
       -5    1    3    3    0  502 -0.82055017210E+03  0.11093655540E+03 -0.92710678157E+03  0.12430440775E+04  0.46999998093E+01 0.  1.
</event>
<event>
 5   0  0.2602060E-05  0.2115829E+04  0.7818609E-02  0.8554302E-01
        1   -1    0    0  501    0  0.00000000000E+00  0.00000000000E+00  0.20246626541E+04  0.20246626542E+04  0.50400001928E-02 0.  1.
       -1   -1    0    0    0  501  0.00000000000E+00  0.00000000000E+00 -0.55277516032E+03  0.55277516035E+03  0.50400001928E-02 0. -1.
    10030    2    1    2    0    0  0.00000000000E+00  0.00000000000E+00  0.14718874938E+04  0.25774378145E+04  0.21158291266E+04 0.  0.
        1    1    3    3  502    0  0.87643892291E+03 -0.45879734614E+03  0.27926346012E+03  0.10279242533E+04  0.50400001928E-02 0. -1.
       -1    1    3    3    0  502 -0.87643892291E+03  0.45879734614E+03  0.11926240337E+04  0.15495135612E+04  0.50400001928E-02 0.  1.
</event>
<event>
 5   0  0.2732159E-05  0.2074023E+04  0.7818609E-02  0.8572774E-01
       -1   -1    0    0    0  501  0.00000000000E+00  0.00000000000E+00  0.79814209844E+03  0.79814209845E+03  0.50400001928E-02 0.  1.
        1   -1    0    0  501    0  0.00000000000E+00  0.00000000000E+00 -0.13473701943E+04  0.13473701943E+04  0.50400001928E-02 0. -1.
    10030    2    1    2    0    0  0.00000000000E+00  0.00000000000E+00 -0.54922809589E+03  0.21455122928E+04  0.20740230223E+04 0.  0.
        3    1    3    3  502    0 -0.82061872990E+03 -0.63330133194E+03 -0.24345631199E+03  0.10647801007E+04  0.10100000352E+00 0.  1.
       -3    1    3    3    0  502  0.82061872990E+03  0.63330133194E+03 -0.30577178390E+03  0.10807321920E+04  0.10100000352E+00 0. -1.
</event>
<event>
 5   0  0.2602060E-05  0.2114403E+04  0.7818609E-02  0.8554925E-01
       -1   -1    0    0    0  501  0.00000000000E+00  0.00000000000E+00  0.15841551926E+04  0.15841551926E+04  0.50400001928E-02 0.  1.
        1   -1    0    0  501    0  0.00000000000E+00  0.00000000000E+00 -0.70553363512E+03  0.70553363513E+03  0.50400001928E-02 0. -1.
    10030    2    1    2    0    0  0.00000000000E+00  0.00000000000E+00  0.87862155751E+03  0.22896888278E+04  0.21144027731E+04 0.  0.
        1    1    3    3  502    0  0.21255205951E+03  0.61332385464E+02 -0.68018821382E+03  0.71525942550E+03  0.50400001928E-02 0. -1.
       -1    1    3    3    0  502 -0.21255205951E+03 -0.61332385464E+02  0.15588097713E+04  0.15744294023E+04  0.50400001928E-02 0.  1.
</event>
<event>
 5   0  0.2789662E-05  0.2084995E+04  0.7818609E-02  0.8567882E-01
       -1   -1    0    0    0  501  0.00000000000E+00  0.00000000000E+00  0.12597121923E+04  0.12597121923E+04  0.50400001928E-02 0.  1.
        1   -1    0    0  501    0  0.00000000000E+00  0.00000000000E+00 -0.86273770307E+03  0.86273770308E+03  0.50400001928E-02 0. -1.
    10030    2    1    2    0    0  0.00000000000E+00  0.00000000000E+00  0.39697448924E+03  0.21224498954E+04  0.20849951591E+04 0.  0.
        4    1    3    3  502    0 -0.54374026246E+03 -0.88693525202E+03  0.13026105509E+03  0.10484641957E+04  0.12699999809E+01 0. -1.
       -4    1    3    3    0  502  0.54374026246E+03  0.88693525202E+03  0.26671343415E+03  0.10739856997E+04  0.12699999809E+01 0.  1.
</event>
<event>
 5   0  0.5967046E-05  0.2016099E+04  0.7818609E-02  0.8599131E-01
        2   -1    0    0  501    0  0.00000000000E+00  0.00000000000E+00  0.83082906611E+03  0.83082906612E+03  0.25500000920E-02 0. -1.
       -2   -1    0    0    0  501  0.00000000000E+00  0.00000000000E+00 -0.12230717473E+04  0.12230717473E+04  0.25500000920E-02 0.  1.
    10030    2    1    2    0    0  0.00000000000E+00  0.00000000000E+00 -0.39224268117E+03  0.20539008134E+04  0.20160987650E+04 0.  0.
        4    1    3    3  502    0  0.52301128429E+03  0.20641472559E+03  0.65623472869E+03  0.86417213243E+03  0.12699999809E+01 0. -1.
       -4    1    3    3    0  502 -0.52301128429E+03 -0.20641472559E+03 -0.10484774099E+04  0.11897286810E+04  0.12699999809E+01 0.  1.
</event>
<event>
 5   0  0.5866610E-05  0.2115502E+04  0.7818609E-02  0.8554445E-01
       -2   -1    0    0    0  501  0.00000000000E+00  0.00000000000E+00  0.10183550339E+04  0.10183550339E+04  0.25500000920E-02 0.  1.
        2   -1    0    0  501    0  0.00000000000E+00  0.00000000000E+00 -0.10986710215E+04  0.10986710215E+04  0.25500000920E-02 0. -1.
    10030    2    1    2    0    0  0.00000000000E+00  0.00000000000E+00 -0.80315987617E+02  0.21170260554E+04  0.21155019880E+04 0.  0.
        5    1    3    3  502    0 -0.94260822809E+03 -0.12269470890E+03  0.42412755340E+03  0.10408989071E+04  0.46999998093E+01 0. -1.
       -5    1    3    3    0  502  0.94260822809E+03  0.12269470890E+03 -0.50444354102E+03  0.10761271483E+04  0.46999998093E+01 0.  1.
</event>
<event>
 5   0  0.2602060E-05  0.2086882E+04  0.7818609E-02  0.8567044E-01
        1   -1    0    0  501    0  0.00000000000E+00  0.00000000000E+00  0.12119681992E+04  0.12119681992E+04  0.50400001928E-02 0.  1.
       -1   -1    0    0    0  501  0.00000000000E+00  0.00000000000E+00 -0.89834813104E+03  0.89834813105E+03  0.50400001928E-02 0. -1.
    10030    2    1    2    0    0  0.00000000000E+00  0.00000000000E+00  0.31362006816E+03  0.21103163303E+04  0.20868822359E+04 0.  0.
        1    1    3    3  502    0 -0.62964661060E+03 -0.22815315257E+03 -0.65233807483E+03  0.93490838009E+03  0.50400001928E-02 0. -1.
       -1    1    3    3    0  502  0.62964661060E+03  0.22815315257E+03  0.96595814299E+03  0.11754079502E+04  0.50400001928E-02 0.  1.
</event>
<event>
 5   0  0.5506332E-05  0.2103236E+04  0.7818609E-02  0.8559819E-01
        2   -1    0    0  501    0  0.00000000000E+00  0.00000000000E+00  0.12050064467E+04  0.12050064467E+04  0.25500000920E-02 0. -1.
       -2   -1    0    0    0  501  0.00000000000E+00  0.00000000000E+00 -0.91775495039E+03  0.91775495039E+03  0.25500000920E-02 0.  1.
    10030    2    1    2    0    0  0.00000000000E+00  0.00000000000E+00  0.28725149636E+03  0.21227613971E+04  0.21032362033E+04 0.  0.
        3    1    3    3  502    0  0.50441430237E+03 -0.95830827071E+02  0.10699056136E+04  0.11867246387E+04  0.10100000352E+00 0. -1.
       -3    1    3    3    0  502 -0.50441430237E+03  0.95830827071E+02 -0.78265411720E+03  0.93603675848E+03  0.10100000352E+00 0.  1.
</event>
<event>
 5   0  0.5462851E-05  0.2043327E+04  0.7818609E-02  0.8586628E-01
       -2   -1    0    0    0  501  0.00000000000E+00  0.00000000000E+00  0.43851502818E+03  0.43851502819E+03  0.25500000920E-02 0. -1.
        2   -1    0    0  501    0  0.00000000000E+00  0.00000000000E+00 -0.23802974401E+04  0.23802974401E+04  0.25500000920E-02 0.  1.
    10030    2    1    2    0    0  0.00000000000E+00  0.00000000000E+00 -0.19417824119E+04  0.28188124683E+04  0.20433268941E+04 0.  0.
        1    1    3    3  502    0 -0.66877294809E+03 -0.32281032776E+03 -0.29308807426E+01  0.74261184605E+03  0.50400001928E-02 0. -1.
       -1    1    3    3    0  502  0.66877294809E+03  0.32281032776E+03 -0.19388515312E+04  0.20762006223E+04  0.50400001928E-02 0.  1.
</event>
<event>
 5   0  0.5954140E-05  0.2116252E+04  0.7818609E-02  0.8554118E-01
       -2   -1    0    0    0  501  0.00000000000E+00  0.00000000000E+00  0.77957626945E+03  0.77957626946E+03  0.25500000920E-02 0.  1.
        2   -1    0    0  501    0  0.00000000000E+00  0.00000000000E+00 -0.14362044037E+04  0.14362044037E+04  0.25500000920E-02 0. -1.
    10030    2    1    2    0    0  0.00000000000E+00  0.00000000000E+00 -0.65662813428E+03  0.22157806732E+04  0.21162522262E+04 0.  0.
        2    1    3    3  502    0 -0.15260612062E+03  0.18050472644E+02 -0.14244587285E+04  0.14327236708E+04  0.25500000920E-02 0. -1.
       -2    1    3    3    0  502  0.15260612062E+03 -0.18050472644E+02  0.76783059421E+03  0.78305700241E+03  0.25500000920E-02 0.  1.
</event>
<event>
 5   0  0.2699285E-05  0.2000098E+04  0.7818609E-02  0.8606575E-01
        1   -1    0    0  501    0  0.00000000000E+00  0.00000000000E+00  0.13675371156E+04  0.13675371156E+04  0.50400001928E-02 0.  1.
       -1   -1    0    0    0  501  0.00000000000E+00  0.00000000000E+00 -0.73131289661E+03  0.73131289663E+03  0.50400001928E-02 0. -1.
    10030    2    1    2    0    0  0.00000000000E+00  0.00000000000E+00  0.63622421902E+03  0.20988500123E+04  0.20000975269E+04 0.  0.
        2    1    3    3  502    0  0.99412301043E+03  0.10519789431E+03  0.28936668864E+03  0.10407114092E+04  0.25500000920E-02 0. -1.
       -2    1    3    3    0  502 -0.99412301043E+03 -0.10519789431E+03  0.34685753038E+03  0.10581386030E+04  0.25500000920E-02 0.  1.
</event>
<event>
 5   0  0.2789662E-05  0.2106065E+04  0.7818609E-02  0.8558576E-01
        1   -1    0    0  501    0  0.00000000000E+00  0.00000000000E+00  0.22479146366E+04  0.22479146366E+04  0.50400001928E-02 0.  1.
       -1   -1    0    0    0  501  0.00000000000E+00  0.00000000000E+00 -0.49329159963E+03  0.49329159965E+03  0.50400001928E-02 0. -1.
    10030    2    1    2    0    0  0.00000000000E+00  0.00000000000E+00  0.17546230370E+04  0.27412062363E+04  0.21060649629E+04 0.  0.
        4    1    3    3  502    0  0.31690553769E+03 -0.94893132255E+03  0.44961707865E+03  0.10968395074E+04  0.12699999809E+01 0. -1.
       -4    1    3    3    0  502 -0.31690553769E+03  0.94893132255E+03  0.13050059583E+04  0.16443667288E+04  0.12699999809E+01 0.  1.
</event>
<event>
 5   0  0.5866610E-05  0.2094255E+04  0.7818609E-02  0.8563778E-01
       -2   -1    0    0    0  501  0.00000000000E+00  0.00000000000E+00  0.83652351579E+03  0.83652351579E+03  0.25500000920E-02 0.  1.
        2   -1    0    0  501    0  0.00000000000E+00  0.00000000000E+00 -0.13107532445E+04  0.13107532445E+04  0.25500000920E-02 0. -1.
    10030    2    1    2    0    0  0.00000000000E+00  0.00000000000E+00 -0.47422972874E+03  0.21472767603E+04  0.20942549152E+04 0.  0.
        5    1    3    3  502    0 -0.78732051732E+03 -0.26113884431E+03 -0.89234564506E+03  0.12183472138E+04  0.46999998093E+01 0. -1.
       -5    1    3    3    0  502  0.78732051732E+03  0.26113884431E+03  0.41811591632E+03  0.92892954657E+03  0.46999998093E+01 0.  1.
</event>
<event>
 5   0  0.2699285E-05  0.2072925E+04  0.7818609E-02  0.8573265E-01
        1   -1    0    0  501    0  0.00000000000E+00  0.00000000000E+00  0.15285968592E+04  0.15285968592E+04  0.50400001928E-02 0.  1.
       -1   -1    0    0    0  501  0.00000000000E+00  0.00000000000E+00 -0.70277173440E+03  0.70277173442E+03  0.50400001928E-02 0. -1.
    10030    2    1    2    0    0  0.00000000000E+00  0.00000000000E+00  0.82582512475E+03  0.22313685936E+04  0.20729251467E+04 0.  0.
        2    1    3    3  502    0 -0.22133984666E+02  0.96789623156E+03  0.14571153951E+02  0.96825892554E+03  0.25500000920E-02 0.  1.
       -2    1    3    3    0  502  0.22133984666E+02 -0.96789623156E+03  0.81125397080E+03  0.12631096680E+04  0.25500000920E-02 0. -1.
</event>
<event>
 5   0  0.2604390E-05  0.2171477E+04  0.7818609E-02  0.8530395E-01
        1   -1    0    0  501    0  0.00000000000E+00  0.00000000000E+00  0.87610651847E+03  0.87610651849E+03  0.50400001928E-02 0. -1.
       -1   -1    0    0    0  501  0.00000000000E+00  0.00000000000E+00 -0.13455301690E+04  0.13455301690E+04  0.50400001928E-02 0.  1.
    10030    2    1    2    0    0  0.00000000000E+00  0.00000000000E+00 -0.46942365051E+03  0.22216366875E+04  0.21714766882E+04 0.  0.
        5    1    3    3  502    0  0.81301938442E+03  0.38802401712E+03 -0.85471560562E+03  0.12418228593E+04  0.46999998093E+01 0. -1.
       -5    1    3    3    0  502 -0.81301938442E+03 -0.38802401712E+03  0.38529195510E+03  0.97981382822E+03  0.46999998093E+01 0.  1.
</event>
<event>
 5   0  0.2789662E-05  0.2097670E+04  0.7818609E-02  0.8562270E-01
       -1   -1    0    0    0  501  0.00000000000E+00  0.00000000000E+00  0.73737682328E+03  0.73737682330E+03  0.50400001928E-02 0. -1.
        1   -1    0    0  501    0  0.00000000000E+00  0.00000000000E+00 -0.14918489820E+04  0.14918489820E+04  0.50400001928E-02 0.  1.
    10030    2    1    2    0    0  0.00000000000E+00  0.00000000000E+00 -0.75447215872E+03  0.22292258053E+04  0.20976700057E+04 0.  0.
        4    1    3    3  502    0  0.12999187394E+02  0.43419266133E+03 -0.13917595865E+04  0.14579741443E+04  0.12699999809E+01 0.  1.
       -4    1    3    3    0  502 -0.12999187394E+02 -0.43419266133E+03  0.63728742779E+03  0.77125166097E+03  0.12699999809E+01 0. -1.
</event>
<event>
 5   0  0.2732159E-05  0.2105310E+04  0.7818609E-02  0.8558908E-01
       -1   -1    0    0    0  501  0.00000000000E+00  0.00000000000E+00  0.10149193585E+04  0.10149193585E+04  0.50400001928E-02 0. -1.
        1   -1    0    0  501    0  0.00000000000E+00  0.00000000000E+00 -0.10917931851E+04  0.10917931851E+04  0.50400001928E-02 0.  1.
    10030    2    1    2    0    0  0.00000000000E+00  0.00000000000E+00 -0.76873826646E+02  0.21067125436E+04  0.21053095155E+04 0.  0.
        3    1    3    3  502    0 -0.42092947457E+03 -0.13377634542E+03 -0.99458627221E+03  0.10882461101E+04  0.10100000352E+00 0.  1.
       -3    1    3    3    0  502  0.42092947457E+03  0.13377634542E+03  0.91771244556E+03  0.10184664335E+04  0.10100000352E+00 0. -1.
</event>
<event>
 5   0  0.2604390E-05  0.2111081E+04  0.7818609E-02  0.8556378E-01
        1   -1    0    0  501    0  0.00000000000E+00  0.00000000000E+00  0.11816561299E+04  0.11816561300E+04  0.50400001928E-02 0. -1.
       -1   -1    0    0    0  501  0.00000000000E+00  0.00000000000E+00 -0.94288533835E+03  0.94288533837E+03  0.50400001928E-02 0.  1.
    10030    2    1    2    0    0  0.00000000000E+00  0.00000000000E+00  0.23877079159E+03  0.21245414683E+04  0.21110814669E+04 0.  0.
        5    1    3    3  502    0  0.83829615779E+03  0.29091000022E+03  0.69467255422E+03  0.11269255184E+04  0.46999998093E+01 0. -1.
       -5    1    3    3    0  502 -0.83829615779E+03 -0.29091000022E+03 -0.45590176263E+03  0.99761594994E+03  0.46999998093E+01 0.  1.
</event>
<event>
 5   0  0.2602060E-05  0.2106451E+04  0.7818609E-02  0.8558407E-01
       -1   -1    0    0    0  501  0.00000000000E+00  0.00000000000E+00  0.40322976970E+03  0.40322976973E+03  0.50400001928E-02 0. -1.
        1   -1    0    0  501    0  0.00000000000E+00  0.00000000000E+00 -0.27509977820E+04  0.27509977820E+04  0.50400001928E-02 0.  1.
    10030    2    1    2    0    0  0.00000000000E+00  0.00000000000E+00 -0.23477680123E+04  0.31542275517E+04  0.21064512357E+04 0.  0.
        1    1    3    3  502    0 -0.55848947800E+03 -0.30491445095E+03  0.82873700268E+02  0.64167855633E+03  0.50400001928E-02 0. -1.
       -1    1    3    3    0  502  0.55848947800E+03  0.30491445095E+03 -0.24306417125E+04  0.25125489954E+04  0.50400001928E-02 0.  1.
</event>
<event>
 5   0  0.5462851E-05  0.1918482E+04  0.7818609E-02  0.8645711E-01
        2   -1    0    0  501    0  0.00000000000E+00  0.00000000000E+00  0.13275294129E+04  0.13275294129E+04  0.25500000920E-02 0. -1.
       -2   -1    0    0    0  501  0.00000000000E+00  0.00000000000E+00 -0.69312460373E+03  0.69312460373E+03  0.25500000920E-02 0.  1.
    10030    2    1    2    0    0  0.00000000000E+00  0.00000000000E+00  0.63440480917E+03  0.20206540166E+04  0.19184820023E+04 0.  0.
        1    1    3    3  502    0 -0.34679392865E+03  0.16749697668E+03 -0.60811944004E+03  0.71981283645E+03  0.50400001928E-02 0.  1.
       -1    1    3    3    0  502  0.34679392865E+03 -0.16749697668E+03  0.12425242492E+04  0.13008411802E+04  0.50400001928E-02 0. -1.
</event>
<event>
 5   0  0.2602060E-05  0.2098852E+04  0.7818609E-02  0.8561749E-01
        1   -1    0    0  501    0  0.00000000000E+00  0.00000000000E+00  0.13176104902E+04  0.13176104902E+04  0.50400001928E-02 0.  1.
       -1   -1    0    0    0  501  0.00000000000E+00  0.00000000000E+00 -0.83582769898E+03  0.83582769900E+03  0.50400001928E-02 0. -1.
    10030    2    1    2    0    0  0.00000000000E+00  0.00000000000E+00  0.48178279123E+03  0.21534381892E+04  0.20988523952E+04 0.  0.
        1    1    3    3  502    0 -0.71820898749E+03  0.19031225810E+03 -0.51949880324E+03  0.90659909105E+03  0.50400001928E-02 0. -1.
       -1    1    3    3    0  502  0.71820898749E+03 -0.19031225810E+03  0.10012815945E+04  0.12468390982E+04  0.50400001928E-02 0.  1.
</event>
<event>
 5   0  0.5462851E-05  0.2123806E+04  0.7818609E-02  0.8550828E-01
        2   -1    0    0  501    0  0.00000000000E+00  0.00000000000E+00  0.15169745746E+04  0.15169745746E+04  0.25500000920E-02 0. -1.
       -2   -1    0    0    0  501  0.00000000000E+00  0.00000000000E+00 -0.74334697521E+03  0.74334697522E+03  0.25500000920E-02 0.  1.
    10030    2    1    2    0    0  0.00000000000E+00  0.00000000000E+00  0.77362759936E+03  0.22603215498E+04  0.21238064521E+04 0.  0.
        1    1    3    3  502    0  0.85751271201E+03  0.47451381908E+03  0.82192938772E+03  0.12790853506E+04  0.50400001928E-02 0. -1.
       -1    1    3    3    0  502 -0.85751271201E+03 -0.47451381908E+03 -0.48301788368E+02  0.98123619916E+03  0.50400001928E-02 0.  1.
</event>
<event>
 5   0  0.5866610E-05  0.2103276E+04  0.7818609E-02  0.8559802E-01
        2   -1    0    0  501    0  0.00000000000E+00  0.00000000000E+00  0.87004072939E+03  0.87004072939E+03  0.25500000920E-02 0.  1.
       -2   -1    0    0    0  501  0.00000000000E+00  0.00000000000E+00 -0.12711386972E+04  0.12711386972E+04  0.25500000920E-02 0. -1.
    10030    2    1    2    0    0  0.00000000000E+00  0.00000000000E+00 -0.40109796779E+03  0.21411794266E+04  0.21032759584E+04 0.  0.
        5    1    3    3  502    0 -0.16025207986E+03 -0.17699982131E+03 -0.12431690010E+04  0.12658992538E+04  0.46999998093E+01 0. -1.
       -5    1    3    3    0  502  0.16025207986E+03  0.17699982131E+03  0.84207103320E+03  0.87528017274E+03  0.46999998093E+01 0.  1.
</event>
<event>
 5   0  0.2699285E-05  0.2082869E+04  0.7818609E-02  0.8568827E-01
       -1   -1    0    0    0  501  0.00000000000E+00  0.00000000000E+00  0.76614952642E+03  0.76614952644E+03  0.50400001928E-02 0.  1.
        1   -1    0    0  501    0  0.00000000000E+00  0.00000000000E+00 -0.14156326889E+04  0.14156326889E+04  0.50400001928E-02 0. -1.
    10030    2    1    2    0    0  0.00000000000E+00  0.00000000000E+00 -0.64948316251E+03  0.21817822154E+04  0.20828694767E+04 0.  0.
        2    1    3    3  502    0  0.33686112592E+03  0.97898886541E+03 -0.44274896919E+03  0.11260201004E+04  0.25500000920E-02 0.  1.
       -2    1    3    3    0  502 -0.33686112592E+03 -0.97898886541E+03 -0.20673419333E+03  0.10557621150E+04  0.25500000920E-02 0. -1.
</event>
<event>
 5   0  0.2602060E-05  0.2075105E+04  0.7818609E-02  0.8572290E-01
        1   -1    0    0  501    0  0.00000000000E+00  0.00000000000E+00  0.17724956528E+04  0.17724956528E+04  0.50400001928E-02 0. -1.
       -1   -1    0    0    0  501  0.00000000000E+00  0.00000000000E+00 -0.60734433684E+03  0.60734433686E+03  0.50400001928E-02 0.  1.
    10030    2    1    2    0    0  0.00000000000E+00  0.00000000000E+00  0.11651513160E+04  0.23798399897E+04  0.20751050063E+04 0.  0.
        1    1    3    3  502    0  0.69529673520E+03 -0.63607262739E+03  0.10804858130E+04  0.14336929690E+04  0.50400001928E-02 0. -1.
       -1    1    3    3    0  502 -0.69529673520E+03  0.63607262739E+03  0.84665502983E+02  0.94614702066E+03  0.50400001928E-02 0.  1.
</event>
<event>
 5   0  0.5954140E-05  0.2090787E+04  0.7818609E-02  0.8565313E-01
        2   -1    0    0  501    0  0.00000000000E+00  0.00000000000E+00  0.10996803185E+04  0.10996803185E+04  0.25500000920E-02 0.  1.
       -2   -1    0    0    0  501  0.00000000000E+00  0.00000000000E+00 -0.99378669744E+03  0.99378669744E+03  0.25500000920E-02 0. -1.
    10030    2    1    2    0    0  0.00000000000E+00  0.00000000000E+00  0.10589362104E+03  0.20934670159E+04  0.20907870977E+04 0.  0.
        2    1    3    3  502    0 -0.96088121663E+03  0.37432967353E+03  0.22472502332E+03  0.10554225472E+04  0.25500000920E-02 0.  1.
       -2    1    3    3    0  502  0.96088121663E+03 -0.37432967353E+03 -0.11883140228E+03  0.10380444688E+04  0.25500000920E-02 0. -1.
</event>
<event>
 5   0  0.2732159E-05  0.2087996E+04  0.7818609E-02  0.8566550E-01
        1   -1    0    0  501    0  0.00000000000E+00  0.00000000000E+00  0.66872858376E+03  0.66872858378E+03  0.50400001928E-02 0. -1.
       -1   -1    0    0    0  501  0.00000000000E+00  0.00000000000E+00 -0.16298560608E+04  0.16298560608E+04  0.50400001928E-02 0.  1.
    10030    2    1    2    0    0  0.00000000000E+00  0.00000000000E+00 -0.96112747706E+03  0.22985846446E+04  0.20879955319E+04 0.  0.
        3    1    3    3  502    0  0.50416986769E+03 -0.79498198056E+03 -0.97747325614E+03  0.13570694830E+04  0.10100000352E+00 0.  1.
       -3    1    3    3    0  502 -0.50416986769E+03  0.79498198056E+03  0.16345779083E+02  0.94151516164E+03  0.10100000352E+00 0. -1.
</event>
<event>
 5   0  0.2732159E-05  0.2091715E+04  0.7818609E-02  0.8564902E-01
        1   -1    0    0  501    0  0.00000000000E+00  0.00000000000E+00  0.13748381421E+04  0.13748381421E+04  0.50400001928E-02 0. -1.
       -1   -1    0    0    0  501  0.00000000000E+00  0.00000000000E+00 -0.79559790030E+03  0.79559790032E+03  0.50400001928E-02 0.  1.
    10030    2    1    2    0    0  0.00000000000E+00  0.00000000000E+00  0.57924024176E+03  0.21704360424E+04  0.20917154100E+04 0.  0.
        3    1    3    3  502    0 -0.95686790194E+03  0.35144044553E+03  0.53232848394E+03  0.11499913885E+04  0.10100000352E+00 0. -1.
       -3    1    3    3    0  502  0.95686790194E+03 -0.35144044553E+03  0.46911757823E+02  0.10204446539E+04  0.10100000352E+00 0.  1.
</event>
<event>
 5   0  0.5954140E-05  0.2103031E+04  0.7818609E-02  0.8559909E-01
        2   -1    0    0  501    0  0.00000000000E+00  0.00000000000E+00  0.18551857747E+04  0.18551857747E+04  0.25500000920E-02 0.  1.
       -2   -1    0    0    0  501  0.00000000000E+00  0.00000000000E+00 -0.59599670701E+03  0.59599670702E+03  0.25500000920E-02 0. -1.
    10030    2    1    2    0    0  0.00000000000E+00  0.00000000000E+00  0.12591890677E+04  0.24511824818E+04  0.21030307774E+04 0.  0.
        2    1    3    3  502    0 -0.37626898135E+02 -0.10456537757E+04  0.50803618514E+03  0.11631458926E+04  0.25500000920E-02 0. -1.
       -2    1    3    3    0  502  0.37626898135E+02  0.10456537757E+04  0.75115288259E+03  0.12880365892E+04  0.25500000920E-02 0.  1.
</event>
<event>
 5   0  0.2604390E-05  0.2105135E+04  0.7818609E-02  0.8558985E-01
        1   -1    0    0  501    0  0.00000000000E+00  0.00000000000E+00  0.26234796018E+04  0.26234796018E+04  0.50400001928E-02 0. -1.
       -1   -1    0    0    0  501  0.00000000000E+00  0.00000000000E+00 -0.42230125983E+03  0.42230125986E+03  0.50400001928E-02 0.  1.
    10030    2    1    2    0    0  0.00000000000E+00  0.00000000000E+00  0.22011783420E+04  0.30457808616E+04  0.21051353790E+04 0.  0.
        5    1    3    3  502    0  0.20100216258E+03 -0.10157758882E+04  0.82731706874E+03  0.13253973543E+04  0.46999998093E+01 0.  1.
       -5    1    3    3    0  502 -0.20100216258E+03  0.10157758882E+04  0.13738612732E+04  0.17203835074E+04  0.46999998093E+01 0. -1.
</event>
<event>
 5   0  0.5506332E-05  0.2092384E+04  0.7818609E-02  0.8564606E-01
       -2   -1    0    0    0  501  0.00000000000E+00  0.00000000000E+00  0.72487203783E+03  0.72487203784E+03  0.25500000920E-02 0.  1.
        2   -1    0    0  501    0  0.00000000000E+00  0.00000000000E+00 -0.15099459048E+04  0.15099459048E+04  0.25500000920E-02 0. -1.
    10030    2    1    2    0    0  0.00000000000E+00  0.00000000000E+00 -0.78507386699E+03  0.22348179427E+04  0.20923838702E+04 0.  0.
        3    1    3    3  502    0  0.26388207716E+03  0.72597414681E+03  0.36107542223E+03  0.85267091145E+03  0.10100000352E+00 0.  1.
       -3    1    3    3    0  502 -0.26388207716E+03 -0.72597414681E+03 -0.11461492892E+04  0.13821470312E+04  0.10100000352E+00 0. -1.
</event>
<event>
 5   0  0.5506332E-05  0.2082239E+04  0.7818609E-02  0.8569108E-01
       -2   -1    0    0    0  501  0.00000000000E+00  0.00000000000E+00  0.12695909466E+04  0.12695909466E+04  0.25500000920E-02 0.  1.
        2   -1    0    0  501    0  0.00000000000E+00  0.00000000000E+00 -0.85376286790E+03  0.85376286791E+03  0.25500000920E-02 0. -1.
    10030    2    1    2    0    0  0.00000000000E+00  0.00000000000E+00  0.41582807872E+03  0.21233538145E+04  0.20822388025E+04 0.  0.
        3    1    3    3  502    0  0.57779444189E+03  0.17457665506E+03 -0.65713209787E+03  0.89227015518E+03  0.10100000352E+00 0. -1.
       -3    1    3    3    0  502 -0.57779444189E+03 -0.17457665506E+03  0.10729601766E+04  0.12310836593E+04  0.10100000352E+00 0.  1.
</event>
<event>
 5   0  0.5954140E-05  0.2083686E+04  0.7818609E-02  0.8568464E-01
       -2   -1    0    0    0  501  0.00000000000E+00  0.00000000000E+00  0.13990424955E+04  0.13990424955E+04  0.25500000920E-02 0. -1.
        2   -1    0    0  501    0  0.00000000000E+00  0.00000000000E+00 -0.77584271821E+03  0.77584271821E+03  0.25500000920E-02 0.  1.
    10030    2    1    2    0    0  0.00000000000E+00  0.00000000000E+00  0.62319977726E+03  0.21748852137E+04  0.20836860921E+04 0.  0.
        2    1    3    3  502    0 -0.90450303486E+03  0.30569812795E+03 -0.12361495015E+03  0.96273451242E+03  0.25500000920E-02 0.  1.
       -2    1    3    3    0  502  0.90450303486E+03 -0.30569812795E+03  0.74681472741E+03  0.12121507013E+04  0.25500000920E-02 0. -1.
</event>
<event>
 5   0  0.2789662E-05  0.2143995E+04  0.7818609E-02  0.8542107E-01
       -1   -1    0    0    0  501  0.00000000000E+00  0.00000000000E+00  0.52446522921E+03  0.52446522923E+03  0.50400001928E-02 0. -1.
        1   -1    0    0  501    0  0.00000000000E+00  0.00000000000E+00 -0.21911438006E+04  0.21911438006E+04  0.50400001928E-02 0.  1.
    10030    2    1    2    0    0  0.00000000000E+00  0.00000000000E+00 -0.16666785714E+04  0.27156090298E+04  0.21439950892E+04 0.  0.
        4    1    3    3  502    0  0.32431017719E+03 -0.45351050279E+03 -0.19930522441E+04  0.20695670387E+04  0.12699999809E+01 0.  1.
       -4    1    3    3    0  502 -0.32431017719E+03  0.45351050279E+03  0.32637367269E+03  0.64604199113E+03  0.12699999809E+01 0. -1.
</event>
<event>
 5   0  0.5462851E-05  0.2100147E+04  0.7818609E-02  0.8561179E-01
       -2   -1    0    0    0  501  0.00000000000E+00  0.00000000000E+00  0.48795404164E+03  0.48795404164E+03  0.25500000920E-02 0. -1.
        2   -1    0    0  501    0  0.00000000000E+00  0.00000000000E+00 -0.22597504876E+04  0.22597504876E+04  0.25500000920E-02 0.  1.
    10030    2    1    2    0    0  0.00000000000E+00  0.00000000000E+00 -0.17717964459E+04  0.27477045292E+04  0.21001470268E+04 0.  0.
        1    1    3    3  502    0 -0.62494089143E+03  0.53085356695E+03 -0.17441305528E+04  0.19272643858E+04  0.50400001928E-02 0.  1.
       -1    1    3    3    0  502  0.62494089143E+03 -0.53085356695E+03 -0.27665893121E+02  0.82044014346E+03  0.50400001928E-02 0. -1.
</event>
<event>
 5   0  0.5954140E-05  0.2077341E+04  0.7818609E-02  0.8571291E-01
       -2   -1    0    0    0  501  0.00000000000E+00  0.00000000000E+00  0.62668661957E+03  0.62668661957E+03  0.25500000920E-02 0.  1.
        2   -1    0    0  501    0  0.00000000000E+00  0.00000000000E+00 -0.17214923094E+04  0.17214923094E+04  0.25500000920E-02 0. -1.
    10030    2    1    2    0    0  0.00000000000E+00  0.00000000000E+00 -0.10948056899E+04  0.23481789290E+04  0.20773407963E+04 0.  0.
        2    1    3    3  502    0  0.86034088958E+02  0.51914602666E+03 -0.15596566750E+04  0.16460387010E+04  0.25500000920E-02 0. -1.
       -2    1    3    3    0  502 -0.86034088958E+02 -0.51914602666E+03  0.46485098508E+03  0.70214022802E+03  0.25500000920E-02 0.  1.
</event>
<event>
 5   0  0.5462851E-05  0.2116664E+04  0.7818609E-02  0.8553938E-01
        2   -1    0    0  501    0  0.00000000000E+00  0.00000000000E+00  0.15315282257E+04  0.15315282257E+04  0.25500000920E-02 0.  1.
       -2   -1    0    0    0  501  0.00000000000E+00  0.00000000000E+00 -0.73133912862E+03  0.73133912863E+03  0.25500000920E-02 0. -1.
    10030    2    1    2    0    0  0.00000000000E+00  0.00000000000E+00  0.80018909708E+03  0.22628673543E+04  0.21166639016E+04 0.  0.
        1    1    3    3  502    0 -0.22679305730E+03  0.23129625263E+03 -0.67703705268E+03  0.75054128338E+03  0.50400001928E-02 0. -1.
       -1    1    3    3    0  502  0.22679305730E+03 -0.23129625263E+03  0.14772261498E+04  0.15123260710E+04  0.50400001928E-02 0.  1.
</event>
<event>
 5   0  0.5506332E-05  0.2104592E+04  0.7818609E-02  0.8559223E-01
        2   -1    0    0  501    0  0.00000000000E+00  0.00000000000E+00  0.53591028152E+03  0.53591028152E+03  0.25500000920E-02 0.  1.
       -2   -1    0    0    0  501  0.00000000000E+00  0.00000000000E+00 -0.20662539577E+04  0.20662539577E+04  0.25500000920E-02 0. -1.
    10030    2    1    2    0    0  0.00000000000E+00  0.00000000000E+00 -0.15303436762E+04  0.26021642392E+04  0.21045918751E+04 0.  0.
        3    1    3    3  502    0  0.43898368852E+03 -0.27890067526E+03  0.36589063595E+03  0.63589954642E+03  0.10100000352E+00 0.  1.
       -3    1    3    3    0  502 -0.43898368852E+03  0.27890067526E+03 -0.18962343121E+04  0.19662646928E+04  0.10100000352E+00 0. -1.
</event>
<event>
 5   0  0.2699285E-05  0.2110266E+04  0.7818609E-02  0.8556735E-01
       -1   -1    0    0    0  501  0.00000000000E+00  0.00000000000E+00  0.19497344057E+04  0.19497344057E+04  0.50400001928E-02 0.  1.
        1   -1    0    0  501    0  0.00000000000E+00  0.00000000000E+00 -0.57100360569E+03  0.57100360572E+03  0.50400001928E-02 0. -1.
    10030    2    1    2    0    0  0.00000000000E+00  0.00000000000E+00  0.13787308000E+04  0.25207380114E+04  0.21102657424E+04 0.  0.
        2    1    3    3  502    0 -0.76654394305E+03  0.65815048256E+03  0.10527675210E+04  0.14591336908E+04  0.25500000920E-02 0.  1.
       -2    1    3    3    0  502  0.76654394305E+03 -0.65815048256E+03  0.32596327903E+03  0.10616043206E+04  0.25500000920E-02 0. -1.
</event>
<event>
 5   0  0.5506332E-05  0.2099453E+04  0.7818609E-02  0.8561484E-01
        2   -1    0    0  501    0  0.00000000000E+00  0.00000000000E+00  0.10156750764E+04  0.10156750764E+04  0.25500000920E-02 0.  1.
       -2   -1    0    0    0  501  0.00000000000E+00  0.00000000000E+00 -0.10849199687E+04  0.10849199687E+04  0.25500000920E-02 0. -1.
    10030    2    1    2    0    0  0.00000000000E+00  0.00000000000E+00 -0.69244892296E+02  0.21005950451E+04  0.20994534261E+04 0.  0.
        3    1    3    3  502    0 -0.25315562803E+02  0.81763340927E+02  0.10121778139E+04  0.10157903616E+04  0.10100000352E+00 0.  1.
       -3    1    3    3    0  502  0.25315562803E+02 -0.81763340927E+02 -0.10814227062E+04  0.10848046835E+04  0.10100000352E+00 0. -1.
</event>
<event>
 5   0  0.5967046E-05  0.2099314E+04  0.7818609E-02  0.8561545E-01
        2   -1    0    0  501    0  0.00000000000E+00  0.00000000000E+00  0.13188020309E+04  0.13188020309E+04  0.25500000920E-02 0.  1.
       -2   -1    0    0    0  501  0.00000000000E+00  0.00000000000E+00 -0.83544015972E+03  0.83544015972E+03  0.25500000920E-02 0. -1.
    10030    2    1    2    0    0  0.00000000000E+00  0.00000000000E+00  0.48336187113E+03  0.21542421906E+04  0.20993143445E+04 0.  0.
        4    1    3    3  502    0  0.92279561056E+03  0.17776656721E+03 -0.23812745062E+03  0.96946324681E+03  0.12699999809E+01 0. -1.
       -4    1    3    3    0  502 -0.92279561056E+03 -0.17776656721E+03  0.72148932175E+03  0.11847789438E+04  0.12699999809E+01 0.  1.
</event>
<event>
 5   0  0.2602060E-05  0.2146938E+04  0.7818609E-02  0.8540844E-01
        1   -1    0    0  501    0  0.00000000000E+00  0.00000000000E+00  0.11241434820E+04  0.11241434820E+04  0.50400001928E-02 0. -1.
       -1   -1    0    0    0  501  0.00000000000E+00  0.00000000000E+00 -0.10250792553E+04  0.10250792553E+04  0.50400001928E-02 0.  1.
    10030    2    1    2    0    0  0.00000000000E+00  0.00000000000E+00  0.99064226754E+02  0.21492227373E+04  0.21469384373E+04 0.  0.
        1    1    3    3  502    0 -0.88553272555E+03 -0.56566861706E+03  0.26928098255E+03  0.10847402638E+04  0.50400001928E-02 0.  1.
       -1    1    3    3    0  502  0.88553272555E+03  0.56566861706E+03 -0.17021675579E+03  0.10644824735E+04  0.50400001928E-02 0. -1.
</event>
<event>
 5   0  0.2699285E-05  0.2102110E+04  0.7818609E-02  0.8560315E-01
        1   -1    0    0  501    0  0.00000000000E+00  0.00000000000E+00  0.21950108016E+04  0.21950108016E+04  0.50400001928E-02 0. -1.
       -1   -1    0    0    0  501  0.00000000000E+00  0.00000000000E+00 -0.50328509075E+03  0.50328509077E+03  0.50400001928E-02 0.  1.
    10030    2    1    2    0    0  0.00000000000E+00  0.00000000000E+00  0.16917257109E+04  0.26982958924E+04  0.21021096171E+04 0.  0.
        2    1    3    3  502    0  0.71298376696E+03 -0.55577234947E+03  0.15761690993E+03  0.91764472793E+03  0.25500000920E-02 0.  1.
       -2    1    3    3    0  502 -0.71298376696E+03  0.55577234947E+03  0.15341088010E+04  0.17806511645E+04  0.25500000920E-02 0. -1.
</event>
<event>
 5   0  0.2604390E-05  0.2103365E+04  0.7818609E-02  0.8559762E-01
        1   -1    0    0  501    0  0.00000000000E+00  0.00000000000E+00  0.16156278700E+04  0.16156278700E+04  0.50400001928E-02 0. -1.
       -1   -1    0    0    0  501  0.00000000000E+00  0.00000000000E+00 -0.68458593383E+03  0.68458593385E+03  0.50400001928E-02 0.  1.
    10030    2    1    2    0    0  0.00000000000E+00  0.00000000000E+00  0.93104193616E+03  0.23002138039E+04  0.21033650317E+04 0.  0.
        5    1    3    3  502    0  0.29167253270E+02  0.82162051509E+03  0.11827201809E+04  0.14404027616E+04  0.46999998093E+01 0. -1.
       -5    1    3    3    0  502 -0.29167253270E+02 -0.82162051509E+03 -0.25167824470E+03  0.85981104223E+03  0.46999998093E+01 0.  1.
</event>
<event>
 5   0  0.2732159E-05  0.2101267E+04  0.7818609E-02  0.8560685E-01
       -1   -1    0    0    0  501  0.00000000000E+00  0.00000000000E+00  0.13019050043E+04  0.13019050043E+04  0.50400001928E-02 0. -1.
        1   -1    0    0  501    0  0.00000000000E+00  0.00000000000E+00 -0.84785851563E+03  0.84785851564E+03  0.50400001928E-02 0.  1.
    10030    2    1    2    0    0  0.00000000000E+00  0.00000000000E+00  0.45404648864E+03  0.21497635199E+04  0.21012674693E+04 0.  0.
        3    1    3    3  502    0 -0.10417813358E+02 -0.81204362187E+02  0.12986365840E+04  0.13012146889E+04  0.10100000352E+00 0. -1.
       -3    1    3    3    0  502  0.10417813358E+02  0.81204362187E+02 -0.84459009532E+03  0.84854883099E+03  0.10100000352E+00 0.  1.
</event>
<event>
 5   0  0.5967046E-05  0.2090647E+04  0.7818609E-02  0.8565375E-01
        2   -1    0    0  501    0  0.00000000000E+00  0.00000000000E+00  0.18565729162E+04  0.18565729162E+04  0.25500000920E-02 0. -1.
       -2   -1    0    0    0  501  0.00000000000E+00  0.00000000000E+00 -0.58855797417E+03  0.58855797417E+03  0.25500000920E-02 0.  1.
    10030    2    1    2    0    0  0.00000000000E+00  0.00000000000E+00  0.12680149420E+04  0.24451308903E+04  0.20906465932E+04 0.  0.
        4    1    3    3  502    0 -0.58353798857E+02  0.96418079991E+03  0.16669740748E+03  0.98022416789E+03  0.12699999809E+01 0. -1.
       -4    1    3    3    0  502  0.58353798857E+02 -0.96418079991E+03  0.11013175345E+04  0.14649067224E+04  0.12699999809E+01 0.  1.
</event>
<event>
 5   0  0.2602060E-05  0.2098505E+04  0.7818609E-02  0.8561902E-01
       -1   -1    0    0    0  501  0.00000000000E+00  0.00000000000E+00  0.86962387174E+03  0.86962387175E+03  0.50400001928E-02 0.  1.
        1   -1    0    0  501    0  0.00000000000E+00  0.00000000000E+00 -0.12659855486E+04  0.12659855486E+04  0.50400001928E-02 0. -1.
    10030    2    1    2    0    0  0.00000000000E+00  0.00000000000E+00 -0.39636167687E+03  0.21356094204E+04  0.20985054247E+04 0.  0.
        1    1    3    3  502    0 -0.39098677650E+03  0.23426128381E+03 -0.11599741943E+04  0.12463102102E+04  0.50400001928E-02 0. -1.
       -1    1    3    3    0  502  0.39098677650E+03 -0.23426128381E+03  0.76361251742E+03  0.88929921021E+03  0.50400001928E-02 0.  1.
</event>
<event>
 5   0  0.5866610E-05  0.2119889E+04  0.7818609E-02  0.8552533E-01
        2   -1    0    0  501    0  0.00000000000E+00  0.00000000000E+00  0.12671257894E+04  0.12671257894E+04  0.25500000920E-02 0. -1.
       -2   -1    0    0    0  501  0.00000000000E+00  0.00000000000E+00 -0.88663811794E+03  0.88663811794E+03  0.25500000920E-02 0.  1.
    10030    2    1    2    0    0  0.00000000000E+00  0.00000000000E+00  0.38048767149E+03  0.21537639074E+04  0.21198887000E+04 0.  0.
        5    1    3    3  502    0  0.10128589216E+04 -0.24548302513E+03  0.38650109799E+03  0.11115531024E+04  0.46999998093E+01 0. -1.
       -5    1    3    3    0  502 -0.10128589216E+04  0.24548302513E+03 -0.60134265048E+01  0.10422108050E+04  0.46999998093E+01 0.  1.
</event>
<event>
 5   0  0.5866610E-05  0.2161725E+04  0.7818609E-02  0.8534530E-01
        2   -1    0    0  501    0  0.00000000000E+00  0.00000000000E+00  0.15078970248E+04  0.15078970248E+04  0.25500000920E-02 0.  1.
       -2   -1    0    0    0  501  0.00000000000E+00  0.00000000000E+00 -0.77476367858E+03  0.77476367858E+03  0.25500000920E-02 0. -1.
    10030    2    1    2    0    0  0.00000000000E+00  0.00000000000E+00  0.73313334627E+03  0.22826607034E+04  0.21617250944E+04 0.  0.
        5    1    3    3  502    0 -0.77132910964E+03  0.31319862572E+03  0.10944789000E+04  0.13751174958E+04  0.46999998093E+01 0.  1.
       -5    1    3    3    0  502  0.77132910964E+03 -0.31319862572E+03 -0.36134555378E+03  0.90754320766E+03  0.46999998093E+01 0. -1.
</event>
<event>
 5   0  0.5866610E-05  0.2096517E+04  0.7818609E-02  0.8562779E-01
        2   -1    0    0  501    0  0.00000000000E+00  0.00000000000E+00  0.89176880834E+03  0.89176880834E+03  0.25500000920E-02 0. -1.
       -2   -1    0    0    0  501  0.00000000000E+00  0.00000000000E+00 -0.12322096612E+04  0.12322096612E+04  0.25500000920E-02 0.  1.
    10030    2    1    2    0    0  0.00000000000E+00  0.00000000000E+00 -0.34044085289E+03  0.21239784696E+04  0.20965172465E+04 0.  0.
        5    1    3    3  502    0  0.37150463498E+03 -0.24340760553E+03  0.79172238133E+03  0.90780470109E+03  0.46999998093E+01 0. -1.
       -5    1    3    3    0  502 -0.37150463498E+03  0.24340760553E+03 -0.11321632342E+04  0.12161737685E+04  0.46999998093E+01 0.  1.
</event>
<event>
 5   0  0.5954140E-05  0.2121712E+04  0.7818609E-02  0.8551739E-01
       -2   -1    0    0    0  501  0.00000000000E+00  0.00000000000E+00  0.55580048423E+03  0.55580048424E+03  0.25500000920E-02 0.  1.
        2   -1    0    0  501    0  0.00000000000E+00  0.00000000000E+00 -0.20248557543E+04  0.20248557543E+04  0.25500000920E-02 0. -1.
    10030    2    1    2    0    0  0.00000000000E+00  0.00000000000E+00 -0.14690552701E+04  0.25806562385E+04  0.21217123356E+04 0.  0.
        2    1    3    3  502    0  0.19225630560E+03  0.16236863871E+02  0.53428051203E+03  0.56805086773E+03  0.25500000920E-02 0.  1.
       -2    1    3    3    0  502 -0.19225630560E+03 -0.16236863871E+02 -0.20033357821E+04  0.20126053708E+04  0.25500000920E-02 0. -1.
</event>
<event>
 5   0  0.2789662E-05  0.2104102E+04  0.7818609E-02  0.8559439E-01
        1   -1    0    0  501    0  0.00000000000E+00  0.00000000000E+00  0.96624216317E+03  0.96624216319E+03  0.50400001928E-02 0.  1.
       -1   -1    0    0    0  501  0.00000000000E+00  0.00000000000E+00 -0.11454800703E+04  0.11454800703E+04  0.50400001928E-02 0. -1.
    10030    2    1    2    0    0  0.00000000000E+00  0.00000000000E+00 -0.17923790709E+03  0.21117222335E+04  0.21041018426E+04 0.  0.
        4    1    3    3  502    0  0.72245865155E+02  0.86709986493E+03 -0.68313869370E+03  0.11062376456E+04  0.12699999809E+01 0. -1.
       -4    1    3    3    0  502 -0.72245865155E+02 -0.86709986493E+03  0.50390078661E+03  0.10054845879E+04  0.12699999809E+01 0.  1.
</event>
<event>
 5   0  0.5462851E-05  0.2119639E+04  0.7818609E-02  0.8552641E-01
       -2   -1    0    0    0  501  0.00000000000E+00  0.00000000000E+00  0.11276882443E+04  0.11276882444E+04  0.25500000920E-02 0. -1.
        2   -1    0    0  501    0  0.00000000000E+00  0.00000000000E+00 -0.99603532430E+03  0.99603532430E+03  0.25500000920E-02 0.  1.
    10030    2    1    2    0    0  0.00000000000E+00  0.00000000000E+00  0.13165292005E+03  0.21237235687E+04  0.21196389562E+04 0.  0.
        1    1    3    3  502    0  0.93033064620E+03 -0.48537065497E+03  0.21483272414E+03  0.10710989139E+04  0.50400001928E-02 0. -1.
       -1    1    3    3    0  502 -0.93033064620E+03  0.48537065497E+03 -0.83179804088E+02  0.10526246548E+04  0.50400001928E-02 0.  1.
</event>
<event>
 5   0  0.5866610E-05  0.2102033E+04  0.7818609E-02  0.8560348E-01
       -2   -1    0    0    0  501  0.00000000000E+00  0.00000000000E+00  0.90504180274E+03  0.90504180274E+03  0.25500000920E-02 0. -1.
        2   -1    0    0  501    0  0.00000000000E+00  0.00000000000E+00 -0.12205353208E+04  0.12205353208E+04  0.25500000920E-02 0.  1.
    10030    2    1    2    0    0  0.00000000000E+00  0.00000000000E+00 -0.31549351803E+03  0.21255771235E+04  0.21020328133E+04 0.  0.
        5    1    3    3  502    0  0.87693619066E+03 -0.11256902568E+03 -0.73237622694E+03  0.11480792202E+04  0.46999998093E+01 0.  1.
       -5    1    3    3    0  502 -0.87693619066E+03  0.11256902568E+03  0.41688270891E+03  0.97749790333E+03  0.46999998093E+01 0. -1.
</event>
<event>
 5   0  0.5967046E-05  0.2135726E+04  0.7818609E-02  0.8545667E-01
        2   -1    0    0  501    0  0.00000000000E+00  0.00000000000E+00  0.24526893761E+04  0.24526893761E+04  0.25500000920E-02 0. -1.
       -2   -1    0    0    0  501  0.00000000000E+00  0.00000000000E+00 -0.46493086905E+03  0.46493086905E+03  0.25500000920E-02 0.  1.
    10030    2    1    2    0    0  0.00000000000E+00  0.00000000000E+00  0.19877585071E+04  0.29176202452E+04  0.21357256408E+04 0.  0.
        4    1    3    3  502    0  0.15130429215E+03 -0.71400001293E+03 -0.71015326372E+02  0.73330334567E+03  0.12699999809E+01 0.  1.
       -4    1    3    3    0  502 -0.15130429215E+03  0.71400001293E+03  0.20587738335E+04  0.21843168995E+04  0.12699999809E+01 0. -1.
</event>
<event>
 5   0  0.5506332E-05  0.2114602E+04  0.7818609E-02  0.8554838E-01
        2   -1    0    0  501    0  0.00000000000E+00  0.00000000000E+00  0.20846093764E+04  0.20846093764E+04  0.25500000920E-02 0. -1.
       -2   -1    0    0    0  501  0.00000000000E+00  0.00000000000E+00 -0.53625642125E+03  0.53625642126E+03  0.25500000920E-02 0.  1.
    10030    2    1    2    0    0  0.00000000000E+00  0.00000000000E+00  0.15483529551E+04  0.26208657977E+04  0.21146017724E+04 0.  0.
        3    1    3    3  502    0 -0.82635567852E+03 -0.46903125355E+03  0.19944251767E+03  0.97089203946E+03  0.10100000352E+00 0.  1.
       -3    1    3    3    0  502  0.82635567852E+03  0.46903125355E+03  0.13489104375E+04  0.16499737582E+04  0.10100000352E+00 0. -1.
</event>
<event>
 5   0  0.5866610E-05  0.2110622E+04  0.7818609E-02  0.8556579E-01
        2   -1    0    0  501    0  0.00000000000E+00  0.00000000000E+00  0.19482147046E+04  0.19482147046E+04  0.25500000920E-02 0.  1.
       -2   -1    0    0    0  501  0.00000000000E+00  0.00000000000E+00 -0.57164216116E+03  0.57164216117E+03  0.25500000920E-02 0. -1.
    10030    2    1    2    0    0  0.00000000000E+00  0.00000000000E+00  0.13765725435E+04  0.25198568658E+04  0.21106223387E+04 0.  0.
        5    1    3    3  502    0  0.40589158160E+03 -0.79467387806E+03  0.15662454211E+02  0.89248078464E+03  0.46999998093E+01 0. -1.
       -5    1    3    3    0  502 -0.40589158160E+03  0.79467387806E+03  0.13609100893E+04  0.16273760812E+04  0.46999998093E+01 0.  1.
</event>
<event>
 5   0  0.2789662E-05  0.2126433E+04  0.7818609E-02  0.8549688E-01
        1   -1    0    0  501    0  0.00000000000E+00  0.00000000000E+00  0.10308748130E+04  0.10308748130E+04  0.50400001928E-02 0. -1.
       -1   -1    0    0    0  501  0.00000000000E+00  0.00000000000E+00 -0.10965726965E+04  0.10965726965E+04  0.50400001928E-02 0.  1.
    10030    2    1    2    0    0  0.00000000000E+00  0.00000000000E+00 -0.65697883526E+02  0.21274475096E+04  0.21264328567E+04 0.  0.
        4    1    3    3  502    0 -0.16784195450E+03  0.82669236872E+03 -0.68033343373E+03  0.10837187772E+04  0.12699999809E+01 0.  1.
       -4    1    3    3    0  502  0.16784195450E+03 -0.82669236872E+03  0.61463555021E+03  0.10437287323E+04  0.12699999809E+01 0. -1.
</event>
<event>
 5   0  0.2732159E-05  0.2092938E+04  0.7818609E-02  0.8564361E-01
        1   -1    0    0  501    0  0.00000000000E+00  0.00000000000E+00  0.93385774456E+03  0.93385774457E+03  0.50400001928E-02 0.  1.
       -1   -1    0    0    0  501  0.00000000000E+00  0.00000000000E+00 -0.11726591671E+04  0.11726591671E+04  0.50400001928E-02 0. -1.
    10030    2    1    2    0    0  0.00000000000E+00  0.00000000000E+00 -0.23880142257E+03  0.21065169117E+04  0.20929375002E+04 0.  0.
        3    1    3    3  502    0  0.12109537631E+03  0.98196300872E+03 -0.46246616105E+03  0.10921494408E+04  0.10100000352E+00 0. -1.
       -3    1    3    3    0  502 -0.12109537631E+03 -0.98196300872E+03  0.22366473848E+03  0.10143674709E+04  0.10100000352E+00 0.  1.
</event>
<event>
 5   0  0.2604390E-05  0.2100298E+04  0.7818609E-02  0.8561112E-01
       -1   -1    0    0    0  501  0.00000000000E+00  0.00000000000E+00  0.94797614769E+03  0.94797614770E+03  0.50400001928E-02 0. -1.
        1   -1    0    0  501    0  0.00000000000E+00  0.00000000000E+00 -0.11633340527E+04  0.11633340527E+04  0.50400001928E-02 0.  1.
    10030    2    1    2    0    0  0.00000000000E+00  0.00000000000E+00 -0.21535790498E+03  0.21113102004E+04  0.21002980110E+04 0.  0.
        5    1    3    3  502    0  0.82415071712E+03  0.40433708333E+03 -0.62033124250E+03  0.11079466693E+04  0.46999998093E+01 0.  1.
       -5    1    3    3    0  502 -0.82415071712E+03 -0.40433708333E+03  0.40497333752E+03  0.10033635311E+04  0.46999998093E+01 0. -1.
</event>
<event>
 5   0  0.5462851E-05  0.2111991E+04  0.7818609E-02  0.8555979E-01
       -2   -1    0    0    0  501  0.00000000000E+00  0.00000000000E+00  0.11600354821E+04  0.11600354821E+04  0.25500000920E-02 0. -1.
        2   -1    0    0  501    0  0.00000000000E+00  0.00000000000E+00 -0.96128689171E+03  0.96128689171E+03  0.25500000920E-02 0.  1.
    10030    2    1    2    0    0  0.00000000000E+00  0.00000000000E+00  0.19874859039E+03  0.21213223738E+04  0.21119913853E+04 0.  0.
        1    1    3    3  502    0 -0.10481216872E+03  0.86619772645E+03  0.69684926818E+03  0.11166391515E+04  0.50400001928E-02 0. -1.
       -1    1    3    3    0  502  0.10481216872E+03 -0.86619772645E+03 -0.49810067778E+03  0.10046832223E+04  0.50400001928E-02 0.  1.
</event>
<event>
 5   0  0.5866610E-05  0.2095210E+04  0.7818609E-02  0.8563356E-01
       -2   -1    0    0    0  501  0.00000000000E+00  0.00000000000E+00  0.18085804060E+04  0.18085804060E+04  0.25500000920E-02 0. -1.
        2   -1    0    0  501    0  0.00000000000E+00  0.00000000000E+00 -0.60681626681E+03  0.60681626682E+03  0.25500000920E-02 0.  1.
    10030    2    1    2    0    0  0.00000000000E+00  0.00000000000E+00  0.12017641391E+04  0.24153966728E+04  0.20952097844E+04 0.  0.
        5    1    3    3  502    0  0.79388815048E+03 -0.12295556769E+03 -0.17423513025E+03  0.82204406068E+03  0.46999998093E+01 0.  1.
       -5    1    3    3    0  502 -0.79388815048E+03  0.12295556769E+03  0.13759992694E+04  0.15933526121E+04  0.46999998093E+01 0. -1.
</event>
<event>
 5   0  0.2604390E-05  0.2076099E+04  0.7818609E-02  0.8571846E-01
        1   -1    0    0  501    0  0.00000000000E+00  0.00000000000E+00  0.13689363965E+04  0.13689363965E+04  0.50400001928E-02 0.  1.
       -1   -1    0    0    0  501  0.00000000000E+00  0.00000000000E+00 -0.78714125469E+03  0.78714125470E+03  0.50400001928E-02 0. -1.
    10030    2    1    2    0    0  0.00000000000E+00  0.00000000000E+00  0.58179514184E+03  0.21560776512E+04  0.20760985649E+04 0.  0.
        5    1    3    3  502    0  0.92705576961E+03  0.45912922924E+03  0.37958150114E+03  0.11019692623E+04  0.46999998093E+01 0.  1.
       -5    1    3    3    0  502 -0.92705576961E+03 -0.45912922924E+03  0.20221364070E+03  0.10541083889E+04  0.46999998093E+01 0. -1.
</event>
<event>
 5   0  0.2602060E-05  0.2063572E+04  0.7818609E-02  0.8577462E-01
       -1   -1    0    0    0  501  0.00000000000E+00  0.00000000000E+00  0.70089710524E+03  0.70089710526E+03  0.50400001928E-02 0. -1.
        1   -1    0    0  501    0  0.00000000000E+00  0.00000000000E+00 -0.15188848307E+04  0.15188848308E+04  0.50400001928E-02 0.  1.
    10030    2    1    2    0    0  0.00000000000E+00  0.00000000000E+00 -0.81798772550E+03  0.22197819360E+04  0.20635716427E+04 0.  0.
        1    1    3    3  502    0 -0.99827785236E+02  0.48430251379E+03 -0.13831208024E+04  0.14688559036E+04  0.50400001928E-02 0.  1.
       -1    1    3    3    0  502  0.99827785236E+02 -0.48430251379E+03  0.56513307687E+03  0.75092603242E+03  0.50400001928E-02 0. -1.
</event>
<event>
 5   0  0.5967046E-05  0.2101700E+04  0.7818609E-02  0.8560495E-01
       -2   -1    0    0    0  501  0.00000000000E+00  0.00000000000E+00  0.40114152195E+03  0.40114152196E+03  0.25500000920E-02 0.  1.
        2   -1    0    0  501    0  0.00000000000E+00  0.00000000000E+00 -0.27528577967E+04  0.27528577967E+04  0.25500000920E-02 0. -1.
    10030    2    1    2    0    0  0.00000000000E+00  0.00000000000E+00 -0.23517162747E+04  0.31539993187E+04  0.21016998514E+04 0.  0.
        4    1    3    3  502    0  0.37315213814E+03 -0.67557771765E+03 -0.22461310331E+04  0.23750271581E+04  0.12699999809E+01 0. -1.
       -4    1    3    3    0  502 -0.37315213814E+03  0.67557771765E+03 -0.10558524161E+03  0.77897216057E+03  0.12699999809E+01 0.  1.
</event>
<event>
 5   0  0.2602060E-05  0.2092349E+04  0.7818609E-02  0.8564621E-01
        1   -1    0    0  501    0  0.00000000000E+00  0.00000000000E+00  0.10840992719E+04  0.10840992719E+04  0.50400001928E-02 0.  1.
       -1   -1    0    0    0  501  0.00000000000E+00  0.00000000000E+00 -0.10095765496E+04  0.10095765496E+04  0.50400001928E-02 0. -1.
    10030    2    1    2    0    0  0.00000000000E+00  0.00000000000E+00  0.74522722295E+02  0.20936758215E+04  0.20923491127E+04 0.  0.
        1    1    3    3  502    0 -0.45221500518E+03  0.85358650240E+03  0.43922850488E+03  0.10611456109E+04  0.50400001928E-02 0.  1.
       -1    1    3    3    0  502  0.45221500518E+03 -0.85358650240E+03 -0.36470578259E+03  0.10325302106E+04  0.50400001928E-02 0. -1.
</event>
<event>
 5   0  0.5967046E-05  0.2094984E+04  0.7818609E-02  0.8563456E-01
        2   -1    0    0  501    0  0.00000000000E+00  0.00000000000E+00  0.28564874275E+04  0.28564874276E+04  0.25500000920E-02 0.  1.
       -2   -1    0    0    0  501  0.00000000000E+00  0.00000000000E+00 -0.38412197970E+03  0.38412197971E+03  0.25500000920E-02 0. -1.
    10030    2    1    2    0    0  0.00000000000E+00  0.00000000000E+00  0.24723654478E+04  0.32406094073E+04  0.20949841104E+04 0.  0.
        4    1    3    3  502    0  0.96126116937E+03 -0.30015702948E+03  0.16821475323E+04  0.19605456413E+04  0.12699999809E+01 0.  1.
       -4    1    3    3    0  502 -0.96126116937E+03  0.30015702948E+03  0.79021791550E+03  0.12800637660E+04  0.12699999809E+01 0. -1.
</event>
<event>
 5   0  0.5462851E-05  0.2080655E+04  0.7818609E-02  0.8569813E-01
        2   -1    0    0  501    0  0.00000000000E+00  0.00000000000E+00  0.24515231992E+04  0.24515231992E+04  0.25500000920E-02 0. -1.
       -2   -1    0    0    0  501  0.00000000000E+00  0.00000000000E+00 -0.44147308256E+03  0.44147308257E+03  0.25500000920E-02 0.  1.
    10030    2    1    2    0    0  0.00000000000E+00  0.00000000000E+00  0.20100501166E+04  0.28929962818E+04  0.20806551889E+04 0.  0.
        1    1    3    3  502    0 -0.15238000466E+03  0.41277414266E+03 -0.30572626472E+03  0.53578979799E+03  0.50400001928E-02 0.  1.
       -1    1    3    3    0  502  0.15238000466E+03 -0.41277414266E+03  0.23157763814E+04  0.23572064838E+04  0.50400001928E-02 0. -1.
</event>
<event>
 5   0  0.2017750E-05  0.2098980E+04  0.7818609E-02  0.8561693E-01
       -4   -1    0    0    0  501  0.00000000000E+00  0.00000000000E+00  0.68819412327E+03  0.68819529510E+03  0.12699999809E+01 0. -1.
        4   -1    0    0  501    0  0.00000000000E+00  0.00000000000E+00 -0.16004607513E+04  0.16004612552E+04  0.12699999809E+01 0.  1.
    10030    2    1    2    0    0  0.00000000000E+00  0.00000000000E+00 -0.91226662802E+03  0.22886565503E+04  0.20989803250E+04 0.  0.
        5    1    3    3  502    0  0.20343457139E+02  0.77299659177E+03  0.31754250443E+03  0.83593834656E+03  0.46999998093E+01 0. -1.
       -5    1    3    3    0  502 -0.20343457139E+02 -0.77299659177E+03 -0.12298091325E+04  0.14527182037E+04  0.46999998093E+01 0.  1.
</event>
<event>
 5   0  0.2602060E-05  0.2090644E+04  0.7818609E-02  0.8565376E-01
       -1   -1    0    0    0  501  0.00000000000E+00  0.00000000000E+00  0.56026022482E+03  0.56026022485E+03  0.50400001928E-02 0.  1.
        1   -1    0    0  501    0  0.00000000000E+00  0.00000000000E+00 -0.19503410361E+04  0.19503410361E+04  0.50400001928E-02 0. -1.
    10030    2    1    2    0    0  0.00000000000E+00  0.00000000000E+00 -0.13900808113E+04  0.25106012610E+04  0.20906444054E+04 0.  0.
        1    1    3    3  502    0  0.40705955932E+03  0.90901160991E+03 -0.31396583504E+03  0.10443055766E+04  0.50400001928E-02 0. -1.
       -1    1    3    3    0  502 -0.40705955932E+03 -0.90901160991E+03 -0.10761149763E+04  0.14662956844E+04  0.50400001928E-02 0.  1.
</event>
<event>
 5   0  0.2017750E-05  0.2074609E+04  0.7818609E-02  0.8572511E-01
       -3   -1    0    0    0  501  0.00000000000E+00  0.00000000000E+00  0.10602718860E+04  0.10602718908E+04  0.10100000352E+00 0.  1.
        3   -1    0    0  501    0  0.00000000000E+00  0.00000000000E+00 -0.10148349165E+04  0.10148349216E+04  0.10100000352E+00 0. -1.
    10030    2    1    2    0    0  0.00000000000E+00  0.00000000000E+00  0.45436969448E+02  0.20751068124E+04  0.20746093041E+04 0.  0.
        3    1    3    3  502    0  0.56263146823E+03 -0.85156479490E+03 -0.16248574628E+03  0.10334981359E+04  0.10100000352E+00 0. -1.
       -3    1    3    3    0  502 -0.56263146823E+03  0.85156479490E+03  0.20792271572E+03  0.10416086765E+04  0.10100000352E+00 0.  1.
</event>
<event>
 5   0  0.5967046E-05  0.2177669E+04  0.7818609E-02  0.8527781E-01
       -2   -1    0    0    0  501  0.00000000000E+00  0.00000000000E+00  0.45817590940E+03  0.45817590941E+03  0.25500000920E-02 0.  1.
        2   -1    0    0  501    0  0.00000000000E+00  0.00000000000E+00 -0.25875654261E+04  0.25875654261E+04  0.25500000920E-02 0. -1.
    10030    2    1    2    0    0  0.00000000000E+00  0.00000000000E+00 -0.21293895167E+04  0.30457413355E+04  0.21776686086E+04 0.  0.
        4    1    3    3  502    0  0.22586529645E+03  0.27836493288E+03 -0.25026663250E+04  0.25282093495E+04  0.12699999809E+01 0. -1.
       -4    1    3    3    0  502 -0.22586529645E+03 -0.27836493288E+03  0.37327680828E+03  0.51753198597E+03  0.12699999809E+01 0.  1.
</event>
<event>
 5   0  0.2789662E-05  0.2095116E+04  0.7818609E-02  0.8563398E-01
       -1   -1    0    0    0  501  0.00000000000E+00  0.00000000000E+00  0.94873261855E+03  0.94873261856E+03  0.50400001928E-02 0. -1.
        1   -1    0    0  501    0  0.00000000000E+00  0.00000000000E+00 -0.11566778936E+04  0.11566778936E+04  0.50400001928E-02 0.  1.
    10030    2    1    2    0    0  0.00000000000E+00  0.00000000000E+00 -0.20794527507E+03  0.21054105122E+04  0.20951162706E+04 0.  0.
        4    1    3    3  502    0 -0.48229258872E+03  0.13712730935E+03 -0.10282561645E+04  0.11439940528E+04  0.12699999809E+01 0.  1.
       -4    1    3    3    0  502  0.48229258872E+03 -0.13712730935E+03  0.82031088945E+03  0.96141645938E+03  0.12699999809E+01 0. -1.
</event>
<event>
 5   0  0.5967046E-05  0.2086098E+04  0.7818609E-02  0.8567392E-01
        2   -1    0    0  501    0  0.00000000000E+00  0.00000000000E+00  0.10964321294E+04  0.10964321294E+04  0.25500000920E-02 0. -1.
       -2   -1    0    0    0  501  0.00000000000E+00  0.00000000000E+00 -0.99226522035E+03  0.99226522035E+03  0.25500000920E-02 0.  1.
    10030    2    1    2    0    0  0.00000000000E+00  0.00000000000E+00  0.10416690902E+03  0.20886973497E+04  0.20860982416E+04 0.  0.
        4    1    3    3  502    0  0.38737902533E+03  0.55521929069E+03  0.84655734983E+03  0.10839704468E+04  0.12699999809E+01 0. -1.
       -4    1    3    3    0  502 -0.38737902533E+03 -0.55521929069E+03 -0.74239044081E+03  0.10047269030E+04  0.12699999809E+01 0.  1.
</event>
<event>
 5   0  0.2699285E-05  0.2093194E+04  0.7818609E-02  0.8564247E-01
       -1   -1    0    0    0  501  0.00000000000E+00  0.00000000000E+00  0.45055859235E+03  0.45055859238E+03  0.50400001928E-02 0. -1.
        1   -1    0    0  501    0  0.00000000000E+00  0.00000000000E+00 -0.24311277907E+04  0.24311277907E+04  0.50400001928E-02 0.  1.
    10030    2    1    2    0    0  0.00000000000E+00  0.00000000000E+00 -0.19805691984E+04  0.28816863831E+04  0.20931942244E+04 0.  0.
        2    1    3    3  502    0  0.10103470853E+04  0.26741365799E+03 -0.91420167349E+03  0.13885517625E+04  0.25500000920E-02 0. -1.
       -2    1    3    3    0  502 -0.10103470853E+04 -0.26741365799E+03 -0.10663675249E+04  0.14931346207E+04  0.25500000920E-02 0.  1.
</event>
<event>
 5   0  0.5462851E-05  0.2094059E+04  0.7818609E-02  0.8563865E-01
        2   -1    0    0  501    0  0.00000000000E+00  0.00000000000E+00  0.11345607952E+04  0.11345607952E+04  0.25500000920E-02 0. -1.
       -2   -1    0    0    0  501  0.00000000000E+00  0.00000000000E+00 -0.96625101379E+03  0.96625101379E+03  0.25500000920E-02 0.  1.
    10030    2    1    2    0    0  0.00000000000E+00  0.00000000000E+00  0.16830978143E+03  0.21008118090E+04  0.20940587562E+04 0.  0.
        1    1    3    3  502    0 -0.69787390576E+03  0.53711890870E+03  0.65232552217E+03  0.10959257718E+04  0.50400001928E-02 0.  1.
       -1    1    3    3    0  502  0.69787390576E+03 -0.53711890870E+03 -0.48401574074E+03  0.10048860372E+04  0.50400001928E-02 0. -1.
</event>
<event>
 5   0  0.2732159E-05  0.2086695E+04  0.7818609E-02  0.8567127E-01
        1   -1    0    0  501    0  0.00000000000E+00  0.00000000000E+00  0.68313401125E+03  0.68313401127E+03  0.50400001928E-02 0.  1.
       -1   -1    0    0    0  501  0.00000000000E+00  0.00000000000E+00 -0.15935004280E+04  0.15935004280E+04  0.50400001928E-02 0. -1.
    10030    2    1    2    0    0  0.00000000000E+00  0.00000000000E+00 -0.91036641674E+03  0.22766344393E+04  0.20866953197E+04 0.  0.
        3    1    3    3  502    0 -0.69601499796E+03  0.60234589878E+03  0.80771513005E+02  0.92400297980E+03  0.10100000352E+00 0.  1.
       -3    1    3    3    0  502  0.69601499796E+03 -0.60234589878E+03 -0.99113792974E+03  0.13526314595E+04  0.10100000352E+00 0. -1.
</event>
<event>
 5   0  0.2602060E-05  0.2074535E+04  0.7818609E-02  0.8572545E-01
        1   -1    0    0  501    0  0.00000000000E+00  0.00000000000E+00  0.84601595293E+03  0.84601595295E+03  0.50400001928E-02 0.  1.
       -1   -1    0    0    0  501  0.00000000000E+00  0.00000000000E+00 -0.12717531910E+04  0.12717531910E+04  0.50400001928E-02 0. -1.
    10030    2    1    2    0    0  0.00000000000E+00  0.00000000000E+00 -0.42573723802E+03  0.21177691439E+04  0.20745346348E+04 0.  0.
        1    1    3    3  502    0  0.58073722821E+03  0.84589709067E+03 -0.57627422808E+02  0.10276762798E+04  0.50400001928E-02 0.  1.
       -1    1    3    3    0  502 -0.58073722821E+03 -0.84589709067E+03 -0.36810981521E+03  0.10900928641E+04  0.50400001928E-02 0. -1.
</event>
<event>
 5   0  0.2732159E-05  0.2089056E+04  0.7818609E-02  0.8566080E-01
        1   -1    0    0  501    0  0.00000000000E+00  0.00000000000E+00  0.11242541621E+04  0.11242541621E+04  0.50400001928E-02 0. -1.
       -1   -1    0    0    0  501  0.00000000000E+00  0.00000000000E+00 -0.97045584538E+03  0.97045584539E+03  0.50400001928E-02 0.  1.
    10030    2    1    2    0    0  0.00000000000E+00  0.00000000000E+00  0.15379831673E+03  0.20947100075E+04  0.20890562686E+04 0.  0.
        3    1    3    3  502    0 -0.47946339951E+02 -0.11441840202E+03  0.11168408176E+04  0.11237098577E+04  0.10100000352E+00 0. -1.
       -3    1    3    3    0  502  0.47946339951E+02  0.11441840202E+03 -0.96304250087E+03  0.97100014981E+03  0.10100000352E+00 0.  1.
</event>
<event>
 5   0  0.5506332E-05  0.2066747E+04  0.7818609E-02  0.8576035E-01
       -2   -1    0    0    0  501  0.00000000000E+00  0.00000000000E+00  0.99682343253E+03  0.99682343254E+03  0.25500000920E-02 0.  1.
        2   -1    0    0  501    0  0.00000000000E+00  0.00000000000E+00 -0.10712636577E+04  0.10712636577E+04  0.25500000920E-02 0. -1.
    10030    2    1    2    0    0  0.00000000000E+00  0.00000000000E+00 -0.74440225176E+02  0.20680870902E+04  0.20667469283E+04 0.  0.
        3    1    3    3  502    0  0.72688145238E+03  0.67506736372E+03 -0.32686957878E+03  0.10444693979E+04  0.10100000352E+00 0. -1.
       -3    1    3    3    0  502 -0.72688145238E+03 -0.67506736372E+03  0.25242935360E+03  0.10236176924E+04  0.10100000352E+00 0.  1.
</event>
<event>
 5   0  0.5954140E-05  0.2115644E+04  0.7818609E-02  0.8554383E-01
        2   -1    0    0  501    0  0.00000000000E+00  0.00000000000E+00  0.16110997814E+04  0.16110997814E+04  0.25500000920E-02 0.  1.
       -2   -1    0    0    0  501  0.00000000000E+00  0.00000000000E+00 -0.69454872579E+03  0.69454872579E+03  0.25500000920E-02 0. -1.
    10030    2    1    2    0    0  0.00000000000E+00  0.00000000000E+00  0.91655105561E+03  0.23056485072E+04  0.21156439212E+04 0.  0.
        2    1    3    3  502    0 -0.12834797020E+02  0.94809194827E+03  0.96937661940E+03  0.13559993011E+04  0.25500000920E-02 0.  1.
       -2    1    3    3    0  502  0.12834797020E+02 -0.94809194827E+03 -0.52825563791E+02  0.94964920607E+03  0.25500000920E-02 0. -1.
</event>
<event>
 5   0  0.2789662E-05  0.2096734E+04  0.7818609E-02  0.8562684E-01
       -1   -1    0    0    0  501  0.00000000000E+00  0.00000000000E+00  0.64211468958E+03  0.64211468960E+03  0.50400001928E-02 0.  1.
        1   -1    0    0  501    0  0.00000000000E+00  0.00000000000E+00 -0.17116460987E+04  0.17116460987E+04  0.50400001928E-02 0. -1.
    10030    2    1    2    0    0  0.00000000000E+00  0.00000000000E+00 -0.10695314091E+04  0.23537607883E+04  0.20967337488E+04 0.  0.
        4    1    3    3  502    0  0.51105420076E+03 -0.57298891972E+03  0.26658885171E+03  0.81275083943E+03  0.12699999809E+01 0.  1.
       -4    1    3    3    0  502 -0.51105420076E+03  0.57298891972E+03 -0.13361202609E+04  0.15410099489E+04  0.12699999809E+01 0. -1.
</event>
<event>
 5   0  0.5462851E-05  0.2099989E+04  0.7818609E-02  0.8561248E-01
       -2   -1    0    0    0  501  0.00000000000E+00  0.00000000000E+00  0.82737436875E+03  0.82737436876E+03  0.25500000920E-02 0.  1.
        2   -1    0    0  501    0  0.00000000000E+00  0.00000000000E+00 -0.13325143613E+04  0.13325143614E+04  0.25500000920E-02 0. -1.
    10030    2    1    2    0    0  0.00000000000E+00  0.00000000000E+00 -0.50513999260E+03  0.21598887301E+04  0.20999887891E+04 0.  0.
        1    1    3    3  502    0 -0.52621273830E+03 -0.90440033014E+03 -0.34251984167E+03  0.11009812192E+04  0.50400001928E-02 0. -1.
       -1    1    3    3    0  502  0.52621273830E+03  0.90440033014E+03 -0.16262015092E+03  0.10589075109E+04  0.50400001928E-02 0.  1.
</event>
<event>
 5   0  0.5866610E-05  0.2082750E+04  0.7818609E-02  0.8568880E-01
       -2   -1    0    0    0  501  0.00000000000E+00  0.00000000000E+00  0.62380672821E+03  0.62380672821E+03  0.25500000920E-02 0.  1.
        2   -1    0    0  501    0  0.00000000000E+00  0.00000000000E+00 -0.17384585675E+04  0.17384585675E+04  0.25500000920E-02 0. -1.
    10030    2    1    2    0    0  0.00000000000E+00  0.00000000000E+00 -0.11146518392E+04  0.23622652957E+04  0.20827502501E+04 0.  0.
        5    1    3    3  502    0 -0.79210678265E+03  0.64946269250E+03 -0.34451477350E+03  0.10807161807E+04  0.46999998093E+01 0.  1.
       -5    1    3    3    0  502  0.79210678265E+03 -0.64946269250E+03 -0.77013706574E+03  0.12815491150E+04  0.46999998093E+01 0. -1.
</event>
<event>
 5   0  0.2789662E-05  0.2116426E+04  0.7818609E-02  0.8554042E-01
       -1   -1    0    0    0  501  0.00000000000E+00  0.00000000000E+00  0.94760896805E+03  0.94760896806E+03  0.50400001928E-02 0.  1.
        1   -1    0    0  501    0  0.00000000000E+00  0.00000000000E+00 -0.11817270454E+04  0.11817270454E+04  0.50400001928E-02 0. -1.
    10030    2    1    2    0    0  0.00000000000E+00  0.00000000000E+00 -0.23411807736E+03  0.21293360135E+04  0.21164263711E+04 0.  0.
        4    1    3    3  502    0 -0.68953387113E+03 -0.49608735621E+03 -0.75198203714E+03  0.11344770696E+04  0.12699999809E+01 0. -1.
       -4    1    3    3    0  502  0.68953387113E+03  0.49608735621E+03  0.51786395978E+03  0.99485894385E+03  0.12699999809E+01 0.  1.
</event>
<event>
 5   0  0.5462851E-05  0.2086513E+04  0.7818609E-02  0.8567208E-01
       -2   -1    0    0    0  501  0.00000000000E+00  0.00000000000E+00  0.58124030177E+03  0.58124030177E+03  0.25500000920E-02 0. -1.
        2   -1    0    0  501    0  0.00000000000E+00  0.00000000000E+00 -0.18725200252E+04  0.18725200252E+04  0.25500000920E-02 0.  1.
    10030    2    1    2    0    0  0.00000000000E+00  0.00000000000E+00 -0.12912797234E+04  0.24537603270E+04  0.20865129806E+04 0.  0.
        1    1    3    3  502    0  0.36931800840E+03 -0.92339587991E+03 -0.10162759355E+04  0.14219256378E+04  0.50400001928E-02 0.  1.
       -1    1    3    3    0  502 -0.36931800840E+03  0.92339587991E+03 -0.27500378795E+03  0.10318346892E+04  0.50400001928E-02 0. -1.
</event>
<event>
 5   0  0.2602060E-05  0.2099196E+04  0.7818609E-02  0.8561597E-01
       -1   -1    0    0    0  501  0.00000000000E+00  0.00000000000E+00  0.17254403719E+04  0.17254403719E+04  0.50400001928E-02 0. -1.
        1   -1    0    0  501    0  0.00000000000E+00  0.00000000000E+00 -0.63847844180E+03  0.63847844182E+03  0.50400001928E-02 0.  1.
    10030    2    1    2    0    0  0.00000000000E+00  0.00000000000E+00  0.10869619301E+04  0.23639188137E+04  0.20991964940E+04 0.  0.
        1    1    3    3  502    0 -0.43100176815E+03 -0.56033162383E+03 -0.33019367015E+03  0.78023196079E+03  0.50400001928E-02 0.  1.
       -1    1    3    3    0  502  0.43100176815E+03  0.56033162383E+03  0.14171556002E+04  0.15836868529E+04  0.50400001928E-02 0. -1.
</event>
<event>
 5   0  0.5462851E-05  0.1938821E+04  0.7818609E-02  0.8635771E-01
        2   -1    0    0  501    0  0.00000000000E+00  0.00000000000E+00  0.18959087879E+04  0.18959087879E+04  0.25500000920E-02 0. -1.
       -2   -1    0    0    0  501  0.00000000000E+00  0.00000000000E+00 -0.49567597620E+03  0.49567597621E+03  0.25500000920E-02 0.  1.
    10030    2    1    2    0    0  0.00000000000E+00  0.00000000000E+00  0.14002328117E+04  0.23915847641E+04  0.19388207129E+04 0.  0.
        1    1    3    3  502    0 -0.44000629854E+03  0.74259444507E+03  0.12444134744E+04  0.15144691967E+04  0.50400001928E-02 0. -1.
       -1    1    3    3    0  502  0.44000629854E+03 -0.74259444507E+03  0.15581933730E+03  0.87711556736E+03  0.50400001928E-02 0.  1.
</event>
<event>
 5   0  0.2789662E-05  0.2109430E+04  0.7818609E-02  0.8557101E-01
       -1   -1    0    0    0  501  0.00000000000E+00  0.00000000000E+00  0.16208574343E+04  0.16208574343E+04  0.50400001928E-02 0.  1.
        1   -1    0    0  501    0  0.00000000000E+00  0.00000000000E+00 -0.68631786008E+03  0.68631786010E+03  0.50400001928E-02 0. -1.
    10030    2    1    2    0    0  0.00000000000E+00  0.00000000000E+00  0.93453957426E+03  0.23071752945E+04  0.21094296915E+04 0.  0.
        4    1    3    3  502    0  0.62920265981E+01  0.12164603892E+03  0.16131375716E+04  0.16177304430E+04  0.12699999809E+01 0.  1.
       -4    1    3    3    0  502 -0.62920265981E+01 -0.12164603892E+03 -0.67859799731E+03  0.68944485149E+03  0.12699999809E+01 0. -1.
</event>
<event>
 5   0  0.5954140E-05  0.2047641E+04  0.7818609E-02  0.8584665E-01
       -2   -1    0    0    0  501  0.00000000000E+00  0.00000000000E+00  0.94221560475E+03  0.94221560475E+03  0.25500000920E-02 0.  1.
        2   -1    0    0  501    0  0.00000000000E+00  0.00000000000E+00 -0.11124934628E+04  0.11124934628E+04  0.25500000920E-02 0. -1.
    10030    2    1    2    0    0  0.00000000000E+00  0.00000000000E+00 -0.17027785804E+03  0.20547090675E+04  0.20476412780E+04 0.  0.
        2    1    3    3  502    0 -0.22039180103E+03  0.61281236397E+03 -0.87786394848E+03  0.10930492447E+04  0.25500000920E-02 0. -1.
       -2    1    3    3    0  502  0.22039180103E+03 -0.61281236397E+03  0.70758609044E+03  0.96165982280E+03  0.25500000920E-02 0.  1.
</event>
<event>
 5   0  0.5954140E-05  0.2102177E+04  0.7818609E-02  0.8560285E-01
        2   -1    0    0  501    0  0.00000000000E+00  0.00000000000E+00  0.21153812180E+04  0.21153812180E+04  0.25500000920E-02 0. -1.
       -2   -1    0    0    0  501  0.00000000000E+00  0.00000000000E+00 -0.52226383894E+03  0.52226383895E+03  0.25500000920E-02 0.  1.
    10030    2    1    2    0    0  0.00000000000E+00  0.00000000000E+00  0.15931173790E+04  0.26376450569E+04  0.21021770770E+04 0.  0.
        2    1    3    3  502    0 -0.45765516028E+03  0.19537159156E+03 -0.36510452505E+03  0.61718685885E+03  0.25500000920E-02 0.  1.
       -2    1    3    3    0  502  0.45765516028E+03 -0.19537159156E+03  0.19582219041E+04  0.20204581981E+04  0.25500000920E-02 0. -1.
</event>
<event>
 5   0  0.2789662E-05  0.2067702E+04  0.7818609E-02  0.8575606E-01
       -1   -1    0    0    0  501  0.00000000000E+00  0.00000000000E+00  0.15291042084E+04  0.15291042084E+04  0.50400001928E-02 0.  1.
        1   -1    0    0  501    0  0.00000000000E+00  0.00000000000E+00 -0.69900231918E+03  0.69900231920E+03  0.50400001928E-02 0. -1.
    10030    2    1    2    0    0  0.00000000000E+00  0.00000000000E+00  0.83010188920E+03  0.22281065276E+04  0.20677015142E+04 0.  0.
        4    1    3    3  502    0  0.12919990181E+02 -0.93931236365E+03 -0.50146614396E+02  0.94073956995E+03  0.12699999809E+01 0.  1.
       -4    1    3    3    0  502 -0.12919990181E+02  0.93931236365E+03  0.88024850359E+03  0.12873669576E+04  0.12699999809E+01 0. -1.
</event>
<event>
 5   0  0.2604390E-05  0.2118293E+04  0.7818609E-02  0.8553228E-01
       -1   -1    0    0    0  501  0.00000000000E+00  0.00000000000E+00  0.55720594365E+03  0.55720594367E+03  0.50400001928E-02 0. -1.
        1   -1    0    0  501    0  0.00000000000E+00  0.00000000000E+00 -0.20132430970E+04  0.20132430970E+04  0.50400001928E-02 0.  1.
    10030    2    1    2    0    0  0.00000000000E+00  0.00000000000E+00 -0.14560371534E+04  0.25704490407E+04  0.21182927274E+04 0.  0.
        5    1    3    3  502    0 -0.10339006913E+04 -0.97044650380E+02 -0.47522209770E+03  0.11420273358E+04  0.46999998093E+01 0.  1.
       -5    1    3    3    0  502  0.10339006913E+04  0.97044650380E+02 -0.98081505566E+03  0.14284217049E+04  0.46999998093E+01 0. -1.
</event>
<event>
 5   0  0.2699285E-05  0.2110189E+04  0.7818609E-02  0.8556768E-01
       -1   -1    0    0    0  501  0.00000000000E+00  0.00000000000E+00  0.10120216814E+04  0.10120216815E+04  0.50400001928E-02 0. -1.
        1   -1    0    0  501    0  0.00000000000E+00  0.00000000000E+00 -0.11000000290E+04  0.11000000291E+04  0.50400001928E-02 0.  1.
    10030    2    1    2    0    0  0.00000000000E+00  0.00000000000E+00 -0.87978347597E+02  0.21120217105E+04  0.21101885025E+04 0.  0.
        2    1    3    3  502    0  0.46955937188E+03 -0.86530942344E+01 -0.98961841376E+03  0.10954019740E+04  0.25500000920E-02 0.  1.
       -2    1    3    3    0  502 -0.46955937188E+03  0.86530942344E+01  0.90164006617E+03  0.10166197365E+04  0.25500000920E-02 0. -1.
</event>
<event>
 5   0  0.5506332E-05  0.2118479E+04  0.7818609E-02  0.8553147E-01
       -2   -1    0    0    0  501  0.00000000000E+00  0.00000000000E+00  0.82477123780E+03  0.82477123781E+03  0.25500000920E-02 0. -1.
        2   -1    0    0  501    0  0.00000000000E+00  0.00000000000E+00 -0.13603632485E+04  0.13603632485E+04  0.25500000920E-02 0.  1.
    10030    2    1    2    0    0  0.00000000000E+00  0.00000000000E+00 -0.53559201072E+03  0.21851344863E+04  0.21184791529E+04 0.  0.
        3    1    3    3  502    0 -0.17146288271E+03 -0.32478567765E+03 -0.12925869035E+04  0.13437507841E+04  0.10100000352E+00 0.  1.
       -3    1    3    3    0  502  0.17146288271E+03  0.32478567765E+03  0.75699489274E+03  0.84138370224E+03  0.10100000352E+00 0. -1.
</event>
<event>
 5   0  0.2699285E-05  0.2087808E+04  0.7818609E-02  0.8566633E-01
       -1   -1    0    0    0  501  0.00000000000E+00  0.00000000000E+00  0.11700338030E+04  0.11700338030E+04  0.50400001928E-02 0.  1.
        1   -1    0    0  501    0  0.00000000000E+00  0.00000000000E+00 -0.93137126623E+03  0.93137126625E+03  0.50400001928E-02 0. -1.
    10030    2    1    2    0    0  0.00000000000E+00  0.00000000000E+00  0.23866253674E+03  0.21014050692E+04  0.20878082907E+04 0.  0.
        2    1    3    3  502    0 -0.98628178341E+02  0.36068840258E+03  0.11003129458E+04  0.11621154074E+04  0.25500000920E-02 0.  1.
       -2    1    3    3    0  502  0.98628178341E+02 -0.36068840258E+03 -0.86165040910E+03  0.93928966183E+03  0.25500000920E-02 0. -1.
</event>
<event>
 5   0  0.2602060E-05  0.2051293E+04  0.7818609E-02  0.8583008E-01
       -1   -1    0    0    0  501  0.00000000000E+00  0.00000000000E+00  0.84642927533E+03  0.84642927535E+03  0.50400001928E-02 0.  1.
        1   -1    0    0  501    0  0.00000000000E+00  0.00000000000E+00 -0.12428103803E+04  0.12428103803E+04  0.50400001928E-02 0. -1.
    10030    2    1    2    0    0  0.00000000000E+00  0.00000000000E+00 -0.39638110498E+03  0.20892396557E+04  0.20512933380E+04 0.  0.
        1    1    3    3  502    0  0.53584404210E+03  0.74972213629E+03  0.26040423002E+03  0.95761290829E+03  0.50400001928E-02 0.  1.
       -1    1    3    3    0  502 -0.53584404210E+03 -0.74972213629E+03 -0.65678533500E+03  0.11316267474E+04  0.50400001928E-02 0. -1.
</event>
<event>
 5   0  0.5462851E-05  0.2101713E+04  0.7818609E-02  0.8560489E-01
       -2   -1    0    0    0  501  0.00000000000E+00  0.00000000000E+00  0.55170710592E+03  0.55170710593E+03  0.25500000920E-02 0.  1.
        2   -1    0    0  501    0  0.00000000000E+00  0.00000000000E+00 -0.20016037887E+04  0.20016037887E+04  0.25500000920E-02 0. -1.
    10030    2    1    2    0    0  0.00000000000E+00  0.00000000000E+00 -0.14498966828E+04  0.25533108946E+04  0.21017126668E+04 0.  0.
        1    1    3    3  502    0  0.71623724652E+03  0.16617184742E+03 -0.16370654091E+04  0.17946007996E+04  0.50400001928E-02 0. -1.
       -1    1    3    3    0  502 -0.71623724652E+03 -0.16617184742E+03  0.18716872633E+03  0.75871009504E+03  0.50400001928E-02 0.  1.
</event>
<event>
 5   0  0.2017750E-05  0.2117455E+04  0.7818609E-02  0.8553593E-01
        3   -1    0    0  501    0  0.00000000000E+00  0.00000000000E+00  0.97357005017E+03  0.97357005541E+03  0.10100000352E+00 0. -1.
       -3   -1    0    0    0  501  0.00000000000E+00  0.00000000000E+00 -0.11513335358E+04  0.11513335402E+04  0.10100000352E+00 0.  1.
    10030    2    1    2    0    0  0.00000000000E+00  0.00000000000E+00 -0.17776348563E+03  0.21249035956E+04  0.21174549426E+04 0.  0.
        4    1    3    3  502    0 -0.89264325185E+02 -0.23148242654E+03 -0.11217496694E+04  0.11488586368E+04  0.12699999809E+01 0.  1.
       -4    1    3    3    0  502  0.89264325185E+02  0.23148242654E+03  0.94398618382E+03  0.97604495884E+03  0.12699999809E+01 0. -1.
</event>
<event>
 5   0  0.2604390E-05  0.2079576E+04  0.7818609E-02  0.8570294E-01
        1   -1    0    0  501    0  0.00000000000E+00  0.00000000000E+00  0.16335252045E+04  0.16335252045E+04  0.50400001928E-02 0.  1.
       -1   -1    0    0    0  501  0.00000000000E+00  0.00000000000E+00 -0.66185659061E+03  0.66185659063E+03  0.50400001928E-02 0. -1.
    10030    2    1    2    0    0  0.00000000000E+00  0.00000000000E+00  0.97166861393E+03  0.22953817952E+04  0.20795763247E+04 0.  0.
        5    1    3    3  502    0 -0.37247015907E+02  0.84979925474E+03 -0.17421061062E+03  0.86828425092E+03  0.46999998093E+01 0. -1.
       -5    1    3    3    0  502  0.37247015907E+02 -0.84979925474E+03  0.11458792245E+04  0.14270975442E+04  0.46999998093E+01 0.  1.
</event>
<event>
 5   0  0.5954140E-05  0.2116293E+04  0.7818609E-02  0.8554100E-01
       -2   -1    0    0    0  501  0.00000000000E+00  0.00000000000E+00  0.92360061917E+03  0.92360061918E+03  0.25500000920E-02 0. -1.
        2   -1    0    0  501    0  0.00000000000E+00  0.00000000000E+00 -0.12122928455E+04  0.12122928455E+04  0.25500000920E-02 0.  1.
    10030    2    1    2    0    0  0.00000000000E+00  0.00000000000E+00 -0.28869222631E+03  0.21358934647E+04  0.21162933849E+04 0.  0.
        2    1    3    3  502    0 -0.72045002318E+03  0.27837599718E+03  0.58563187939E+03  0.96928124395E+03  0.25500000920E-02 0. -1.
       -2    1    3    3    0  502  0.72045002318E+03 -0.27837599718E+03 -0.87432410569E+03  0.11666122207E+04  0.25500000920E-02 0.  1.
</event>
<event>
 5   0  0.5954140E-05  0.2105359E+04  0.7818609E-02  0.8558886E-01
       -2   -1    0    0    0  501  0.00000000000E+00  0.00000000000E+00  0.55146572999E+03  0.55146573000E+03  0.25500000920E-02 0. -1.
        2   -1    0    0  501    0  0.00000000000E+00  0.00000000000E+00 -0.20094339528E+04  0.20094339528E+04  0.25500000920E-02 0.  1.
    10030    2    1    2    0    0  0.00000000000E+00  0.00000000000E+00 -0.14579682228E+04  0.25608996828E+04  0.21053588403E+04 0.  0.
        2    1    3    3  502    0 -0.32918522157E+02 -0.44609701171E+02  0.54968869152E+03  0.55247743133E+03  0.25500000920E-02 0. -1.
       -2    1    3    3    0  502  0.32918522157E+02  0.44609701171E+02 -0.20076569143E+04  0.20084222514E+04  0.25500000920E-02 0.  1.
</event>
<event>
 5   0  0.2732159E-05  0.2121195E+04  0.7818609E-02  0.8551964E-01
       -1   -1    0    0    0  501  0.00000000000E+00  0.00000000000E+00  0.86408693476E+03  0.86408693477E+03  0.50400001928E-02 0.  1.
        1   -1    0    0  501    0  0.00000000000E+00  0.00000000000E+00 -0.13017981716E+04  0.13017981716E+04  0.50400001928E-02 0. -1.
    10030    2    1    2    0    0  0.00000000000E+00  0.00000000000E+00 -0.43771123685E+03  0.21658851064E+04  0.21211947500E+04 0.  0.
        3    1    3    3  502    0  0.72245007171E+02 -0.69953776587E+03 -0.10294929126E+04  0.12467670569E+04  0.10100000352E+00 0. -1.
       -3    1    3    3    0  502 -0.72245007171E+02  0.69953776587E+03  0.59178167574E+03  0.91911804948E+03  0.10100000352E+00 0.  1.
</event>
<event>
 5   0  0.5866610E-05  0.2094061E+04  0.7818609E-02  0.8563864E-01
       -2   -1    0    0    0  501  0.00000000000E+00  0.00000000000E+00  0.80055467670E+03  0.80055467671E+03  0.25500000920E-02 0. -1.
        2   -1    0    0  501    0  0.00000000000E+00  0.00000000000E+00 -0.13693920398E+04  0.13693920398E+04  0.25500000920E-02 0.  1.
    10030    2    1    2    0    0  0.00000000000E+00  0.00000000000E+00 -0.56883736314E+03  0.21699467166E+04  0.20940613188E+04 0.  0.
        5    1    3    3  502    0 -0.42403039303E+03  0.22419265226E+03  0.67999975458E+03  0.83215736238E+03  0.46999998093E+01 0. -1.
       -5    1    3    3    0  502  0.42403039303E+03 -0.22419265226E+03 -0.12488371177E+04  0.13377893542E+04  0.46999998093E+01 0.  1.
</event>
<event>
 5   0  0.2789662E-05  0.2110546E+04  0.7818609E-02  0.8556612E-01
        1   -1    0    0  501    0  0.00000000000E+00  0.00000000000E+00  0.12470715518E+04  0.12470715518E+04  0.50400001928E-02 0.  1.
       -1   -1    0    0    0  501  0.00000000000E+00  0.00000000000E+00 -0.89297281559E+03  0.89297281560E+03  0.50400001928E-02 0. -1.
    10030    2    1    2    0    0  0.00000000000E+00  0.00000000000E+00  0.35409873622E+03  0.21400443674E+04  0.21105458961E+04 0.  0.
        4    1    3    3  502    0 -0.64986632072E+03 -0.12638743115E+03  0.10103009502E+04  0.12078947141E+04  0.12699999809E+01 0.  1.
       -4    1    3    3    0  502  0.64986632072E+03  0.12638743115E+03 -0.65620221399E+03  0.93214965328E+03  0.12699999809E+01 0. -1.
</event>
<event>
 5   0  0.5954140E-05  0.2104363E+04  0.7818609E-02  0.8559324E-01
        2   -1    0    0  501    0  0.00000000000E+00  0.00000000000E+00  0.95338308793E+03  0.95338308793E+03  0.25500000920E-02 0. -1.
       -2   -1    0    0    0  501  0.00000000000E+00  0.00000000000E+00 -0.11612186433E+04  0.11612186433E+04  0.25500000920E-02 0.  1.
    10030    2    1    2    0    0  0.00000000000E+00  0.00000000000E+00 -0.20783555539E+03  0.21146017313E+04  0.21043632918E+04 0.  0.
        2    1    3    3  502    0  0.17336863620E+03  0.58010671566E+01 -0.11467510685E+04  0.11597966846E+04  0.25500000920E-02 0.  1.
       -2    1    3    3    0  502 -0.17336863620E+03 -0.58010671566E+01  0.93891551312E+03  0.95480504669E+03  0.25500000920E-02 0. -1.
</event>
<event>
 5   0  0.2604390E-05  0.2097830E+04  0.7818609E-02  0.8562200E-01
        1   -1    0    0  501    0  0.00000000000E+00  0.00000000000E+00  0.78463029392E+03  0.78463029393E+03  0.50400001928E-02 0.  1.
       -1   -1    0    0    0  501  0.00000000000E+00  0.00000000000E+00 -0.14022183938E+04  0.14022183938E+04  0.50400001928E-02 0. -1.
    10030    2    1    2    0    0  0.00000000000E+00  0.00000000000E+00 -0.61758809991E+03  0.21868486878E+04  0.20978303368E+04 0.  0.
        5    1    3    3  502    0 -0.51111655238E+03 -0.25557258193E+03  0.60809925980E+03  0.83448443635E+03  0.46999998093E+01 0.  1.
       -5    1    3    3    0  502  0.51111655238E+03  0.25557258193E+03 -0.12256873597E+04  0.13523642514E+04  0.46999998093E+01 0. -1.
</event>
<event>
 5   0  0.2017750E-05  0.2097397E+04  0.7818609E-02  0.8562391E-01
        3   -1    0    0  501    0  0.00000000000E+00  0.00000000000E+00  0.56166233072E+03  0.56166233980E+03  0.10100000352E+00 0.  1.
       -3   -1    0    0    0  501  0.00000000000E+00  0.00000000000E+00 -0.19580607402E+04  0.19580607428E+04  0.10100000352E+00 0. -1.
    10030    2    1    2    0    0  0.00000000000E+00  0.00000000000E+00 -0.13963984095E+04  0.25197230826E+04  0.20973974099E+04 0.  0.
        4    1    3    3  502    0 -0.32092635247E+03 -0.47926449955E+03  0.35398598335E+03  0.67675392393E+03  0.12699999809E+01 0.  1.
       -4    1    3    3    0  502  0.32092635247E+03  0.47926449955E+03 -0.17503843928E+04  0.18429691587E+04  0.12699999809E+01 0. -1.
</event>
<event>
 5   0  0.2699285E-05  0.2108914E+04  0.7818609E-02  0.8557327E-01
        1   -1    0    0  501    0  0.00000000000E+00  0.00000000000E+00  0.12997814420E+04  0.12997814420E+04  0.50400001928E-02 0.  1.
       -1   -1    0    0    0  501  0.00000000000E+00  0.00000000000E+00 -0.85543552386E+03  0.85543552387E+03  0.50400001928E-02 0. -1.
    10030    2    1    2    0    0  0.00000000000E+00  0.00000000000E+00  0.44434591818E+03  0.21552169659E+04  0.21089136718E+04 0.  0.
        2    1    3    3  502    0  0.97982856480E+02  0.10295245177E+04  0.11843972691E+02  0.10342444839E+04  0.25500000920E-02 0.  1.
       -2    1    3    3    0  502 -0.97982856480E+02 -0.10295245177E+04  0.43250194549E+03  0.11209724821E+04  0.25500000920E-02 0. -1.
</event>
<event>
 5   0  0.2604390E-05  0.2193266E+04  0.7818609E-02  0.8521236E-01
       -1   -1    0    0    0  501  0.00000000000E+00  0.00000000000E+00  0.16036891660E+04  0.16036891660E+04  0.50400001928E-02 0. -1.
        1   -1    0    0  501    0  0.00000000000E+00  0.00000000000E+00 -0.74989814149E+03  0.74989814151E+03  0.50400001928E-02 0.  1.
    10030    2    1    2    0    0  0.00000000000E+00  0.00000000000E+00  0.85379102452E+03  0.23535873075E+04  0.21932656247E+04 0.  0.
        5    1    3    3  502    0  0.19165769220E+03 -0.67677275632E+03  0.13297188285E+04  0.15043032565E+04  0.46999998093E+01 0. -1.
       -5    1    3    3    0  502 -0.19165769220E+03  0.67677275632E+03 -0.47592780399E+03  0.84928405101E+03  0.46999998093E+01 0.  1.
</event>
<event>
 5   0  0.5954140E-05  0.2093603E+04  0.7818609E-02  0.8564067E-01
       -2   -1    0    0    0  501  0.00000000000E+00  0.00000000000E+00  0.12238488719E+04  0.12238488719E+04  0.25500000920E-02 0.  1.
        2   -1    0    0  501    0  0.00000000000E+00  0.00000000000E+00 -0.89536646778E+03  0.89536646779E+03  0.25500000920E-02 0. -1.
    10030    2    1    2    0    0  0.00000000000E+00  0.00000000000E+00  0.32848240416E+03  0.21192153397E+04  0.20936028674E+04 0.  0.
        2    1    3    3  502    0 -0.33139681254E+03  0.97063559420E+03 -0.47690503794E+02  0.10267578528E+04  0.25500000920E-02 0.  1.
       -2    1    3    3    0  502  0.33139681254E+03 -0.97063559420E+03  0.37617290795E+03  0.10924574869E+04  0.25500000920E-02 0. -1.
</event>
<event>
 5   0  0.5954140E-05  0.2099823E+04  0.7818609E-02  0.8561321E-01
        2   -1    0    0  501    0  0.00000000000E+00  0.00000000000E+00  0.13492771290E+04  0.13492771290E+04  0.25500000920E-02 0. -1.
       -2   -1    0    0    0  501  0.00000000000E+00  0.00000000000E+00 -0.81696667144E+03  0.81696667145E+03  0.25500000920E-02 0.  1.
    10030    2    1    2    0    0  0.00000000000E+00  0.00000000000E+00  0.53231045755E+03  0.21662438004E+04  0.20998232735E+04 0.  0.
        2    1    3    3  502    0 -0.68586275087E+03  0.78163391424E+03  0.41549312784E+03  0.11198186586E+04  0.25500000920E-02 0. -1.
       -2    1    3    3    0  502  0.68586275087E+03 -0.78163391424E+03  0.11681732971E+03  0.10464251418E+04  0.25500000920E-02 0.  1.
</event>
<event>
 5   0  0.2789662E-05  0.2214148E+04  0.7818609E-02  0.8512563E-01
        1   -1    0    0  501    0  0.00000000000E+00  0.00000000000E+00  0.25977695421E+04  0.25977695421E+04  0.50400001928E-02 0. -1.
       -1   -1    0    0    0  501  0.00000000000E+00  0.00000000000E+00 -0.47179408439E+03  0.47179408441E+03  0.50400001928E-02 0.  1.
    10030    2    1    2    0    0  0.00000000000E+00  0.00000000000E+00  0.21259754577E+04  0.30695636265E+04  0.22141475133E+04 0.  0.
        4    1    3    3  502    0 -0.95377262133E+03 -0.53020478092E+03  0.80432692314E+03  0.13556337024E+04  0.12699999809E+01 0.  1.
       -4    1    3    3    0  502  0.95377262133E+03  0.53020478092E+03  0.13216485346E+04  0.17139299241E+04  0.12699999809E+01 0. -1.
</event>
<event>
 5   0  0.5967046E-05  0.2076116E+04  0.7818609E-02  0.8571838E-01
        2   -1    0    0  501    0  0.00000000000E+00  0.00000000000E+00  0.78581382470E+03  0.78581382470E+03  0.25500000920E-02 0. -1.
       -2   -1    0    0    0  501  0.00000000000E+00  0.00000000000E+00 -0.13712715069E+04  0.13712715069E+04  0.25500000920E-02 0.  1.
    10030    2    1    2    0    0  0.00000000000E+00  0.00000000000E+00 -0.58545768216E+03  0.21570853316E+04  0.20761157073E+04 0.  0.
        4    1    3    3  502    0  0.12668370058E+03  0.52223928869E+03  0.63004160756E+03  0.82809218980E+03  0.12699999809E+01 0. -1.
       -4    1    3    3    0  502 -0.12668370058E+03 -0.52223928869E+03 -0.12154992897E+04  0.13289931418E+04  0.12699999809E+01 0.  1.
</event>
<event>
 5   0  0.2017750E-05  0.2099917E+04  0.7818609E-02  0.8561280E-01
        3   -1    0    0  501    0  0.00000000000E+00  0.00000000000E+00  0.70299423904E+03  0.70299424630E+03  0.10100000352E+00 0. -1.
       -3   -1    0    0    0  501  0.00000000000E+00  0.00000000000E+00 -0.15681669561E+04  0.15681669594E+04  0.10100000352E+00 0.  1.
    10030    2    1    2    0    0  0.00000000000E+00  0.00000000000E+00 -0.86517271709E+03  0.22711612057E+04  0.20999165202E+04 0.  0.
        5    1    3    3  502    0 -0.28726467015E+03  0.75342618754E+03  0.29472433375E+03  0.85851996697E+03  0.46999998093E+01 0. -1.
       -5    1    3    3    0  502  0.28726467015E+03 -0.75342618754E+03 -0.11598970508E+04  0.14126412387E+04  0.46999998093E+01 0.  1.
</event>
<event>
 5   0  0.2017750E-05  0.2108606E+04  0.7818609E-02  0.8557462E-01
       -3   -1    0    0    0  501  0.00000000000E+00  0.00000000000E+00  0.10050406548E+04  0.10050406598E+04  0.10100000352E+00 0. -1.
        3   -1    0    0  501    0  0.00000000000E+00  0.00000000000E+00 -0.11059799690E+04  0.11059799736E+04  0.10100000352E+00 0.  1.
    10030    2    1    2    0    0  0.00000000000E+00  0.00000000000E+00 -0.10093931426E+03  0.21110206335E+04  0.21086060253E+04 0.  0.
        4    1    3    3  502    0  0.84392656610E+03 -0.61789400210E+03 -0.18309090473E+03  0.10618516559E+04  0.12699999809E+01 0.  1.
       -4    1    3    3    0  502 -0.84392656610E+03  0.61789400210E+03  0.82151590478E+02  0.10491689776E+04  0.12699999809E+01 0. -1.
</event>
<event>
 5   0  0.2732159E-05  0.2215621E+04  0.7818609E-02  0.8511954E-01
       -1   -1    0    0    0  501  0.00000000000E+00  0.00000000000E+00  0.98476069498E+03  0.98476069499E+03  0.50400001928E-02 0. -1.
        1   -1    0    0  501    0  0.00000000000E+00  0.00000000000E+00 -0.12462356167E+04  0.12462356167E+04  0.50400001928E-02 0.  1.
    10030    2    1    2    0    0  0.00000000000E+00  0.00000000000E+00 -0.26147492170E+03  0.22309963117E+04  0.22156207726E+04 0.  0.
        3    1    3    3  502    0  0.74932202910E+03  0.65745971084E+03 -0.61731654722E+03  0.11725256945E+04  0.10100000352E+00 0.  1.
       -3    1    3    3    0  502 -0.74932202910E+03 -0.65745971084E+03  0.35584162552E+03  0.10584706171E+04  0.10100000352E+00 0. -1.
</event>
<event>
 5   0  0.5954140E-05  0.2099984E+04  0.7818609E-02  0.8561250E-01
        2   -1    0    0  501    0  0.00000000000E+00  0.00000000000E+00  0.14455603276E+04  0.14455603276E+04  0.25500000920E-02 0. -1.
       -2   -1    0    0    0  501  0.00000000000E+00  0.00000000000E+00 -0.76266843924E+03  0.76266843924E+03  0.25500000920E-02 0.  1.
    10030    2    1    2    0    0  0.00000000000E+00  0.00000000000E+00  0.68289188835E+03  0.22082287668E+04  0.20999840370E+04 0.  0.
        2    1    3    3  502    0  0.33259067557E+03  0.99575777405E+03  0.32225309816E+03  0.10981790206E+04  0.25500000920E-02 0.  1.
       -2    1    3    3    0  502 -0.33259067557E+03 -0.99575777405E+03  0.36063879019E+03  0.11100497462E+04  0.25500000920E-02 0. -1.
</event>
<event>
 5   0  0.2602060E-05  0.2111769E+04  0.7818609E-02  0.8556077E-01
        1   -1    0    0  501    0  0.00000000000E+00  0.00000000000E+00  0.24049293944E+04  0.24049293944E+04  0.50400001928E-02 0. -1.
       -1   -1    0    0    0  501  0.00000000000E+00  0.00000000000E+00 -0.46358638066E+03  0.46358638069E+03  0.50400001928E-02 0.  1.
    10030    2    1    2    0    0  0.00000000000E+00  0.00000000000E+00  0.19413430138E+04  0.28685157751E+04  0.21117694133E+04 0.  0.
        1    1    3    3  502    0 -0.21468164229E+03  0.84674526258E+03  0.16496812657E+03  0.88897706947E+03  0.50400001928E-02 0.  1.
       -1    1    3    3    0  502  0.21468164229E+03 -0.84674526258E+03  0.17763748872E+04  0.19795387056E+04  0.50400001928E-02 0. -1.
</event>
<event>
 5   0  0.5954140E-05  0.2088832E+04  0.7818609E-02  0.8566179E-01
       -2   -1    0    0    0  501  0.00000000000E+00  0.00000000000E+00  0.10725804646E+04  0.10725804646E+04  0.25500000920E-02 0.  1.
        2   -1    0    0  501    0  0.00000000000E+00  0.00000000000E+00 -0.10169908474E+04  0.10169908474E+04  0.25500000920E-02 0. -1.
    10030    2    1    2    0    0  0.00000000000E+00  0.00000000000E+00  0.55589617189E+02  0.20895713120E+04  0.20888317459E+04 0.  0.
        2    1    3    3  502    0  0.69792581328E+03 -0.47266700897E+03 -0.58910008521E+03  0.10283741793E+04  0.25500000920E-02 0. -1.
       -2    1    3    3    0  502 -0.69792581328E+03  0.47266700897E+03  0.64468970240E+03  0.10611971328E+04  0.25500000920E-02 0.  1.
</event>
<event>
 5   0  0.5954140E-05  0.2113249E+04  0.7818609E-02  0.8555430E-01
        2   -1    0    0  501    0  0.00000000000E+00  0.00000000000E+00  0.81438626822E+03  0.81438626823E+03  0.25500000920E-02 0. -1.
       -2   -1    0    0    0  501  0.00000000000E+00  0.00000000000E+00 -0.13709158147E+04  0.13709158147E+04  0.25500000920E-02 0.  1.
    10030    2    1    2    0    0  0.00000000000E+00  0.00000000000E+00 -0.55652954646E+03  0.21853020829E+04  0.21132486975E+04 0.  0.
        2    1    3    3  502    0 -0.40323332037E+02  0.84605242194E+03  0.37495686894E+03  0.92629548490E+03  0.25500000920E-02 0. -1.
       -2    1    3    3    0  502  0.40323332037E+02 -0.84605242194E+03 -0.93148641540E+03  0.12590065980E+04  0.25500000920E-02 0.  1.
</event>
<event>
 5   0  0.2732159E-05  0.2106216E+04  0.7818609E-02  0.8558510E-01
        1   -1    0    0  501    0  0.00000000000E+00  0.00000000000E+00  0.12015960236E+04  0.12015960236E+04  0.50400001928E-02 0. -1.
       -1   -1    0    0    0  501  0.00000000000E+00  0.00000000000E+00 -0.92296979495E+03  0.92296979497E+03  0.50400001928E-02 0.  1.
    10030    2    1    2    0    0  0.00000000000E+00  0.00000000000E+00  0.27862622864E+03  0.21245658186E+04  0.21062163569E+04 0.  0.
        3    1    3    3  502    0  0.49512605421E+03  0.92388006681E+03  0.36777954100E+02  0.10488359336E+04  0.10100000352E+00 0.  1.
       -3    1    3    3    0  502 -0.49512605421E+03 -0.92388006681E+03  0.24184827454E+03  0.10757298850E+04  0.10100000352E+00 0. -1.
</event>
<event>
 5   0  0.2602060E-05  0.2101880E+04  0.7818609E-02  0.8560415E-01
        1   -1    0    0  501    0  0.00000000000E+00  0.00000000000E+00  0.11369880680E+04  0.11369880680E+04  0.50400001928E-02 0. -1.
       -1   -1    0    0    0  501  0.00000000000E+00  0.00000000000E+00 -0.97140450248E+03  0.97140450249E+03  0.50400001928E-02 0.  1.
    10030    2    1    2    0    0  0.00000000000E+00  0.00000000000E+00  0.16558356549E+03  0.21083925705E+04  0.21018804234E+04 0.  0.
        1    1    3    3  502    0 -0.84147302647E+03 -0.51784900963E+03  0.44199463701E+03  0.10824064441E+04  0.50400001928E-02 0. -1.
       -1    1    3    3    0  502  0.84147302647E+03  0.51784900963E+03 -0.27641107152E+03  0.10259861264E+04  0.50400001928E-02 0.  1.
</event>
<event>
 5   0  0.2732159E-05  0.2110122E+04  0.7818609E-02  0.8556798E-01
       -1   -1    0    0    0  501  0.00000000000E+00  0.00000000000E+00  0.75165433690E+03  0.75165433692E+03  0.50400001928E-02 0. -1.
        1   -1    0    0  501    0  0.00000000000E+00  0.00000000000E+00 -0.14809386078E+04  0.14809386078E+04  0.50400001928E-02 0.  1.
    10030    2    1    2    0    0  0.00000000000E+00  0.00000000000E+00 -0.72928427094E+03  0.22325929448E+04  0.21101222024E+04 0.  0.
        3    1    3    3  502    0 -0.81683116227E+03  0.66766572246E+03 -0.35112353126E+03  0.11118805732E+04  0.10100000352E+00 0.  1.
       -3    1    3    3    0  502  0.81683116227E+03 -0.66766572246E+03 -0.37816073968E+03  0.11207123716E+04  0.10100000352E+00 0. -1.
</event>
<event>
 5   0  0.2017750E-05  0.2065733E+04  0.7818609E-02  0.8576490E-01
        3   -1    0    0  501    0  0.00000000000E+00  0.00000000000E+00  0.10715232455E+04  0.10715232503E+04  0.10100000352E+00 0.  1.
       -3   -1    0    0    0  501  0.00000000000E+00  0.00000000000E+00 -0.99560448534E+03  0.99560449046E+03  0.10100000352E+00 0. -1.
    10030    2    1    2    0    0  0.00000000000E+00  0.00000000000E+00  0.75918760195E+02  0.20671277408E+04  0.20657331479E+04 0.  0.
        3    1    3    3  502    0 -0.12007200123E+03 -0.75982337280E+03 -0.65175517117E+03  0.10082329377E+04  0.10100000352E+00 0. -1.
       -3    1    3    3    0  502  0.12007200123E+03  0.75982337280E+03  0.72767393136E+03  0.10588948030E+04  0.10100000352E+00 0.  1.
</event>
<event>
 5   0  0.2789662E-05  0.2110129E+04  0.7818609E-02  0.8556794E-01
       -1   -1    0    0    0  501  0.00000000000E+00  0.00000000000E+00  0.65068047648E+03  0.65068047650E+03  0.50400001928E-02 0. -1.
        1   -1    0    0  501    0  0.00000000000E+00  0.00000000000E+00 -0.17107650653E+04  0.17107650653E+04  0.50400001928E-02 0.  1.
    10030    2    1    2    0    0  0.00000000000E+00  0.00000000000E+00 -0.10600845889E+04  0.23614455418E+04  0.21101293116E+04 0.  0.
        4    1    3    3  502    0  0.12341521487E+03 -0.10478200363E+04 -0.52859557575E+03  0.11800733195E+04  0.12699999809E+01 0. -1.
       -4    1    3    3    0  502 -0.12341521487E+03  0.10478200363E+04 -0.53148901311E+03  0.11813722223E+04  0.12699999809E+01 0.  1.
</event>
<event>
 5   0  0.2789662E-05  0.2088441E+04  0.7818609E-02  0.8566353E-01
        1   -1    0    0  501    0  0.00000000000E+00  0.00000000000E+00  0.16213609377E+04  0.16213609377E+04  0.50400001928E-02 0. -1.
       -1   -1    0    0    0  501  0.00000000000E+00  0.00000000000E+00 -0.67251900103E+03  0.67251900105E+03  0.50400001928E-02 0.  1.
    10030    2    1    2    0    0  0.00000000000E+00  0.00000000000E+00  0.94884193670E+03  0.22938799388E+04  0.20884406031E+04 0.  0.
        4    1    3    3  502    0 -0.93367503997E+03  0.43471545999E+03  0.28523395201E+03  0.10686845333E+04  0.12699999809E+01 0.  1.
       -4    1    3    3    0  502  0.93367503997E+03 -0.43471545999E+03  0.66360798469E+03  0.12251954055E+04  0.12699999809E+01 0. -1.
</event>
<event>
 5   0  0.5462851E-05  0.2104643E+04  0.7818609E-02  0.8559201E-01
       -2   -1    0    0    0  501  0.00000000000E+00  0.00000000000E+00  0.97428212064E+03  0.97428212064E+03  0.25500000920E-02 0. -1.
        2   -1    0    0  501    0  0.00000000000E+00  0.00000000000E+00 -0.11366120351E+04  0.11366120351E+04  0.25500000920E-02 0.  1.
    10030    2    1    2    0    0  0.00000000000E+00  0.00000000000E+00 -0.16232991443E+03  0.21108941557E+04  0.21046432324E+04 0.  0.
        1    1    3    3  502    0 -0.93986909186E+03 -0.18863650307E+03 -0.51655464717E+03  0.10889289893E+04  0.50400001928E-02 0.  1.
       -1    1    3    3    0  502  0.93986909186E+03  0.18863650307E+03  0.35422473274E+03  0.10219651664E+04  0.50400001928E-02 0. -1.
</event>
<event>
 5   0  0.5506332E-05  0.2090021E+04  0.7818609E-02  0.8565652E-01
       -2   -1    0    0    0  501  0.00000000000E+00  0.00000000000E+00  0.10970301518E+04  0.10970301518E+04  0.25500000920E-02 0.  1.
        2   -1    0    0  501    0  0.00000000000E+00  0.00000000000E+00 -0.99545760688E+03  0.99545760689E+03  0.25500000920E-02 0. -1.
    10030    2    1    2    0    0  0.00000000000E+00  0.00000000000E+00  0.10157254492E+03  0.20924877587E+04  0.20900210617E+04 0.  0.
        3    1    3    3  502    0 -0.72828714081E+03  0.73708802160E+03 -0.84821319331E+02  0.10396612802E+04  0.10100000352E+00 0.  1.
       -3    1    3    3    0  502  0.72828714081E+03 -0.73708802160E+03  0.18639386425E+03  0.10528264785E+04  0.10100000352E+00 0. -1.
</event>
<event>
 5   0  0.2017750E-05  0.2205641E+04  0.7818609E-02  0.8516084E-01
        3   -1    0    0  501    0  0.00000000000E+00  0.00000000000E+00  0.83713139701E+03  0.83713140310E+03  0.10100000352E+00 0.  1.
       -3   -1    0    0    0  501  0.00000000000E+00  0.00000000000E+00 -0.14528341301E+04  0.14528341336E+04  0.10100000352E+00 0. -1.
    10030    2    1    2    0    0  0.00000000000E+00  0.00000000000E+00 -0.61570273312E+03  0.22899655367E+04  0.22056410188E+04 0.  0.
        4    1    3    3  502    0  0.76516642888E+03  0.30506914746E+03  0.45343814076E+03  0.94029495852E+03  0.12699999809E+01 0.  1.
       -4    1    3    3    0  502 -0.76516642888E+03 -0.30506914746E+03 -0.10691408739E+04  0.13496705782E+04  0.12699999809E+01 0. -1.
</event>
<event>
 5   0  0.5954140E-05  0.2114161E+04  0.7818609E-02  0.8555031E-01
       -2   -1    0    0    0  501  0.00000000000E+00  0.00000000000E+00  0.94683726902E+03  0.94683726903E+03  0.25500000920E-02 0.  1.
        2   -1    0    0  501    0  0.00000000000E+00  0.00000000000E+00 -0.11801595293E+04  0.11801595294E+04  0.25500000920E-02 0. -1.
    10030    2    1    2    0    0  0.00000000000E+00  0.00000000000E+00 -0.23332226033E+03  0.21269967984E+04  0.21141608508E+04 0.  0.
        2    1    3    3  502    0 -0.71322878990E+03  0.27740108680E+03  0.61699354301E+03  0.98301968536E+03  0.25500000920E-02 0.  1.
       -2    1    3    3    0  502  0.71322878990E+03 -0.27740108680E+03 -0.85031580333E+03  0.11439771130E+04  0.25500000920E-02 0. -1.
</event>
<event>
 5   0  0.5967046E-05  0.2090648E+04  0.7818609E-02  0.8565374E-01
       -2   -1    0    0    0  501  0.00000000000E+00  0.00000000000E+00  0.97580035699E+03  0.97580035699E+03  0.25500000920E-02 0. -1.
        2   -1    0    0  501    0  0.00000000000E+00  0.00000000000E+00 -0.11198008619E+04  0.11198008619E+04  0.25500000920E-02 0.  1.
    10030    2    1    2    0    0  0.00000000000E+00  0.00000000000E+00 -0.14400050489E+03  0.20956012189E+04  0.20906478238E+04 0.  0.
        4    1    3    3  502    0 -0.29125340962E+02 -0.10076091193E+04 -0.34937966755E+03  0.10668609037E+04  0.12699999809E+01 0.  1.
       -4    1    3    3    0  502  0.29125340962E+02  0.10076091193E+04  0.20537916266E+03  0.10287403152E+04  0.12699999809E+01 0. -1.
</event>
<event>
 5   0  0.2789662E-05  0.2009762E+04  0.7818609E-02  0.8602070E-01
        1   -1    0    0  501    0  0.00000000000E+00  0.00000000000E+00  0.11592476448E+04  0.11592476448E+04  0.50400001928E-02 0. -1.
       -1   -1    0    0    0  501  0.00000000000E+00  0.00000000000E+00 -0.87107032290E+03  0.87107032292E+03  0.50400001928E-02 0.  1.
    10030    2    1    2    0    0  0.00000000000E+00  0.00000000000E+00  0.28817732186E+03  0.20303179677E+04  0.20097623942E+04 0.  0.
        4    1    3    3  502    0 -0.21670003775E+03 -0.91454489243E+03 -0.21512277052E+03  0.96417357666E+03  0.12699999809E+01 0. -1.
       -4    1    3    3    0  502  0.21670003775E+03  0.91454489243E+03  0.50330009239E+03  0.10661443910E+04  0.12699999809E+01 0.  1.
</event>
<event>
 5   0  0.5866610E-05  0.2097827E+04  0.7818609E-02  0.8562201E-01
       -2   -1    0    0    0  501  0.00000000000E+00  0.00000000000E+00  0.12830008491E+04  0.12830008491E+04  0.25500000920E-02 0.  1.
        2   -1    0    0  501    0  0.00000000000E+00  0.00000000000E+00 -0.85753631539E+03  0.85753631540E+03  0.25500000920E-02 0. -1.
    10030    2    1    2    0    0  0.00000000000E+00  0.00000000000E+00  0.42546453369E+03  0.21405371645E+04  0.20978272768E+04 0.  0.
        5    1    3    3  502    0 -0.12401513961E+03  0.55979890949E+03 -0.68346787859E+03  0.89213508225E+03  0.46999998093E+01 0. -1.
       -5    1    3    3    0  502  0.12401513961E+03 -0.55979890949E+03  0.11089324123E+04  0.12484020822E+04  0.46999998093E+01 0.  1.
</event>
<event>
 5   0  0.5506332E-05  0.2126889E+04  0.7818609E-02  0.8549490E-01
        2   -1    0    0  501    0  0.00000000000E+00  0.00000000000E+00  0.18693974201E+04  0.18693974201E+04  0.25500000920E-02 0.  1.
       -2   -1    0    0    0  501  0.00000000000E+00  0.00000000000E+00 -0.60496179365E+03  0.60496179366E+03  0.25500000920E-02 0. -1.
    10030    2    1    2    0    0  0.00000000000E+00  0.00000000000E+00  0.12644356264E+04  0.24743592137E+04  0.21268888230E+04 0.  0.
        3    1    3    3  502    0  0.63072630500E+03  0.85582747734E+03  0.66205238242E+03  0.12524255307E+04  0.10100000352E+00 0. -1.
       -3    1    3    3    0  502 -0.63072630500E+03 -0.85582747734E+03  0.60238324400E+03  0.12219336830E+04  0.10100000352E+00 0.  1.
</event>
<event>
 5   0  0.2789662E-05  0.2107043E+04  0.7818609E-02  0.8558147E-01
       -1   -1    0    0    0  501  0.00000000000E+00  0.00000000000E+00  0.65695883521E+03  0.65695883523E+03  0.50400001928E-02 0.  1.
        1   -1    0    0  501    0  0.00000000000E+00  0.00000000000E+00 -0.16894623116E+04  0.16894623116E+04  0.50400001928E-02 0. -1.
    10030    2    1    2    0    0  0.00000000000E+00  0.00000000000E+00 -0.10325034764E+04  0.23464211469E+04  0.21070426597E+04 0.  0.
        4    1    3    3  502    0 -0.77406015419E+02  0.10010158935E+04 -0.87170244529E+03  0.13296207265E+04  0.12699999809E+01 0.  1.
       -4    1    3    3    0  502  0.77406015419E+02 -0.10010158935E+04 -0.16080103113E+03  0.10168004204E+04  0.12699999809E+01 0. -1.
</event>
<event>
 5   0  0.2732159E-05  0.2084944E+04  0.7818609E-02  0.8567905E-01
        1   -1    0    0  501    0  0.00000000000E+00  0.00000000000E+00  0.16560009648E+04  0.16560009648E+04  0.50400001928E-02 0.  1.
       -1   -1    0    0    0  501  0.00000000000E+00  0.00000000000E+00 -0.65624833964E+03  0.65624833966E+03  0.50400001928E-02 0. -1.
    10030    2    1    2    0    0  0.00000000000E+00  0.00000000000E+00  0.99975262515E+03  0.23122493045E+04  0.20849440123E+04 0.  0.
        3    1    3    3  502    0  0.50619144751E+03 -0.82632507073E+03  0.73652397750E+02  0.97183722399E+03  0.10100000352E+00 0. -1.
       -3    1    3    3    0  502 -0.50619144751E+03  0.82632507073E+03  0.92610022740E+03  0.13404120805E+04  0.10100000352E+00 0.  1.
</event>
<event>
 5   0  0.5967046E-05  0.2279811E+04  0.7818609E-02  0.8485924E-01
       -2   -1    0    0    0  501  0.00000000000E+00  0.00000000000E+00  0.63320168424E+03  0.63320168425E+03  0.25500000920E-02 0.  1.
        2   -1    0    0  501    0  0.00000000000E+00  0.00000000000E+00 -0.20520865932E+04  0.20520865932E+04  0.25500000920E-02 0. -1.
    10030    2    1    2    0    0  0.00000000000E+00  0.00000000000E+00 -0.14188849090E+04  0.26852882775E+04  0.22798111212E+04 0.  0.
        4    1    3    3  502    0 -0.60565781783E+03 -0.59623588055E+03  0.18531270382E+03  0.86986264931E+03  0.12699999809E+01 0.  1.
       -4    1    3    3    0  502  0.60565781783E+03  0.59623588055E+03 -0.16041976128E+04  0.18154256282E+04  0.12699999809E+01 0. -1.
</event>
<event>
 5   0  0.5506332E-05  0.2092127E+04  0.7818609E-02  0.8564719E-01
        2   -1    0    0  501    0  0.00000000000E+00  0.00000000000E+00  0.17444474822E+04  0.17444474822E+04  0.25500000920E-02 0. -1.
       -2   -1    0    0    0  501  0.00000000000E+00  0.00000000000E+00 -0.62727545697E+03  0.62727545697E+03  0.25500000920E-02 0.  1.
    10030    2    1    2    0    0  0.00000000000E+00  0.00000000000E+00  0.11171720252E+04  0.23717229392E+04  0.20921272347E+04 0.  0.
        3    1    3    3  502    0  0.46736203552E+03  0.51954992677E+03 -0.32382849505E+03  0.77021055761E+03  0.10100000352E+00 0.  1.
       -3    1    3    3    0  502 -0.46736203552E+03 -0.51954992677E+03  0.14410005203E+04  0.16015123816E+04  0.10100000352E+00 0. -1.
</event>
<event>
 5   0  0.5954140E-05  0.2095356E+04  0.7818609E-02  0.8563292E-01
        2   -1    0    0  501    0  0.00000000000E+00  0.00000000000E+00  0.86135067493E+03  0.86135067494E+03  0.25500000920E-02 0.  1.
       -2   -1    0    0    0  501  0.00000000000E+00  0.00000000000E+00 -0.12743117027E+04  0.12743117027E+04  0.25500000920E-02 0. -1.
    10030    2    1    2    0    0  0.00000000000E+00  0.00000000000E+00 -0.41296102777E+03  0.21356623776E+04  0.20953560511E+04 0.  0.
        2    1    3    3  502    0 -0.59808269745E+03 -0.63066846885E+03 -0.80269753632E+03  0.11831183227E+04  0.25500000920E-02 0. -1.
       -2    1    3    3    0  502  0.59808269745E+03  0.63066846885E+03  0.38973650855E+03  0.95254405499E+03  0.25500000920E-02 0.  1.
</event>
<event>
 5   0  0.5954140E-05  0.2030456E+04  0.7818609E-02  0.8592512E-01
       -2   -1    0    0    0  501  0.00000000000E+00  0.00000000000E+00  0.62473167510E+03  0.62473167511E+03  0.25500000920E-02 0.  1.
        2   -1    0    0  501    0  0.00000000000E+00  0.00000000000E+00 -0.16498092084E+04  0.16498092084E+04  0.25500000920E-02 0. -1.
    10030    2    1    2    0    0  0.00000000000E+00  0.00000000000E+00 -0.10250775333E+04  0.22745408835E+04  0.20304561757E+04 0.  0.
        2    1    3    3  502    0 -0.51064243694E+03 -0.74567581616E+03 -0.10306290744E+04  0.13707605225E+04  0.25500000920E-02 0. -1.
       -2    1    3    3    0  502  0.51064243694E+03  0.74567581616E+03  0.55515410987E+01  0.90378036094E+03  0.25500000920E-02 0.  1.
</event>
<event>
 5   0  0.5967046E-05  0.2102036E+04  0.7818609E-02  0.8560347E-01
        2   -1    0    0  501    0  0.00000000000E+00  0.00000000000E+00  0.10556376568E+04  0.10556376568E+04  0.25500000920E-02 0. -1.
       -2   -1    0    0    0  501  0.00000000000E+00  0.00000000000E+00 -0.10464184599E+04  0.10464184599E+04  0.25500000920E-02 0.  1.
    10030    2    1    2    0    0  0.00000000000E+00  0.00000000000E+00  0.92191968736E+01  0.21020561166E+04  0.21020358998E+04 0.  0.
        4    1    3    3  502    0  0.23597871513E+03  0.83618403430E+03 -0.58679056428E+03  0.10484342957E+04  0.12699999809E+01 0.  1.
       -4    1    3    3    0  502 -0.23597871513E+03 -0.83618403430E+03  0.59600976116E+03  0.10536218209E+04  0.12699999809E+01 0. -1.
</event>
<event>
 5   0  0.5866610E-05  0.2118798E+04  0.7818609E-02  0.8553008E-01
        2   -1    0    0  501    0  0.00000000000E+00  0.00000000000E+00  0.14962122687E+04  0.14962122687E+04  0.25500000920E-02 0.  1.
       -2   -1    0    0    0  501  0.00000000000E+00  0.00000000000E+00 -0.75011180639E+03  0.75011180640E+03  0.25500000920E-02 0. -1.
    10030    2    1    2    0    0  0.00000000000E+00  0.00000000000E+00  0.74610046232E+03  0.22463240751E+04  0.21187982326E+04 0.  0.
        5    1    3    3  502    0 -0.72220037835E+02  0.58007386066E+03 -0.56364414366E+03  0.81204570584E+03  0.46999998093E+01 0. -1.
       -5    1    3    3    0  502  0.72220037835E+02 -0.58007386066E+03  0.13097446060E+04  0.14342783693E+04  0.46999998093E+01 0.  1.
</event>
<event>
 5   0  0.5866610E-05  0.2093282E+04  0.7818609E-02  0.8564208E-01
        2   -1    0    0  501    0  0.00000000000E+00  0.00000000000E+00  0.97550641665E+03  0.97550641666E+03  0.25500000920E-02 0.  1.
       -2   -1    0    0    0  501  0.00000000000E+00  0.00000000000E+00 -0.11229628960E+04  0.11229628960E+04  0.25500000920E-02 0. -1.
    10030    2    1    2    0    0  0.00000000000E+00  0.00000000000E+00 -0.14745647933E+03  0.20984693126E+04  0.20932821221E+04 0.  0.
        5    1    3    3  502    0  0.68493788800E+03 -0.56822331156E+03  0.47847044831E+03  0.10104324332E+04  0.46999998093E+01 0.  1.
       -5    1    3    3    0  502 -0.68493788800E+03  0.56822331156E+03 -0.62592692764E+03  0.10880368794E+04  0.46999998093E+01 0. -1.
</event>
<event>
 5   0  0.5506332E-05  0.2121135E+04  0.7818609E-02  0.8551990E-01
       -2   -1    0    0    0  501  0.00000000000E+00  0.00000000000E+00  0.11989799697E+04  0.11989799697E+04  0.25500000920E-02 0. -1.
        2   -1    0    0  501    0  0.00000000000E+00  0.00000000000E+00 -0.93813344206E+03  0.93813344206E+03  0.25500000920E-02 0.  1.
    10030    2    1    2    0    0  0.00000000000E+00  0.00000000000E+00  0.26084652763E+03  0.21371134118E+04  0.21211347962E+04 0.  0.
        3    1    3    3  502    0  0.66176149249E+03  0.77938396044E+03  0.41438955926E+03  0.11032163649E+04  0.10100000352E+00 0. -1.
       -3    1    3    3    0  502 -0.66176149249E+03 -0.77938396044E+03 -0.15354303163E+03  0.10338970469E+04  0.10100000352E+00 0.  1.
</event>
<event>
 5   0  0.2602060E-05  0.2105463E+04  0.7818609E-02  0.8558840E-01
       -1   -1    0    0    0  501  0.00000000000E+00  0.00000000000E+00  0.10515316727E+04  0.10515316727E+04  0.50400001928E-02 0. -1.
        1   -1    0    0  501    0  0.00000000000E+00  0.00000000000E+00 -0.10539331759E+04  0.10539331759E+04  0.50400001928E-02 0.  1.
    10030    2    1    2    0    0  0.00000000000E+00  0.00000000000E+00 -0.24015032012E+01  0.21054648487E+04  0.21054634791E+04 0.  0.
        1    1    3    3  502    0  0.38870417006E+03  0.30529330696E+03  0.92828851909E+03  0.10516722445E+04  0.50400001928E-02 0. -1.
       -1    1    3    3    0  502 -0.38870417006E+03 -0.30529330696E+03 -0.93069002229E+03  0.10537926042E+04  0.50400001928E-02 0.  1.
</event>
<event>
 5   0  0.2602060E-05  0.2104998E+04  0.7818609E-02  0.8559045E-01
       -1   -1    0    0    0  501  0.00000000000E+00  0.00000000000E+00  0.13446830576E+04  0.13446830576E+04  0.50400001928E-02 0.  1.
        1   -1    0    0  501    0  0.00000000000E+00  0.00000000000E+00 -0.82380291633E+03  0.82380291634E+03  0.50400001928E-02 0. -1.
    10030    2    1    2    0    0  0.00000000000E+00  0.00000000000E+00  0.52088014130E+03  0.21684859740E+04  0.21049976954E+04 0.  0.
        1    1    3    3  502    0 -0.56831750189E+03  0.69457991044E+03 -0.30598703402E+03  0.94818463390E+03  0.50400001928E-02 0. -1.
       -1    1    3    3    0  502  0.56831750189E+03 -0.69457991044E+03  0.82686717532E+03  0.12203013401E+04  0.50400001928E-02 0.  1.
</event>
<event>
 5   0  0.5954140E-05  0.2100696E+04  0.7818609E-02  0.8560937E-01
        2   -1    0    0  501    0  0.00000000000E+00  0.00000000000E+00  0.13463092965E+04  0.13463092965E+04  0.25500000920E-02 0. -1.
       -2   -1    0    0    0  501  0.00000000000E+00  0.00000000000E+00 -0.81944814134E+03  0.81944814135E+03  0.25500000920E-02 0.  1.
    10030    2    1    2    0    0  0.00000000000E+00  0.00000000000E+00  0.52686115514E+03  0.21657574378E+04  0.21006957425E+04 0.  0.
        2    1    3    3  502    0 -0.23288327352E+03 -0.10224698869E+04  0.32486957705E+03  0.10978249090E+04  0.25500000920E-02 0.  1.
       -2    1    3    3    0  502  0.23288327352E+03  0.10224698869E+04  0.20199157809E+03  0.10679325289E+04  0.25500000920E-02 0. -1.
</event>
<event>
 5   0  0.5967046E-05  0.2091290E+04  0.7818609E-02  0.8565090E-01
        2   -1    0    0  501    0  0.00000000000E+00  0.00000000000E+00  0.15209761446E+04  0.15209761446E+04  0.25500000920E-02 0. -1.
       -2   -1    0    0    0  501  0.00000000000E+00  0.00000000000E+00 -0.71886310311E+03  0.71886310311E+03  0.25500000920E-02 0.  1.
    10030    2    1    2    0    0  0.00000000000E+00  0.00000000000E+00  0.80211304145E+03  0.22398392477E+04  0.20912901578E+04 0.  0.
        4    1    3    3  502    0 -0.97879060128E+03 -0.52618307048E+02  0.11088551305E+02  0.98026746159E+03  0.12699999809E+01 0.  1.
       -4    1    3    3    0  502  0.97879060128E+03  0.52618307048E+02  0.79102449014E+03  0.12595717861E+04  0.12699999809E+01 0. -1.
</event>
<event>
 5   0  0.2604390E-05  0.2097540E+04  0.7818609E-02  0.8562328E-01
        1   -1    0    0  501    0  0.00000000000E+00  0.00000000000E+00  0.79993820743E+03  0.79993820745E+03  0.50400001928E-02 0.  1.
       -1   -1    0    0    0  501  0.00000000000E+00  0.00000000000E+00 -0.13750044150E+04  0.13750044150E+04  0.50400001928E-02 0. -1.
    10030    2    1    2    0    0  0.00000000000E+00  0.00000000000E+00 -0.57506620760E+03  0.21749426225E+04  0.20975400516E+04 0.  0.
        5    1    3    3  502    0 -0.90043556729E+03  0.51577044297E+03 -0.44510501898E+03  0.11291341500E+04  0.46999998093E+01 0.  1.
       -5    1    3    3    0  502  0.90043556729E+03 -0.51577044297E+03 -0.12996118862E+03  0.10458084725E+04  0.46999998093E+01 0. -1.
</event>
<event>
 5   0  0.5462851E-05  0.2335247E+04  0.7818609E-02  0.8464152E-01
       -2   -1    0    0    0  501  0.00000000000E+00  0.00000000000E+00  0.73529296364E+03  0.73529296365E+03  0.25500000920E-02 0. -1.
        2   -1    0    0  501    0  0.00000000000E+00  0.00000000000E+00 -0.18541508925E+04  0.18541508925E+04  0.25500000920E-02 0.  1.
    10030    2    1    2    0    0  0.00000000000E+00  0.00000000000E+00 -0.11188579289E+04  0.25894438562E+04  0.23352465436E+04 0.  0.
        1    1    3    3  502    0  0.80908980995E+03  0.19279530691E+03 -0.14681115637E+04  0.16873493753E+04  0.50400001928E-02 0.  1.
       -1    1    3    3    0  502 -0.80908980995E+03 -0.19279530691E+03  0.34925363481E+03  0.90209448085E+03  0.50400001928E-02 0. -1.
</event>
<event>
 5   0  0.2604390E-05  0.2106160E+04  0.7818609E-02  0.8558535E-01
       -1   -1    0    0    0  501  0.00000000000E+00  0.00000000000E+00  0.15177510179E+04  0.15177510179E+04  0.50400001928E-02 0. -1.
        1   -1    0    0  501    0  0.00000000000E+00  0.00000000000E+00 -0.73067177175E+03  0.73067177177E+03  0.50400001928E-02 0.  1.
    10030    2    1    2    0    0  0.00000000000E+00  0.00000000000E+00  0.78707924612E+03  0.22484227897E+04  0.21061603219E+04 0.  0.
        5    1    3    3  502    0 -0.10446878222E+04 -0.82931194738E+02  0.28308340707E+03  0.10855452705E+04  0.46999998093E+01 0. -1.
       -5    1    3    3    0  502  0.10446878222E+04  0.82931194738E+02  0.50399583905E+03  0.11628775192E+04  0.46999998093E+01 0.  1.
</event>
<event>
 5   0  0.2789662E-05  0.2076852E+04  0.7818609E-02  0.8571509E-01
        1   -1    0    0  501    0  0.00000000000E+00  0.00000000000E+00  0.14110888338E+04  0.14110888338E+04  0.50400001928E-02 0. -1.
       -1   -1    0    0    0  501  0.00000000000E+00  0.00000000000E+00 -0.76418191576E+03  0.76418191577E+03  0.50400001928E-02 0.  1.
    10030    2    1    2    0    0  0.00000000000E+00  0.00000000000E+00  0.64690691802E+03  0.21752707496E+04  0.20768520104E+04 0.  0.
        4    1    3    3  502    0  0.72217394888E+02 -0.10359109205E+04  0.32388284317E+03  0.10877630700E+04  0.12699999809E+01 0.  1.
       -4    1    3    3    0  502 -0.72217394888E+02  0.10359109205E+04  0.32302407485E+03  0.10875076796E+04  0.12699999809E+01 0. -1.
</event>
<event>
 5   0  0.2602060E-05  0.2082901E+04  0.7818609E-02  0.8568813E-01
       -1   -1    0    0    0  501  0.00000000000E+00  0.00000000000E+00  0.73024452245E+03  0.73024452246E+03  0.50400001928E-02 0.  1.
        1   -1    0    0  501    0  0.00000000000E+00  0.00000000000E+00 -0.14852818845E+04  0.14852818845E+04  0.50400001928E-02 0. -1.
    10030    2    1    2    0    0  0.00000000000E+00  0.00000000000E+00 -0.75503736207E+03  0.22155264070E+04  0.20829008238E+04 0.  0.
        1    1    3    3  502    0 -0.10284479543E+04 -0.95877532598E+02 -0.51911621575E+03  0.11560187462E+04  0.50400001928E-02 0. -1.
       -1    1    3    3    0  502  0.10284479543E+04  0.95877532598E+02 -0.23592114632E+03  0.10595076608E+04  0.50400001928E-02 0.  1.
</event>
<event>
 5   0  0.2602060E-05  0.2105824E+04  0.7818609E-02  0.8558682E-01
       -1   -1    0    0    0  501  0.00000000000E+00  0.00000000000E+00  0.11695174211E+04  0.11695174211E+04  0.50400001928E-02 0.  1.
        1   -1    0    0  501    0  0.00000000000E+00  0.00000000000E+00 -0.94793230523E+03  0.94793230524E+03  0.50400001928E-02 0. -1.
    10030    2    1    2    0    0  0.00000000000E+00  0.00000000000E+00  0.22158511586E+03  0.21174497263E+04  0.21058236821E+04 0.  0.
        1    1    3    3  502    0 -0.38666101105E+03  0.31055827949E+03 -0.82313564612E+03  0.96099192211E+03  0.50400001928E-02 0. -1.
       -1    1    3    3    0  502  0.38666101105E+03 -0.31055827949E+03  0.10447207620E+04  0.11564578042E+04  0.50400001928E-02 0.  1.
</event>
<event>
 5   0  0.2602060E-05  0.2100571E+04  0.7818609E-02  0.8560992E-01
       -1   -1    0    0    0  501  0.00000000000E+00  0.00000000000E+00  0.14422577510E+04  0.14422577510E+04  0.50400001928E-02 0. -1.
        1   -1    0    0  501    0  0.00000000000E+00  0.00000000000E+00 -0.76484212355E+03  0.76484212357E+03  0.50400001928E-02 0.  1.
    10030    2    1    2    0    0  0.00000000000E+00  0.00000000000E+00  0.67741562745E+03  0.22070998746E+04  0.21005708567E+04 0.  0.
        1    1    3    3  502    0  0.76300680099E+03 -0.71872611053E+03  0.40803012446E+03  0.11248267346E+04  0.50400001928E-02 0. -1.
       -1    1    3    3    0  502 -0.76300680099E+03  0.71872611053E+03  0.26938550299E+03  0.10822731400E+04  0.50400001928E-02 0.  1.
</event>
<event>
 5   0  0.2699285E-05  0.2069584E+04  0.7818609E-02  0.8574762E-01
       -1   -1    0    0    0  501  0.00000000000E+00  0.00000000000E+00  0.12527913081E+04  0.12527913081E+04  0.50400001928E-02 0.  1.
        1   -1    0    0  501    0  0.00000000000E+00  0.00000000000E+00 -0.85472686608E+03  0.85472686610E+03  0.50400001928E-02 0. -1.
    10030    2    1    2    0    0  0.00000000000E+00  0.00000000000E+00  0.39806444199E+03  0.21075181742E+04  0.20695839085E+04 0.  0.
        2    1    3    3  502    0  0.61825916590E+03 -0.79778181441E+03  0.43145722484E+03  0.10976591258E+04  0.25500000920E-02 0. -1.
       -2    1    3    3    0  502 -0.61825916590E+03  0.79778181441E+03 -0.33392782853E+02  0.10098590484E+04  0.25500000920E-02 0.  1.
</event>
<event>
 5   0  0.2604390E-05  0.2097835E+04  0.7818609E-02  0.8562198E-01
       -1   -1    0    0    0  501  0.00000000000E+00  0.00000000000E+00  0.66888246148E+03  0.66888246150E+03  0.50400001928E-02 0.  1.
        1   -1    0    0  501    0  0.00000000000E+00  0.00000000000E+00 -0.16448744011E+04  0.16448744011E+04  0.50400001928E-02 0. -1.
    10030    2    1    2    0    0  0.00000000000E+00  0.00000000000E+00 -0.97599193959E+03  0.23137568626E+04  0.20978347297E+04 0.  0.
        5    1    3    3  502    0 -0.20452363703E+03 -0.33822627057E+03  0.58359125665E+03  0.70486010884E+03  0.46999998093E+01 0.  1.
       -5    1    3    3    0  502  0.20452363703E+03  0.33822627057E+03 -0.15595831962E+04  0.16088967537E+04  0.46999998093E+01 0. -1.
</event>
<event>
 5   0  0.5506332E-05  0.2096967E+04  0.7818609E-02  0.8562580E-01
        2   -1    0    0  501    0  0.00000000000E+00  0.00000000000E+00  0.16040421795E+04  0.16040421795E+04  0.25500000920E-02 0. -1.
       -2   -1    0    0    0  501  0.00000000000E+00  0.00000000000E+00 -0.68534238808E+03  0.68534238809E+03  0.25500000920E-02 0.  1.
    10030    2    1    2    0    0  0.00000000000E+00  0.00000000000E+00  0.91869979138E+03  0.22893845675E+04  0.20969674274E+04 0.  0.
        3    1    3    3  502    0 -0.24827379297E+03  0.28913475250E+03 -0.60704806171E+03  0.71676086724E+03  0.10100000352E+00 0.  1.
       -3    1    3    3    0  502  0.24827379297E+03 -0.28913475250E+03  0.15257478531E+04  0.15726237003E+04  0.10100000352E+00 0. -1.
</event>
<event>
 5   0  0.2732159E-05  0.2196650E+04  0.7818609E-02  0.8519824E-01
        1   -1    0    0  501    0  0.00000000000E+00  0.00000000000E+00  0.14439444960E+04  0.14439444960E+04  0.50400001928E-02 0.  1.
       -1   -1    0    0    0  501  0.00000000000E+00  0.00000000000E+00 -0.83543235555E+03  0.83543235557E+03  0.50400001928E-02 0. -1.
    10030    2    1    2    0    0  0.00000000000E+00  0.00000000000E+00  0.60851214045E+03  0.22793768516E+04  0.21966501329E+04 0.  0.
        3    1    3    3  502    0  0.41514252020E+03  0.39097690084E+03  0.12782824622E+04  0.13997186548E+04  0.10100000352E+00 0.  1.
       -3    1    3    3    0  502 -0.41514252020E+03 -0.39097690084E+03 -0.66977032178E+03  0.87965819681E+03  0.10100000352E+00 0. -1.
</event>
<event>
 5   0  0.2699285E-05  0.2106855E+04  0.7818609E-02  0.8558230E-01
       -1   -1    0    0    0  501  0.00000000000E+00  0.00000000000E+00  0.50459348048E+03  0.50459348050E+03  0.50400001928E-02 0. -1.
        1   -1    0    0  501    0  0.00000000000E+00  0.00000000000E+00 -0.21992144040E+04  0.21992144040E+04  0.50400001928E-02 0.  1.
    10030    2    1    2    0    0  0.00000000000E+00  0.00000000000E+00 -0.16946209235E+04  0.27038078845E+04  0.21068547652E+04 0.  0.
        2    1    3    3  502    0 -0.67918338282E+03 -0.56653938585E+03 -0.11293990087E+03  0.89163465861E+03  0.25500000920E-02 0. -1.
       -2    1    3    3    0  502  0.67918338282E+03  0.56653938585E+03 -0.15816810226E+04  0.18121732259E+04  0.25500000920E-02 0.  1.
</event>
<event>
 5   0  0.5866610E-05  0.2097760E+04  0.7818609E-02  0.8562231E-01
        2   -1    0    0  501    0  0.00000000000E+00  0.00000000000E+00  0.48809692243E+03  0.48809692243E+03  0.25500000920E-02 0.  1.
       -2   -1    0    0    0  501  0.00000000000E+00  0.00000000000E+00 -0.22539561624E+04  0.22539561624E+04  0.25500000920E-02 0. -1.
    10030    2    1    2    0    0  0.00000000000E+00  0.00000000000E+00 -0.17658592399E+04  0.27420530848E+04  0.20977598205E+04 0.  0.
        5    1    3    3  502    0 -0.80552300569E+03  0.40794062816E+02 -0.17593875545E+04  0.19354581177E+04  0.46999998093E+01 0. -1.
       -5    1    3    3    0  502  0.80552300569E+03 -0.40794062816E+02 -0.64716853947E+01  0.80659496711E+03  0.46999998093E+01 0.  1.
</event>
<event>
 5   0  0.5506332E-05  0.2098411E+04  0.7818609E-02  0.8561944E-01
        2   -1    0    0  501    0  0.00000000000E+00  0.00000000000E+00  0.17142057269E+04  0.17142057269E+04  0.25500000920E-02 0.  1.
       -2   -1    0    0    0  501  0.00000000000E+00  0.00000000000E+00 -0.64218187632E+03  0.64218187632E+03  0.25500000920E-02 0. -1.
    10030    2    1    2    0    0  0.00000000000E+00  0.00000000000E+00  0.10720238506E+04  0.23563876033E+04  0.20984106844E+04 0.  0.
        3    1    3    3  502    0 -0.37991398838E+03 -0.11467312689E+03  0.16266785916E+04  0.16743858023E+04  0.10100000352E+00 0.  1.
       -3    1    3    3    0  502  0.37991398838E+03  0.11467312689E+03 -0.55465474095E+03  0.68200180092E+03  0.10100000352E+00 0. -1.
</event>
<event>
 5   0  0.2602060E-05  0.2092698E+04  0.7818609E-02  0.8564467E-01
       -1   -1    0    0    0  501  0.00000000000E+00  0.00000000000E+00  0.87174723084E+03  0.87174723086E+03  0.50400001928E-02 0.  1.
        1   -1    0    0  501    0  0.00000000000E+00  0.00000000000E+00 -0.12559217119E+04  0.12559217119E+04  0.50400001928E-02 0. -1.
    10030    2    1    2    0    0  0.00000000000E+00  0.00000000000E+00 -0.38417448108E+03  0.21276689428E+04  0.20926980428E+04 0.  0.
        1    1    3    3  502    0  0.51791487569E+02  0.63132677850E+03  0.65465071480E+03  0.91094644071E+03  0.50400001928E-02 0.  1.
       -1    1    3    3    0  502 -0.51791487569E+02 -0.63132677850E+03 -0.10388251959E+04  0.12167225021E+04  0.50400001928E-02 0. -1.
</event>
<event>
 5   0  0.5967046E-05  0.2106819E+04  0.7818609E-02  0.8558245E-01
       -2   -1    0    0    0  501  0.00000000000E+00  0.00000000000E+00  0.58853754378E+03  0.58853754379E+03  0.25500000920E-02 0. -1.
        2   -1    0    0  501    0  0.00000000000E+00  0.00000000000E+00 -0.18854735384E+04  0.18854735384E+04  0.25500000920E-02 0.  1.
    10030    2    1    2    0    0  0.00000000000E+00  0.00000000000E+00 -0.12969359946E+04  0.24740110822E+04  0.21068193707E+04 0.  0.
        4    1    3    3  502    0 -0.45530360253E+03  0.47704504950E+03  0.31616232697E+03  0.73132317044E+03  0.12699999809E+01 0. -1.
       -4    1    3    3    0  502  0.45530360253E+03 -0.47704504950E+03 -0.16130983216E+04  0.17426879117E+04  0.12699999809E+01 0.  1.
</event>
<event>
 5   0  0.5462851E-05  0.2098816E+04  0.7818609E-02  0.8561765E-01
        2   -1    0    0  501    0  0.00000000000E+00  0.00000000000E+00  0.12806416850E+04  0.12806416850E+04  0.25500000920E-02 0. -1.
       -2   -1    0    0    0  501  0.00000000000E+00  0.00000000000E+00 -0.85992599965E+03  0.85992599965E+03  0.25500000920E-02 0.  1.
    10030    2    1    2    0    0  0.00000000000E+00  0.00000000000E+00  0.42071568536E+03  0.21405676847E+04  0.20988159340E+04 0.  0.
        1    1    3    3  502    0  0.46968659762E+03 -0.43235565242E+03 -0.63910966829E+03  0.90332611956E+03  0.50400001928E-02 0.  1.
       -1    1    3    3    0  502 -0.46968659762E+03  0.43235565242E+03  0.10598253536E+04  0.12372415651E+04  0.50400001928E-02 0. -1.
</event>
<event>
 5   0  0.5506332E-05  0.2224546E+04  0.7818609E-02  0.8508280E-01
       -2   -1    0    0    0  501  0.00000000000E+00  0.00000000000E+00  0.55115571865E+03  0.55115571865E+03  0.25500000920E-02 0. -1.
        2   -1    0    0  501    0  0.00000000000E+00  0.00000000000E+00 -0.22446499939E+04  0.22446499939E+04  0.25500000920E-02 0.  1.
    10030    2    1    2    0    0  0.00000000000E+00  0.00000000000E+00 -0.16934942753E+04  0.27958057126E+04  0.22245464082E+04 0.  0.
        3    1    3    3  502    0  0.47771865748E+03 -0.67225447262E+03  0.91240685025E+02  0.82973855188E+03  0.10100000352E+00 0. -1.
       -3    1    3    3    0  502 -0.47771865748E+03  0.67225447262E+03 -0.17847349603E+04  0.19660671607E+04  0.10100000352E+00 0.  1.
</event>
<event>
 5   0  0.2604390E-05  0.2091814E+04  0.7818609E-02  0.8564858E-01
       -1   -1    0    0    0  501  0.00000000000E+00  0.00000000000E+00  0.89092783455E+03  0.89092783457E+03  0.50400001928E-02 0. -1.
        1   -1    0    0  501    0  0.00000000000E+00  0.00000000000E+00 -0.12278454574E+04  0.12278454574E+04  0.50400001928E-02 0.  1.
    10030    2    1    2    0    0  0.00000000000E+00  0.00000000000E+00 -0.33691762285E+03  0.21187732920E+04  0.20918142313E+04 0.  0.
        5    1    3    3  502    0 -0.68877469363E+03  0.27138878551E+03  0.57987078703E+03  0.94039070132E+03  0.46999998093E+01 0. -1.
       -5    1    3    3    0  502  0.68877469363E+03 -0.27138878551E+03 -0.91678840988E+03  0.11783825907E+04  0.46999998093E+01 0.  1.
</event>
<event>
 5   0  0.2699285E-05  0.2111088E+04  0.7818609E-02  0.8556375E-01
       -1   -1    0    0    0  501  0.00000000000E+00  0.00000000000E+00  0.15078814881E+04  0.15078814881E+04  0.50400001928E-02 0. -1.
        1   -1    0    0  501    0  0.00000000000E+00  0.00000000000E+00 -0.73889945089E+03  0.73889945091E+03  0.50400001928E-02 0.  1.
    10030    2    1    2    0    0  0.00000000000E+00  0.00000000000E+00  0.76898203721E+03  0.22467809390E+04  0.21110876851E+04 0.  0.
        2    1    3    3  502    0  0.93834534489E+03 -0.41404837413E+03  0.65001628973E+03  0.12142690062E+04  0.25500000920E-02 0. -1.
       -2    1    3    3    0  502 -0.93834534489E+03  0.41404837413E+03  0.11896574748E+03  0.10325119329E+04  0.25500000920E-02 0.  1.
</event>
<event>
 5   0  0.2732159E-05  0.2104015E+04  0.7818609E-02  0.8559477E-01
        1   -1    0    0  501    0  0.00000000000E+00  0.00000000000E+00  0.10793619921E+04  0.10793619921E+04  0.50400001928E-02 0. -1.
       -1   -1    0    0    0  501  0.00000000000E+00  0.00000000000E+00 -0.10253460900E+04  0.10253460900E+04  0.50400001928E-02 0.  1.
    10030    2    1    2    0    0  0.00000000000E+00  0.00000000000E+00  0.54015902086E+02  0.21047080820E+04  0.21040148272E+04 0.  0.
        3    1    3    3  502    0  0.56501968849E+03 -0.23701024089E+03 -0.82843373484E+03  0.10303997117E+04  0.10100000352E+00 0.  1.
       -3    1    3    3    0  502 -0.56501968849E+03  0.23701024089E+03  0.88244963693E+03  0.10743083703E+04  0.10100000352E+00 0. -1.
</event>
<event>
 5   0  0.5954140E-05  0.2103298E+04  0.7818609E-02  0.8559792E-01
       -2   -1    0    0    0  501  0.00000000000E+00  0.00000000000E+00  0.48219798178E+03  0.48219798178E+03  0.25500000920E-02 0. -1.
        2   -1    0    0  501    0  0.00000000000E+00  0.00000000000E+00 -0.22935919747E+04  0.22935919747E+04  0.25500000920E-02 0.  1.
    10030    2    1    2    0    0  0.00000000000E+00  0.00000000000E+00 -0.18113939929E+04  0.27757899564E+04  0.21032978117E+04 0.  0.
        2    1    3    3  502    0  0.43874351549E+03  0.69033185049E+03 -0.33363476979E+02  0.81863731761E+03  0.25500000920E-02 0. -1.
       -2    1    3    3    0  502 -0.43874351549E+03 -0.69033185049E+03 -0.17780305159E+04  0.19571526388E+04  0.25500000920E-02 0.  1.
</event>
<event>
 5   0  0.5967046E-05  0.2085287E+04  0.7818609E-02  0.8567752E-01
        2   -1    0    0  501    0  0.00000000000E+00  0.00000000000E+00  0.19558764688E+04  0.19558764688E+04  0.25500000920E-02 0.  1.
       -2   -1    0    0    0  501  0.00000000000E+00  0.00000000000E+00 -0.55581514832E+03  0.55581514833E+03  0.25500000920E-02 0. -1.
    10030    2    1    2    0    0  0.00000000000E+00  0.00000000000E+00  0.14000613205E+04  0.25116916171E+04  0.20852872892E+04 0.  0.
        4    1    3    3  502    0 -0.48004803058E+02 -0.87044503383E+03  0.13889325562E+04  0.16398519069E+04  0.12699999809E+01 0.  1.
       -4    1    3    3    0  502  0.48004803058E+02  0.87044503383E+03  0.11128764283E+02  0.87183971022E+03  0.12699999809E+01 0. -1.
</event>
<event>
 5   0  0.2699285E-05  0.2095557E+04  0.7818609E-02  0.8563203E-01
       -1   -1    0    0    0  501  0.00000000000E+00  0.00000000000E+00  0.87204398259E+03  0.87204398261E+03  0.50400001928E-02 0. -1.
        1   -1    0    0  501    0  0.00000000000E+00  0.00000000000E+00 -0.12589268571E+04  0.12589268571E+04  0.50400001928E-02 0.  1.
    10030    2    1    2    0    0  0.00000000000E+00  0.00000000000E+00 -0.38688287454E+03  0.21309708397E+04  0.20955568141E+04 0.  0.
        2    1    3    3  502    0  0.73301787263E+03  0.83116911303E+02 -0.95006937123E+03  0.12028530387E+04  0.25500000920E-02 0.  1.
       -2    1    3    3    0  502 -0.73301787263E+03 -0.83116911303E+02  0.56318649670E+03  0.92811780104E+03  0.25500000920E-02 0. -1.
</event>
<event>
 5   0  0.2604390E-05  0.2106646E+04  0.7818609E-02  0.8558321E-01
        1   -1    0    0  501    0  0.00000000000E+00  0.00000000000E+00  0.10077259731E+04  0.10077259732E+04  0.50400001928E-02 0.  1.
       -1   -1    0    0    0  501  0.00000000000E+00  0.00000000000E+00 -0.11009834360E+04  0.11009834360E+04  0.50400001928E-02 0. -1.
    10030    2    1    2    0    0  0.00000000000E+00  0.00000000000E+00 -0.93257462873E+02  0.21087094092E+04  0.21066462489E+04 0.  0.
        5    1    3    3  502    0  0.19120647822E+03  0.34811499362E+03  0.92988988941E+03  0.10111682662E+04  0.46999998093E+01 0.  1.
       -5    1    3    3    0  502 -0.19120647822E+03 -0.34811499362E+03 -0.10231473523E+04  0.10975411430E+04  0.46999998093E+01 0. -1.
</event>
<event>
 5   0  0.2699285E-05  0.2186512E+04  0.7818609E-02  0.8524063E-01
       -1   -1    0    0    0  501  0.00000000000E+00  0.00000000000E+00  0.22304258577E+04  0.22304258577E+04  0.50400001928E-02 0. -1.
        1   -1    0    0  501    0  0.00000000000E+00  0.00000000000E+00 -0.53586564806E+03  0.53586564808E+03  0.50400001928E-02 0.  1.
    10030    2    1    2    0    0  0.00000000000E+00  0.00000000000E+00  0.16945602097E+04  0.27662915058E+04  0.21865119234E+04 0.  0.
        2    1    3    3  502    0  0.34551456738E+02  0.59573395617E+03 -0.31164949452E+03  0.67321479272E+03  0.25500000920E-02 0.  1.
       -2    1    3    3    0  502 -0.34551456738E+02 -0.59573395617E+03  0.20062097042E+04  0.20930767131E+04  0.25500000920E-02 0. -1.
</event>
<event>
 5   0  0.5954140E-05  0.2104818E+04  0.7818609E-02  0.8559124E-01
        2   -1    0    0  501    0  0.00000000000E+00  0.00000000000E+00  0.26819774156E+04  0.26819774156E+04  0.25500000920E-02 0.  1.
       -2   -1    0    0    0  501  0.00000000000E+00  0.00000000000E+00 -0.41296575466E+03  0.41296575466E+03  0.25500000920E-02 0. -1.
    10030    2    1    2    0    0  0.00000000000E+00  0.00000000000E+00  0.22690116609E+04  0.30949431703E+04  0.21048181180E+04 0.  0.
        2    1    3    3  502    0  0.12430889371E+03 -0.10416687859E+04  0.10111467934E+04  0.14570327376E+04  0.25500000920E-02 0. -1.
       -2    1    3    3    0  502 -0.12430889371E+03  0.10416687859E+04  0.12578648675E+04  0.16379104327E+04  0.25500000920E-02 0.  1.
</event>
<event>
 5   0  0.5506332E-05  0.2089809E+04  0.7818609E-02  0.8565746E-01
        2   -1    0    0  501    0  0.00000000000E+00  0.00000000000E+00  0.17434758485E+04  0.17434758485E+04  0.25500000920E-02 0. -1.
       -2   -1    0    0    0  501  0.00000000000E+00  0.00000000000E+00 -0.62623468838E+03  0.62623468839E+03  0.25500000920E-02 0.  1.
    10030    2    1    2    0    0  0.00000000000E+00  0.00000000000E+00  0.11172411601E+04  0.23697105369E+04  0.20898086560E+04 0.  0.
        3    1    3    3  502    0 -0.51286580283E+03  0.32303254334E+03 -0.40652114742E+03  0.72982245051E+03  0.10100000352E+00 0.  1.
       -3    1    3    3    0  502  0.51286580283E+03 -0.32303254334E+03  0.15237623076E+04  0.16398880864E+04  0.10100000352E+00 0. -1.
</event>
<event>
 5   0  0.5954140E-05  0.2155011E+04  0.7818609E-02  0.8537390E-01
        2   -1    0    0  501    0  0.00000000000E+00  0.00000000000E+00  0.78316188702E+03  0.78316188703E+03  0.25500000920E-02 0.  1.
       -2   -1    0    0    0  501  0.00000000000E+00  0.00000000000E+00 -0.14824756194E+04  0.14824756194E+04  0.25500000920E-02 0. -1.
    10030    2    1    2    0    0  0.00000000000E+00  0.00000000000E+00 -0.69931373237E+03  0.22656375064E+04  0.21550112794E+04 0.  0.
        2    1    3    3  502    0 -0.10647769212E+04 -0.22177797887E+02 -0.52169275500E+03  0.11859195070E+04  0.25500000920E-02 0. -1.
       -2    1    3    3    0  502  0.10647769212E+04  0.22177797887E+02 -0.17762097738E+03  0.10797179994E+04  0.25500000920E-02 0.  1.
</event>
<event>
 5   0  0.2732159E-05  0.2089733E+04  0.7818609E-02  0.8565780E-01
        1   -1    0    0  501    0  0.00000000000E+00  0.00000000000E+00  0.12849940623E+04  0.12849940623E+04  0.50400001928E-02 0.  1.
       -1   -1    0    0    0  501  0.00000000000E+00  0.00000000000E+00 -0.84961175728E+03  0.84961175730E+03  0.50400001928E-02 0. -1.
    10030    2    1    2    0    0  0.00000000000E+00  0.00000000000E+00  0.43538230504E+03  0.21346058196E+04  0.20897330580E+04 0.  0.
        3    1    3    3  502    0  0.93520853408E+03 -0.28620276885E+03 -0.15792631303E+03  0.99069054586E+03  0.10100000352E+00 0. -1.
       -3    1    3    3    0  502 -0.93520853408E+03  0.28620276885E+03  0.59330861808E+03  0.11439152738E+04  0.10100000352E+00 0.  1.
</event>
<event>
 5   0  0.2604390E-05  0.2102773E+04  0.7818609E-02  0.8560023E-01
        1   -1    0    0  501    0  0.00000000000E+00  0.00000000000E+00  0.18649507562E+04  0.18649507562E+04  0.50400001928E-02 0.  1.
       -1   -1    0    0    0  501  0.00000000000E+00  0.00000000000E+00 -0.59273084996E+03  0.59273084999E+03  0.50400001928E-02 0. -1.
    10030    2    1    2    0    0  0.00000000000E+00  0.00000000000E+00  0.12722199062E+04  0.24576816062E+04  0.21027732611E+04 0.  0.
        5    1    3    3  502    0 -0.82297543179E+03 -0.59214053672E+03  0.31079221475E+03  0.10604399405E+04  0.46999998093E+01 0. -1.
       -5    1    3    3    0  502  0.82297543179E+03  0.59214053672E+03  0.96142769150E+03  0.13972416658E+04  0.46999998093E+01 0.  1.
</event>
<event>
 5   0  0.5866610E-05  0.2094968E+04  0.7818609E-02  0.8563463E-01
        2   -1    0    0  501    0  0.00000000000E+00  0.00000000000E+00  0.12592589388E+04  0.12592589388E+04  0.25500000920E-02 0.  1.
       -2   -1    0    0    0  501  0.00000000000E+00  0.00000000000E+00 -0.87132435569E+03  0.87132435569E+03  0.25500000920E-02 0. -1.
    10030    2    1    2    0    0  0.00000000000E+00  0.00000000000E+00  0.38793458309E+03  0.21305832945E+04  0.20949682417E+04 0.  0.
        5    1    3    3  502    0  0.12648026366E+03 -0.96877457472E+03  0.57811814455E+03  0.11352374698E+04  0.46999998093E+01 0.  1.
       -5    1    3    3    0  502 -0.12648026366E+03  0.96877457472E+03 -0.19018356146E+03  0.99534582471E+03  0.46999998093E+01 0. -1.
</event>
<event>
 5   0  0.2604390E-05  0.2095945E+04  0.7818609E-02  0.8563032E-01
        1   -1    0    0  501    0  0.00000000000E+00  0.00000000000E+00  0.13949733017E+04  0.13949733017E+04  0.50400001928E-02 0.  1.
       -1   -1    0    0    0  501  0.00000000000E+00  0.00000000000E+00 -0.78728827867E+03  0.78728827869E+03  0.50400001928E-02 0. -1.
    10030    2    1    2    0    0  0.00000000000E+00  0.00000000000E+00  0.60768502304E+03  0.21822615804E+04  0.20959447793E+04 0.  0.
        5    1    3    3  502    0  0.12895713315E+03  0.85916398298E+03 -0.30632199011E+03  0.92122089830E+03  0.46999998093E+01 0. -1.
       -5    1    3    3    0  502 -0.12895713315E+03 -0.85916398298E+03  0.91400701314E+03  0.12610406821E+04  0.46999998093E+01 0.  1.
</event>
<event>
 5   0  0.2699285E-05  0.2106404E+04  0.7818609E-02  0.8558428E-01
        1   -1    0    0  501    0  0.00000000000E+00  0.00000000000E+00  0.90385993282E+03  0.90385993283E+03  0.50400001928E-02 0. -1.
       -1   -1    0    0    0  501  0.00000000000E+00  0.00000000000E+00 -0.12272195204E+04  0.12272195204E+04  0.50400001928E-02 0.  1.
    10030    2    1    2    0    0  0.00000000000E+00  0.00000000000E+00 -0.32335958762E+03  0.21310794533E+04  0.21064040954E+04 0.  0.
        2    1    3    3  502    0 -0.30320961301E+03  0.91284574820E+01 -0.11820654908E+04  0.12203680685E+04  0.25500000920E-02 0.  1.
       -2    1    3    3    0  502  0.30320961301E+03 -0.91284574820E+01  0.85870590317E+03  0.91071138475E+03  0.25500000920E-02 0. -1.
</event>
<event>
 5   0  0.5866610E-05  0.2079745E+04  0.7818609E-02  0.8570219E-01
        2   -1    0    0  501    0  0.00000000000E+00  0.00000000000E+00  0.16459690876E+04  0.16459690876E+04  0.25500000920E-02 0.  1.
       -2   -1    0    0    0  501  0.00000000000E+00  0.00000000000E+00 -0.65695954047E+03  0.65695954047E+03  0.25500000920E-02 0. -1.
    10030    2    1    2    0    0  0.00000000000E+00  0.00000000000E+00  0.98900954718E+03  0.23029286281E+04  0.20797452685E+04 0.  0.
        5    1    3    3  502    0  0.71595277351E+02 -0.59457588736E+03 -0.44681966944E+03  0.74720564543E+03  0.46999998093E+01 0. -1.
       -5    1    3    3    0  502 -0.71595277351E+02  0.59457588736E+03  0.14358292166E+04  0.15557229827E+04  0.46999998093E+01 0.  1.
</event>
<event>
 5   0  0.2602060E-05  0.2096470E+04  0.7818609E-02  0.8562800E-01
       -1   -1    0    0    0  501  0.00000000000E+00  0.00000000000E+00  0.99032453662E+03  0.99032453664E+03  0.50400001928E-02 0. -1.
        1   -1    0    0  501    0  0.00000000000E+00  0.00000000000E+00 -0.11095318830E+04  0.11095318830E+04  0.50400001928E-02 0.  1.
    10030    2    1    2    0    0  0.00000000000E+00  0.00000000000E+00 -0.11920734639E+03  0.20998564197E+04  0.20964700312E+04 0.  0.
        1    1    3    3  502    0 -0.27666865198E+03  0.10109381851E+04 -0.75601032025E+02  0.10508363684E+04  0.50400001928E-02 0. -1.
       -1    1    3    3    0  502  0.27666865198E+03 -0.10109381851E+04 -0.43606314367E+02  0.10490200512E+04  0.50400001928E-02 0.  1.
</event>
<event>
 5   0  0.5506332E-05  0.2102341E+04  0.7818609E-02  0.8560213E-01
        2   -1    0    0  501    0  0.00000000000E+00  0.00000000000E+00  0.19209669166E+04  0.19209669166E+04  0.25500000920E-02 0.  1.
       -2   -1    0    0    0  501  0.00000000000E+00  0.00000000000E+00 -0.57520975006E+03  0.57520975007E+03  0.25500000920E-02 0. -1.
    10030    2    1    2    0    0  0.00000000000E+00  0.00000000000E+00  0.13457571665E+04  0.24961766666E+04  0.21023405052E+04 0.  0.
        3    1    3    3  502    0 -0.53334225488E+02 -0.16405626432E+03 -0.55828813696E+03  0.58433265487E+03  0.10100000352E+00 0. -1.
       -3    1    3    3    0  502  0.53334225488E+02  0.16405626432E+03  0.19040453035E+04  0.19118440118E+04  0.10100000352E+00 0.  1.
</event>
<event>
 5   0  0.5462851E-05  0.2122335E+04  0.7818609E-02  0.8551468E-01
        2   -1    0    0  501    0  0.00000000000E+00  0.00000000000E+00  0.11761063205E+04  0.11761063205E+04  0.25500000920E-02 0. -1.
       -2   -1    0    0    0  501  0.00000000000E+00  0.00000000000E+00 -0.95746136249E+03  0.95746136249E+03  0.25500000920E-02 0.  1.
    10030    2    1    2    0    0  0.00000000000E+00  0.00000000000E+00  0.21864495803E+03  0.21335676830E+04  0.21223349030E+04 0.  0.
        1    1    3    3  502    0  0.99016802948E+03 -0.38137546336E+03  0.95234408345E+02  0.10653401162E+04  0.50400001928E-02 0.  1.
       -1    1    3    3    0  502 -0.99016802948E+03  0.38137546336E+03  0.12341054969E+03  0.10682275668E+04  0.50400001928E-02 0. -1.
</event>
<event>
 5   0  0.5506332E-05  0.2122593E+04  0.7818609E-02  0.8551356E-01
        2   -1    0    0  501    0  0.00000000000E+00  0.00000000000E+00  0.80438956767E+03  0.80438956768E+03  0.25500000920E-02 0.  1.
       -2   -1    0    0    0  501  0.00000000000E+00  0.00000000000E+00 -0.14002548055E+04  0.14002548055E+04  0.25500000920E-02 0. -1.
    10030    2    1    2    0    0  0.00000000000E+00  0.00000000000E+00 -0.59586523787E+03  0.22046443732E+04  0.21225930912E+04 0.  0.
        3    1    3    3  502    0 -0.65580277540E+02 -0.20852625524E+03 -0.13766191015E+04  0.13938666122E+04  0.10100000352E+00 0. -1.
       -3    1    3    3    0  502  0.65580277540E+02  0.20852625524E+03  0.78075386363E+03  0.81077776098E+03  0.10100000352E+00 0.  1.
</event>
<event>
 5   0  0.2699285E-05  0.2095984E+04  0.7818609E-02  0.8563015E-01
        1   -1    0    0  501    0  0.00000000000E+00  0.00000000000E+00  0.10639914734E+04  0.10639914734E+04  0.50400001928E-02 0.  1.
       -1   -1    0    0    0  501  0.00000000000E+00  0.00000000000E+00 -0.10322330198E+04  0.10322330198E+04  0.50400001928E-02 0. -1.
    10030    2    1    2    0    0  0.00000000000E+00  0.00000000000E+00  0.31758453581E+02  0.20962244932E+04  0.20959839042E+04 0.  0.
        2    1    3    3  502    0  0.39737961815E+02  0.25384069155E+03 -0.10002457278E+04  0.10327176373E+04  0.25500000920E-02 0. -1.
       -2    1    3    3    0  502 -0.39737961815E+02 -0.25384069155E+03  0.10320041814E+04  0.10635068560E+04  0.25500000920E-02 0.  1.
</event>
<event>
 5   0  0.5967046E-05  0.2105143E+04  0.7818609E-02  0.8558981E-01
        2   -1    0    0  501    0  0.00000000000E+00  0.00000000000E+00  0.12127036534E+04  0.12127036534E+04  0.25500000920E-02 0.  1.
       -2   -1    0    0    0  501  0.00000000000E+00  0.00000000000E+00 -0.91358409773E+03  0.91358409774E+03  0.25500000920E-02 0. -1.
    10030    2    1    2    0    0  0.00000000000E+00  0.00000000000E+00  0.29911955565E+03  0.21262877511E+04  0.21051430099E+04 0.  0.
        4    1    3    3  502    0  0.42253135932E+03  0.60001138488E+03 -0.61257789953E+03  0.95592871465E+03  0.12699999809E+01 0. -1.
       -4    1    3    3    0  502 -0.42253135932E+03 -0.60001138488E+03  0.91169745518E+03  0.11703590365E+04  0.12699999809E+01 0.  1.
</event>
<event>
 5   0  0.2604390E-05  0.2169703E+04  0.7818609E-02  0.8531145E-01
       -1   -1    0    0    0  501  0.00000000000E+00  0.00000000000E+00  0.99799495310E+03  0.99799495311E+03  0.50400001928E-02 0. -1.
        1   -1    0    0  501    0  0.00000000000E+00  0.00000000000E+00 -0.11792667495E+04  0.11792667495E+04  0.50400001928E-02 0.  1.
    10030    2    1    2    0    0  0.00000000000E+00  0.00000000000E+00 -0.18127179636E+03  0.21772617026E+04  0.21697025274E+04 0.  0.
        5    1    3    3  502    0 -0.53727713004E+02  0.10619807678E+04  0.12503229157E+03  0.10706750125E+04  0.46999998093E+01 0. -1.
       -5    1    3    3    0  502  0.53727713004E+02 -0.10619807678E+04 -0.30630408793E+03  0.11065866901E+04  0.46999998093E+01 0.  1.
</event>
<event>
 5   0  0.2699285E-05  0.2075677E+04  0.7818609E-02  0.8572034E-01
        1   -1    0    0  501    0  0.00000000000E+00  0.00000000000E+00  0.89269743297E+03  0.89269743298E+03  0.50400001928E-02 0. -1.
       -1   -1    0    0    0  501  0.00000000000E+00  0.00000000000E+00 -0.12065772784E+04  0.12065772784E+04  0.50400001928E-02 0.  1.
    10030    2    1    2    0    0  0.00000000000E+00  0.00000000000E+00 -0.31387984546E+03  0.20992747114E+04  0.20756766985E+04 0.  0.
        2    1    3    3  502    0  0.37811037216E+03 -0.89943490105E+03  0.20085864808E+03  0.99613994563E+03  0.25500000920E-02 0. -1.
       -2    1    3    3    0  502 -0.37811037216E+03  0.89943490105E+03 -0.51473849354E+03  0.11031347658E+04  0.25500000920E-02 0.  1.
</event>
<event>
 5   0  0.2699285E-05  0.2098468E+04  0.7818609E-02  0.8561919E-01
       -1   -1    0    0    0  501  0.00000000000E+00  0.00000000000E+00  0.86084350333E+03  0.86084350335E+03  0.50400001928E-02 0.  1.
        1   -1    0    0  501    0  0.00000000000E+00  0.00000000000E+00 -0.12788520556E+04  0.12788520556E+04  0.50400001928E-02 0. -1.
    10030    2    1    2    0    0  0.00000000000E+00  0.00000000000E+00 -0.41800855225E+03  0.21396955589E+04  0.20984675206E+04 0.  0.
        2    1    3    3  502    0  0.39731288572E+03  0.96988982981E+03 -0.25840900332E+03  0.10794994322E+04  0.25500000920E-02 0. -1.
       -2    1    3    3    0  502 -0.39731288572E+03 -0.96988982981E+03 -0.15959954893E+03  0.10601961267E+04  0.25500000920E-02 0.  1.
</event>
<event>
 5   0  0.2732159E-05  0.2088120E+04  0.7818609E-02  0.8566495E-01
       -1   -1    0    0    0  501  0.00000000000E+00  0.00000000000E+00  0.91172206780E+03  0.91172206782E+03  0.50400001928E-02 0.  1.
        1   -1    0    0  501    0  0.00000000000E+00  0.00000000000E+00 -0.11956068045E+04  0.11956068045E+04  0.50400001928E-02 0. -1.
    10030    2    1    2    0    0  0.00000000000E+00  0.00000000000E+00 -0.28388473668E+03  0.21073288723E+04  0.20881198319E+04 0.  0.
        3    1    3    3  502    0  0.12814608836E+03  0.10361270420E+04 -0.15099319221E+03  0.10548837004E+04  0.10100000352E+00 0. -1.
       -3    1    3    3    0  502 -0.12814608836E+03 -0.10361270420E+04 -0.13289154447E+03  0.10524451719E+04  0.10100000352E+00 0.  1.
</event>
<event>
 5   0  0.2604390E-05  0.2107449E+04  0.7818609E-02  0.8557969E-01
        1   -1    0    0  501    0  0.00000000000E+00  0.00000000000E+00  0.19195848688E+04  0.19195848688E+04  0.50400001928E-02 0. -1.
       -1   -1    0    0    0  501  0.00000000000E+00  0.00000000000E+00 -0.57842479435E+03  0.57842479437E+03  0.50400001928E-02 0.  1.
    10030    2    1    2    0    0  0.00000000000E+00  0.00000000000E+00  0.13411600745E+04  0.24980096632E+04  0.21074491529E+04 0.  0.
        5    1    3    3  502    0 -0.29920283548E+03  0.97254867308E+03  0.99506475212E+03  0.14232179064E+04  0.46999998093E+01 0. -1.
       -5    1    3    3    0  502  0.29920283548E+03 -0.97254867308E+03  0.34609532236E+03  0.10747917568E+04  0.46999998093E+01 0.  1.
</event>
<event>
 5   0  0.5866610E-05  0.2104005E+04  0.7818609E-02  0.8559481E-01
        2   -1    0    0  501    0  0.00000000000E+00  0.00000000000E+00  0.13886458617E+04  0.13886458617E+04  0.25500000920E-02 0. -1.
       -2   -1    0    0    0  501  0.00000000000E+00  0.00000000000E+00 -0.79697020296E+03  0.79697020297E+03  0.25500000920E-02 0.  1.
    10030    2    1    2    0    0  0.00000000000E+00  0.00000000000E+00  0.59167565869E+03  0.21856160646E+04  0.21040051086E+04 0.  0.
        5    1    3    3  502    0 -0.88270655867E+03 -0.56874750146E+03  0.22978938740E+03  0.10749278309E+04  0.46999998093E+01 0.  1.
       -5    1    3    3    0  502  0.88270655867E+03  0.56874750146E+03  0.36188627129E+03  0.11106882337E+04  0.46999998093E+01 0. -1.
</event>
<event>
 5   0  0.2732159E-05  0.2091448E+04  0.7818609E-02  0.8565020E-01
        1   -1    0    0  501    0  0.00000000000E+00  0.00000000000E+00  0.12957808332E+04  0.12957808332E+04  0.50400001928E-02 0. -1.
       -1   -1    0    0    0  501  0.00000000000E+00  0.00000000000E+00 -0.84392242264E+03  0.84392242265E+03  0.50400001928E-02 0.  1.
    10030    2    1    2    0    0  0.00000000000E+00  0.00000000000E+00  0.45185841057E+03  0.21397032559E+04  0.20914478239E+04 0.  0.
        3    1    3    3  502    0  0.80636533820E+03 -0.58849733044E+03 -0.92679239506E+02  0.10025685105E+04  0.10100000352E+00 0.  1.
       -3    1    3    3    0  502 -0.80636533820E+03  0.58849733044E+03  0.54453765007E+03  0.11371347454E+04  0.10100000352E+00 0. -1.
</event>
<event>
 5   0  0.2604390E-05  0.2090037E+04  0.7818609E-02  0.8565645E-01
       -1   -1    0    0    0  501  0.00000000000E+00  0.00000000000E+00  0.64720526267E+03  0.64720526269E+03  0.50400001928E-02 0.  1.
        1   -1    0    0  501    0  0.00000000000E+00  0.00000000000E+00 -0.16873533962E+04  0.16873533962E+04  0.50400001928E-02 0. -1.
    10030    2    1    2    0    0  0.00000000000E+00  0.00000000000E+00 -0.10401481335E+04  0.23345586589E+04  0.20900373184E+04 0.  0.
        5    1    3    3  502    0  0.18574494994E+03 -0.27211454930E+03 -0.16278111490E+04  0.16608247172E+04  0.46999998093E+01 0. -1.
       -5    1    3    3    0  502 -0.18574494994E+03  0.27211454930E+03  0.58766301552E+03  0.67373394168E+03  0.46999998093E+01 0.  1.
</event>
<event>
 5   0  0.2789662E-05  0.2094266E+04  0.7818609E-02  0.8563773E-01
        1   -1    0    0  501    0  0.00000000000E+00  0.00000000000E+00  0.13586694064E+04  0.13586694064E+04  0.50400001928E-02 0. -1.
       -1   -1    0    0    0  501  0.00000000000E+00  0.00000000000E+00 -0.80703041805E+03  0.80703041807E+03  0.50400001928E-02 0.  1.
    10030    2    1    2    0    0  0.00000000000E+00  0.00000000000E+00  0.55163898837E+03  0.21656998245E+04  0.20942660185E+04 0.  0.
        4    1    3    3  502    0  0.61739507839E+03 -0.75431895877E+03  0.67137425336E+03  0.11836041464E+04  0.12699999809E+01 0. -1.
       -4    1    3    3    0  502 -0.61739507839E+03  0.75431895877E+03 -0.11973526499E+03  0.98209567811E+03  0.12699999809E+01 0.  1.
</event>
<event>
 5   0  0.2699285E-05  0.2085475E+04  0.7818609E-02  0.8567669E-01
        1   -1    0    0  501    0  0.00000000000E+00  0.00000000000E+00  0.13431478160E+04  0.13431478160E+04  0.50400001928E-02 0.  1.
       -1   -1    0    0    0  501  0.00000000000E+00  0.00000000000E+00 -0.80951757959E+03  0.80951757960E+03  0.50400001928E-02 0. -1.
    10030    2    1    2    0    0  0.00000000000E+00  0.00000000000E+00  0.53363023639E+03  0.21526653956E+04  0.20854752639E+04 0.  0.
        2    1    3    3  502    0 -0.29405327465E+03 -0.40407793764E+03 -0.67785085825E+03  0.84215681084E+03  0.25500000920E-02 0. -1.
       -2    1    3    3    0  502  0.29405327465E+03  0.40407793764E+03  0.12114810946E+04  0.13105085847E+04  0.25500000920E-02 0.  1.
</event>
<event>
 5   0  0.5954140E-05  0.2108389E+04  0.7818609E-02  0.8557557E-01
        2   -1    0    0  501    0  0.00000000000E+00  0.00000000000E+00  0.17948563018E+04  0.17948563018E+04  0.25500000920E-02 0. -1.
       -2   -1    0    0    0  501  0.00000000000E+00  0.00000000000E+00 -0.61917285933E+03  0.61917285933E+03  0.25500000920E-02 0.  1.
    10030    2    1    2    0    0  0.00000000000E+00  0.00000000000E+00  0.11756834425E+04  0.24140291611E+04  0.21083892510E+04 0.  0.
        2    1    3    3  502    0  0.97154755492E+03 -0.29146664921E+03  0.91664541383E+03  0.13671489582E+04  0.25500000920E-02 0. -1.
       -2    1    3    3    0  502 -0.97154755492E+03  0.29146664921E+03  0.25903802862E+03  0.10468802030E+04  0.25500000920E-02 0.  1.
</event>
<event>
 5   0  0.5506332E-05  0.2092404E+04  0.7818609E-02  0.8564597E-01
        2   -1    0    0  501    0  0.00000000000E+00  0.00000000000E+00  0.15358036129E+04  0.15358036129E+04  0.25500000920E-02 0. -1.
       -2   -1    0    0    0  501  0.00000000000E+00  0.00000000000E+00 -0.71268122311E+03  0.71268122311E+03  0.25500000920E-02 0.  1.
    10030    2    1    2    0    0  0.00000000000E+00  0.00000000000E+00  0.82312238974E+03  0.22484848360E+04  0.20924037825E+04 0.  0.
        3    1    3    3  502    0  0.73722065496E+03 -0.29693530449E+03 -0.31953686899E+03  0.85660299439E+03  0.10100000352E+00 0. -1.
       -3    1    3    3    0  502 -0.73722065496E+03  0.29693530449E+03  0.11426592587E+04  0.13918818416E+04  0.10100000352E+00 0.  1.
</event>
<event>
 5   0  0.5967046E-05  0.2098451E+04  0.7818609E-02  0.8561926E-01
        2   -1    0    0  501    0  0.00000000000E+00  0.00000000000E+00  0.69241342246E+03  0.69241342246E+03  0.25500000920E-02 0.  1.
       -2   -1    0    0    0  501  0.00000000000E+00  0.00000000000E+00 -0.15899092804E+04  0.15899092804E+04  0.25500000920E-02 0. -1.
    10030    2    1    2    0    0  0.00000000000E+00  0.00000000000E+00 -0.89749585790E+03  0.22823227028E+04  0.20984513587E+04 0.  0.
        4    1    3    3  502    0 -0.52089805354E+03 -0.67257096780E+03 -0.11167167174E+04  0.14038320159E+04  0.12699999809E+01 0. -1.
       -4    1    3    3    0  502  0.52089805354E+03  0.67257096780E+03  0.21922085953E+03  0.87849068695E+03  0.12699999809E+01 0.  1.
</event>
<event>
 5   0  0.2604390E-05  0.1901371E+04  0.7818609E-02  0.8654174E-01
        1   -1    0    0  501    0  0.00000000000E+00  0.00000000000E+00  0.14927669724E+04  0.14927669724E+04  0.50400001928E-02 0.  1.
       -1   -1    0    0    0  501  0.00000000000E+00  0.00000000000E+00 -0.60545464450E+03  0.60545464452E+03  0.50400001928E-02 0. -1.
    10030    2    1    2    0    0  0.00000000000E+00  0.00000000000E+00  0.88731232793E+03  0.20982216170E+04  0.19013707652E+04 0.  0.
        5    1    3    3  502    0 -0.71080468304E+03  0.18795909003E+03  0.11087189697E+04  0.13303577567E+04  0.46999998093E+01 0.  1.
       -5    1    3    3    0  502  0.71080468304E+03 -0.18795909003E+03 -0.22140664175E+03  0.76786386031E+03  0.46999998093E+01 0. -1.
</event>
<event>
 5   0  0.5462851E-05  0.2099820E+04  0.7818609E-02  0.8561323E-01
       -2   -1    0    0    0  501  0.00000000000E+00  0.00000000000E+00  0.88407887888E+03  0.88407887889E+03  0.25500000920E-02 0. -1.
        2   -1    0    0  501    0  0.00000000000E+00  0.00000000000E+00 -0.12468463228E+04  0.12468463228E+04  0.25500000920E-02 0.  1.
    10030    2    1    2    0    0  0.00000000000E+00  0.00000000000E+00 -0.36276744394E+03  0.21309252017E+04  0.20998195153E+04 0.  0.
        1    1    3    3  502    0 -0.76745757555E+03  0.69586595450E+03 -0.82994252139E+01  0.10359968327E+04  0.50400001928E-02 0. -1.
       -1    1    3    3    0  502  0.76745757555E+03 -0.69586595450E+03 -0.35446801872E+03  0.10949283690E+04  0.50400001928E-02 0.  1.
</event>
<event>
 5   0  0.5866610E-05  0.2094806E+04  0.7818609E-02  0.8563535E-01
        2   -1    0    0  501    0  0.00000000000E+00  0.00000000000E+00  0.13457416014E+04  0.13457416014E+04  0.25500000920E-02 0.  1.
       -2   -1    0    0    0  501  0.00000000000E+00  0.00000000000E+00 -0.81520364803E+03  0.81520364803E+03  0.25500000920E-02 0. -1.
    10030    2    1    2    0    0  0.00000000000E+00  0.00000000000E+00  0.53053795337E+03  0.21609452494E+04  0.20948063994E+04 0.  0.
        5    1    3    3  502    0 -0.96952616250E+03  0.39409756132E+03  0.22226952443E+03  0.10699157439E+04  0.46999998093E+01 0.  1.
       -5    1    3    3    0  502  0.96952616250E+03 -0.39409756132E+03  0.30826842893E+03  0.10910295055E+04  0.46999998093E+01 0. -1.
</event>
<event>
 5   0  0.2789662E-05  0.2093161E+04  0.7818609E-02  0.8564262E-01
        1   -1    0    0  501    0  0.00000000000E+00  0.00000000000E+00  0.10654889517E+04  0.10654889517E+04  0.50400001928E-02 0.  1.
       -1   -1    0    0    0  501  0.00000000000E+00  0.00000000000E+00 -0.10280071981E+04  0.10280071981E+04  0.50400001928E-02 0. -1.
    10030    2    1    2    0    0  0.00000000000E+00  0.00000000000E+00  0.37481753630E+02  0.20934961498E+04  0.20931605880E+04 0.  0.
        4    1    3    3  502    0  0.92586724036E+03  0.36595954599E+03 -0.30406799219E+03  0.10409685360E+04  0.12699999809E+01 0. -1.
       -4    1    3    3    0  502 -0.92586724036E+03 -0.36595954599E+03  0.34154974582E+03  0.10525276138E+04  0.12699999809E+01 0.  1.
</event>
<event>
 5   0  0.2699285E-05  0.2131200E+04  0.7818609E-02  0.8547623E-01
        1   -1    0    0  501    0  0.00000000000E+00  0.00000000000E+00  0.80933998164E+03  0.80933998165E+03  0.50400001928E-02 0. -1.
       -1   -1    0    0    0  501  0.00000000000E+00  0.00000000000E+00 -0.14029993577E+04  0.14029993577E+04  0.50400001928E-02 0.  1.
    10030    2    1    2    0    0  0.00000000000E+00  0.00000000000E+00 -0.59365937610E+03  0.22123393394E+04  0.21312001074E+04 0.  0.
        2    1    3    3  502    0 -0.24116635639E+03  0.56644489550E+03  0.60604388024E+03  0.86389247935E+03  0.25500000920E-02 0. -1.
       -2    1    3    3    0  502  0.24116635639E+03 -0.56644489550E+03 -0.11997032563E+04  0.13484468600E+04  0.25500000920E-02 0.  1.
</event>
<event>
 5   0  0.2699285E-05  0.2133141E+04  0.7818609E-02  0.8546784E-01
        1   -1    0    0  501    0  0.00000000000E+00  0.00000000000E+00  0.12369714347E+04  0.12369714347E+04  0.50400001928E-02 0.  1.
       -1   -1    0    0    0  501  0.00000000000E+00  0.00000000000E+00 -0.91964304424E+03  0.91964304425E+03  0.50400001928E-02 0. -1.
    10030    2    1    2    0    0  0.00000000000E+00  0.00000000000E+00  0.31732839048E+03  0.21566144790E+04  0.21331405729E+04 0.  0.
        2    1    3    3  502    0  0.15104140287E+03  0.10415454595E+04 -0.16276745771E+02  0.10525660939E+04  0.25500000920E-02 0. -1.
       -2    1    3    3    0  502 -0.15104140287E+03 -0.10415454595E+04  0.33360513625E+03  0.11040483851E+04  0.25500000920E-02 0.  1.
</event>
<event>
 5   0  0.2604390E-05  0.2086102E+04  0.7818609E-02  0.8567390E-01
       -1   -1    0    0    0  501  0.00000000000E+00  0.00000000000E+00  0.13037086001E+04  0.13037086001E+04  0.50400001928E-02 0. -1.
        1   -1    0    0  501    0  0.00000000000E+00  0.00000000000E+00 -0.83450829749E+03  0.83450829751E+03  0.50400001928E-02 0.  1.
    10030    2    1    2    0    0  0.00000000000E+00  0.00000000000E+00  0.46920030262E+03  0.21382168976E+04  0.20861022452E+04 0.  0.
        5    1    3    3  502    0  0.10481545296E+03 -0.74458205623E+03  0.97553146096E+03  0.12316949456E+04  0.46999998093E+01 0. -1.
       -5    1    3    3    0  502 -0.10481545296E+03  0.74458205623E+03 -0.50633115834E+03  0.90652195205E+03  0.46999998093E+01 0.  1.
</event>
<event>
 5   0  0.2699285E-05  0.2097640E+04  0.7818609E-02  0.8562284E-01
        1   -1    0    0  501    0  0.00000000000E+00  0.00000000000E+00  0.67528259861E+03  0.67528259863E+03  0.50400001928E-02 0.  1.
       -1   -1    0    0    0  501  0.00000000000E+00  0.00000000000E+00 -0.16289828300E+04  0.16289828300E+04  0.50400001928E-02 0. -1.
    10030    2    1    2    0    0  0.00000000000E+00  0.00000000000E+00 -0.95370023142E+03  0.23042654287E+04  0.20976403492E+04 0.  0.
        2    1    3    3  502    0 -0.42590438994E+02 -0.58851538941E+03  0.47566046141E+03  0.75790314923E+03  0.25500000920E-02 0.  1.
       -2    1    3    3    0  502  0.42590438994E+02  0.58851538941E+03 -0.14293606928E+04  0.15463622794E+04  0.25500000920E-02 0. -1.
</event>
<event>
 5   0  0.5954140E-05  0.2098784E+04  0.7818609E-02  0.8561779E-01
       -2   -1    0    0    0  501  0.00000000000E+00  0.00000000000E+00  0.67981592813E+03  0.67981592813E+03  0.25500000920E-02 0.  1.
        2   -1    0    0  501    0  0.00000000000E+00  0.00000000000E+00 -0.16198854431E+04  0.16198854431E+04  0.25500000920E-02 0. -1.
    10030    2    1    2    0    0  0.00000000000E+00  0.00000000000E+00 -0.94006951493E+03  0.22997013712E+04  0.20987843395E+04 0.  0.
        2    1    3    3  502    0  0.52242328443E+03 -0.69863749609E+03 -0.11091409263E+04  0.14111038351E+04  0.25500000920E-02 0. -1.
       -2    1    3    3    0  502 -0.52242328443E+03  0.69863749609E+03  0.16907141132E+03  0.88859753612E+03  0.25500000920E-02 0.  1.
</event>
<event>
 5   0  0.5954140E-05  0.2057977E+04  0.7818609E-02  0.8579984E-01
       -2   -1    0    0    0  501  0.00000000000E+00  0.00000000000E+00  0.41598252265E+03  0.41598252266E+03  0.25500000920E-02 0. -1.
        2   -1    0    0  501    0  0.00000000000E+00  0.00000000000E+00 -0.25453398014E+04  0.25453398014E+04  0.25500000920E-02 0.  1.
    10030    2    1    2    0    0  0.00000000000E+00  0.00000000000E+00 -0.21293572788E+04  0.29613223241E+04  0.20579765515E+04 0.  0.
        2    1    3    3  502    0  0.93681158198E+03 -0.11480206590E+03 -0.47484765848E+03  0.10565395181E+04  0.25500000920E-02 0. -1.
       -2    1    3    3    0  502 -0.93681158198E+03  0.11480206590E+03 -0.16545096203E+04  0.19047828060E+04  0.25500000920E-02 0.  1.
</event>
<event>
 5   0  0.5506332E-05  0.2164660E+04  0.7818609E-02  0.8533283E-01
        2   -1    0    0  501    0  0.00000000000E+00  0.00000000000E+00  0.15105454791E+04  0.15105454791E+04  0.25500000920E-02 0. -1.
       -2   -1    0    0    0  501  0.00000000000E+00  0.00000000000E+00 -0.77550691993E+03  0.77550691994E+03  0.25500000920E-02 0.  1.
    10030    2    1    2    0    0  0.00000000000E+00  0.00000000000E+00  0.73503855917E+03  0.22860523990E+04  0.21646602245E+04 0.  0.
        3    1    3    3  502    0 -0.18229892019E+03  0.10007236707E+04 -0.23026850164E+02  0.10174531966E+04  0.10100000352E+00 0. -1.
       -3    1    3    3    0  502  0.18229892019E+03 -0.10007236707E+04  0.75806540934E+03  0.12685992024E+04  0.10100000352E+00 0.  1.
</event>
<event>
 5   0  0.2602060E-05  0.2060970E+04  0.7818609E-02  0.8578634E-01
        1   -1    0    0  501    0  0.00000000000E+00  0.00000000000E+00  0.10275983487E+04  0.10275983487E+04  0.50400001928E-02 0. -1.
       -1   -1    0    0    0  501  0.00000000000E+00  0.00000000000E+00 -0.10333793393E+04  0.10333793393E+04  0.50400001928E-02 0.  1.
    10030    2    1    2    0    0  0.00000000000E+00  0.00000000000E+00 -0.57809906705E+01  0.20609776880E+04  0.20609695802E+04 0.  0.
        1    1    3    3  502    0  0.43395983007E+03 -0.67464966852E+03 -0.64975128827E+03  0.10323032723E+04  0.50400001928E-02 0.  1.
       -1    1    3    3    0  502 -0.43395983007E+03  0.67464966852E+03  0.64397029760E+03  0.10286744157E+04  0.50400001928E-02 0. -1.
</event>
<event>
 5   0  0.2699285E-05  0.2098599E+04  0.7818609E-02  0.8561861E-01
        1   -1    0    0  501    0  0.00000000000E+00  0.00000000000E+00  0.17072341834E+04  0.17072341834E+04  0.50400001928E-02 0.  1.
       -1   -1    0    0    0  501  0.00000000000E+00  0.00000000000E+00 -0.64492005184E+03  0.64492005186E+03  0.50400001928E-02 0. -1.
    10030    2    1    2    0    0  0.00000000000E+00  0.00000000000E+00  0.10623141315E+04  0.23521542352E+04  0.20985991119E+04 0.  0.
        2    1    3    3  502    0  0.20585656611E+03 -0.10289048715E+04  0.52810858590E+03  0.11747003188E+04  0.25500000920E-02 0. -1.
       -2    1    3    3    0  502 -0.20585656611E+03  0.10289048715E+04  0.53420554564E+03  0.11774539165E+04  0.25500000920E-02 0.  1.
</event>
<event>
 5   0  0.2699285E-05  0.2091922E+04  0.7818609E-02  0.8564810E-01
       -1   -1    0    0    0  501  0.00000000000E+00  0.00000000000E+00  0.12991850740E+04  0.12991850740E+04  0.50400001928E-02 0.  1.
        1   -1    0    0  501    0  0.00000000000E+00  0.00000000000E+00 -0.84209303182E+03  0.84209303184E+03  0.50400001928E-02 0. -1.
    10030    2    1    2    0    0  0.00000000000E+00  0.00000000000E+00  0.45709204216E+03  0.21412781058E+04  0.20919222719E+04 0.  0.
        2    1    3    3  502    0 -0.37962538280E+03 -0.12042590625E+03  0.12185344789E+04  0.12819688399E+04  0.25500000920E-02 0.  1.
       -2    1    3    3    0  502  0.37962538280E+03  0.12042590625E+03 -0.76144243671E+03  0.85930926597E+03  0.25500000920E-02 0. -1.
</event>
<event>
 5   0  0.5506332E-05  0.2121602E+04  0.7818609E-02  0.8551787E-01
       -2   -1    0    0    0  501  0.00000000000E+00  0.00000000000E+00  0.42512306689E+03  0.42512306690E+03  0.25500000920E-02 0.  1.
        2   -1    0    0  501    0  0.00000000000E+00  0.00000000000E+00 -0.26469945439E+04  0.26469945439E+04  0.25500000920E-02 0. -1.
    10030    2    1    2    0    0  0.00000000000E+00  0.00000000000E+00 -0.22218714770E+04  0.30721176108E+04  0.21216016955E+04 0.  0.
        3    1    3    3  502    0  0.75233637580E+03  0.68250534486E+03 -0.15536478429E+04  0.18562449187E+04  0.10100000352E+00 0. -1.
       -3    1    3    3    0  502 -0.75233637580E+03 -0.68250534486E+03 -0.66822363410E+03  0.12158726921E+04  0.10100000352E+00 0.  1.
</event>
<event>
 5   0  0.5954140E-05  0.2110728E+04  0.7818609E-02  0.8556532E-01
        2   -1    0    0  501    0  0.00000000000E+00  0.00000000000E+00  0.12264587168E+04  0.12264587168E+04  0.25500000920E-02 0. -1.
       -2   -1    0    0    0  501  0.00000000000E+00  0.00000000000E+00 -0.90813720008E+03  0.90813720008E+03  0.25500000920E-02 0.  1.
    10030    2    1    2    0    0  0.00000000000E+00  0.00000000000E+00  0.31832151672E+03  0.21345959169E+04  0.21107276329E+04 0.  0.
        2    1    3    3  502    0 -0.77310429861E+02 -0.17366324575E+03 -0.89068076871E+03  0.91074038959E+03  0.25500000920E-02 0.  1.
       -2    1    3    3    0  502  0.77310429861E+02  0.17366324575E+03  0.12090022854E+04  0.12238555273E+04  0.25500000920E-02 0. -1.
</event>
<event>
 5   0  0.5954140E-05  0.2070028E+04  0.7818609E-02  0.8574562E-01
        2   -1    0    0  501    0  0.00000000000E+00  0.00000000000E+00  0.72938840577E+03  0.72938840577E+03  0.25500000920E-02 0. -1.
       -2   -1    0    0    0  501  0.00000000000E+00  0.00000000000E+00 -0.14687022543E+04  0.14687022543E+04  0.25500000920E-02 0.  1.
    10030    2    1    2    0    0  0.00000000000E+00  0.00000000000E+00 -0.73931384857E+03  0.21980906601E+04  0.20700284016E+04 0.  0.
        2    1    3    3  502    0 -0.44403080463E+03  0.24154328076E+02  0.62277938017E+03  0.76524567519E+03  0.25500000920E-02 0. -1.
       -2    1    3    3    0  502  0.44403080463E+03 -0.24154328076E+02 -0.13620932287E+04  0.14328449849E+04  0.25500000920E-02 0.  1.
</event>
<event>
 5   0  0.2789662E-05  0.2102956E+04  0.7818609E-02  0.8559942E-01
        1   -1    0    0  501    0  0.00000000000E+00  0.00000000000E+00  0.12572295869E+04  0.12572295869E+04  0.50400001928E-02 0.  1.
       -1   -1    0    0    0  501  0.00000000000E+00  0.00000000000E+00 -0.87939836009E+03  0.87939836010E+03  0.50400001928E-02 0. -1.
    10030    2    1    2    0    0  0.00000000000E+00  0.00000000000E+00  0.37783122683E+03  0.21366279470E+04  0.21029556695E+04 0.  0.
        4    1    3    3  502    0 -0.51838252828E+03  0.19013482524E+03 -0.72024888292E+03  0.90754160436E+03  0.12699999809E+01 0. -1.
       -4    1    3    3    0  502  0.51838252828E+03 -0.19013482524E+03  0.10980801098E+04  0.12290863427E+04  0.12699999809E+01 0.  1.
</event>
<event>
 5   0  0.2017750E-05  0.2100672E+04  0.7818609E-02  0.8560947E-01
       -3   -1    0    0    0  501  0.00000000000E+00  0.00000000000E+00  0.10021565257E+04  0.10021565308E+04  0.10100000352E+00 0. -1.
        3   -1    0    0  501    0  0.00000000000E+00  0.00000000000E+00 -0.11008321179E+04  0.11008321225E+04  0.10100000352E+00 0.  1.
    10030    2    1    2    0    0  0.00000000000E+00  0.00000000000E+00 -0.98675592160E+02  0.21029886533E+04  0.21006723694E+04 0.  0.
        3    1    3    3  502    0  0.63593627405E+03  0.60529212452E+02  0.78532450395E+03  0.10123306362E+04  0.10100000352E+00 0. -1.
       -3    1    3    3    0  502 -0.63593627405E+03 -0.60529212452E+02 -0.88400009611E+03  0.10906580171E+04  0.10100000352E+00 0.  1.
</event>
<event>
 5   0  0.5462851E-05  0.2136737E+04  0.7818609E-02  0.8545231E-01
        2   -1    0    0  501    0  0.00000000000E+00  0.00000000000E+00  0.13292717626E+04  0.13292717626E+04  0.25500000920E-02 0. -1.
       -2   -1    0    0    0  501  0.00000000000E+00  0.00000000000E+00 -0.85867400255E+03  0.85867400256E+03  0.25500000920E-02 0.  1.
    10030    2    1    2    0    0  0.00000000000E+00  0.00000000000E+00  0.47059776008E+03  0.21879457652E+04  0.21367368625E+04 0.  0.
        1    1    3    3  502    0 -0.89490736919E+03  0.54752104218E+03  0.44206043373E+03  0.11384445169E+04  0.50400001928E-02 0. -1.
       -1    1    3    3    0  502  0.89490736919E+03 -0.54752104218E+03  0.28537326343E+02  0.10495012482E+04  0.50400001928E-02 0.  1.
</event>
<event>
 5   0  0.5506332E-05  0.2103021E+04  0.7818609E-02  0.8559914E-01
       -2   -1    0    0    0  501  0.00000000000E+00  0.00000000000E+00  0.12248129106E+04  0.12248129106E+04  0.25500000920E-02 0.  1.
        2   -1    0    0  501    0  0.00000000000E+00  0.00000000000E+00 -0.90272935750E+03  0.90272935750E+03  0.25500000920E-02 0. -1.
    10030    2    1    2    0    0  0.00000000000E+00  0.00000000000E+00  0.32208355312E+03  0.21275422681E+04  0.21030212285E+04 0.  0.
        3    1    3    3  502    0 -0.12441550910E+02  0.41558023487E+03  0.11381255425E+04  0.12116895166E+04  0.10100000352E+00 0.  1.
       -3    1    3    3    0  502  0.12441550910E+02 -0.41558023487E+03 -0.81604198943E+03  0.91585275154E+03  0.10100000352E+00 0. -1.
</event>
<event>
 5   0  0.2699285E-05  0.2100769E+04  0.7818609E-02  0.8560905E-01
       -1   -1    0    0    0  501  0.00000000000E+00  0.00000000000E+00  0.11624951782E+04  0.11624951782E+04  0.50400001928E-02 0.  1.
        1   -1    0    0  501    0  0.00000000000E+00  0.00000000000E+00 -0.94908607942E+03  0.94908607944E+03  0.50400001928E-02 0. -1.
    10030    2    1    2    0    0  0.00000000000E+00  0.00000000000E+00  0.21340909879E+03  0.21115812577E+04  0.21007693744E+04 0.  0.
        2    1    3    3  502    0  0.43691488929E+03 -0.27722727981E+03 -0.81208876709E+03  0.96293185158E+03  0.25500000920E-02 0. -1.
       -2    1    3    3    0  502 -0.43691488929E+03  0.27722727981E+03  0.10254978659E+04  0.11486494061E+04  0.25500000920E-02 0.  1.
</event>
<event>
 5   0  0.5506332E-05  0.2091687E+04  0.7818609E-02  0.8564914E-01
       -2   -1    0    0    0  501  0.00000000000E+00  0.00000000000E+00  0.57666979627E+03  0.57666979628E+03  0.25500000920E-02 0. -1.
        2   -1    0    0  501    0  0.00000000000E+00  0.00000000000E+00 -0.18967320938E+04  0.18967320938E+04  0.25500000920E-02 0.  1.
    10030    2    1    2    0    0  0.00000000000E+00  0.00000000000E+00 -0.13200622975E+04  0.24734018901E+04  0.20916865063E+04 0.  0.
        3    1    3    3  502    0  0.10136190252E+03 -0.28718094065E+03  0.52307584113E+03  0.60527305717E+03  0.10100000352E+00 0. -1.
       -3    1    3    3    0  502 -0.10136190252E+03  0.28718094065E+03 -0.18431381387E+04  0.18681288329E+04  0.10100000352E+00 0.  1.
</event>
<event>
 5   0  0.5954140E-05  0.2107290E+04  0.7818609E-02  0.8558039E-01
       -2   -1    0    0    0  501  0.00000000000E+00  0.00000000000E+00  0.63770594674E+03  0.63770594674E+03  0.25500000920E-02 0. -1.
        2   -1    0    0  501    0  0.00000000000E+00  0.00000000000E+00 -0.17408777693E+04  0.17408777693E+04  0.25500000920E-02 0.  1.
    10030    2    1    2    0    0  0.00000000000E+00  0.00000000000E+00 -0.11031718226E+04  0.23785837161E+04  0.21072903037E+04 0.  0.
        2    1    3    3  502    0 -0.40780468352E+03 -0.96104058365E+03 -0.71226575661E+03  0.12638141364E+04  0.25500000920E-02 0.  1.
       -2    1    3    3    0  502  0.40780468352E+03  0.96104058365E+03 -0.39090606598E+03  0.11147695797E+04  0.25500000920E-02 0. -1.
</event>
<event>
 5   0  0.5866610E-05  0.1937178E+04  0.7818609E-02  0.8636569E-01
        2   -1    0    0  501    0  0.00000000000E+00  0.00000000000E+00  0.10106489232E+04  0.10106489232E+04  0.25500000920E-02 0.  1.
       -2   -1    0    0    0  501  0.00000000000E+00  0.00000000000E+00 -0.92827955950E+03  0.92827955950E+03  0.25500000920E-02 0. -1.
    10030    2    1    2    0    0  0.00000000000E+00  0.00000000000E+00  0.82369363690E+02  0.19389284827E+04  0.19371780891E+04 0.  0.
        5    1    3    3  502    0  0.88119099594E+02 -0.24674583953E+03  0.97449394760E+03  0.10091129912E+04  0.46999998093E+01 0.  1.
       -5    1    3    3    0  502 -0.88119099594E+02  0.24674583953E+03 -0.89212458391E+03  0.92981549152E+03  0.46999998093E+01 0. -1.
</event>
<event>
 5   0  0.2604390E-05  0.2127638E+04  0.7818609E-02  0.8549166E-01
       -1   -1    0    0    0  501  0.00000000000E+00  0.00000000000E+00  0.79666321182E+03  0.79666321184E+03  0.50400001928E-02 0. -1.
        1   -1    0    0  501    0  0.00000000000E+00  0.00000000000E+00 -0.14205631876E+04  0.14205631876E+04  0.50400001928E-02 0.  1.
    10030    2    1    2    0    0  0.00000000000E+00  0.00000000000E+00 -0.62389997574E+03  0.22172263994E+04  0.21276375929E+04 0.  0.
        5    1    3    3  502    0 -0.72616859036E+03  0.55955825882E+03 -0.87436169878E+03  0.12668688712E+04  0.46999998093E+01 0.  1.
       -5    1    3    3    0  502  0.72616859036E+03 -0.55955825882E+03  0.25046172303E+03  0.95035752817E+03  0.46999998093E+01 0. -1.
</event>
<event>
 5   0  0.2604390E-05  0.2123633E+04  0.7818609E-02  0.8550904E-01
        1   -1    0    0  501    0  0.00000000000E+00  0.00000000000E+00  0.12626166469E+04  0.12626166470E+04  0.50400001928E-02 0.  1.
       -1   -1    0    0    0  501  0.00000000000E+00  0.00000000000E+00 -0.89295066268E+03  0.89295066269E+03  0.50400001928E-02 0. -1.
    10030    2    1    2    0    0  0.00000000000E+00  0.00000000000E+00  0.36966598427E+03  0.21555673096E+04  0.21236330866E+04 0.  0.
        5    1    3    3  502    0  0.76612382483E+03  0.54298373594E+03  0.68792232870E+03  0.11640602531E+04  0.46999998093E+01 0.  1.
       -5    1    3    3    0  502 -0.76612382483E+03 -0.54298373594E+03 -0.31825634443E+03  0.99150705657E+03  0.46999998093E+01 0. -1.
</event>
<event>
 5   0  0.5462851E-05  0.2123110E+04  0.7818609E-02  0.8551131E-01
       -2   -1    0    0    0  501  0.00000000000E+00  0.00000000000E+00  0.71546170577E+03  0.71546170578E+03  0.25500000920E-02 0. -1.
        2   -1    0    0  501    0  0.00000000000E+00  0.00000000000E+00 -0.15750648467E+04  0.15750648467E+04  0.25500000920E-02 0.  1.
    10030    2    1    2    0    0  0.00000000000E+00  0.00000000000E+00 -0.85960314090E+03  0.22905265524E+04  0.21231095892E+04 0.  0.
        1    1    3    3  502    0  0.28142405713E+03 -0.84719926682E+03  0.18990859480E+03  0.91269456667E+03  0.50400001928E-02 0. -1.
       -1    1    3    3    0  502 -0.28142405713E+03  0.84719926682E+03 -0.10495117357E+04  0.13778319858E+04  0.50400001928E-02 0.  1.
</event>
<event>
 5   0  0.2789662E-05  0.2122916E+04  0.7818609E-02  0.8551215E-01
        1   -1    0    0  501    0  0.00000000000E+00  0.00000000000E+00  0.15072463211E+04  0.15072463211E+04  0.50400001928E-02 0.  1.
       -1   -1    0    0    0  501  0.00000000000E+00  0.00000000000E+00 -0.74751780371E+03  0.74751780373E+03  0.50400001928E-02 0. -1.
    10030    2    1    2    0    0  0.00000000000E+00  0.00000000000E+00  0.75972851741E+03  0.22547641249E+04  0.21229163522E+04 0.  0.
        4    1    3    3  502    0 -0.29545819687E+03 -0.79090993496E+03 -0.30340800782E+03  0.89715779182E+03  0.12699999809E+01 0. -1.
       -4    1    3    3    0  502  0.29545819687E+03  0.79090993496E+03  0.10631365252E+04  0.13576063330E+04  0.12699999809E+01 0.  1.
</event>
<event>
 5   0  0.5954140E-05  0.2083997E+04  0.7818609E-02  0.8568326E-01
       -2   -1    0    0    0  501  0.00000000000E+00  0.00000000000E+00  0.79366873970E+03  0.79366873971E+03  0.25500000920E-02 0. -1.
        2   -1    0    0  501    0  0.00000000000E+00  0.00000000000E+00 -0.13680274077E+04  0.13680274077E+04  0.25500000920E-02 0.  1.
    10030    2    1    2    0    0  0.00000000000E+00  0.00000000000E+00 -0.57435866796E+03  0.21616961474E+04  0.20839967260E+04 0.  0.
        2    1    3    3  502    0 -0.35232792078E+03  0.96308767445E+03 -0.47869170053E+03  0.11317325552E+04  0.25500000920E-02 0.  1.
       -2    1    3    3    0  502  0.35232792078E+03 -0.96308767445E+03 -0.95666967431E+02  0.10299635921E+04  0.25500000920E-02 0. -1.
</event>
<event>
 5   0  0.2602060E-05  0.2101375E+04  0.7818609E-02  0.8560638E-01
        1   -1    0    0  501    0  0.00000000000E+00  0.00000000000E+00  0.14120845936E+04  0.14120845936E+04  0.50400001928E-02 0.  1.
       -1   -1    0    0    0  501  0.00000000000E+00  0.00000000000E+00 -0.78178330317E+03  0.78178330319E+03  0.50400001928E-02 0. -1.
    10030    2    1    2    0    0  0.00000000000E+00  0.00000000000E+00  0.63030129047E+03  0.21938678968E+04  0.21013749385E+04 0.  0.
        1    1    3    3  502    0  0.86422134114E+03  0.24800107428E+02 -0.30816293820E+03  0.91785509113E+03  0.50400001928E-02 0. -1.
       -1    1    3    3    0  502 -0.86422134114E+03 -0.24800107428E+02  0.93846422867E+03  0.12760128057E+04  0.50400001928E-02 0.  1.
</event>
<event>
 5   0  0.5967046E-05  0.2090522E+04  0.7818609E-02  0.8565430E-01
        2   -1    0    0  501    0  0.00000000000E+00  0.00000000000E+00  0.13557447181E+04  0.13557447181E+04  0.25500000920E-02 0.  1.
       -2   -1    0    0    0  501  0.00000000000E+00  0.00000000000E+00 -0.80588252890E+03  0.80588252891E+03  0.25500000920E-02 0. -1.
    10030    2    1    2    0    0  0.00000000000E+00  0.00000000000E+00  0.54986218920E+03  0.21616272470E+04  0.20905224055E+04 0.  0.
        4    1    3    3  502    0 -0.50531064696E+03  0.34741463340E+03 -0.60034336711E+03  0.85816638757E+03  0.12699999809E+01 0. -1.
       -4    1    3    3    0  502  0.50531064696E+03 -0.34741463340E+03  0.11502055563E+04  0.13034608594E+04  0.12699999809E+01 0.  1.
</event>
<event>
 5   0  0.2789662E-05  0.2085649E+04  0.7818609E-02  0.8567592E-01
       -1   -1    0    0    0  501  0.00000000000E+00  0.00000000000E+00  0.51116479981E+03  0.51116479983E+03  0.50400001928E-02 0. -1.
        1   -1    0    0  501    0  0.00000000000E+00  0.00000000000E+00 -0.21274604412E+04  0.21274604412E+04  0.50400001928E-02 0.  1.
    10030    2    1    2    0    0  0.00000000000E+00  0.00000000000E+00 -0.16162956414E+04  0.26386252411E+04  0.20856489547E+04 0.  0.
        4    1    3    3  502    0 -0.54676176681E+03  0.61977194876E+03 -0.16126930045E+04  0.18121385261E+04  0.12699999809E+01 0.  1.
       -4    1    3    3    0  502  0.54676176681E+03 -0.61977194876E+03 -0.36026369151E+01  0.82648671496E+03  0.12699999809E+01 0. -1.
</event>
<event>
 5   0  0.2017750E-05  0.2079713E+04  0.7818609E-02  0.8570233E-01
       -4   -1    0    0    0  501  0.00000000000E+00  0.00000000000E+00  0.10430769886E+04  0.10430777618E+04  0.12699999809E+01 0.  1.
        4   -1    0    0  501    0  0.00000000000E+00  0.00000000000E+00 -0.10366439503E+04  0.10366447282E+04  0.12699999809E+01 0. -1.
    10030    2    1    2    0    0  0.00000000000E+00  0.00000000000E+00  0.64330383119E+01  0.20797224900E+04  0.20797125406E+04 0.  0.
        2    1    3    3  502    0  0.89372925606E+03  0.19830617003E+03 -0.48996303215E+03  0.10383357324E+04  0.25500000920E-02 0. -1.
       -2    1    3    3    0  502 -0.89372925606E+03 -0.19830617003E+03  0.49639607046E+03  0.10413867576E+04  0.25500000920E-02 0.  1.
</event>
<event>
 5   0  0.2789662E-05  0.2113573E+04  0.7818609E-02  0.8555288E-01
       -1   -1    0    0    0  501  0.00000000000E+00  0.00000000000E+00  0.26782375371E+04  0.26782375371E+04  0.50400001928E-02 0.  1.
        1   -1    0    0  501    0  0.00000000000E+00  0.00000000000E+00 -0.41698969631E+03  0.41698969634E+03  0.50400001928E-02 0. -1.
    10030    2    1    2    0    0  0.00000000000E+00  0.00000000000E+00  0.22612478407E+04  0.30952272334E+04  0.21135727641E+04 0.  0.
        4    1    3    3  502    0 -0.34842912379E+03  0.58373372867E+03 -0.54269346187E+02  0.68197851515E+03  0.12699999809E+01 0. -1.
       -4    1    3    3    0  502  0.34842912379E+03 -0.58373372867E+03  0.23155171869E+04  0.24132487183E+04  0.12699999809E+01 0.  1.
</event>
<event>
 5   0  0.2604390E-05  0.2103539E+04  0.7818609E-02  0.8559686E-01
       -1   -1    0    0    0  501  0.00000000000E+00  0.00000000000E+00  0.73928768125E+03  0.73928768127E+03  0.50400001928E-02 0.  1.
        1   -1    0    0  501    0  0.00000000000E+00  0.00000000000E+00 -0.14963313229E+04  0.14963313229E+04  0.50400001928E-02 0. -1.
    10030    2    1    2    0    0  0.00000000000E+00  0.00000000000E+00 -0.75704364163E+03  0.22356190042E+04  0.21035392215E+04 0.  0.
        5    1    3    3  502    0  0.23191824974E+03  0.86324393831E+03  0.21055599112E+03  0.91833114234E+03  0.46999998093E+01 0.  1.
       -5    1    3    3    0  502 -0.23191824974E+03 -0.86324393831E+03 -0.96759963276E+03  0.13172878618E+04  0.46999998093E+01 0. -1.
</event>
<event>
 5   0  0.5462851E-05  0.2091480E+04  0.7818609E-02  0.8565006E-01
       -2   -1    0    0    0  501  0.00000000000E+00  0.00000000000E+00  0.12116858634E+04  0.12116858634E+04  0.25500000920E-02 0.  1.
        2   -1    0    0  501    0  0.00000000000E+00  0.00000000000E+00 -0.90252154444E+03  0.90252154444E+03  0.25500000920E-02 0. -1.
    10030    2    1    2    0    0  0.00000000000E+00  0.00000000000E+00  0.30916431894E+03  0.21142074078E+04  0.20914804295E+04 0.  0.
        1    1    3    3  502    0  0.63047612356E+03  0.37428912673E+03  0.90832536493E+03  0.11673249168E+04  0.50400001928E-02 0.  1.
       -1    1    3    3    0  502 -0.63047612356E+03 -0.37428912673E+03 -0.59916104599E+03  0.94688249103E+03  0.50400001928E-02 0. -1.
</event>
<event>
 5   0  0.2604390E-05  0.2097395E+04  0.7818609E-02  0.8562392E-01
        1   -1    0    0  501    0  0.00000000000E+00  0.00000000000E+00  0.10677910422E+04  0.10677910422E+04  0.50400001928E-02 0.  1.
       -1   -1    0    0    0  501  0.00000000000E+00  0.00000000000E+00 -0.10299453287E+04  0.10299453287E+04  0.50400001928E-02 0. -1.
    10030    2    1    2    0    0  0.00000000000E+00  0.00000000000E+00  0.37845713490E+02  0.20977363709E+04  0.20973949518E+04 0.  0.
        5    1    3    3  502    0 -0.44705459914E+03 -0.40623001899E+03  0.87630429365E+03  0.10643363886E+04  0.46999998093E+01 0.  1.
       -5    1    3    3    0  502  0.44705459914E+03  0.40623001899E+03 -0.83845858016E+03  0.10333999824E+04  0.46999998093E+01 0. -1.
</event>
<event>
 5   0  0.5462851E-05  0.2085813E+04  0.7818609E-02  0.8567519E-01
        2   -1    0    0  501    0  0.00000000000E+00  0.00000000000E+00  0.11359364082E+04  0.11359364082E+04  0.25500000920E-02 0. -1.
       -2   -1    0    0    0  501  0.00000000000E+00  0.00000000000E+00 -0.95749530171E+03  0.95749530171E+03  0.25500000920E-02 0.  1.
    10030    2    1    2    0    0  0.00000000000E+00  0.00000000000E+00  0.17844110648E+03  0.20934317099E+04  0.20858128141E+04 0.  0.
        1    1    3    3  502    0  0.68014319172E+03 -0.55385502684E+03  0.65546539296E+03  0.10949817503E+04  0.50400001928E-02 0. -1.
       -1    1    3    3    0  502 -0.68014319172E+03  0.55385502684E+03 -0.47702428648E+03  0.99844995964E+03  0.50400001928E-02 0.  1.
</event>
<event>
 5   0  0.2732159E-05  0.2095863E+04  0.7818609E-02  0.8563068E-01
        1   -1    0    0  501    0  0.00000000000E+00  0.00000000000E+00  0.11857840389E+04  0.11857840389E+04  0.50400001928E-02 0. -1.
       -1   -1    0    0    0  501  0.00000000000E+00  0.00000000000E+00 -0.92610479917E+03  0.92610479918E+03  0.50400001928E-02 0.  1.
    10030    2    1    2    0    0  0.00000000000E+00  0.00000000000E+00  0.25967923972E+03  0.21118888381E+04  0.20958628669E+04 0.  0.
        3    1    3    3  502    0  0.59232138126E+03 -0.48473580416E+03  0.85109693568E+03  0.11446306927E+04  0.10100000352E+00 0. -1.
       -3    1    3    3    0  502 -0.59232138126E+03  0.48473580416E+03 -0.59141769596E+03  0.96725814539E+03  0.10100000352E+00 0.  1.
</event>
<event>
 5   0  0.2604390E-05  0.2111770E+04  0.7818609E-02  0.8556076E-01
       -1   -1    0    0    0  501  0.00000000000E+00  0.00000000000E+00  0.97464890056E+03  0.97464890057E+03  0.50400001928E-02 0.  1.
        1   -1    0    0  501    0  0.00000000000E+00  0.00000000000E+00 -0.11438919347E+04  0.11438919347E+04  0.50400001928E-02 0. -1.
    10030    2    1    2    0    0  0.00000000000E+00  0.00000000000E+00 -0.16924303412E+03  0.21185408353E+04  0.21117698895E+04 0.  0.
        5    1    3    3  502    0 -0.69779613837E+03  0.12155763624E+03  0.70094423773E+03  0.99651423676E+03  0.46999998093E+01 0.  1.
       -5    1    3    3    0  502  0.69779613837E+03 -0.12155763624E+03 -0.87018727185E+03  0.11220265985E+04  0.46999998093E+01 0. -1.
</event>
<event>
 5   0  0.5967046E-05  0.2050636E+04  0.7818609E-02  0.8583306E-01
        2   -1    0    0  501    0  0.00000000000E+00  0.00000000000E+00  0.14932984121E+04  0.14932984121E+04  0.25500000920E-02 0. -1.
       -2   -1    0    0    0  501  0.00000000000E+00  0.00000000000E+00 -0.70399687483E+03  0.70399687484E+03  0.25500000920E-02 0.  1.
    10030    2    1    2    0    0  0.00000000000E+00  0.00000000000E+00  0.78930153727E+03  0.21972952869E+04  0.20506364040E+04 0.  0.
        4    1    3    3  502    0 -0.28387472279E+03  0.86595077125E+03  0.89817359871E+03  0.12795206223E+04  0.12699999809E+01 0. -1.
       -4    1    3    3    0  502  0.28387472279E+03 -0.86595077125E+03 -0.10887206144E+03  0.91777466468E+03  0.12699999809E+01 0.  1.
</event>
<event>
 5   0  0.5954140E-05  0.2091286E+04  0.7818609E-02  0.8565092E-01
       -2   -1    0    0    0  501  0.00000000000E+00  0.00000000000E+00  0.58973788396E+03  0.58973788397E+03  0.25500000920E-02 0.  1.
        2   -1    0    0  501    0  0.00000000000E+00  0.00000000000E+00 -0.18539927034E+04  0.18539927034E+04  0.25500000920E-02 0. -1.
    10030    2    1    2    0    0  0.00000000000E+00  0.00000000000E+00 -0.12642548194E+04  0.24437305874E+04  0.20912864307E+04 0.  0.
        2    1    3    3  502    0 -0.95016827068E+03 -0.32089903402E+03 -0.28632588361E+03  0.10429661760E+04  0.25500000920E-02 0.  1.
       -2    1    3    3    0  502  0.95016827068E+03  0.32089903402E+03 -0.97792893583E+03  0.14007644114E+04  0.25500000920E-02 0. -1.
</event>
<event>
 5   0  0.2602060E-05  0.2091526E+04  0.7818609E-02  0.8564985E-01
       -1   -1    0    0    0  501  0.00000000000E+00  0.00000000000E+00  0.68579518863E+03  0.68579518865E+03  0.50400001928E-02 0. -1.
        1   -1    0    0  501    0  0.00000000000E+00  0.00000000000E+00 -0.15946752846E+04  0.15946752846E+04  0.50400001928E-02 0.  1.
    10030    2    1    2    0    0  0.00000000000E+00  0.00000000000E+00 -0.90888009594E+03  0.22804704732E+04  0.20915263686E+04 0.  0.
        1    1    3    3  502    0  0.76047204878E+03  0.15800649771E+03 -0.12179388755E+04  0.14445272219E+04  0.50400001928E-02 0.  1.
       -1    1    3    3    0  502 -0.76047204878E+03 -0.15800649771E+03  0.30905877952E+03  0.83594325137E+03  0.50400001928E-02 0. -1.
</event>
<event>
 5   0  0.5866610E-05  0.2129633E+04  0.7818609E-02  0.8548301E-01
       -2   -1    0    0    0  501  0.00000000000E+00  0.00000000000E+00  0.61332353556E+03  0.61332353557E+03  0.25500000920E-02 0. -1.
        2   -1    0    0  501    0  0.00000000000E+00  0.00000000000E+00 -0.18486719773E+04  0.18486719773E+04  0.25500000920E-02 0.  1.
    10030    2    1    2    0    0  0.00000000000E+00  0.00000000000E+00 -0.12353484418E+04  0.24619955129E+04  0.21296328634E+04 0.  0.
        5    1    3    3  502    0  0.85348027239E+03 -0.56068960422E+03 -0.96643557260E+03  0.14059947417E+04  0.46999998093E+01 0. -1.
       -5    1    3    3    0  502 -0.85348027239E+03  0.56068960422E+03 -0.26891286918E+03  0.10560007712E+04  0.46999998093E+01 0.  1.
</event>
<event>
 5   0  0.2602060E-05  0.2106113E+04  0.7818609E-02  0.8558555E-01
        1   -1    0    0  501    0  0.00000000000E+00  0.00000000000E+00  0.24333531663E+04  0.24333531663E+04  0.50400001928E-02 0.  1.
       -1   -1    0    0    0  501  0.00000000000E+00  0.00000000000E+00 -0.45572022788E+03  0.45572022790E+03  0.50400001928E-02 0. -1.
    10030    2    1    2    0    0  0.00000000000E+00  0.00000000000E+00  0.19776329384E+04  0.28890733942E+04  0.21061132538E+04 0.  0.
        1    1    3    3  502    0 -0.52156901445E+03 -0.11437219685E+03 -0.25624610948E+03  0.59226455651E+03  0.50400001928E-02 0. -1.
       -1    1    3    3    0  502  0.52156901445E+03  0.11437219685E+03  0.22338790479E+04  0.22968088377E+04  0.50400001928E-02 0.  1.
</event>
<event>
 5   0  0.5967046E-05  0.2090724E+04  0.7818609E-02  0.8565341E-01
        2   -1    0    0  501    0  0.00000000000E+00  0.00000000000E+00  0.23493724447E+04  0.23493724447E+04  0.25500000920E-02 0.  1.
       -2   -1    0    0    0  501  0.00000000000E+00  0.00000000000E+00 -0.46513764338E+03  0.46513764339E+03  0.25500000920E-02 0. -1.
    10030    2    1    2    0    0  0.00000000000E+00  0.00000000000E+00  0.18842348013E+04  0.28145100881E+04  0.20907238578E+04 0.  0.
        4    1    3    3  502    0  0.11164356447E+03  0.33448866633E+03 -0.38265393798E+03  0.52035814834E+03  0.12699999809E+01 0. -1.
       -4    1    3    3    0  502 -0.11164356447E+03 -0.33448866633E+03  0.22668887393E+04  0.22941519398E+04  0.12699999809E+01 0.  1.
</event>
<event>
 5   0  0.2699285E-05  0.2126467E+04  0.7818609E-02  0.8549673E-01
       -1   -1    0    0    0  501  0.00000000000E+00  0.00000000000E+00  0.61118258528E+03  0.61118258530E+03  0.50400001928E-02 0. -1.
        1   -1    0    0  501    0  0.00000000000E+00  0.00000000000E+00 -0.18496360546E+04  0.18496360546E+04  0.50400001928E-02 0.  1.
    10030    2    1    2    0    0  0.00000000000E+00  0.00000000000E+00 -0.12384534693E+04  0.24608186399E+04  0.21264668779E+04 0.  0.
        2    1    3    3  502    0 -0.82440261215E+03 -0.60304857560E+03 -0.27758190858E+03  0.10584701070E+04  0.25500000920E-02 0. -1.
       -2    1    3    3    0  502  0.82440261215E+03  0.60304857560E+03 -0.96087156070E+03  0.14023485329E+04  0.25500000920E-02 0.  1.
</event>
<event>
 5   0  0.2699285E-05  0.2093792E+04  0.7818609E-02  0.8563983E-01
       -1   -1    0    0    0  501  0.00000000000E+00  0.00000000000E+00  0.72562100265E+03  0.72562100267E+03  0.50400001928E-02 0. -1.
        1   -1    0    0  501    0  0.00000000000E+00  0.00000000000E+00 -0.15104176745E+04  0.15104176745E+04  0.50400001928E-02 0.  1.
    10030    2    1    2    0    0  0.00000000000E+00  0.00000000000E+00 -0.78479667181E+03  0.22360386771E+04  0.20937915726E+04 0.  0.
        2    1    3    3  502    0 -0.55658052996E+03 -0.86828742745E+03 -0.20050851458E+03  0.10506705513E+04  0.25500000920E-02 0.  1.
       -2    1    3    3    0  502  0.55658052996E+03  0.86828742745E+03 -0.58428815724E+03  0.11853681258E+04  0.25500000920E-02 0. -1.
</event>
<event>
 5   0  0.5954140E-05  0.2093651E+04  0.7818609E-02  0.8564045E-01
        2   -1    0    0  501    0  0.00000000000E+00  0.00000000000E+00  0.85074624321E+03  0.85074624322E+03  0.25500000920E-02 0.  1.
       -2   -1    0    0    0  501  0.00000000000E+00  0.00000000000E+00 -0.12880972992E+04  0.12880972992E+04  0.25500000920E-02 0. -1.
    10030    2    1    2    0    0  0.00000000000E+00  0.00000000000E+00 -0.43735105595E+03  0.21388435424E+04  0.20936512968E+04 0.  0.
        2    1    3    3  502    0  0.47961869756E+03 -0.50425544647E+03 -0.10175633164E+04  0.12327784688E+04  0.25500000920E-02 0. -1.
       -2    1    3    3    0  502 -0.47961869756E+03  0.50425544647E+03  0.58021226043E+03  0.90606507355E+03  0.25500000920E-02 0.  1.
</event>
<event>
 5   0  0.2604390E-05  0.2063576E+04  0.7818609E-02  0.8577460E-01
       -1   -1    0    0    0  501  0.00000000000E+00  0.00000000000E+00  0.15045418289E+04  0.15045418289E+04  0.50400001928E-02 0. -1.
        1   -1    0    0  501    0  0.00000000000E+00  0.00000000000E+00 -0.70758216908E+03  0.70758216910E+03  0.50400001928E-02 0.  1.
    10030    2    1    2    0    0  0.00000000000E+00  0.00000000000E+00  0.79695965979E+03  0.22121239980E+04  0.20635764786E+04 0.  0.
        5    1    3    3  502    0 -0.61943227679E+03 -0.76042336390E+03  0.55068079786E+02  0.98234139753E+03  0.46999998093E+01 0. -1.
       -5    1    3    3    0  502  0.61943227679E+03  0.76042336390E+03  0.74189158001E+03  0.12297826004E+04  0.46999998093E+01 0.  1.
</event>
<event>
 5   0  0.2602060E-05  0.2136285E+04  0.7818609E-02  0.8545426E-01
        1   -1    0    0  501    0  0.00000000000E+00  0.00000000000E+00  0.25984581967E+04  0.25984581967E+04  0.50400001928E-02 0.  1.
       -1   -1    0    0    0  501  0.00000000000E+00  0.00000000000E+00 -0.43907909427E+03  0.43907909430E+03  0.50400001928E-02 0. -1.
    10030    2    1    2    0    0  0.00000000000E+00  0.00000000000E+00  0.21593791025E+04  0.30375372910E+04  0.21362852540E+04 0.  0.
        1    1    3    3  502    0  0.37514708049E+03 -0.34550500492E+03  0.24141504971E+04  0.24674342267E+04  0.50400001928E-02 0.  1.
       -1    1    3    3    0  502 -0.37514708049E+03  0.34550500492E+03 -0.25477139464E+03  0.57010306434E+03  0.50400001928E-02 0. -1.
</event>
<event>
 5   0  0.2604390E-05  0.2079556E+04  0.7818609E-02  0.8570303E-01
       -1   -1    0    0    0  501  0.00000000000E+00  0.00000000000E+00  0.65606453546E+03  0.65606453548E+03  0.50400001928E-02 0.  1.
        1   -1    0    0  501    0  0.00000000000E+00  0.00000000000E+00 -0.16479146021E+04  0.16479146021E+04  0.50400001928E-02 0. -1.
    10030    2    1    2    0    0  0.00000000000E+00  0.00000000000E+00 -0.99185006659E+03  0.23039791375E+04  0.20795560371E+04 0.  0.
        5    1    3    3  502    0 -0.64941545962E+03  0.19036037739E+03 -0.13705065312E+04  0.15284919870E+04  0.46999998093E+01 0. -1.
       -5    1    3    3    0  502  0.64941545962E+03 -0.19036037739E+03  0.37865646456E+03  0.77548715052E+03  0.46999998093E+01 0.  1.
</event>
<event>
 5   0  0.5954140E-05  0.2100437E+04  0.7818609E-02  0.8561051E-01
       -2   -1    0    0    0  501  0.00000000000E+00  0.00000000000E+00  0.73586622202E+03  0.73586622202E+03  0.25500000920E-02 0.  1.
        2   -1    0    0  501    0  0.00000000000E+00  0.00000000000E+00 -0.14988577588E+04  0.14988577588E+04  0.25500000920E-02 0. -1.
    10030    2    1    2    0    0  0.00000000000E+00  0.00000000000E+00 -0.76299153679E+03  0.22347239808E+04  0.21004369034E+04 0.  0.
        2    1    3    3  502    0  0.39258372925E+03  0.97353887092E+03 -0.41611658792E+03  0.11291824177E+04  0.25500000920E-02 0.  1.
       -2    1    3    3    0  502 -0.39258372925E+03 -0.97353887092E+03 -0.34687494887E+03  0.11055415631E+04  0.25500000920E-02 0. -1.
</event>
<event>
 5   0  0.5954140E-05  0.2106813E+04  0.7818609E-02  0.8558248E-01
        2   -1    0    0  501    0  0.00000000000E+00  0.00000000000E+00  0.20425436606E+04  0.20425436606E+04  0.25500000920E-02 0.  1.
       -2   -1    0    0    0  501  0.00000000000E+00  0.00000000000E+00 -0.54327623472E+03  0.54327623473E+03  0.25500000920E-02 0. -1.
    10030    2    1    2    0    0  0.00000000000E+00  0.00000000000E+00  0.14992674258E+04  0.25858198953E+04  0.21068131661E+04 0.  0.
        2    1    3    3  502    0 -0.89039770303E+03 -0.97456187315E+02  0.69184562488E+02  0.89838314861E+03  0.25500000920E-02 0. -1.
       -2    1    3    3    0  502  0.89039770303E+03  0.97456187315E+02  0.14300828633E+04  0.16874367467E+04  0.25500000920E-02 0.  1.
</event>
<event>
 5   0  0.2602060E-05  0.2091799E+04  0.7818609E-02  0.8564865E-01
        1   -1    0    0  501    0  0.00000000000E+00  0.00000000000E+00  0.69797124997E+03  0.69797124999E+03  0.50400001928E-02 0.  1.
       -1   -1    0    0    0  501  0.00000000000E+00  0.00000000000E+00 -0.15672650702E+04  0.15672650702E+04  0.50400001928E-02 0. -1.
    10030    2    1    2    0    0  0.00000000000E+00  0.00000000000E+00 -0.86929382018E+03  0.22652363202E+04  0.20917991874E+04 0.  0.
        1    1    3    3  502    0 -0.77724904760E+03 -0.27288055285E+03  0.26324494363E+03  0.86479927063E+03  0.50400001928E-02 0.  1.
       -1    1    3    3    0  502  0.77724904760E+03  0.27288055285E+03 -0.11325387638E+04  0.14004370495E+04  0.50400001928E-02 0. -1.
</event>
<event>
 5   0  0.5506332E-05  0.2093775E+04  0.7818609E-02  0.8563991E-01
       -2   -1    0    0    0  501  0.00000000000E+00  0.00000000000E+00  0.15696727163E+04  0.15696727163E+04  0.25500000920E-02 0.  1.
        2   -1    0    0  501    0  0.00000000000E+00  0.00000000000E+00 -0.69821750466E+03  0.69821750466E+03  0.25500000920E-02 0. -1.
    10030    2    1    2    0    0  0.00000000000E+00  0.00000000000E+00  0.87145521159E+03  0.22678902209E+04  0.20937745505E+04 0.  0.
        3    1    3    3  502    0  0.36826907185E+03 -0.11573898829E+03  0.14897670395E+04  0.15389683119E+04  0.10100000352E+00 0.  1.
       -3    1    3    3    0  502 -0.36826907185E+03  0.11573898829E+03 -0.61831182794E+03  0.72892190903E+03  0.10100000352E+00 0. -1.
</event>
<event>
 5   0  0.5506332E-05  0.2214954E+04  0.7818609E-02  0.8512230E-01
        2   -1    0    0  501    0  0.00000000000E+00  0.00000000000E+00  0.71716228018E+03  0.71716228019E+03  0.25500000920E-02 0.  1.
       -2   -1    0    0    0  501  0.00000000000E+00  0.00000000000E+00 -0.17102204185E+04  0.17102204185E+04  0.25500000920E-02 0. -1.
    10030    2    1    2    0    0  0.00000000000E+00  0.00000000000E+00 -0.99305813830E+03  0.24273826987E+04  0.22149542433E+04 0.  0.
        3    1    3    3  502    0 -0.10066355307E+03  0.52319840873E+03  0.56748033631E+03  0.77839814242E+03  0.10100000352E+00 0.  1.
       -3    1    3    3    0  502  0.10066355307E+03 -0.52319840873E+03 -0.15605384746E+04  0.16489845563E+04  0.10100000352E+00 0. -1.
</event>
<event>
 5   0  0.5967046E-05  0.2097517E+04  0.7818609E-02  0.8562338E-01
        2   -1    0    0  501    0  0.00000000000E+00  0.00000000000E+00  0.24488775339E+04  0.24488775339E+04  0.25500000920E-02 0. -1.
       -2   -1    0    0    0  501  0.00000000000E+00  0.00000000000E+00 -0.44914229040E+03  0.44914229041E+03  0.25500000920E-02 0.  1.
    10030    2    1    2    0    0  0.00000000000E+00  0.00000000000E+00  0.19997352435E+04  0.28980198243E+04  0.20975170698E+04 0.  0.
        4    1    3    3  502    0  0.59724929958E+03 -0.72444525945E+03  0.35423189578E+03  0.10034986341E+04  0.12699999809E+01 0.  1.
       -4    1    3    3    0  502 -0.59724929958E+03  0.72444525945E+03  0.16455033477E+04  0.18945211902E+04  0.12699999809E+01 0. -1.
</event>
<event>
 5   0  0.2789662E-05  0.2101973E+04  0.7818609E-02  0.8560375E-01
       -1   -1    0    0    0  501  0.00000000000E+00  0.00000000000E+00  0.13369740764E+04  0.13369740764E+04  0.50400001928E-02 0.  1.
        1   -1    0    0  501    0  0.00000000000E+00  0.00000000000E+00 -0.82617375521E+03  0.82617375522E+03  0.50400001928E-02 0. -1.
    10030    2    1    2    0    0  0.00000000000E+00  0.00000000000E+00  0.51080032120E+03  0.21631478316E+04  0.21019732571E+04 0.  0.
        4    1    3    3  502    0  0.49408236512E+03  0.83347939589E+03 -0.16359280793E+03  0.98263396369E+03  0.12699999809E+01 0. -1.
       -4    1    3    3    0  502 -0.49408236512E+03 -0.83347939589E+03  0.67439312913E+03  0.11805138679E+04  0.12699999809E+01 0.  1.
</event>
<event>
 5   0  0.2789662E-05  0.2097577E+04  0.7818609E-02  0.8562312E-01
       -1   -1    0    0    0  501  0.00000000000E+00  0.00000000000E+00  0.88975684772E+03  0.88975684774E+03  0.50400001928E-02 0. -1.
        1   -1    0    0  501    0  0.00000000000E+00  0.00000000000E+00 -0.12362445051E+04  0.12362445051E+04  0.50400001928E-02 0.  1.
    10030    2    1    2    0    0  0.00000000000E+00  0.00000000000E+00 -0.34648765734E+03  0.21260013528E+04  0.20975767103E+04 0.  0.
        4    1    3    3  502    0 -0.89802747316E+03  0.59896290585E+01  0.37582237885E+03  0.97351594314E+03  0.12699999809E+01 0. -1.
       -4    1    3    3    0  502  0.89802747316E+03 -0.59896290585E+01 -0.72231003620E+03  0.11524854097E+04  0.12699999809E+01 0.  1.
</event>
<event>
 5   0  0.5866610E-05  0.2101406E+04  0.7818609E-02  0.8560624E-01
       -2   -1    0    0    0  501  0.00000000000E+00  0.00000000000E+00  0.10524538781E+04  0.10524538781E+04  0.25500000920E-02 0.  1.
        2   -1    0    0  501    0  0.00000000000E+00  0.00000000000E+00 -0.10489551086E+04  0.10489551086E+04  0.25500000920E-02 0. -1.
    10030    2    1    2    0    0  0.00000000000E+00  0.00000000000E+00  0.34987695654E+01  0.21014089867E+04  0.21014060740E+04 0.  0.
        5    1    3    3  502    0 -0.79213855468E+03 -0.66522967048E+03 -0.18248110070E+03  0.10503977563E+04  0.46999998093E+01 0. -1.
       -5    1    3    3    0  502  0.79213855468E+03  0.66522967048E+03  0.18597987027E+03  0.10510112304E+04  0.46999998093E+01 0.  1.
</event>
<event>
 5   0  0.2789662E-05  0.2115915E+04  0.7818609E-02  0.8554265E-01
        1   -1    0    0  501    0  0.00000000000E+00  0.00000000000E+00  0.12871140893E+04  0.12871140893E+04  0.50400001928E-02 0.  1.
       -1   -1    0    0    0  501  0.00000000000E+00  0.00000000000E+00 -0.86959962430E+03  0.86959962431E+03  0.50400001928E-02 0. -1.
    10030    2    1    2    0    0  0.00000000000E+00  0.00000000000E+00  0.41751446498E+03  0.21567137136E+04  0.21159148645E+04 0.  0.
        4    1    3    3  502    0  0.78887118207E+03  0.48377550573E+03 -0.31388281078E+03  0.97717987783E+03  0.12699999809E+01 0. -1.
       -4    1    3    3    0  502 -0.78887118207E+03 -0.48377550573E+03  0.73139727576E+03  0.11795338358E+04  0.12699999809E+01 0.  1.
</event>
<event>
 5   0  0.5506332E-05  0.2084528E+04  0.7818609E-02  0.8568090E-01
       -2   -1    0    0    0  501  0.00000000000E+00  0.00000000000E+00  0.85018524901E+03  0.85018524902E+03  0.25500000920E-02 0.  1.
        2   -1    0    0  501    0  0.00000000000E+00  0.00000000000E+00 -0.12777385757E+04  0.12777385757E+04  0.25500000920E-02 0. -1.
    10030    2    1    2    0    0  0.00000000000E+00  0.00000000000E+00 -0.42755332665E+03  0.21279238247E+04  0.20845282336E+04 0.  0.
        3    1    3    3  502    0  0.22422469720E+03 -0.89954988295E+03 -0.69997733511E+03  0.11616518354E+04  0.10100000352E+00 0. -1.
       -3    1    3    3    0  502 -0.22422469720E+03  0.89954988295E+03  0.27242400846E+03  0.96627198931E+03  0.10100000352E+00 0.  1.
</event>
<event>
 5   0  0.5506332E-05  0.2099679E+04  0.7818609E-02  0.8561385E-01
       -2   -1    0    0    0  501  0.00000000000E+00  0.00000000000E+00  0.84998747340E+03  0.84998747340E+03  0.25500000920E-02 0. -1.
        2   -1    0    0  501    0  0.00000000000E+00  0.00000000000E+00 -0.12966812156E+04  0.12966812156E+04  0.25500000920E-02 0.  1.
    10030    2    1    2    0    0  0.00000000000E+00  0.00000000000E+00 -0.44669374223E+03  0.21466686890E+04  0.20996788233E+04 0.  0.
        3    1    3    3  502    0  0.92492411117E+03 -0.12862283906E+03 -0.71380604445E+03  0.11753924985E+04  0.10100000352E+00 0.  1.
       -3    1    3    3    0  502 -0.92492411117E+03  0.12862283906E+03  0.26711230222E+03  0.97127619056E+03  0.10100000352E+00 0. -1.
</event>
<event>
 5   0  0.2789662E-05  0.2090887E+04  0.7818609E-02  0.8565269E-01
       -1   -1    0    0    0  501  0.00000000000E+00  0.00000000000E+00  0.73362182319E+03  0.73362182321E+03  0.50400001928E-02 0.  1.
        1   -1    0    0  501    0  0.00000000000E+00  0.00000000000E+00 -0.14898027234E+04  0.14898027234E+04  0.50400001928E-02 0. -1.
    10030    2    1    2    0    0  0.00000000000E+00  0.00000000000E+00 -0.75618090020E+03  0.22234245466E+04  0.20908866924E+04 0.  0.
        4    1    3    3  502    0  0.80697208032E+03  0.27044502979E+03 -0.10237044441E+04  0.13312839120E+04  0.12699999809E+01 0. -1.
       -4    1    3    3    0  502 -0.80697208032E+03 -0.27044502979E+03  0.26752354387E+03  0.89214063464E+03  0.12699999809E+01 0.  1.
</event>
<event>
 5   0  0.2732159E-05  0.2108281E+04  0.7818609E-02  0.8557604E-01
       -1   -1    0    0    0  501  0.00000000000E+00  0.00000000000E+00  0.10955176212E+04  0.10955176212E+04  0.50400001928E-02 0.  1.
        1   -1    0    0  501    0  0.00000000000E+00  0.00000000000E+00 -0.10143260223E+04  0.10143260223E+04  0.50400001928E-02 0. -1.
    10030    2    1    2    0    0  0.00000000000E+00  0.00000000000E+00  0.81191598850E+02  0.21098436435E+04  0.21082808457E+04 0.  0.
        3    1    3    3  502    0 -0.45202426765E+03 -0.16941783382E+03 -0.89721340219E+03  0.10188327833E+04  0.10100000352E+00 0. -1.
       -3    1    3    3    0  502  0.45202426765E+03  0.16941783382E+03  0.97840500104E+03  0.10910108603E+04  0.10100000352E+00 0.  1.
</event>
<event>
 5   0  0.2789662E-05  0.2023192E+04  0.7818609E-02  0.8595854E-01
       -1   -1    0    0    0  501  0.00000000000E+00  0.00000000000E+00  0.87612528713E+03  0.87612528714E+03  0.50400001928E-02 0.  1.
        1   -1    0    0  501    0  0.00000000000E+00  0.00000000000E+00 -0.11680141777E+04  0.11680141777E+04  0.50400001928E-02 0. -1.
    10030    2    1    2    0    0  0.00000000000E+00  0.00000000000E+00 -0.29188889059E+03  0.20441394649E+04  0.20231922863E+04 0.  0.
        4    1    3    3  502    0 -0.68861961124E+03  0.54704549709E+02 -0.89260567436E+03  0.11286877600E+04  0.12699999809E+01 0. -1.
       -4    1    3    3    0  502  0.68861961124E+03 -0.54704549709E+02  0.60071678378E+03  0.91545170487E+03  0.12699999809E+01 0.  1.
</event>
<event>
 5   0  0.5866610E-05  0.2207283E+04  0.7818609E-02  0.8515403E-01
        2   -1    0    0  501    0  0.00000000000E+00  0.00000000000E+00  0.12335367412E+04  0.12335367412E+04  0.25500000920E-02 0. -1.
       -2   -1    0    0    0  501  0.00000000000E+00  0.00000000000E+00 -0.98742498437E+03  0.98742498437E+03  0.25500000920E-02 0.  1.
    10030    2    1    2    0    0  0.00000000000E+00  0.00000000000E+00  0.24611175679E+03  0.22209617255E+04  0.22072833958E+04 0.  0.
        5    1    3    3  502    0 -0.97633746653E+03  0.91638209729E+01  0.64071859943E+03  0.11678446976E+04  0.46999998093E+01 0. -1.
       -5    1    3    3    0  502  0.97633746653E+03 -0.91638209729E+01 -0.39460684264E+03  0.10531170279E+04  0.46999998093E+01 0.  1.
</event>
<event>
 5   0  0.2789662E-05  0.2102663E+04  0.7818609E-02  0.8560071E-01
        1   -1    0    0  501    0  0.00000000000E+00  0.00000000000E+00  0.40570789776E+03  0.40570789779E+03  0.50400001928E-02 0. -1.
       -1   -1    0    0    0  501  0.00000000000E+00  0.00000000000E+00 -0.27243684836E+04  0.27243684836E+04  0.50400001928E-02 0.  1.
    10030    2    1    2    0    0  0.00000000000E+00  0.00000000000E+00 -0.23186605859E+04  0.31300763814E+04  0.21026628929E+04 0.  0.
        4    1    3    3  502    0  0.18125809030E+03  0.93379259748E+03 -0.18258505052E+04  0.20587750705E+04  0.12699999809E+01 0.  1.
       -4    1    3    3    0  502 -0.18125809030E+03 -0.93379259748E+03 -0.49281008066E+03  0.10713013110E+04  0.12699999809E+01 0. -1.
</event>
<event>
 5   0  0.2699285E-05  0.2106829E+04  0.7818609E-02  0.8558241E-01
       -1   -1    0    0    0  501  0.00000000000E+00  0.00000000000E+00  0.14756967416E+04  0.14756967416E+04  0.50400001928E-02 0. -1.
        1   -1    0    0  501    0  0.00000000000E+00  0.00000000000E+00 -0.75197183725E+03  0.75197183727E+03  0.50400001928E-02 0.  1.
    10030    2    1    2    0    0  0.00000000000E+00  0.00000000000E+00  0.72372490436E+03  0.22276685789E+04  0.21068292670E+04 0.  0.
        2    1    3    3  502    0  0.17566801965E+03  0.75438527066E+03 -0.39303790332E+03  0.86858228348E+03  0.25500000920E-02 0.  1.
       -2    1    3    3    0  502 -0.17566801965E+03 -0.75438527066E+03  0.11167628077E+04  0.13590862954E+04  0.25500000920E-02 0. -1.
</event>
<event>
 5   0  0.2604390E-05  0.2114583E+04  0.7818609E-02  0.8554847E-01
       -1   -1    0    0    0  501  0.00000000000E+00  0.00000000000E+00  0.40151963977E+03  0.40151963980E+03  0.50400001928E-02 0.  1.
        1   -1    0    0  501    0  0.00000000000E+00  0.00000000000E+00 -0.27840863112E+04  0.27840863112E+04  0.50400001928E-02 0. -1.
    10030    2    1    2    0    0  0.00000000000E+00  0.00000000000E+00 -0.23825666714E+04  0.31856059510E+04  0.21145830159E+04 0.  0.
        5    1    3    3  502    0  0.31792876993E+03  0.91164427263E+03 -0.54214491012E+03  0.11073017548E+04  0.46999998093E+01 0.  1.
       -5    1    3    3    0  502 -0.31792876993E+03 -0.91164427263E+03 -0.18404217613E+04  0.20783041962E+04  0.46999998093E+01 0. -1.
</event>
<event>
 5   0  0.5954140E-05  0.2096347E+04  0.7818609E-02  0.8562854E-01
       -2   -1    0    0    0  501  0.00000000000E+00  0.00000000000E+00  0.72542187523E+03  0.72542187523E+03  0.25500000920E-02 0.  1.
        2   -1    0    0  501    0  0.00000000000E+00  0.00000000000E+00 -0.15145230176E+04  0.15145230176E+04  0.25500000920E-02 0. -1.
    10030    2    1    2    0    0  0.00000000000E+00  0.00000000000E+00 -0.78910114234E+03  0.22399448928E+04  0.20963474211E+04 0.  0.
        2    1    3    3  502    0  0.73149953288E+03 -0.67689816918E+03 -0.47682472155E+02  0.99777568430E+03  0.25500000920E-02 0. -1.
       -2    1    3    3    0  502 -0.73149953288E+03  0.67689816918E+03 -0.74141867019E+03  0.12421692085E+04  0.25500000920E-02 0.  1.
</event>
<event>
 5   0  0.5967046E-05  0.2160026E+04  0.7818609E-02  0.8535253E-01
       -2   -1    0    0    0  501  0.00000000000E+00  0.00000000000E+00  0.77406899980E+03  0.77406899981E+03  0.25500000920E-02 0. -1.
        2   -1    0    0  501    0  0.00000000000E+00  0.00000000000E+00 -0.15068783795E+04  0.15068783795E+04  0.25500000920E-02 0.  1.
    10030    2    1    2    0    0  0.00000000000E+00  0.00000000000E+00 -0.73280937972E+03  0.22809473793E+04  0.21600257777E+04 0.  0.
        4    1    3    3  502    0  0.86411654060E+03 -0.50057249333E+02  0.31568346368E+03  0.92133641309E+03  0.12699999809E+01 0. -1.
       -4    1    3    3    0  502 -0.86411654060E+03  0.50057249333E+02 -0.10484928434E+04  0.13596109662E+04  0.12699999809E+01 0.  1.
</event>
<event>
 5   0  0.5506332E-05  0.2112931E+04  0.7818609E-02  0.8555568E-01
        2   -1    0    0  501    0  0.00000000000E+00  0.00000000000E+00  0.14229441268E+04  0.14229441269E+04  0.25500000920E-02 0.  1.
       -2   -1    0    0    0  501  0.00000000000E+00  0.00000000000E+00 -0.78437331054E+03  0.78437331055E+03  0.25500000920E-02 0. -1.
    10030    2    1    2    0    0  0.00000000000E+00  0.00000000000E+00  0.63857081631E+03  0.22073174374E+04  0.21129310405E+04 0.  0.
        3    1    3    3  502    0 -0.62717698691E+03  0.53714866950E+03  0.10076907687E+04  0.13028124814E+04  0.10100000352E+00 0.  1.
       -3    1    3    3    0  502  0.62717698691E+03 -0.53714866950E+03 -0.36911995239E+03  0.90450495605E+03  0.10100000352E+00 0. -1.
</event>
<event>
 5   0  0.2602060E-05  0.2100142E+04  0.7818609E-02  0.8561181E-01
       -1   -1    0    0    0  501  0.00000000000E+00  0.00000000000E+00  0.89263965919E+03  0.89263965921E+03  0.50400001928E-02 0. -1.
        1   -1    0    0  501    0  0.00000000000E+00  0.00000000000E+00 -0.12352675313E+04  0.12352675313E+04  0.50400001928E-02 0.  1.
    10030    2    1    2    0    0  0.00000000000E+00  0.00000000000E+00 -0.34262787210E+03  0.21279071905E+04  0.21001416982E+04 0.  0.
        1    1    3    3  502    0  0.66977240566E+03  0.34829073309E+03  0.56823123207E+03  0.94487472358E+03  0.50400001928E-02 0. -1.
       -1    1    3    3    0  502 -0.66977240566E+03 -0.34829073309E+03 -0.91085910417E+03  0.11830324669E+04  0.50400001928E-02 0.  1.
</event>
<event>
 5   0  0.2732159E-05  0.2103546E+04  0.7818609E-02  0.8559683E-01
        1   -1    0    0  501    0  0.00000000000E+00  0.00000000000E+00  0.10309324847E+04  0.10309324847E+04  0.50400001928E-02 0. -1.
       -1   -1    0    0    0  501  0.00000000000E+00  0.00000000000E+00 -0.10730347221E+04  0.10730347221E+04  0.50400001928E-02 0.  1.
    10030    2    1    2    0    0  0.00000000000E+00  0.00000000000E+00 -0.42102237363E+02  0.21039672068E+04  0.21035459132E+04 0.  0.
        3    1    3    3  502    0  0.69687631473E+03  0.49834381429E+03  0.58918842918E+03  0.10397721724E+04  0.10100000352E+00 0. -1.
       -3    1    3    3    0  502 -0.69687631473E+03 -0.49834381429E+03 -0.63129066654E+03  0.10641950344E+04  0.10100000352E+00 0.  1.
</event>
<event>
 5   0  0.2604390E-05  0.2106256E+04  0.7818609E-02  0.8558493E-01
       -1   -1    0    0    0  501  0.00000000000E+00  0.00000000000E+00  0.13441332872E+04  0.13441332872E+04  0.50400001928E-02 0. -1.
        1   -1    0    0  501    0  0.00000000000E+00  0.00000000000E+00 -0.82512515270E+03  0.82512515271E+03  0.50400001928E-02 0.  1.
    10030    2    1    2    0    0  0.00000000000E+00  0.00000000000E+00  0.51900813454E+03  0.21692584400E+04  0.21062556197E+04 0.  0.
        5    1    3    3  502    0 -0.67653414878E+02 -0.10407987408E+04  0.40952198524E+03  0.11205219095E+04  0.46999998093E+01 0. -1.
       -5    1    3    3    0  502  0.67653414878E+02  0.10407987408E+04  0.10948614930E+03  0.10487365304E+04  0.46999998093E+01 0.  1.
</event>
<event>
 5   0  0.2604390E-05  0.2101324E+04  0.7818609E-02  0.8560661E-01
        1   -1    0    0  501    0  0.00000000000E+00  0.00000000000E+00  0.11770904692E+04  0.11770904692E+04  0.50400001928E-02 0. -1.
       -1   -1    0    0    0  501  0.00000000000E+00  0.00000000000E+00 -0.93781263047E+03  0.93781263049E+03  0.50400001928E-02 0.  1.
    10030    2    1    2    0    0  0.00000000000E+00  0.00000000000E+00  0.23927783874E+03  0.21149030997E+04  0.21013236869E+04 0.  0.
        5    1    3    3  502    0 -0.14440853215E+03 -0.32384533407E+03 -0.87576126151E+03  0.94483305495E+03  0.46999998093E+01 0.  1.
       -5    1    3    3    0  502  0.14440853215E+03  0.32384533407E+03  0.11150391002E+04  0.11700700448E+04  0.46999998093E+01 0. -1.
</event>
<event>
 5   0  0.5954140E-05  0.2072895E+04  0.7818609E-02  0.8573278E-01
        2   -1    0    0  501    0  0.00000000000E+00  0.00000000000E+00  0.74153942601E+03  0.74153942601E+03  0.25500000920E-02 0.  1.
       -2   -1    0    0    0  501  0.00000000000E+00  0.00000000000E+00 -0.14486398568E+04  0.14486398568E+04  0.25500000920E-02 0. -1.
    10030    2    1    2    0    0  0.00000000000E+00  0.00000000000E+00 -0.70710043077E+03  0.21901792828E+04  0.20728951424E+04 0.  0.
        2    1    3    3  502    0 -0.83183619329E+03  0.46768754232E+03  0.73732145296E+02  0.95714132654E+03  0.25500000920E-02 0.  1.
       -2    1    3    3    0  502  0.83183619329E+03 -0.46768754232E+03 -0.78083257606E+03  0.12330379563E+04  0.25500000920E-02 0. -1.
</event>
<event>
 5   0  0.5954140E-05  0.2102799E+04  0.7818609E-02  0.8560011E-01
       -2   -1    0    0    0  501  0.00000000000E+00  0.00000000000E+00  0.62148141997E+03  0.62148141998E+03  0.25500000920E-02 0.  1.
        2   -1    0    0  501    0  0.00000000000E+00  0.00000000000E+00 -0.17787195396E+04  0.17787195396E+04  0.25500000920E-02 0. -1.
    10030    2    1    2    0    0  0.00000000000E+00  0.00000000000E+00 -0.11572381197E+04  0.24002009596E+04  0.21027992251E+04 0.  0.
        2    1    3    3  502    0  0.51520546216E+03  0.14057206558E+03  0.45514474059E+03  0.70167934895E+03  0.25500000920E-02 0.  1.
       -2    1    3    3    0  502 -0.51520546216E+03 -0.14057206558E+03 -0.16123828602E+04  0.16985216107E+04  0.25500000920E-02 0. -1.
</event>
<event>
 5   0  0.2732159E-05  0.2095515E+04  0.7818609E-02  0.8563221E-01
       -1   -1    0    0    0  501  0.00000000000E+00  0.00000000000E+00  0.77026937041E+03  0.77026937043E+03  0.50400001928E-02 0. -1.
        1   -1    0    0  501    0  0.00000000000E+00  0.00000000000E+00 -0.14252108742E+04  0.14252108742E+04  0.50400001928E-02 0.  1.
    10030    2    1    2    0    0  0.00000000000E+00  0.00000000000E+00 -0.65494150377E+03  0.21954802446E+04  0.20955154810E+04 0.  0.
        3    1    3    3  502    0 -0.31836179067E+03  0.54083129368E+03 -0.12065086077E+04  0.13599690249E+04  0.10100000352E+00 0.  1.
       -3    1    3    3    0  502  0.31836179067E+03 -0.54083129368E+03  0.55156710393E+03  0.83551121974E+03  0.10100000352E+00 0. -1.
</event>
<event>
 5   0  0.2602060E-05  0.2093674E+04  0.7818609E-02  0.8564035E-01
       -1   -1    0    0    0  501  0.00000000000E+00  0.00000000000E+00  0.13222827103E+04  0.13222827103E+04  0.50400001928E-02 0.  1.
        1   -1    0    0  501    0  0.00000000000E+00  0.00000000000E+00 -0.82876994905E+03  0.82876994906E+03  0.50400001928E-02 0. -1.
    10030    2    1    2    0    0  0.00000000000E+00  0.00000000000E+00  0.49351276122E+03  0.21510526593E+04  0.20936744488E+04 0.  0.
        1    1    3    3  502    0 -0.70907382876E+03  0.71281815408E+03  0.54624598298E+03  0.11442377766E+04  0.50400001928E-02 0.  1.
       -1    1    3    3    0  502  0.70907382876E+03 -0.71281815408E+03 -0.52733221762E+02  0.10068148827E+04  0.50400001928E-02 0. -1.
</event>
<event>
 5   0  0.5506332E-05  0.2101410E+04  0.7818609E-02  0.8560622E-01
        2   -1    0    0  501    0  0.00000000000E+00  0.00000000000E+00  0.18749486799E+04  0.18749486799E+04  0.25500000920E-02 0. -1.
       -2   -1    0    0    0  501  0.00000000000E+00  0.00000000000E+00 -0.58880602552E+03  0.58880602553E+03  0.25500000920E-02 0.  1.
    10030    2    1    2    0    0  0.00000000000E+00  0.00000000000E+00  0.12861426544E+04  0.24637547055E+04  0.21014100793E+04 0.  0.
        3    1    3    3  502    0  0.41726675085E+03 -0.72047842199E+03 -0.10836380811E+03  0.83960908941E+03  0.10100000352E+00 0.  1.
       -3    1    3    3    0  502 -0.41726675085E+03  0.72047842199E+03  0.13945064625E+04  0.16241456160E+04  0.10100000352E+00 0. -1.
</event>
<event>
 5   0  0.5866610E-05  0.2103061E+04  0.7818609E-02  0.8559896E-01
        2   -1    0    0  501    0  0.00000000000E+00  0.00000000000E+00  0.12650601056E+04  0.12650601056E+04  0.25500000920E-02 0.  1.
       -2   -1    0    0    0  501  0.00000000000E+00  0.00000000000E+00 -0.87404281883E+03  0.87404281884E+03  0.25500000920E-02 0. -1.
    10030    2    1    2    0    0  0.00000000000E+00  0.00000000000E+00  0.39101728674E+03  0.21391029244E+04  0.21030612931E+04 0.  0.
        5    1    3    3  502    0 -0.10159918342E+04  0.21401107332E+03  0.36465489322E+03  0.11004705484E+04  0.46999998093E+01 0. -1.
       -5    1    3    3    0  502  0.10159918342E+04 -0.21401107332E+03  0.26362393516E+02  0.10386323760E+04  0.46999998093E+01 0.  1.
</event>
<event>
 5   0  0.2699285E-05  0.2101790E+04  0.7818609E-02  0.8560455E-01
       -1   -1    0    0    0  501  0.00000000000E+00  0.00000000000E+00  0.42066879058E+03  0.42066879061E+03  0.50400001928E-02 0. -1.
        1   -1    0    0  501    0  0.00000000000E+00  0.00000000000E+00 -0.26252953750E+04  0.26252953750E+04  0.50400001928E-02 0.  1.
    10030    2    1    2    0    0  0.00000000000E+00  0.00000000000E+00 -0.22046265844E+04  0.30459641656E+04  0.21017895521E+04 0.  0.
        2    1    3    3  502    0  0.20461207409E+03 -0.87598296130E+03 -0.18896670217E+04  0.20928577836E+04  0.25500000920E-02 0.  1.
       -2    1    3    3    0  502 -0.20461207409E+03  0.87598296130E+03 -0.31495956274E+03  0.95310638205E+03  0.25500000920E-02 0. -1.
</event>
<event>
 5   0  0.2699285E-05  0.2089570E+04  0.7818609E-02  0.8565852E-01
        1   -1    0    0  501    0  0.00000000000E+00  0.00000000000E+00  0.11768274217E+04  0.11768274218E+04  0.50400001928E-02 0. -1.
       -1   -1    0    0    0  501  0.00000000000E+00  0.00000000000E+00 -0.92755838438E+03  0.92755838439E+03  0.50400001928E-02 0.  1.
    10030    2    1    2    0    0  0.00000000000E+00  0.00000000000E+00  0.24926903737E+03  0.21043858061E+04  0.20895704267E+04 0.  0.
        2    1    3    3  502    0 -0.72993947037E+03  0.71711997931E+03 -0.87819610060E+02  0.10270272533E+04  0.25500000920E-02 0. -1.
       -2    1    3    3    0  502  0.72993947037E+03 -0.71711997931E+03  0.33708864743E+03  0.10773585528E+04  0.25500000920E-02 0.  1.
</event>
<event>
 5   0  0.2732159E-05  0.2108042E+04  0.7818609E-02  0.8557709E-01
       -1   -1    0    0    0  501  0.00000000000E+00  0.00000000000E+00  0.72919156741E+03  0.72919156743E+03  0.50400001928E-02 0.  1.
        1   -1    0    0  501    0  0.00000000000E+00  0.00000000000E+00 -0.15235511848E+04  0.15235511848E+04  0.50400001928E-02 0. -1.
    10030    2    1    2    0    0  0.00000000000E+00  0.00000000000E+00 -0.79435961741E+03  0.22527427523E+04  0.21080423872E+04 0.  0.
        3    1    3    3  502    0 -0.12443554108E+03  0.24037453764E+03  0.69141797841E+03  0.74251124793E+03  0.10100000352E+00 0.  1.
       -3    1    3    3    0  502  0.12443554108E+03 -0.24037453764E+03 -0.14857775958E+04  0.15102315043E+04  0.10100000352E+00 0. -1.
</event>
<event>
 5   0  0.5506332E-05  0.2075452E+04  0.7818609E-02  0.8572135E-01
       -2   -1    0    0    0  501  0.00000000000E+00  0.00000000000E+00  0.54300969716E+03  0.54300969716E+03  0.25500000920E-02 0.  1.
        2   -1    0    0  501    0  0.00000000000E+00  0.00000000000E+00 -0.19831605077E+04  0.19831605077E+04  0.25500000920E-02 0. -1.
    10030    2    1    2    0    0  0.00000000000E+00  0.00000000000E+00 -0.14401508105E+04  0.25261702048E+04  0.20754521307E+04 0.  0.
        3    1    3    3  502    0 -0.19611263652E+03  0.56112121061E+03 -0.17554240551E+04  0.18533296530E+04  0.10100000352E+00 0. -1.
       -3    1    3    3    0  502  0.19611263652E+03 -0.56112121061E+03  0.31527324462E+03  0.67284055182E+03  0.10100000352E+00 0.  1.
</event>
<event>
 5   0  0.2604390E-05  0.2106614E+04  0.7818609E-02  0.8558335E-01
        1   -1    0    0  501    0  0.00000000000E+00  0.00000000000E+00  0.83223446185E+03  0.83223446187E+03  0.50400001928E-02 0.  1.
       -1   -1    0    0    0  501  0.00000000000E+00  0.00000000000E+00 -0.13331052355E+04  0.13331052355E+04  0.50400001928E-02 0. -1.
    10030    2    1    2    0    0  0.00000000000E+00  0.00000000000E+00 -0.50087077365E+03  0.21653396974E+04  0.21066144576E+04 0.  0.
        5    1    3    3  502    0 -0.59307597490E+03  0.28718316912E+02 -0.11446704061E+04  0.12895178488E+04  0.46999998093E+01 0. -1.
       -5    1    3    3    0  502  0.59307597490E+03 -0.28718316912E+02  0.64379963245E+03  0.87582184859E+03  0.46999998093E+01 0.  1.
</event>
<event>
 5   0  0.2789662E-05  0.2120916E+04  0.7818609E-02  0.8552085E-01
        1   -1    0    0  501    0  0.00000000000E+00  0.00000000000E+00  0.10548416799E+04  0.10548416799E+04  0.50400001928E-02 0. -1.
       -1   -1    0    0    0  501  0.00000000000E+00  0.00000000000E+00 -0.10661046170E+04  0.10661046170E+04  0.50400001928E-02 0.  1.
    10030    2    1    2    0    0  0.00000000000E+00  0.00000000000E+00 -0.11262937099E+02  0.21209462969E+04  0.21209163917E+04 0.  0.
        4    1    3    3  502    0  0.44076318122E+03  0.42516305749E+03  0.86013715069E+03  0.10558756263E+04  0.12699999809E+01 0. -1.
       -4    1    3    3    0  502 -0.44076318122E+03 -0.42516305749E+03 -0.87140008779E+03  0.10650706706E+04  0.12699999809E+01 0.  1.
</event>
<event>
 5   0  0.5506332E-05  0.2126930E+04  0.7818609E-02  0.8549473E-01
        2   -1    0    0  501    0  0.00000000000E+00  0.00000000000E+00  0.16948071225E+04  0.16948071225E+04  0.25500000920E-02 0.  1.
       -2   -1    0    0    0  501  0.00000000000E+00  0.00000000000E+00 -0.66730751564E+03  0.66730751565E+03  0.25500000920E-02 0. -1.
    10030    2    1    2    0    0  0.00000000000E+00  0.00000000000E+00  0.10274996068E+04  0.23621146381E+04  0.21269297406E+04 0.  0.
        3    1    3    3  502    0 -0.13071126851E+03 -0.67726306676E+03 -0.38518957260E+03  0.79002640104E+03  0.10100000352E+00 0. -1.
       -3    1    3    3    0  502  0.13071126851E+03  0.67726306676E+03  0.14126891794E+04  0.15720882371E+04  0.10100000352E+00 0.  1.
</event>
<event>
 5   0  0.5866610E-05  0.2094418E+04  0.7818609E-02  0.8563706E-01
        2   -1    0    0  501    0  0.00000000000E+00  0.00000000000E+00  0.28436524205E+04  0.28436524205E+04  0.25500000920E-02 0.  1.
       -2   -1    0    0    0  501  0.00000000000E+00  0.00000000000E+00 -0.38564741302E+03  0.38564741303E+03  0.25500000920E-02 0. -1.
    10030    2    1    2    0    0  0.00000000000E+00  0.00000000000E+00  0.24580050075E+04  0.32292998336E+04  0.20944184869E+04 0.  0.
        5    1    3    3  502    0  0.32182694959E+03 -0.87519098110E+03  0.19637651002E+04  0.21739198002E+04  0.46999998093E+01 0.  1.
       -5    1    3    3    0  502 -0.32182694959E+03  0.87519098110E+03  0.49423990730E+03  0.10553800334E+04  0.46999998093E+01 0. -1.
</event>
<event>
 5   0  0.5866610E-05  0.2123574E+04  0.7818609E-02  0.8550929E-01
       -2   -1    0    0    0  501  0.00000000000E+00  0.00000000000E+00  0.49181138513E+03  0.49181138514E+03  0.25500000920E-02 0.  1.
        2   -1    0    0  501    0  0.00000000000E+00  0.00000000000E+00 -0.22923253437E+04  0.22923253437E+04  0.25500000920E-02 0. -1.
    10030    2    1    2    0    0  0.00000000000E+00  0.00000000000E+00 -0.18005139586E+04  0.27841367289E+04  0.21235740651E+04 0.  0.
        5    1    3    3  502    0 -0.75728321402E+03 -0.60872963828E+03 -0.14616302488E+04  0.17551110258E+04  0.46999998093E+01 0. -1.
       -5    1    3    3    0  502  0.75728321402E+03  0.60872963828E+03 -0.33888370977E+03  0.10290257030E+04  0.46999998093E+01 0.  1.
</event>
<event>
 5   0  0.5866610E-05  0.2097389E+04  0.7818609E-02  0.8562394E-01
       -2   -1    0    0    0  501  0.00000000000E+00  0.00000000000E+00  0.91952896697E+03  0.91952896698E+03  0.25500000920E-02 0.  1.
        2   -1    0    0  501    0  0.00000000000E+00  0.00000000000E+00 -0.11960036725E+04  0.11960036725E+04  0.25500000920E-02 0. -1.
    10030    2    1    2    0    0  0.00000000000E+00  0.00000000000E+00 -0.27647470549E+03  0.21155326394E+04  0.20973888733E+04 0.  0.
        5    1    3    3  502    0 -0.87352025080E+03  0.12580308394E+03  0.43312018082E+03  0.98309675288E+03  0.46999998093E+01 0.  1.
       -5    1    3    3    0  502  0.87352025080E+03 -0.12580308394E+03 -0.70959488632E+03  0.11324358866E+04  0.46999998093E+01 0. -1.
</event>
<event>
 5   0  0.5954140E-05  0.2092246E+04  0.7818609E-02  0.8564667E-01
        2   -1    0    0  501    0  0.00000000000E+00  0.00000000000E+00  0.19929211058E+04  0.19929211058E+04  0.25500000920E-02 0.  1.
       -2   -1    0    0    0  501  0.00000000000E+00  0.00000000000E+00 -0.54913039430E+03  0.54913039431E+03  0.25500000920E-02 0. -1.
    10030    2    1    2    0    0  0.00000000000E+00  0.00000000000E+00  0.14437907115E+04  0.25420515001E+04  0.20922462117E+04 0.  0.
        2    1    3    3  502    0 -0.60549101572E+03  0.67572590695E+03  0.13545625315E+04  0.16303571766E+04  0.25500000920E-02 0.  1.
       -2    1    3    3    0  502  0.60549101572E+03 -0.67572590695E+03  0.89228179987E+02  0.91169432353E+03  0.25500000920E-02 0. -1.
</event>
<event>
 5   0  0.5967046E-05  0.2176459E+04  0.7818609E-02  0.8528291E-01
        2   -1    0    0  501    0  0.00000000000E+00  0.00000000000E+00  0.87897989074E+03  0.87897989074E+03  0.25500000920E-02 0.  1.
       -2   -1    0    0    0  501  0.00000000000E+00  0.00000000000E+00 -0.13472924726E+04  0.13472924726E+04  0.25500000920E-02 0. -1.
    10030    2    1    2    0    0  0.00000000000E+00  0.00000000000E+00 -0.46831258181E+03  0.22262723633E+04  0.21764585825E+04 0.  0.
        4    1    3    3  502    0 -0.91308817239E+03 -0.16687071496E+03  0.34688122612E+03  0.99091071445E+03  0.12699999809E+01 0.  1.
       -4    1    3    3    0  502  0.91308817239E+03  0.16687071496E+03 -0.81519380793E+03  0.12353616489E+04  0.12699999809E+01 0. -1.
</event>
<event>
 5   0  0.5506332E-05  0.2101187E+04  0.7818609E-02  0.8560721E-01
        2   -1    0    0  501    0  0.00000000000E+00  0.00000000000E+00  0.22257830537E+04  0.22257830537E+04  0.25500000920E-02 0. -1.
       -2   -1    0    0    0  501  0.00000000000E+00  0.00000000000E+00 -0.49589138063E+03  0.49589138064E+03  0.25500000920E-02 0.  1.
    10030    2    1    2    0    0  0.00000000000E+00  0.00000000000E+00  0.17298916730E+04  0.27216744343E+04  0.21011869326E+04 0.  0.
        3    1    3    3  502    0 -0.97036781615E+03  0.31522833247E+03  0.11894549233E+04  0.15670946446E+04  0.10100000352E+00 0. -1.
       -3    1    3    3    0  502  0.97036781615E+03 -0.31522833247E+03  0.54043674970E+03  0.11545797897E+04  0.10100000352E+00 0.  1.
</event>
<event>
 5   0  0.5866610E-05  0.2103406E+04  0.7818609E-02  0.8559744E-01
       -2   -1    0    0    0  501  0.00000000000E+00  0.00000000000E+00  0.92469927607E+03  0.92469927607E+03  0.25500000920E-02 0. -1.
        2   -1    0    0  501    0  0.00000000000E+00  0.00000000000E+00 -0.11961502607E+04  0.11961502607E+04  0.25500000920E-02 0.  1.
    10030    2    1    2    0    0  0.00000000000E+00  0.00000000000E+00 -0.27145098458E+03  0.21208495367E+04  0.21034060760E+04 0.  0.
        5    1    3    3  502    0 -0.25743268871E+03  0.94586028339E+03  0.24839829759E+03  0.10112601392E+04  0.46999998093E+01 0. -1.
       -5    1    3    3    0  502  0.25743268871E+03 -0.94586028339E+03 -0.51984928217E+03  0.11095893975E+04  0.46999998093E+01 0.  1.
</event>
<event>
 5   0  0.5462851E-05  0.2092846E+04  0.7818609E-02  0.8564401E-01
       -2   -1    0    0    0  501  0.00000000000E+00  0.00000000000E+00  0.49505777955E+03  0.49505777956E+03  0.25500000920E-02 0. -1.
        2   -1    0    0  501    0  0.00000000000E+00  0.00000000000E+00 -0.22118646939E+04  0.22118646939E+04  0.25500000920E-02 0.  1.
    10030    2    1    2    0    0  0.00000000000E+00  0.00000000000E+00 -0.17168069144E+04  0.27069224735E+04  0.20928457411E+04 0.  0.
        1    1    3    3  502    0  0.85097726025E+02  0.65099047509E+03  0.19552959524E+03  0.68502703908E+03  0.50400001928E-02 0. -1.
       -1    1    3    3    0  502 -0.85097726025E+02 -0.65099047509E+03 -0.19123365096E+04  0.20218954344E+04  0.50400001928E-02 0.  1.
</event>
<event>
 5   0  0.5462851E-05  0.2082399E+04  0.7818609E-02  0.8569037E-01
        2   -1    0    0  501    0  0.00000000000E+00  0.00000000000E+00  0.72333127283E+03  0.72333127283E+03  0.25500000920E-02 0. -1.
       -2   -1    0    0    0  501  0.00000000000E+00  0.00000000000E+00 -0.14987545339E+04  0.14987545339E+04  0.25500000920E-02 0.  1.
    10030    2    1    2    0    0  0.00000000000E+00  0.00000000000E+00 -0.77542326104E+03  0.22220858067E+04  0.20823986406E+04 0.  0.
        1    1    3    3  502    0  0.44080366018E+03 -0.88242671336E+03 -0.74340516993E+03  0.12351663928E+04  0.50400001928E-02 0.  1.
       -1    1    3    3    0  502 -0.44080366018E+03  0.88242671336E+03 -0.32018091105E+02  0.98691941386E+03  0.50400001928E-02 0. -1.
</event>
<event>
 5   0  0.2699285E-05  0.2151830E+04  0.7818609E-02  0.8538749E-01
        1   -1    0    0  501    0  0.00000000000E+00  0.00000000000E+00  0.10008179577E+04  0.10008179577E+04  0.50400001928E-02 0.  1.
       -1   -1    0    0    0  501  0.00000000000E+00  0.00000000000E+00 -0.11566474468E+04  0.11566474468E+04  0.50400001928E-02 0. -1.
    10030    2    1    2    0    0  0.00000000000E+00  0.00000000000E+00 -0.15582948911E+03  0.21574654046E+04  0.21518304167E+04 0.  0.
        2    1    3    3  502    0  0.66171859150E+02 -0.69667130487E+03  0.74145474320E+03  0.10195512533E+04  0.25500000920E-02 0.  1.
       -2    1    3    3    0  502 -0.66171859150E+02  0.69667130487E+03 -0.89728423231E+03  0.11379141512E+04  0.25500000920E-02 0. -1.
</event>
<event>
 5   0  0.5506332E-05  0.2074861E+04  0.7818609E-02  0.8572399E-01
       -2   -1    0    0    0  501  0.00000000000E+00  0.00000000000E+00  0.73123853567E+03  0.73123853568E+03  0.25500000920E-02 0. -1.
        2   -1    0    0  501    0  0.00000000000E+00  0.00000000000E+00 -0.14718346323E+04  0.14718346323E+04  0.25500000920E-02 0.  1.
    10030    2    1    2    0    0  0.00000000000E+00  0.00000000000E+00 -0.74059609665E+03  0.22030731680E+04  0.20748611532E+04 0.  0.
        3    1    3    3  502    0  0.81763209321E+02  0.79096494828E+03 -0.10777673598E+04  0.13393630067E+04  0.10100000352E+00 0.  1.
       -3    1    3    3    0  502 -0.81763209321E+02 -0.79096494828E+03  0.33717126313E+03  0.86371016127E+03  0.10100000352E+00 0. -1.
</event>
<event>
 5   0  0.2789662E-05  0.2084465E+04  0.7818609E-02  0.8568118E-01
       -1   -1    0    0    0  501  0.00000000000E+00  0.00000000000E+00  0.12542922962E+04  0.12542922962E+04  0.50400001928E-02 0. -1.
        1   -1    0    0  501    0  0.00000000000E+00  0.00000000000E+00 -0.86602487978E+03  0.86602487979E+03  0.50400001928E-02 0.  1.
    10030    2    1    2    0    0  0.00000000000E+00  0.00000000000E+00  0.38826741643E+03  0.21203171760E+04  0.20844647611E+04 0.  0.
        4    1    3    3  502    0 -0.77250709723E+03  0.27479803849E+03 -0.46033422388E+03  0.94031398362E+03  0.12699999809E+01 0.  1.
       -4    1    3    3    0  502  0.77250709723E+03 -0.27479803849E+03  0.84860164031E+03  0.11800031924E+04  0.12699999809E+01 0. -1.
</event>
<event>
 5   0  0.2602060E-05  0.2101209E+04  0.7818609E-02  0.8560711E-01
        1   -1    0    0  501    0  0.00000000000E+00  0.00000000000E+00  0.14637021077E+04  0.14637021077E+04  0.50400001928E-02 0.  1.
       -1   -1    0    0    0  501  0.00000000000E+00  0.00000000000E+00 -0.75409452563E+03  0.75409452565E+03  0.50400001928E-02 0. -1.
    10030    2    1    2    0    0  0.00000000000E+00  0.00000000000E+00  0.70960758210E+03  0.22177966334E+04  0.21012089345E+04 0.  0.
        1    1    3    3  502    0  0.79594932533E+03 -0.61327458259E+02 -0.36608106931E+03  0.87824355105E+03  0.50400001928E-02 0. -1.
       -1    1    3    3    0  502 -0.79594932533E+03  0.61327458259E+02  0.10756886514E+04  0.13395530824E+04  0.50400001928E-02 0.  1.
</event>
<event>
 5   0  0.2604390E-05  0.2123870E+04  0.7818609E-02  0.8550801E-01
        1   -1    0    0  501    0  0.00000000000E+00  0.00000000000E+00  0.22994125937E+04  0.22994125937E+04  0.50400001928E-02 0.  1.
       -1   -1    0    0    0  501  0.00000000000E+00  0.00000000000E+00 -0.49043204504E+03  0.49043204506E+03  0.50400001928E-02 0. -1.
    10030    2    1    2    0    0  0.00000000000E+00  0.00000000000E+00  0.18089805486E+04  0.27898446387E+04  0.21238696954E+04 0.  0.
        5    1    3    3  502    0 -0.88777414887E+03 -0.13255227478E+03  0.15914040075E+03  0.91162536280E+03  0.46999998093E+01 0. -1.
       -5    1    3    3    0  502  0.88777414887E+03  0.13255227478E+03  0.16498401479E+04  0.18782192759E+04  0.46999998093E+01 0.  1.
</event>
<event>
 5   0  0.5967046E-05  0.2092943E+04  0.7818609E-02  0.8564358E-01
       -2   -1    0    0    0  501  0.00000000000E+00  0.00000000000E+00  0.17119221756E+04  0.17119221756E+04  0.25500000920E-02 0.  1.
        2   -1    0    0  501    0  0.00000000000E+00  0.00000000000E+00 -0.63969192463E+03  0.63969192463E+03  0.25500000920E-02 0. -1.
    10030    2    1    2    0    0  0.00000000000E+00  0.00000000000E+00  0.10722302510E+04  0.23516141003E+04  0.20929431826E+04 0.  0.
        4    1    3    3  502    0  0.10266525255E+03  0.24807875493E+03 -0.60033464457E+03  0.65763707400E+03  0.12699999809E+01 0. -1.
       -4    1    3    3    0  502 -0.10266525255E+03 -0.24807875493E+03  0.16725648956E+04  0.16939770263E+04  0.12699999809E+01 0.  1.
</event>
<event>
 5   0  0.2699285E-05  0.2099800E+04  0.7818609E-02  0.8561332E-01
       -1   -1    0    0    0  501  0.00000000000E+00  0.00000000000E+00  0.99888539375E+03  0.99888539376E+03  0.50400001928E-02 0.  1.
        1   -1    0    0  501    0  0.00000000000E+00  0.00000000000E+00 -0.11035196048E+04  0.11035196048E+04  0.50400001928E-02 0. -1.
    10030    2    1    2    0    0  0.00000000000E+00  0.00000000000E+00 -0.10463421108E+03  0.21024049986E+04  0.20997996238E+04 0.  0.
        2    1    3    3  502    0  0.13754153320E+03 -0.17017276809E+03  0.97580320302E+03  0.10000341671E+04  0.25500000920E-02 0.  1.
       -2    1    3    3    0  502 -0.13754153320E+03  0.17017276809E+03 -0.10804374141E+04  0.11023708315E+04  0.25500000920E-02 0. -1.
</event>
<event>
 5   0  0.5954140E-05  0.2100894E+04  0.7818609E-02  0.8560850E-01
        2   -1    0    0  501    0  0.00000000000E+00  0.00000000000E+00  0.15029967274E+04  0.15029967274E+04  0.25500000920E-02 0.  1.
       -2   -1    0    0    0  501  0.00000000000E+00  0.00000000000E+00 -0.73415916648E+03  0.73415916649E+03  0.25500000920E-02 0. -1.
    10030    2    1    2    0    0  0.00000000000E+00  0.00000000000E+00  0.76883756093E+03  0.22371558939E+04  0.21008939284E+04 0.  0.
        2    1    3    3  502    0 -0.24136141073E+03  0.20781624404E+03 -0.68150240837E+03  0.75225557791E+03  0.25500000920E-02 0. -1.
       -2    1    3    3    0  502  0.24136141073E+03 -0.20781624404E+03  0.14503399693E+04  0.14849003160E+04  0.25500000920E-02 0.  1.
</event>
<event>
 5   0  0.5462851E-05  0.2103963E+04  0.7818609E-02  0.8559500E-01
        2   -1    0    0  501    0  0.00000000000E+00  0.00000000000E+00  0.17465764668E+04  0.17465764668E+04  0.25500000920E-02 0. -1.
       -2   -1    0    0    0  501  0.00000000000E+00  0.00000000000E+00 -0.63361938906E+03  0.63361938906E+03  0.25500000920E-02 0.  1.
    10030    2    1    2    0    0  0.00000000000E+00  0.00000000000E+00  0.11129570777E+04  0.23801958558E+04  0.21039626554E+04 0.  0.
        1    1    3    3  502    0  0.13795437509E+03  0.27331338190E+03 -0.58210538912E+03  0.65770684838E+03  0.50400001928E-02 0.  1.
       -1    1    3    3    0  502 -0.13795437509E+03 -0.27331338190E+03  0.16950624668E+04  0.17224890075E+04  0.50400001928E-02 0. -1.
</event>
<event>
 5   0  0.5866610E-05  0.2096750E+04  0.7818609E-02  0.8562676E-01
        2   -1    0    0  501    0  0.00000000000E+00  0.00000000000E+00  0.13528089880E+04  0.13528089880E+04  0.25500000920E-02 0.  1.
       -2   -1    0    0    0  501  0.00000000000E+00  0.00000000000E+00 -0.81245022947E+03  0.81245022948E+03  0.25500000920E-02 0. -1.
    10030    2    1    2    0    0  0.00000000000E+00  0.00000000000E+00  0.54035875850E+03  0.21652592175E+04  0.20967498398E+04 0.  0.
        5    1    3    3  502    0  0.72944027503E+03  0.77240594024E+02 -0.50330568180E+03  0.88959986710E+03  0.46999998093E+01 0. -1.
       -5    1    3    3    0  502 -0.72944027503E+03 -0.77240594024E+02  0.10436644403E+04  0.12756593504E+04  0.46999998093E+01 0.  1.
</event>
<event>
 5   0  0.2699285E-05  0.2089829E+04  0.7818609E-02  0.8565737E-01
        1   -1    0    0  501    0  0.00000000000E+00  0.00000000000E+00  0.89998125833E+03  0.89998125834E+03  0.50400001928E-02 0.  1.
       -1   -1    0    0    0  501  0.00000000000E+00  0.00000000000E+00 -0.12131873579E+04  0.12131873579E+04  0.50400001928E-02 0. -1.
    10030    2    1    2    0    0  0.00000000000E+00  0.00000000000E+00 -0.31320609961E+03  0.21131686163E+04  0.20898285911E+04 0.  0.
        2    1    3    3  502    0  0.86087709007E+03  0.59079365724E+03 -0.11491916895E+03  0.10504060763E+04  0.25500000920E-02 0.  1.
       -2    1    3    3    0  502 -0.86087709007E+03 -0.59079365724E+03 -0.19828693066E+03  0.10627625400E+04  0.25500000920E-02 0. -1.
</event>
<event>
 5   0  0.2789662E-05  0.2116541E+04  0.7818609E-02  0.8553992E-01
       -1   -1    0    0    0  501  0.00000000000E+00  0.00000000000E+00  0.21246248284E+04  0.21246248284E+04  0.50400001928E-02 0.  1.
        1   -1    0    0  501    0  0.00000000000E+00  0.00000000000E+00 -0.52712213822E+03  0.52712213824E+03  0.50400001928E-02 0. -1.
    10030    2    1    2    0    0  0.00000000000E+00  0.00000000000E+00  0.15975026902E+04  0.26517469667E+04  0.21165413131E+04 0.  0.
        4    1    3    3  502    0 -0.96432088735E+03  0.14598453004E+03  0.13133567510E+04  0.16358893071E+04  0.12699999809E+01 0.  1.
       -4    1    3    3    0  502  0.96432088735E+03 -0.14598453004E+03  0.28414593918E+03  0.10158576595E+04  0.12699999809E+01 0. -1.
</event>
<event>
 5   0  0.5967046E-05  0.2097279E+04  0.7818609E-02  0.8562443E-01
       -2   -1    0    0    0  501  0.00000000000E+00  0.00000000000E+00  0.13583156900E+04  0.13583156900E+04  0.25500000920E-02 0.  1.
        2   -1    0    0  501    0  0.00000000000E+00  0.00000000000E+00 -0.80956482991E+03  0.80956482991E+03  0.25500000920E-02 0. -1.
    10030    2    1    2    0    0  0.00000000000E+00  0.00000000000E+00  0.54875086010E+03  0.21678805199E+04  0.20972788184E+04 0.  0.
        4    1    3    3  502    0 -0.30092865321E+03 -0.82440115270E+03  0.86767276950E+03  0.12341203194E+04  0.12699999809E+01 0.  1.
       -4    1    3    3    0  502  0.30092865321E+03  0.82440115270E+03 -0.31892190940E+03  0.93376020053E+03  0.12699999809E+01 0. -1.
</event>
<event>
 5   0  0.5506332E-05  0.2133811E+04  0.7818609E-02  0.8546494E-01
       -2   -1    0    0    0  501  0.00000000000E+00  0.00000000000E+00  0.51266294728E+03  0.51266294729E+03  0.25500000920E-02 0. -1.
        2   -1    0    0  501    0  0.00000000000E+00  0.00000000000E+00 -0.22203417086E+04  0.22203417086E+04  0.25500000920E-02 0.  1.
    10030    2    1    2    0    0  0.00000000000E+00  0.00000000000E+00 -0.17076787613E+04  0.27330046559E+04  0.21338106048E+04 0.  0.
        3    1    3    3  502    0 -0.58366324465E+03 -0.87895171881E+03 -0.10566283863E+04  0.14932121296E+04  0.10100000352E+00 0.  1.
       -3    1    3    3    0  502  0.58366324465E+03  0.87895171881E+03 -0.65105037504E+03  0.12397925263E+04  0.10100000352E+00 0. -1.
</event>
<event>
 5   0  0.2602060E-05  0.2079268E+04  0.7818609E-02  0.8570431E-01
       -1   -1    0    0    0  501  0.00000000000E+00  0.00000000000E+00  0.98705730959E+03  0.98705730961E+03  0.50400001928E-02 0.  1.
        1   -1    0    0  501    0  0.00000000000E+00  0.00000000000E+00 -0.10950114945E+04  0.10950114945E+04  0.50400001928E-02 0. -1.
    10030    2    1    2    0    0  0.00000000000E+00  0.00000000000E+00 -0.10795418492E+03  0.20820688041E+04  0.20792682364E+04 0.  0.
        1    1    3    3  502    0  0.69466266736E+03 -0.73903766695E+03 -0.28255238299E+03  0.10528859120E+04  0.50400001928E-02 0. -1.
       -1    1    3    3    0  502 -0.69466266736E+03  0.73903766695E+03  0.17459819808E+03  0.10291828921E+04  0.50400001928E-02 0.  1.
</event>
<event>
 5   0  0.2732159E-05  0.2102642E+04  0.7818609E-02  0.8560080E-01
        1   -1    0    0  501    0  0.00000000000E+00  0.00000000000E+00  0.71749894596E+03  0.71749894597E+03  0.50400001928E-02 0. -1.
       -1   -1    0    0    0  501  0.00000000000E+00  0.00000000000E+00 -0.15404563320E+04  0.15404563320E+04  0.50400001928E-02 0.  1.
    10030    2    1    2    0    0  0.00000000000E+00  0.00000000000E+00 -0.82295738603E+03  0.22579552780E+04  0.21026419519E+04 0.  0.
        3    1    3    3  502    0  0.42505571970E+03  0.15431454357E+03  0.60772712733E+03  0.75750750141E+03  0.10100000352E+00 0. -1.
       -3    1    3    3    0  502 -0.42505571970E+03 -0.15431454357E+03 -0.14306845134E+04  0.15004477766E+04  0.10100000352E+00 0.  1.
</event>
<event>
 5   0  0.2699285E-05  0.2091654E+04  0.7818609E-02  0.8564929E-01
       -1   -1    0    0    0  501  0.00000000000E+00  0.00000000000E+00  0.98625189793E+03  0.98625189794E+03  0.50400001928E-02 0. -1.
        1   -1    0    0  501    0  0.00000000000E+00  0.00000000000E+00 -0.11090010635E+04  0.11090010635E+04  0.50400001928E-02 0.  1.
    10030    2    1    2    0    0  0.00000000000E+00  0.00000000000E+00 -0.12274916554E+03  0.20952529614E+04  0.20916542770E+04 0.  0.
        2    1    3    3  502    0 -0.99309693271E+03 -0.12990103572E+03 -0.36295502310E+03  0.10652943939E+04  0.25500000920E-02 0.  1.
       -2    1    3    3    0  502  0.99309693271E+03  0.12990103572E+03  0.24020585757E+03  0.10299585675E+04  0.25500000920E-02 0. -1.
</event>
<event>
 5   0  0.2699285E-05  0.2094517E+04  0.7818609E-02  0.8563662E-01
       -1   -1    0    0    0  501  0.00000000000E+00  0.00000000000E+00  0.57696480269E+03  0.57696480271E+03  0.50400001928E-02 0. -1.
        1   -1    0    0  501    0  0.00000000000E+00  0.00000000000E+00 -0.19008967816E+04  0.19008967816E+04  0.50400001928E-02 0.  1.
    10030    2    1    2    0    0  0.00000000000E+00  0.00000000000E+00 -0.13239319789E+04  0.24778615843E+04  0.20945171630E+04 0.  0.
        2    1    3    3  502    0 -0.23947587244E+03  0.46113672312E+03 -0.17376419739E+04  0.18136690438E+04  0.25500000920E-02 0.  1.
       -2    1    3    3    0  502  0.23947587244E+03 -0.46113672312E+03  0.41370999502E+03  0.66419254052E+03  0.25500000920E-02 0. -1.
</event>
<event>
 5   0  0.5866610E-05  0.2143177E+04  0.7818609E-02  0.8542459E-01
        2   -1    0    0  501    0  0.00000000000E+00  0.00000000000E+00  0.11779187919E+04  0.11779187919E+04  0.25500000920E-02 0.  1.
       -2   -1    0    0    0  501  0.00000000000E+00  0.00000000000E+00 -0.97485648508E+03  0.97485648508E+03  0.25500000920E-02 0. -1.
    10030    2    1    2    0    0  0.00000000000E+00  0.00000000000E+00  0.20306230682E+03  0.21527752770E+04  0.21431768692E+04 0.  0.
        5    1    3    3  502    0 -0.38279745861E+03  0.46404301430E-01 -0.90382385566E+03  0.98155669654E+03  0.46999998093E+01 0. -1.
       -5    1    3    3    0  502  0.38279745861E+03 -0.46404301430E-01  0.11068861625E+04  0.11712185804E+04  0.46999998093E+01 0.  1.
</event>
<event>
 5   0  0.2604390E-05  0.2231329E+04  0.7818609E-02  0.8505500E-01
       -1   -1    0    0    0  501  0.00000000000E+00  0.00000000000E+00  0.10978734312E+04  0.10978734312E+04  0.50400001928E-02 0.  1.
        1   -1    0    0  501    0  0.00000000000E+00  0.00000000000E+00 -0.11337437662E+04  0.11337437662E+04  0.50400001928E-02 0. -1.
    10030    2    1    2    0    0  0.00000000000E+00  0.00000000000E+00 -0.35870334997E+02  0.22316171974E+04  0.22313288944E+04 0.  0.
        5    1    3    3  502    0 -0.47158802166E+03  0.78301804103E+03 -0.65768378737E+03  0.11260917231E+04  0.46999998093E+01 0. -1.
       -5    1    3    3    0  502  0.47158802166E+03 -0.78301804103E+03  0.62181345238E+03  0.11055254743E+04  0.46999998093E+01 0.  1.
</event>
<event>
 5   0  0.2732159E-05  0.2094190E+04  0.7818609E-02  0.8563807E-01
        1   -1    0    0  501    0  0.00000000000E+00  0.00000000000E+00  0.75046590588E+03  0.75046590590E+03  0.50400001928E-02 0.  1.
       -1   -1    0    0    0  501  0.00000000000E+00  0.00000000000E+00 -0.14609700442E+04  0.14609700442E+04  0.50400001928E-02 0. -1.
    10030    2    1    2    0    0  0.00000000000E+00  0.00000000000E+00 -0.71050413834E+03  0.22114359501E+04  0.20941902566E+04 0.  0.
        3    1    3    3  502    0 -0.25616383110E+03  0.72365957750E+03 -0.11072336829E+04  0.13473193873E+04  0.10100000352E+00 0. -1.
       -3    1    3    3    0  502  0.25616383110E+03 -0.72365957750E+03  0.39672954459E+03  0.86411656287E+03  0.10100000352E+00 0.  1.
</event>
<event>
 5   0  0.2604390E-05  0.2104570E+04  0.7818609E-02  0.8559233E-01
       -1   -1    0    0    0  501  0.00000000000E+00  0.00000000000E+00  0.70393369740E+03  0.70393369742E+03  0.50400001928E-02 0.  1.
        1   -1    0    0  501    0  0.00000000000E+00  0.00000000000E+00 -0.15730228076E+04  0.15730228076E+04  0.50400001928E-02 0. -1.
    10030    2    1    2    0    0  0.00000000000E+00  0.00000000000E+00 -0.86908911023E+03  0.22769565051E+04  0.21045700379E+04 0.  0.
        5    1    3    3  502    0 -0.39096851508E+03  0.58420448201E+03  0.41262000908E+03  0.81512490974E+03  0.46999998093E+01 0.  1.
       -5    1    3    3    0  502  0.39096851508E+03 -0.58420448201E+03 -0.12817091193E+04  0.14618315953E+04  0.46999998093E+01 0. -1.
</event>
<event>
 5   0  0.2602060E-05  0.2094119E+04  0.7818609E-02  0.8563838E-01
       -1   -1    0    0    0  501  0.00000000000E+00  0.00000000000E+00  0.80069862727E+03  0.80069862729E+03  0.50400001928E-02 0.  1.
        1   -1    0    0  501    0  0.00000000000E+00  0.00000000000E+00 -0.13692217056E+04  0.13692217056E+04  0.50400001928E-02 0. -1.
    10030    2    1    2    0    0  0.00000000000E+00  0.00000000000E+00 -0.56852307833E+03  0.21699203329E+04  0.20941193282E+04 0.  0.
        1    1    3    3  502    0 -0.36761606792E+03  0.18657396306E+03  0.71306537835E+03  0.82365869807E+03  0.50400001928E-02 0.  1.
       -1    1    3    3    0  502  0.36761606792E+03 -0.18657396306E+03 -0.12815884567E+04  0.13462616348E+04  0.50400001928E-02 0. -1.
</event>
<event>
 5   0  0.5954140E-05  0.2083469E+04  0.7818609E-02  0.8568561E-01
       -2   -1    0    0    0  501  0.00000000000E+00  0.00000000000E+00  0.86366206888E+03  0.86366206889E+03  0.25500000920E-02 0.  1.
        2   -1    0    0  501    0  0.00000000000E+00  0.00000000000E+00 -0.12565219226E+04  0.12565219226E+04  0.25500000920E-02 0. -1.
    10030    2    1    2    0    0  0.00000000000E+00  0.00000000000E+00 -0.39285985376E+03  0.21201839915E+04  0.20834685727E+04 0.  0.
        2    1    3    3  502    0 -0.90850068869E+03 -0.11378831470E+03  0.30920551058E+03  0.96640019127E+03  0.25500000920E-02 0.  1.
       -2    1    3    3    0  502  0.90850068869E+03  0.11378831470E+03 -0.70206536434E+03  0.11537838003E+04  0.25500000920E-02 0. -1.
</event>
<event>
 5   0  0.5462851E-05  0.2091409E+04  0.7818609E-02  0.8565037E-01
       -2   -1    0    0    0  501  0.00000000000E+00  0.00000000000E+00  0.52986607571E+03  0.52986607571E+03  0.25500000920E-02 0.  1.
        2   -1    0    0  501    0  0.00000000000E+00  0.00000000000E+00 -0.20637250568E+04  0.20637250568E+04  0.25500000920E-02 0. -1.
    10030    2    1    2    0    0  0.00000000000E+00  0.00000000000E+00 -0.15338589811E+04  0.25935911326E+04  0.20914089961E+04 0.  0.
        1    1    3    3  502    0  0.22010882914E+03 -0.53231323721E+03 -0.18492413424E+04  0.19368786285E+04  0.50400001928E-02 0. -1.
       -1    1    3    3    0  502 -0.22010882914E+03  0.53231323721E+03  0.31538236124E+03  0.65671250405E+03  0.50400001928E-02 0.  1.
</event>
<event>
 5   0  0.2017750E-05  0.2097941E+04  0.7818609E-02  0.8562151E-01
        3   -1    0    0  501    0  0.00000000000E+00  0.00000000000E+00  0.12682371765E+04  0.12682371805E+04  0.10100000352E+00 0. -1.
       -3   -1    0    0    0  501  0.00000000000E+00  0.00000000000E+00 -0.86761264952E+03  0.86761265540E+03  0.10100000352E+00 0.  1.
    10030    2    1    2    0    0  0.00000000000E+00  0.00000000000E+00  0.40062452697E+03  0.21358498359E+04  0.20979405401E+04 0.  0.
        4    1    3    3  502    0 -0.90909857994E+03  0.49392420843E+02 -0.33009834800E+03  0.96843501152E+03  0.12699999809E+01 0.  1.
       -4    1    3    3    0  502  0.90909857994E+03 -0.49392420843E+02  0.73072287497E+03  0.11674148244E+04  0.12699999809E+01 0. -1.
</event>
<event>
 5   0  0.2699285E-05  0.1990308E+04  0.7818609E-02  0.8611165E-01
       -1   -1    0    0    0  501  0.00000000000E+00  0.00000000000E+00  0.83798140356E+03  0.83798140358E+03  0.50400001928E-02 0.  1.
        1   -1    0    0  501    0  0.00000000000E+00  0.00000000000E+00 -0.11818061419E+04  0.11818061419E+04  0.50400001928E-02 0. -1.
    10030    2    1    2    0    0  0.00000000000E+00  0.00000000000E+00 -0.34382473830E+03  0.20197875454E+04  0.19903080862E+04 0.  0.
        2    1    3    3  502    0 -0.21477831987E+03 -0.79906507588E+03  0.38917547816E+03  0.91438081509E+03  0.25500000920E-02 0.  1.
       -2    1    3    3    0  502  0.21477831987E+03  0.79906507588E+03 -0.73300021646E+03  0.11054067304E+04  0.25500000920E-02 0. -1.
</event>
<event>
 5   0  0.2732159E-05  0.2109773E+04  0.7818609E-02  0.8556951E-01
       -1   -1    0    0    0  501  0.00000000000E+00  0.00000000000E+00  0.13976023180E+04  0.13976023180E+04  0.50400001928E-02 0. -1.
        1   -1    0    0  501    0  0.00000000000E+00  0.00000000000E+00 -0.79621036293E+03  0.79621036295E+03  0.50400001928E-02 0.  1.
    10030    2    1    2    0    0  0.00000000000E+00  0.00000000000E+00  0.60139195508E+03  0.21938126810E+04  0.21097729251E+04 0.  0.
        3    1    3    3  502    0  0.48517381976E+03 -0.93501728822E+03  0.24247946755E+03  0.10809473933E+04  0.10100000352E+00 0. -1.
       -3    1    3    3    0  502 -0.48517381976E+03  0.93501728822E+03  0.35891248753E+03  0.11128652877E+04  0.10100000352E+00 0.  1.
</event>
<event>
 5   0  0.5954140E-05  0.2108957E+04  0.7818609E-02  0.8557308E-01
        2   -1    0    0  501    0  0.00000000000E+00  0.00000000000E+00  0.10141821532E+04  0.10141821532E+04  0.25500000920E-02 0. -1.
       -2   -1    0    0    0  501  0.00000000000E+00  0.00000000000E+00 -0.10963754432E+04  0.10963754432E+04  0.25500000920E-02 0.  1.
    10030    2    1    2    0    0  0.00000000000E+00  0.00000000000E+00 -0.82193289970E+02  0.21105575964E+04  0.21089565266E+04 0.  0.
        2    1    3    3  502    0 -0.24904806659E+03  0.65121010078E+03  0.75059487098E+03  0.10244472633E+04  0.25500000920E-02 0. -1.
       -2    1    3    3    0  502  0.24904806659E+03 -0.65121010078E+03 -0.83278816095E+03  0.10861103332E+04  0.25500000920E-02 0.  1.
</event>
<event>
 5   0  0.5506332E-05  0.2103819E+04  0.7818609E-02  0.8559563E-01
        2   -1    0    0  501    0  0.00000000000E+00  0.00000000000E+00  0.20331817741E+04  0.20331817741E+04  0.25500000920E-02 0. -1.
       -2   -1    0    0    0  501  0.00000000000E+00  0.00000000000E+00 -0.54422773604E+03  0.54422773604E+03  0.25500000920E-02 0.  1.
    10030    2    1    2    0    0  0.00000000000E+00  0.00000000000E+00  0.14889540380E+04  0.25774095101E+04  0.21038193020E+04 0.  0.
        3    1    3    3  502    0 -0.10113256739E+04  0.56886069738E+02  0.10920677910E+04  0.14895058623E+04  0.10100000352E+00 0. -1.
       -3    1    3    3    0  502  0.10113256739E+04 -0.56886069738E+02  0.39688624704E+03  0.10879036478E+04  0.10100000352E+00 0.  1.
</event>
<event>
 5   0  0.2602060E-05  0.2208858E+04  0.7818609E-02  0.8514750E-01
        1   -1    0    0  501    0  0.00000000000E+00  0.00000000000E+00  0.19712797966E+04  0.19712797966E+04  0.50400001928E-02 0.  1.
       -1   -1    0    0    0  501  0.00000000000E+00  0.00000000000E+00 -0.61876700354E+03  0.61876700356E+03  0.50400001928E-02 0. -1.
    10030    2    1    2    0    0  0.00000000000E+00  0.00000000000E+00  0.13525127931E+04  0.25900468002E+04  0.22088575263E+04 0.  0.
        1    1    3    3  502    0 -0.90349074895E+03 -0.41864590894E+03  0.11611129021E+03  0.10025177117E+04  0.50400001928E-02 0. -1.
       -1    1    3    3    0  502  0.90349074895E+03  0.41864590894E+03  0.12364015028E+04  0.15875290885E+04  0.50400001928E-02 0.  1.
</event>
<event>
 5   0  0.5954140E-05  0.2115767E+04  0.7818609E-02  0.8554330E-01
        2   -1    0    0  501    0  0.00000000000E+00  0.00000000000E+00  0.92556746847E+03  0.92556746847E+03  0.25500000920E-02 0. -1.
       -2   -1    0    0    0  501  0.00000000000E+00  0.00000000000E+00 -0.12091148935E+04  0.12091148935E+04  0.25500000920E-02 0.  1.
    10030    2    1    2    0    0  0.00000000000E+00  0.00000000000E+00 -0.28354742499E+03  0.21346823619E+04  0.21157669163E+04 0.  0.
        2    1    3    3  502    0 -0.24833152090E+02 -0.73534757694E+03  0.62513015737E+03  0.96547421406E+03  0.25500000920E-02 0. -1.
       -2    1    3    3    0  502  0.24833152090E+02  0.73534757694E+03 -0.90867758236E+03  0.11692081479E+04  0.25500000920E-02 0.  1.
</event>
<event>
 5   0  0.2789662E-05  0.2113866E+04  0.7818609E-02  0.8555160E-01
       -1   -1    0    0    0  501  0.00000000000E+00  0.00000000000E+00  0.60586120799E+03  0.60586120801E+03  0.50400001928E-02 0.  1.
        1   -1    0    0  501    0  0.00000000000E+00  0.00000000000E+00 -0.18438341594E+04  0.18438341594E+04  0.50400001928E-02 0. -1.
    10030    2    1    2    0    0  0.00000000000E+00  0.00000000000E+00 -0.12379729514E+04  0.24496953674E+04  0.21138662126E+04 0.  0.
        4    1    3    3  502    0  0.16995248597E+03  0.74665310318E+03  0.22526518524E+03  0.79819842179E+03  0.12699999809E+01 0.  1.
       -4    1    3    3    0  502 -0.16995248597E+03 -0.74665310318E+03 -0.14632381367E+04  0.16514969456E+04  0.12699999809E+01 0. -1.
</event>
<event>
 5   0  0.2732159E-05  0.2093845E+04  0.7818609E-02  0.8563960E-01
       -1   -1    0    0    0  501  0.00000000000E+00  0.00000000000E+00  0.10670941434E+04  0.10670941434E+04  0.50400001928E-02 0. -1.
        1   -1    0    0  501    0  0.00000000000E+00  0.00000000000E+00 -0.10271319222E+04  0.10271319222E+04  0.50400001928E-02 0.  1.
    10030    2    1    2    0    0  0.00000000000E+00  0.00000000000E+00  0.39962221151E+02  0.20942260656E+04  0.20938447494E+04 0.  0.
        3    1    3    3  502    0  0.80006863635E+03 -0.12822586313E+03  0.68304584612E+03  0.10597656972E+04  0.10100000352E+00 0. -1.
       -3    1    3    3    0  502 -0.80006863635E+03  0.12822586313E+03 -0.64308362497E+03  0.10344603684E+04  0.10100000352E+00 0.  1.
</event>
<event>
 5   0  0.5866610E-05  0.2118139E+04  0.7818609E-02  0.8553295E-01
       -2   -1    0    0    0  501  0.00000000000E+00  0.00000000000E+00  0.54720204996E+03  0.54720204996E+03  0.25500000920E-02 0.  1.
        2   -1    0    0  501    0  0.00000000000E+00  0.00000000000E+00 -0.20497514573E+04  0.20497514573E+04  0.25500000920E-02 0. -1.
    10030    2    1    2    0    0  0.00000000000E+00  0.00000000000E+00 -0.15025494074E+04  0.25969535073E+04  0.21181389939E+04 0.  0.
        5    1    3    3  502    0  0.63573490187E+03  0.13818701273E+03 -0.17758568488E+04  0.18912810879E+04  0.46999998093E+01 0. -1.
       -5    1    3    3    0  502 -0.63573490187E+03 -0.13818701273E+03  0.27330744145E+03  0.70567241939E+03  0.46999998093E+01 0.  1.
</event>
<event>
 5   0  0.5954140E-05  0.2068797E+04  0.7818609E-02  0.8575114E-01
       -2   -1    0    0    0  501  0.00000000000E+00  0.00000000000E+00  0.73665925242E+03  0.73665925242E+03  0.25500000920E-02 0.  1.
        2   -1    0    0  501    0  0.00000000000E+00  0.00000000000E+00 -0.14524766052E+04  0.14524766052E+04  0.25500000920E-02 0. -1.
    10030    2    1    2    0    0  0.00000000000E+00  0.00000000000E+00 -0.71581735276E+03  0.21891358576E+04  0.20687970709E+04 0.  0.
        2    1    3    3  502    0 -0.38591240575E+03  0.77663943664E+03  0.23869862332E+03  0.89948553754E+03  0.25500000920E-02 0.  1.
       -2    1    3    3    0  502  0.38591240575E+03 -0.77663943664E+03 -0.95451597607E+03  0.12896503201E+04  0.25500000920E-02 0. -1.
</event>
<event>
 5   0  0.2017750E-05  0.2102509E+04  0.7818609E-02  0.8560139E-01
       -3   -1    0    0    0  501  0.00000000000E+00  0.00000000000E+00  0.14089903116E+04  0.14089903153E+04  0.10100000352E+00 0.  1.
        3   -1    0    0  501    0  0.00000000000E+00  0.00000000000E+00 -0.78434628219E+03  0.78434628870E+03  0.10100000352E+00 0. -1.
    10030    2    1    2    0    0  0.00000000000E+00  0.00000000000E+00  0.62464402944E+03  0.21933366039E+04  0.21025092853E+04 0.  0.
        5    1    3    3  502    0 -0.72651481575E+03  0.78594303313E+02  0.11006891943E+04  0.13211887203E+04  0.46999998093E+01 0.  1.
       -5    1    3    3    0  502  0.72651481575E+03 -0.78594303313E+02 -0.47604516489E+03  0.87214788369E+03  0.46999998093E+01 0. -1.
</event>
<event>
 5   0  0.2017750E-05  0.2042371E+04  0.7818609E-02  0.8587063E-01
       -3   -1    0    0    0  501  0.00000000000E+00  0.00000000000E+00  0.92824314588E+03  0.92824315138E+03  0.10100000352E+00 0. -1.
        3   -1    0    0  501    0  0.00000000000E+00  0.00000000000E+00 -0.11234338629E+04  0.11234338674E+04  0.10100000352E+00 0.  1.
    10030    2    1    2    0    0  0.00000000000E+00  0.00000000000E+00 -0.19519071702E+03  0.20516770188E+04  0.20423709686E+04 0.  0.
        2    1    3    3  502    0  0.33917355071E+03 -0.95462345996E+03 -0.22653575333E+03  0.10381055319E+04  0.25500000920E-02 0. -1.
       -2    1    3    3    0  502 -0.33917355071E+03  0.95462345996E+03  0.31345036317E+02  0.10135714869E+04  0.25500000920E-02 0.  1.
</event>
<event>
 5   0  0.2699285E-05  0.2101295E+04  0.7818609E-02  0.8560673E-01
       -1   -1    0    0    0  501  0.00000000000E+00  0.00000000000E+00  0.35340870145E+03  0.35340870148E+03  0.50400001928E-02 0. -1.
        1   -1    0    0  501    0  0.00000000000E+00  0.00000000000E+00 -0.31234672110E+04  0.31234672110E+04  0.50400001928E-02 0.  1.
    10030    2    1    2    0    0  0.00000000000E+00  0.00000000000E+00 -0.27700585096E+04  0.34768759125E+04  0.21012953064E+04 0.  0.
        2    1    3    3  502    0 -0.18667855183E+03 -0.64814066309E+03 -0.52123475972E+02  0.67649985781E+03  0.25500000920E-02 0. -1.
       -2    1    3    3    0  502  0.18667855183E+03  0.64814066309E+03 -0.27179350336E+04  0.28003760547E+04  0.25500000920E-02 0.  1.
</event>
<event>
 5   0  0.2602060E-05  0.2102852E+04  0.7818609E-02  0.8559988E-01
        1   -1    0    0  501    0  0.00000000000E+00  0.00000000000E+00  0.13327851491E+04  0.13327851491E+04  0.50400001928E-02 0. -1.
       -1   -1    0    0    0  501  0.00000000000E+00  0.00000000000E+00 -0.82946337123E+03  0.82946337124E+03  0.50400001928E-02 0.  1.
    10030    2    1    2    0    0  0.00000000000E+00  0.00000000000E+00  0.50332177783E+03  0.21622485203E+04  0.21028518378E+04 0.  0.
        1    1    3    3  502    0  0.41789096895E+02 -0.95293905538E+03  0.70648654251E+03  0.11869972227E+04  0.50400001928E-02 0. -1.
       -1    1    3    3    0  502 -0.41789096895E+02  0.95293905538E+03 -0.20316476468E+03  0.97525129763E+03  0.50400001928E-02 0.  1.
</event>
<event>
 5   0  0.5954140E-05  0.2096202E+04  0.7818609E-02  0.8562918E-01
        2   -1    0    0  501    0  0.00000000000E+00  0.00000000000E+00  0.91161478600E+03  0.91161478601E+03  0.25500000920E-02 0.  1.
       -2   -1    0    0    0  501  0.00000000000E+00  0.00000000000E+00 -0.12050218781E+04  0.12050218781E+04  0.25500000920E-02 0. -1.
    10030    2    1    2    0    0  0.00000000000E+00  0.00000000000E+00 -0.29340709209E+03  0.21166366641E+04  0.20962020528E+04 0.  0.
        2    1    3    3  502    0 -0.50875670889E+02  0.81042480805E+03  0.52243216100E+03  0.96556308248E+03  0.25500000920E-02 0. -1.
       -2    1    3    3    0  502  0.50875670889E+02 -0.81042480805E+03 -0.81583925310E+03  0.11510735816E+04  0.25500000920E-02 0.  1.
</event>
<event>
 5   0  0.2602060E-05  0.2103317E+04  0.7818609E-02  0.8559783E-01
       -1   -1    0    0    0  501  0.00000000000E+00  0.00000000000E+00  0.86446001895E+03  0.86446001896E+03  0.50400001928E-02 0.  1.
        1   -1    0    0  501    0  0.00000000000E+00  0.00000000000E+00 -0.12793950800E+04  0.12793950800E+04  0.50400001928E-02 0. -1.
    10030    2    1    2    0    0  0.00000000000E+00  0.00000000000E+00 -0.41493506101E+03  0.21438550989E+04  0.21033172800E+04 0.  0.
        1    1    3    3  502    0  0.38020392810E+03  0.55832071240E+03  0.61411279382E+03  0.91291377928E+03  0.50400001928E-02 0.  1.
       -1    1    3    3    0  502 -0.38020392810E+03 -0.55832071240E+03 -0.10290478548E+04  0.12309413196E+04  0.50400001928E-02 0. -1.
</event>
<event>
 5   0  0.5866610E-05  0.2127380E+04  0.7818609E-02  0.8549277E-01
        2   -1    0    0  501    0  0.00000000000E+00  0.00000000000E+00  0.17979979876E+04  0.17979979876E+04  0.25500000920E-02 0. -1.
       -2   -1    0    0    0  501  0.00000000000E+00  0.00000000000E+00 -0.62927541068E+03  0.62927541069E+03  0.25500000920E-02 0.  1.
    10030    2    1    2    0    0  0.00000000000E+00  0.00000000000E+00  0.11687225769E+04  0.24272733983E+04  0.21273795356E+04 0.  0.
        5    1    3    3  502    0 -0.16504574421E+03 -0.17302369343E+03  0.17669226327E+04  0.17830353267E+04  0.46999998093E+01 0. -1.
       -5    1    3    3    0  502  0.16504574421E+03  0.17302369343E+03 -0.59820005579E+03  0.64423807162E+03  0.46999998093E+01 0.  1.
</event>
<event>
 5   0  0.2732159E-05  0.2018950E+04  0.7818609E-02  0.8597812E-01
       -1   -1    0    0    0  501  0.00000000000E+00  0.00000000000E+00  0.73930817735E+03  0.73930817736E+03  0.50400001928E-02 0. -1.
        1   -1    0    0  501    0  0.00000000000E+00  0.00000000000E+00 -0.13783692851E+04  0.13783692851E+04  0.50400001928E-02 0.  1.
    10030    2    1    2    0    0  0.00000000000E+00  0.00000000000E+00 -0.63906110775E+03  0.21176774625E+04  0.20189499091E+04 0.  0.
        3    1    3    3  502    0 -0.94150358541E+03 -0.22743891476E+03 -0.61783572480E+03  0.11488596321E+04  0.10100000352E+00 0.  1.
       -3    1    3    3    0  502  0.94150358541E+03  0.22743891476E+03 -0.21225382944E+02  0.96881783034E+03  0.10100000352E+00 0. -1.
</event>
<event>
 5   0  0.2017750E-05  0.2151393E+04  0.7818609E-02  0.8538936E-01
       -3   -1    0    0    0  501  0.00000000000E+00  0.00000000000E+00  0.58782176002E+03  0.58782176869E+03  0.10100000352E+00 0. -1.
        3   -1    0    0  501    0  0.00000000000E+00  0.00000000000E+00 -0.19684921332E+04  0.19684921358E+04  0.10100000352E+00 0.  1.
    10030    2    1    2    0    0  0.00000000000E+00  0.00000000000E+00 -0.13806703731E+04  0.25563139044E+04  0.21513925952E+04 0.  0.
        3    1    3    3  502    0 -0.55785045510E+03  0.76524813857E+03 -0.12965811221E+04  0.16055916231E+04  0.10100000352E+00 0.  1.
       -3    1    3    3    0  502  0.55785045510E+03 -0.76524813857E+03 -0.84089251029E+02  0.95072228131E+03  0.10100000352E+00 0. -1.
</event>
<event>
 5   0  0.2604390E-05  0.2085014E+04  0.7818609E-02  0.8567874E-01
       -1   -1    0    0    0  501  0.00000000000E+00  0.00000000000E+00  0.10635405864E+04  0.10635405864E+04  0.50400001928E-02 0. -1.
        1   -1    0    0  501    0  0.00000000000E+00  0.00000000000E+00 -0.10218890129E+04  0.10218890130E+04  0.50400001928E-02 0.  1.
    10030    2    1    2    0    0  0.00000000000E+00  0.00000000000E+00  0.41651573423E+02  0.20854295993E+04  0.20850136115E+04 0.  0.
        5    1    3    3  502    0 -0.38773742924E+03 -0.57143175248E+03  0.80195777831E+03  0.10583160823E+04  0.46999998093E+01 0. -1.
       -5    1    3    3    0  502  0.38773742924E+03  0.57143175248E+03 -0.76030620488E+03  0.10271135171E+04  0.46999998093E+01 0.  1.
</event>
<event>
 5   0  0.5954140E-05  0.2072466E+04  0.7818609E-02  0.8573470E-01
        2   -1    0    0  501    0  0.00000000000E+00  0.00000000000E+00  0.20716055604E+04  0.20716055604E+04  0.25500000920E-02 0. -1.
       -2   -1    0    0    0  501  0.00000000000E+00  0.00000000000E+00 -0.51833153886E+03  0.51833153886E+03  0.25500000920E-02 0.  1.
    10030    2    1    2    0    0  0.00000000000E+00  0.00000000000E+00  0.15532740215E+04  0.25899370993E+04  0.20724656794E+04 0.  0.
        2    1    3    3  502    0  0.48361131077E+03  0.54526155920E+03 -0.14389126642E+03  0.74289620029E+03  0.25500000920E-02 0.  1.
       -2    1    3    3    0  502 -0.48361131077E+03 -0.54526155920E+03  0.16971652879E+04  0.18470408990E+04  0.25500000920E-02 0. -1.
</event>
<event>
 5   0  0.2017750E-05  0.2088431E+04  0.7818609E-02  0.8566357E-01
       -3   -1    0    0    0  501  0.00000000000E+00  0.00000000000E+00  0.99479266593E+03  0.99479267105E+03  0.10100000352E+00 0.  1.
        3   -1    0    0  501    0  0.00000000000E+00  0.00000000000E+00 -0.10960941185E+04  0.10960941231E+04  0.10100000352E+00 0. -1.
    10030    2    1    2    0    0  0.00000000000E+00  0.00000000000E+00 -0.10130145255E+03  0.20908867942E+04  0.20884313735E+04 0.  0.
        5    1    3    3  502    0 -0.92768844871E+03 -0.29593701843E+03  0.32685988118E+03  0.10271533715E+04  0.46999998093E+01 0.  1.
       -5    1    3    3    0  502  0.92768844871E+03  0.29593701843E+03 -0.42816133372E+03  0.10637334226E+04  0.46999998093E+01 0. -1.
</event>
<event>
 5   0  0.2602060E-05  0.2099280E+04  0.7818609E-02  0.8561560E-01
       -1   -1    0    0    0  501  0.00000000000E+00  0.00000000000E+00  0.93696227851E+03  0.93696227852E+03  0.50400001928E-02 0. -1.
        1   -1    0    0  501    0  0.00000000000E+00  0.00000000000E+00 -0.11758686628E+04  0.11758686628E+04  0.50400001928E-02 0.  1.
    10030    2    1    2    0    0  0.00000000000E+00  0.00000000000E+00 -0.23890638424E+03  0.21128309413E+04  0.20992804305E+04 0.  0.
        1    1    3    3  502    0  0.61479652381E+03  0.84615809467E+03 -0.20826274989E+03  0.10664575284E+04  0.50400001928E-02 0. -1.
       -1    1    3    3    0  502 -0.61479652381E+03 -0.84615809467E+03 -0.30643634356E+02  0.10463734129E+04  0.50400001928E-02 0.  1.
</event>
<event>
 5   0  0.5954140E-05  0.1999218E+04  0.7818609E-02  0.8606986E-01
        2   -1    0    0  501    0  0.00000000000E+00  0.00000000000E+00  0.16045684078E+04  0.16045684078E+04  0.25500000920E-02 0.  1.
       -2   -1    0    0    0  501  0.00000000000E+00  0.00000000000E+00 -0.62273338003E+03  0.62273338003E+03  0.25500000920E-02 0. -1.
    10030    2    1    2    0    0  0.00000000000E+00  0.00000000000E+00  0.98183502773E+03  0.22273017878E+04  0.19992181552E+04 0.  0.
        2    1    3    3  502    0 -0.28900297453E+03 -0.90033295464E+03  0.12974698780E+03  0.95444037496E+03  0.25500000920E-02 0.  1.
       -2    1    3    3    0  502  0.28900297453E+03  0.90033295464E+03  0.85208803992E+03  0.12728614128E+04  0.25500000920E-02 0. -1.
</event>
<event>
 5   0  0.2699285E-05  0.2128033E+04  0.7818609E-02  0.8548994E-01
       -1   -1    0    0    0  501  0.00000000000E+00  0.00000000000E+00  0.65831771114E+03  0.65831771115E+03  0.50400001928E-02 0.  1.
        1   -1    0    0  501    0  0.00000000000E+00  0.00000000000E+00 -0.17197341906E+04  0.17197341906E+04  0.50400001928E-02 0. -1.
    10030    2    1    2    0    0  0.00000000000E+00  0.00000000000E+00 -0.10614164795E+04  0.23780519018E+04  0.21280333420E+04 0.  0.
        2    1    3    3  502    0  0.30048712054E+02 -0.12562315655E+03  0.64952391737E+03  0.66224272121E+03  0.25500000920E-02 0.  1.
       -2    1    3    3    0  502 -0.30048712054E+02  0.12562315655E+03 -0.17109403968E+04  0.17158091805E+04  0.25500000920E-02 0. -1.
</event>
<event>
 5   0  0.2699285E-05  0.2114496E+04  0.7818609E-02  0.8554884E-01
        1   -1    0    0  501    0  0.00000000000E+00  0.00000000000E+00  0.14168638519E+04  0.14168638519E+04  0.50400001928E-02 0. -1.
       -1   -1    0    0    0  501  0.00000000000E+00  0.00000000000E+00 -0.78890682643E+03  0.78890682644E+03  0.50400001928E-02 0.  1.
    10030    2    1    2    0    0  0.00000000000E+00  0.00000000000E+00  0.62795702547E+03  0.22057706783E+04  0.21144962189E+04 0.  0.
        2    1    3    3  502    0  0.82170367408E+03 -0.61249771341E+03  0.43110271346E+02  0.10257723297E+04  0.25500000920E-02 0.  1.
       -2    1    3    3    0  502 -0.82170367408E+03  0.61249771341E+03  0.58484675412E+03  0.11799983486E+04  0.25500000920E-02 0. -1.
</event>
<event>
 5   0  0.2789662E-05  0.2102190E+04  0.7818609E-02  0.8560279E-01
        1   -1    0    0  501    0  0.00000000000E+00  0.00000000000E+00  0.13521549038E+04  0.13521549039E+04  0.50400001928E-02 0.  1.
       -1   -1    0    0    0  501  0.00000000000E+00  0.00000000000E+00 -0.81706698170E+03  0.81706698172E+03  0.50400001928E-02 0. -1.
    10030    2    1    2    0    0  0.00000000000E+00  0.00000000000E+00  0.53508792215E+03  0.21692218856E+04  0.21021904063E+04 0.  0.
        4    1    3    3  502    0 -0.55643749772E+03  0.50650884247E+03  0.10248569923E+04  0.12714194288E+04  0.12699999809E+01 0.  1.
       -4    1    3    3    0  502  0.55643749772E+03 -0.50650884247E+03 -0.48976907017E+03  0.89780245676E+03  0.12699999809E+01 0. -1.
</event>
<event>
 5   0  0.2789662E-05  0.2049850E+04  0.7818609E-02  0.8583662E-01
        1   -1    0    0  501    0  0.00000000000E+00  0.00000000000E+00  0.16700372347E+04  0.16700372347E+04  0.50400001928E-02 0. -1.
       -1   -1    0    0    0  501  0.00000000000E+00  0.00000000000E+00 -0.62901056319E+03  0.62901056321E+03  0.50400001928E-02 0.  1.
    10030    2    1    2    0    0  0.00000000000E+00  0.00000000000E+00  0.10410266715E+04  0.22990477979E+04  0.20498498106E+04 0.  0.
        4    1    3    3  502    0 -0.58868966775E+03 -0.83844846335E+03  0.55449702228E+03  0.11649119757E+04  0.12699999809E+01 0.  1.
       -4    1    3    3    0  502  0.58868966775E+03  0.83844846335E+03  0.48652964920E+03  0.11341358221E+04  0.12699999809E+01 0. -1.
</event>
<event>
 5   0  0.2604390E-05  0.2099316E+04  0.7818609E-02  0.8561545E-01
        1   -1    0    0  501    0  0.00000000000E+00  0.00000000000E+00  0.13939866189E+04  0.13939866189E+04  0.50400001928E-02 0.  1.
       -1   -1    0    0    0  501  0.00000000000E+00  0.00000000000E+00 -0.79038182833E+03  0.79038182835E+03  0.50400001928E-02 0. -1.
    10030    2    1    2    0    0  0.00000000000E+00  0.00000000000E+00  0.60360479053E+03  0.21843684472E+04  0.20993157862E+04 0.  0.
        5    1    3    3  502    0  0.72396927320E+03 -0.35950712914E+03  0.99854530153E+03  0.12847146351E+04  0.46999998093E+01 0.  1.
       -5    1    3    3    0  502 -0.72396927320E+03  0.35950712914E+03 -0.39494051099E+03  0.89965381212E+03  0.46999998093E+01 0. -1.
</event>
<event>
 5   0  0.2732159E-05  0.2099818E+04  0.7818609E-02  0.8561323E-01
        1   -1    0    0  501    0  0.00000000000E+00  0.00000000000E+00  0.12119701367E+04  0.12119701367E+04  0.50400001928E-02 0.  1.
       -1   -1    0    0    0  501  0.00000000000E+00  0.00000000000E+00 -0.90951855968E+03  0.90951855969E+03  0.50400001928E-02 0. -1.
    10030    2    1    2    0    0  0.00000000000E+00  0.00000000000E+00  0.30245157705E+03  0.21214886964E+04  0.20998184047E+04 0.  0.
        3    1    3    3  502    0  0.93611467190E+02 -0.62712582518E+03 -0.69422525142E+03  0.94021200657E+03  0.10100000352E+00 0. -1.
       -3    1    3    3    0  502 -0.93611467190E+02  0.62712582518E+03  0.99667682847E+03  0.11812766899E+04  0.10100000352E+00 0.  1.
</event>
<event>
 5   0  0.5866610E-05  0.2096629E+04  0.7818609E-02  0.8562730E-01
       -2   -1    0    0    0  501  0.00000000000E+00  0.00000000000E+00  0.70270814041E+03  0.70270814042E+03  0.25500000920E-02 0.  1.
        2   -1    0    0  501    0  0.00000000000E+00  0.00000000000E+00 -0.15638977416E+04  0.15638977416E+04  0.25500000920E-02 0. -1.
    10030    2    1    2    0    0  0.00000000000E+00  0.00000000000E+00 -0.86118960116E+03  0.22666058820E+04  0.20966293652E+04 0.  0.
        5    1    3    3  502    0 -0.77653339582E+03  0.22351959464E+03 -0.11525501108E+04  0.14076075347E+04  0.46999998093E+01 0. -1.
       -5    1    3    3    0  502  0.77653339582E+03 -0.22351959464E+03  0.29136050961E+03  0.85899834725E+03  0.46999998093E+01 0.  1.
</event>
<event>
 5   0  0.2604390E-05  0.2024493E+04  0.7818609E-02  0.8595254E-01
       -1   -1    0    0    0  501  0.00000000000E+00  0.00000000000E+00  0.10468733307E+04  0.10468733307E+04  0.50400001928E-02 0.  1.
        1   -1    0    0  501    0  0.00000000000E+00  0.00000000000E+00 -0.97876463496E+03  0.97876463497E+03  0.50400001928E-02 0. -1.
    10030    2    1    2    0    0  0.00000000000E+00  0.00000000000E+00  0.68108695764E+02  0.20256379657E+04  0.20244926213E+04 0.  0.
        5    1    3    3  502    0 -0.79290410336E+03  0.62784804514E+03 -0.75674855423E+01  0.10114195182E+04  0.46999998093E+01 0. -1.
       -5    1    3    3    0  502  0.79290410336E+03 -0.62784804514E+03  0.75676181306E+02  0.10142184475E+04  0.46999998093E+01 0.  1.
</event>
<event>
 5   0  0.5462851E-05  0.2100104E+04  0.7818609E-02  0.8561197E-01
        2   -1    0    0  501    0  0.00000000000E+00  0.00000000000E+00  0.99303059731E+03  0.99303059731E+03  0.25500000920E-02 0.  1.
       -2   -1    0    0    0  501  0.00000000000E+00  0.00000000000E+00 -0.11103480033E+04  0.11103480033E+04  0.25500000920E-02 0. -1.
    10030    2    1    2    0    0  0.00000000000E+00  0.00000000000E+00 -0.11731740600E+03  0.21033786006E+04  0.21001043221E+04 0.  0.
        1    1    3    3  502    0  0.23773603990E+02 -0.26750704970E+02 -0.11097370079E+04  0.11103139246E+04  0.50400001928E-02 0. -1.
       -1    1    3    3    0  502 -0.23773603990E+02  0.26750704970E+02  0.99241960190E+03  0.99306467600E+03  0.50400001928E-02 0.  1.
</event>
<event>
 5   0  0.2732159E-05  0.2110006E+04  0.7818609E-02  0.8556849E-01
        1   -1    0    0  501    0  0.00000000000E+00  0.00000000000E+00  0.18410344494E+04  0.18410344494E+04  0.50400001928E-02 0. -1.
       -1   -1    0    0    0  501  0.00000000000E+00  0.00000000000E+00 -0.60456830019E+03  0.60456830021E+03  0.50400001928E-02 0.  1.
    10030    2    1    2    0    0  0.00000000000E+00  0.00000000000E+00  0.12364661492E+04  0.24456027496E+04  0.21100057513E+04 0.  0.
        3    1    3    3  502    0  0.83244415175E+03  0.60984482756E+03  0.87258342407E+03  0.13513977289E+04  0.10100000352E+00 0. -1.
       -3    1    3    3    0  502 -0.83244415175E+03 -0.60984482756E+03  0.36388272510E+03  0.10942050207E+04  0.10100000352E+00 0.  1.
</event>
<event>
 5   0  0.2789662E-05  0.2090414E+04  0.7818609E-02  0.8565478E-01
        1   -1    0    0  501    0  0.00000000000E+00  0.00000000000E+00  0.90373178910E+03  0.90373178911E+03  0.50400001928E-02 0.  1.
       -1   -1    0    0    0  501  0.00000000000E+00  0.00000000000E+00 -0.12088295348E+04  0.12088295348E+04  0.50400001928E-02 0. -1.
    10030    2    1    2    0    0  0.00000000000E+00  0.00000000000E+00 -0.30509774572E+03  0.21125613239E+04  0.20904140052E+04 0.  0.
        4    1    3    3  502    0  0.90073819391E+03  0.92354683083E+02 -0.68018905311E+03  0.11324828662E+04  0.12699999809E+01 0. -1.
       -4    1    3    3    0  502 -0.90073819391E+03 -0.92354683083E+02  0.37509130740E+03  0.98007845770E+03  0.12699999809E+01 0.  1.
</event>
<event>
 5   0  0.5462851E-05  0.2108612E+04  0.7818609E-02  0.8557459E-01
        2   -1    0    0  501    0  0.00000000000E+00  0.00000000000E+00  0.89536611413E+03  0.89536611413E+03  0.25500000920E-02 0. -1.
       -2   -1    0    0    0  501  0.00000000000E+00  0.00000000000E+00 -0.12414597031E+04  0.12414597031E+04  0.25500000920E-02 0.  1.
    10030    2    1    2    0    0  0.00000000000E+00  0.00000000000E+00 -0.34609358901E+03  0.21368258173E+04  0.21086118185E+04 0.  0.
        1    1    3    3  502    0 -0.36808009732E+03 -0.10676822606E+02  0.82808069009E+03  0.90626407956E+03  0.50400001928E-02 0. -1.
       -1    1    3    3    0  502  0.36808009732E+03  0.10676822606E+02 -0.11741742791E+04  0.12305617377E+04  0.50400001928E-02 0.  1.
</event>
<event>
 5   0  0.5506332E-05  0.2094446E+04  0.7818609E-02  0.8563694E-01
       -2   -1    0    0    0  501  0.00000000000E+00  0.00000000000E+00  0.75582122656E+03  0.75582122656E+03  0.25500000920E-02 0. -1.
        2   -1    0    0  501    0  0.00000000000E+00  0.00000000000E+00 -0.14509731853E+04  0.14509731853E+04  0.25500000920E-02 0.  1.
    10030    2    1    2    0    0  0.00000000000E+00  0.00000000000E+00 -0.69515195877E+03  0.22067944119E+04  0.20944463064E+04 0.  0.
        3    1    3    3  502    0  0.93416391008E+03 -0.20583179866E+03 -0.79663892013E+03  0.12448544170E+04  0.10100000352E+00 0.  1.
       -3    1    3    3    0  502 -0.93416391008E+03  0.20583179866E+03  0.10148696136E+03  0.96193999489E+03  0.10100000352E+00 0. -1.
</event>
<event>
 5   0  0.5462851E-05  0.2103996E+04  0.7818609E-02  0.8559485E-01
        2   -1    0    0  501    0  0.00000000000E+00  0.00000000000E+00  0.69847968879E+03  0.69847968880E+03  0.25500000920E-02 0. -1.
       -2   -1    0    0    0  501  0.00000000000E+00  0.00000000000E+00 -0.15844415277E+04  0.15844415277E+04  0.25500000920E-02 0.  1.
    10030    2    1    2    0    0  0.00000000000E+00  0.00000000000E+00 -0.88596183886E+03  0.22829212165E+04  0.21039964117E+04 0.  0.
        1    1    3    3  502    0 -0.26835427112E+03  0.21321842906E+03  0.63619755997E+03  0.72265029486E+03  0.50400001928E-02 0. -1.
       -1    1    3    3    0  502  0.26835427112E+03 -0.21321842906E+03 -0.15221593988E+04  0.15602709216E+04  0.50400001928E-02 0.  1.
</event>
<event>
 5   0  0.5506332E-05  0.2099957E+04  0.7818609E-02  0.8561262E-01
        2   -1    0    0  501    0  0.00000000000E+00  0.00000000000E+00  0.19374742719E+04  0.19374742719E+04  0.25500000920E-02 0.  1.
       -2   -1    0    0    0  501  0.00000000000E+00  0.00000000000E+00 -0.56901662259E+03  0.56901662259E+03  0.25500000920E-02 0. -1.
    10030    2    1    2    0    0  0.00000000000E+00  0.00000000000E+00  0.13684576493E+04  0.25064908945E+04  0.20999572058E+04 0.  0.
        3    1    3    3  502    0 -0.48233314385E+03  0.14647573219E+02  0.17972777752E+04  0.18609318162E+04  0.10100000352E+00 0.  1.
       -3    1    3    3    0  502  0.48233314385E+03 -0.14647573219E+02 -0.42882012587E+03  0.64555907833E+03  0.10100000352E+00 0. -1.
</event>
<event>
 5   0  0.5954140E-05  0.2074400E+04  0.7818609E-02  0.8572605E-01
       -2   -1    0    0    0  501  0.00000000000E+00  0.00000000000E+00  0.74794323364E+03  0.74794323364E+03  0.25500000920E-02 0.  1.
        2   -1    0    0  501    0  0.00000000000E+00  0.00000000000E+00 -0.14383222937E+04  0.14383222937E+04  0.25500000920E-02 0. -1.
    10030    2    1    2    0    0  0.00000000000E+00  0.00000000000E+00 -0.69037906010E+03  0.21862655274E+04  0.20743996022E+04 0.  0.
        2    1    3    3  502    0 -0.97086369760E+03  0.35256720495E+03 -0.24574286219E+03  0.10617294889E+04  0.25500000920E-02 0.  1.
       -2    1    3    3    0  502  0.97086369760E+03 -0.35256720495E+03 -0.44463619791E+03  0.11245360385E+04  0.25500000920E-02 0. -1.
</event>
<event>
 5   0  0.5462851E-05  0.2130722E+04  0.7818609E-02  0.8547829E-01
        2   -1    0    0  501    0  0.00000000000E+00  0.00000000000E+00  0.79485791248E+03  0.79485791248E+03  0.25500000920E-02 0.  1.
       -2   -1    0    0    0  501  0.00000000000E+00  0.00000000000E+00 -0.14279209345E+04  0.14279209345E+04  0.25500000920E-02 0. -1.
    10030    2    1    2    0    0  0.00000000000E+00  0.00000000000E+00 -0.63306302199E+03  0.22227788470E+04  0.21307221810E+04 0.  0.
        1    1    3    3  502    0  0.14912125716E+03 -0.36380390486E+03 -0.13494639729E+04  0.14055758410E+04  0.50400001928E-02 0. -1.
       -1    1    3    3    0  502 -0.14912125716E+03  0.36380390486E+03  0.71640095090E+03  0.81720300600E+03  0.50400001928E-02 0.  1.
</event>
<event>
 5   0  0.2604390E-05  0.1991801E+04  0.7818609E-02  0.8610463E-01
       -1   -1    0    0    0  501  0.00000000000E+00  0.00000000000E+00  0.57566276284E+03  0.57566276286E+03  0.50400001928E-02 0.  1.
        1   -1    0    0  501    0  0.00000000000E+00  0.00000000000E+00 -0.17229153773E+04  0.17229153773E+04  0.50400001928E-02 0. -1.
    10030    2    1    2    0    0  0.00000000000E+00  0.00000000000E+00 -0.11472526144E+04  0.22985781401E+04  0.19918014221E+04 0.  0.
        5    1    3    3  502    0  0.57066470767E+03 -0.69614838444E+03 -0.10652920145E+04  0.13946863260E+04  0.46999998093E+01 0. -1.
       -5    1    3    3    0  502 -0.57066470767E+03  0.69614838444E+03 -0.81960599934E+02  0.90389181415E+03  0.46999998093E+01 0.  1.
</event>
<event>
 5   0  0.2604390E-05  0.2102076E+04  0.7818609E-02  0.8560330E-01
        1   -1    0    0  501    0  0.00000000000E+00  0.00000000000E+00  0.11373020652E+04  0.11373020652E+04  0.50400001928E-02 0. -1.
       -1   -1    0    0    0  501  0.00000000000E+00  0.00000000000E+00 -0.97131667330E+03  0.97131667331E+03  0.50400001928E-02 0.  1.
    10030    2    1    2    0    0  0.00000000000E+00  0.00000000000E+00  0.16598539193E+03  0.21086187386E+04  0.21020756015E+04 0.  0.
        5    1    3    3  502    0  0.60785958885E+03 -0.55308162323E+03 -0.57423049286E+03  0.10025743417E+04  0.46999998093E+01 0.  1.
       -5    1    3    3    0  502 -0.60785958885E+03  0.55308162323E+03  0.74021588479E+03  0.11060443969E+04  0.46999998093E+01 0. -1.
</event>
<event>
 5   0  0.5954140E-05  0.2096674E+04  0.7818609E-02  0.8562710E-01
        2   -1    0    0  501    0  0.00000000000E+00  0.00000000000E+00  0.14175833336E+04  0.14175833336E+04  0.25500000920E-02 0.  1.
       -2   -1    0    0    0  501  0.00000000000E+00  0.00000000000E+00 -0.77527008286E+03  0.77527008286E+03  0.25500000920E-02 0. -1.
    10030    2    1    2    0    0  0.00000000000E+00  0.00000000000E+00  0.64231325075E+03  0.21928534165E+04  0.20966735068E+04 0.  0.
        2    1    3    3  502    0  0.44230949103E+03  0.93884975996E+03  0.47604958682E+03  0.11417967274E+04  0.25500000920E-02 0.  1.
       -2    1    3    3    0  502 -0.44230949103E+03 -0.93884975996E+03  0.16626366392E+03  0.10510566890E+04  0.25500000920E-02 0. -1.
</event>
<event>
 5   0  0.2732159E-05  0.2103208E+04  0.7818609E-02  0.8559832E-01
       -1   -1    0    0    0  501  0.00000000000E+00  0.00000000000E+00  0.10683233281E+04  0.10683233281E+04  0.50400001928E-02 0. -1.
        1   -1    0    0  501    0  0.00000000000E+00  0.00000000000E+00 -0.10351462703E+04  0.10351462703E+04  0.50400001928E-02 0.  1.
    10030    2    1    2    0    0  0.00000000000E+00  0.00000000000E+00  0.33177057739E+02  0.21034695984E+04  0.21032079389E+04 0.  0.
        3    1    3    3  502    0  0.22467700675E+03 -0.70614175153E+03  0.76284150729E+03  0.10635051039E+04  0.10100000352E+00 0. -1.
       -3    1    3    3    0  502 -0.22467700675E+03  0.70614175153E+03 -0.72966444955E+03  0.10399644945E+04  0.10100000352E+00 0.  1.
</event>
<event>
 5   0  0.2604390E-05  0.2098423E+04  0.7818609E-02  0.8561939E-01
        1   -1    0    0  501    0  0.00000000000E+00  0.00000000000E+00  0.11945459009E+04  0.11945459009E+04  0.50400001928E-02 0.  1.
       -1   -1    0    0    0  501  0.00000000000E+00  0.00000000000E+00 -0.92155888818E+03  0.92155888819E+03  0.50400001928E-02 0. -1.
    10030    2    1    2    0    0  0.00000000000E+00  0.00000000000E+00  0.27298701268E+03  0.21161047891E+04  0.20984226384E+04 0.  0.
        5    1    3    3  502    0  0.25327188632E+03  0.26745200296E+03  0.11271897304E+04  0.11858566527E+04  0.46999998093E+01 0.  1.
       -5    1    3    3    0  502 -0.25327188632E+03 -0.26745200296E+03 -0.85420271774E+03  0.93024813640E+03  0.46999998093E+01 0. -1.
</event>
<event>
 5   0  0.2017750E-05  0.2096188E+04  0.7818609E-02  0.8562924E-01
        4   -1    0    0  501    0  0.00000000000E+00  0.00000000000E+00  0.12687586760E+04  0.12687593116E+04  0.12699999809E+01 0. -1.
       -4   -1    0    0    0  501  0.00000000000E+00  0.00000000000E+00 -0.86580653060E+03  0.86580746204E+03  0.12699999809E+01 0.  1.
    10030    2    1    2    0    0  0.00000000000E+00  0.00000000000E+00  0.40295214536E+03  0.21345667736E+04  0.20961881785E+04 0.  0.
        1    1    3    3  502    0  0.67930469112E+03 -0.14089725428E+03 -0.59852475798E+03  0.91626349135E+03  0.50400001928E-02 0.  1.
       -1    1    3    3    0  502 -0.67930469112E+03  0.14089725428E+03  0.10014769033E+04  0.12183032823E+04  0.50400001928E-02 0. -1.
</event>
<event>
 5   0  0.5506332E-05  0.2100118E+04  0.7818609E-02  0.8561191E-01
        2   -1    0    0  501    0  0.00000000000E+00  0.00000000000E+00  0.12741246776E+04  0.12741246776E+04  0.25500000920E-02 0. -1.
       -2   -1    0    0    0  501  0.00000000000E+00  0.00000000000E+00 -0.86539757592E+03  0.86539757592E+03  0.25500000920E-02 0.  1.
    10030    2    1    2    0    0  0.00000000000E+00  0.00000000000E+00  0.40872710172E+03  0.21395222536E+04  0.21001184799E+04 0.  0.
        3    1    3    3  502    0 -0.16684145752E+03  0.38922828925E+02  0.12597905070E+04  0.12713863261E+04  0.10100000352E+00 0. -1.
       -3    1    3    3    0  502  0.16684145752E+03 -0.38922828925E+02 -0.85106340526E+03  0.86813592745E+03  0.10100000352E+00 0.  1.
</event>
<event>
 5   0  0.2017750E-05  0.2069663E+04  0.7818609E-02  0.8574726E-01
       -3   -1    0    0    0  501  0.00000000000E+00  0.00000000000E+00  0.13775457112E+04  0.13775457149E+04  0.10100000352E+00 0. -1.
        3   -1    0    0  501    0  0.00000000000E+00  0.00000000000E+00 -0.77737948953E+03  0.77737949609E+03  0.10100000352E+00 0.  1.
    10030    2    1    2    0    0  0.00000000000E+00  0.00000000000E+00  0.60016622165E+03  0.21549252110E+04  0.20696625743E+04 0.  0.
        2    1    3    3  502    0  0.59502895609E+03  0.82324315419E+03  0.50593225498E+03  0.11347934597E+04  0.25500000920E-02 0. -1.
       -2    1    3    3    0  502 -0.59502895609E+03 -0.82324315419E+03  0.94233966670E+02  0.10201317513E+04  0.25500000920E-02 0.  1.
</event>
<event>
 5   0  0.5954140E-05  0.1883577E+04  0.7818609E-02  0.8663075E-01
       -2   -1    0    0    0  501  0.00000000000E+00  0.00000000000E+00  0.31880101349E+03  0.31880101350E+03  0.25500000920E-02 0.  1.
        2   -1    0    0  501    0  0.00000000000E+00  0.00000000000E+00 -0.27821911780E+04  0.27821911780E+04  0.25500000920E-02 0. -1.
    10030    2    1    2    0    0  0.00000000000E+00  0.00000000000E+00 -0.24633901646E+04  0.31009921916E+04  0.18835767755E+04 0.  0.
        2    1    3    3  502    0 -0.41297808219E+02 -0.11780989376E+03  0.30511892714E+03  0.32966989510E+03  0.25500000920E-02 0.  1.
       -2    1    3    3    0  502  0.41297808219E+02  0.11780989376E+03 -0.27685090917E+04  0.27713222965E+04  0.25500000920E-02 0. -1.
</event>
<event>
 5   0  0.2602060E-05  0.2130348E+04  0.7818609E-02  0.8547991E-01
       -1   -1    0    0    0  501  0.00000000000E+00  0.00000000000E+00  0.38992796265E+03  0.38992796268E+03  0.50400001928E-02 0. -1.
        1   -1    0    0  501    0  0.00000000000E+00  0.00000000000E+00 -0.29097566827E+04  0.29097566827E+04  0.50400001928E-02 0.  1.
    10030    2    1    2    0    0  0.00000000000E+00  0.00000000000E+00 -0.25198287200E+04  0.32996846454E+04  0.21303478544E+04 0.  0.
        1    1    3    3  502    0 -0.89944345384E+03 -0.26857504469E+03 -0.20397092940E+04  0.22453385236E+04  0.50400001928E-02 0.  1.
       -1    1    3    3    0  502  0.89944345384E+03  0.26857504469E+03 -0.48011942600E+03  0.10543461218E+04  0.50400001928E-02 0. -1.
</event>
<event>
 5   0  0.5506332E-05  0.2158905E+04  0.7818609E-02  0.8535730E-01
       -2   -1    0    0    0  501  0.00000000000E+00  0.00000000000E+00  0.95807553919E+03  0.95807553920E+03  0.25500000920E-02 0. -1.
        2   -1    0    0  501    0  0.00000000000E+00  0.00000000000E+00 -0.12162059863E+04  0.12162059863E+04  0.25500000920E-02 0.  1.
    10030    2    1    2    0    0  0.00000000000E+00  0.00000000000E+00 -0.25813044715E+03  0.21742815255E+04  0.21589045427E+04 0.  0.
        3    1    3    3  502    0 -0.95311165024E+03  0.25858441050E+03 -0.56797830628E+03  0.11392484724E+04  0.10100000352E+00 0. -1.
       -3    1    3    3    0  502  0.95311165024E+03 -0.25858441050E+03  0.30984785913E+03  0.10350330532E+04  0.10100000352E+00 0.  1.
</event>
<event>
 5   0  0.2699285E-05  0.2094236E+04  0.7818609E-02  0.8563787E-01
        1   -1    0    0  501    0  0.00000000000E+00  0.00000000000E+00  0.29213281873E+04  0.29213281873E+04  0.50400001928E-02 0.  1.
       -1   -1    0    0    0  501  0.00000000000E+00  0.00000000000E+00 -0.37532799673E+03  0.37532799677E+03  0.50400001928E-02 0. -1.
    10030    2    1    2    0    0  0.00000000000E+00  0.00000000000E+00  0.25460001905E+04  0.32966561840E+04  0.20942361437E+04 0.  0.
        2    1    3    3  502    0 -0.87262992872E+03  0.37997587689E+03  0.19602265664E+04  0.21790715572E+04  0.25500000920E-02 0.  1.
       -2    1    3    3    0  502  0.87262992872E+03 -0.37997587689E+03  0.58577362410E+03  0.11175846269E+04  0.25500000920E-02 0. -1.
</event>
<event>
 5   0  0.2732159E-05  0.2096620E+04  0.7818609E-02  0.8562734E-01
        1   -1    0    0  501    0  0.00000000000E+00  0.00000000000E+00  0.99641945792E+03  0.99641945793E+03  0.50400001928E-02 0.  1.
       -1   -1    0    0    0  501  0.00000000000E+00  0.00000000000E+00 -0.11029027252E+04  0.11029027252E+04  0.50400001928E-02 0. -1.
    10030    2    1    2    0    0  0.00000000000E+00  0.00000000000E+00 -0.10648326728E+03  0.20993221831E+04  0.20966198851E+04 0.  0.
        3    1    3    3  502    0 -0.53934342327E+03 -0.63993752660E+03  0.57887415510E+03  0.10175984787E+04  0.10100000352E+00 0.  1.
       -3    1    3    3    0  502  0.53934342327E+03  0.63993752660E+03 -0.68535742238E+03  0.10817237045E+04  0.10100000352E+00 0. -1.
</event>
<event>
 5   0  0.2604390E-05  0.2098769E+04  0.7818609E-02  0.8561786E-01
       -1   -1    0    0    0  501  0.00000000000E+00  0.00000000000E+00  0.73928323485E+03  0.73928323487E+03  0.50400001928E-02 0.  1.
        1   -1    0    0  501    0  0.00000000000E+00  0.00000000000E+00 -0.14895616881E+04  0.14895616881E+04  0.50400001928E-02 0. -1.
    10030    2    1    2    0    0  0.00000000000E+00  0.00000000000E+00 -0.75027845328E+03  0.22288449230E+04  0.20987691472E+04 0.  0.
        5    1    3    3  502    0 -0.49352006032E+03 -0.21191773588E+03  0.58224053652E+03  0.79214727740E+03  0.46999998093E+01 0.  1.
       -5    1    3    3    0  502  0.49352006032E+03  0.21191773588E+03 -0.13325189898E+04  0.14366976456E+04  0.46999998093E+01 0. -1.
</event>
<event>
 5   0  0.2699285E-05  0.2034242E+04  0.7818609E-02  0.8590776E-01
        1   -1    0    0  501    0  0.00000000000E+00  0.00000000000E+00  0.13818426373E+04  0.13818426373E+04  0.50400001928E-02 0.  1.
       -1   -1    0    0    0  501  0.00000000000E+00  0.00000000000E+00 -0.74866380278E+03  0.74866380279E+03  0.50400001928E-02 0. -1.
    10030    2    1    2    0    0  0.00000000000E+00  0.00000000000E+00  0.63317883454E+03  0.21305064401E+04  0.20342424278E+04 0.  0.
        2    1    3    3  502    0 -0.56145927329E+03  0.69125859934E+03  0.83122910906E+03  0.12182022814E+04  0.25500000920E-02 0.  1.
       -2    1    3    3    0  502  0.56145927329E+03 -0.69125859934E+03 -0.19805027452E+03  0.91230415869E+03  0.25500000920E-02 0. -1.
</event>
<event>
 5   0  0.5967046E-05  0.2096969E+04  0.7818609E-02  0.8562580E-01
        2   -1    0    0  501    0  0.00000000000E+00  0.00000000000E+00  0.65383171778E+03  0.65383171778E+03  0.25500000920E-02 0.  1.
       -2   -1    0    0    0  501  0.00000000000E+00  0.00000000000E+00 -0.16813496433E+04  0.16813496433E+04  0.25500000920E-02 0. -1.
    10030    2    1    2    0    0  0.00000000000E+00  0.00000000000E+00 -0.10275179255E+04  0.23351813611E+04  0.20969689797E+04 0.  0.
        4    1    3    3  502    0 -0.34352801691E+03 -0.32128639848E+03 -0.15572676376E+04  0.16267515349E+04  0.12699999809E+01 0. -1.
       -4    1    3    3    0  502  0.34352801691E+03  0.32128639848E+03  0.52974971209E+03  0.70842982618E+03  0.12699999809E+01 0.  1.
</event>
<event>
 5   0  0.2789662E-05  0.2050760E+04  0.7818609E-02  0.8583250E-01
        1   -1    0    0  501    0  0.00000000000E+00  0.00000000000E+00  0.19174720123E+04  0.19174720123E+04  0.50400001928E-02 0.  1.
       -1   -1    0    0    0  501  0.00000000000E+00  0.00000000000E+00 -0.54832818589E+03  0.54832818591E+03  0.50400001928E-02 0. -1.
    10030    2    1    2    0    0  0.00000000000E+00  0.00000000000E+00  0.13691438264E+04  0.24658001982E+04  0.20507598104E+04 0.  0.
        4    1    3    3  502    0 -0.56251698943E+03  0.14580287103E+02  0.17152359803E+04  0.18051797776E+04  0.12699999809E+01 0.  1.
       -4    1    3    3    0  502  0.56251698943E+03 -0.14580287103E+02 -0.34609215398E+03  0.66062042060E+03  0.12699999809E+01 0. -1.
</event>
<event>
 5   0  0.2604390E-05  0.2100286E+04  0.7818609E-02  0.8561118E-01
       -1   -1    0    0    0  501  0.00000000000E+00  0.00000000000E+00  0.66776799445E+03  0.66776799447E+03  0.50400001928E-02 0. -1.
        1   -1    0    0  501    0  0.00000000000E+00  0.00000000000E+00 -0.16514718898E+04  0.16514718898E+04  0.50400001928E-02 0.  1.
    10030    2    1    2    0    0  0.00000000000E+00  0.00000000000E+00 -0.98370389533E+03  0.23192398843E+04  0.21002857632E+04 0.  0.
        5    1    3    3  502    0  0.59028974006E+03  0.43955687886E+03  0.33532302130E+03  0.80877428593E+03  0.46999998093E+01 0. -1.
       -5    1    3    3    0  502 -0.59028974006E+03 -0.43955687886E+03 -0.13190269166E+04  0.15104655983E+04  0.46999998093E+01 0.  1.
</event>
<event>
 5   0  0.2699285E-05  0.2099863E+04  0.7818609E-02  0.8561304E-01
       -1   -1    0    0    0  501  0.00000000000E+00  0.00000000000E+00  0.64545969898E+03  0.64545969900E+03  0.50400001928E-02 0. -1.
        1   -1    0    0  501    0  0.00000000000E+00  0.00000000000E+00 -0.17078625058E+04  0.17078625058E+04  0.50400001928E-02 0.  1.
    10030    2    1    2    0    0  0.00000000000E+00  0.00000000000E+00 -0.10624028068E+04  0.23533222048E+04  0.20998632516E+04 0.  0.
        2    1    3    3  502    0 -0.53191191126E+03  0.72575573785E+03  0.75123298396E+02  0.90293697583E+03  0.25500000920E-02 0. -1.
       -2    1    3    3    0  502  0.53191191126E+03 -0.72575573785E+03 -0.11375261052E+04  0.14503852289E+04  0.25500000920E-02 0.  1.
</event>
<event>
 5   0  0.5462851E-05  0.2110333E+04  0.7818609E-02  0.8556705E-01
        2   -1    0    0  501    0  0.00000000000E+00  0.00000000000E+00  0.95491218399E+03  0.95491218399E+03  0.25500000920E-02 0.  1.
       -2   -1    0    0    0  501  0.00000000000E+00  0.00000000000E+00 -0.11659467228E+04  0.11659467228E+04  0.25500000920E-02 0. -1.
    10030    2    1    2    0    0  0.00000000000E+00  0.00000000000E+00 -0.21103453880E+03  0.21208589068E+04  0.21103333684E+04 0.  0.
        1    1    3    3  502    0  0.10179459076E+04 -0.26809476946E+03 -0.17859898026E+03  0.10677013964E+04  0.50400001928E-02 0. -1.
       -1    1    3    3    0  502 -0.10179459076E+04  0.26809476946E+03 -0.32435558544E+02  0.10531575104E+04  0.50400001928E-02 0.  1.
</event>
<event>
 5   0  0.5506332E-05  0.2080777E+04  0.7818609E-02  0.8569759E-01
        2   -1    0    0  501    0  0.00000000000E+00  0.00000000000E+00  0.18301759747E+04  0.18301759747E+04  0.25500000920E-02 0.  1.
       -2   -1    0    0    0  501  0.00000000000E+00  0.00000000000E+00 -0.59142316522E+03  0.59142316523E+03  0.25500000920E-02 0. -1.
    10030    2    1    2    0    0  0.00000000000E+00  0.00000000000E+00  0.12387528095E+04  0.24215991400E+04  0.20807772278E+04 0.  0.
        3    1    3    3  502    0  0.42746667927E+03 -0.36308949642E+02  0.17224447966E+04  0.17750668126E+04  0.10100000352E+00 0.  1.
       -3    1    3    3    0  502 -0.42746667927E+03  0.36308949642E+02 -0.48369198710E+03  0.64653232734E+03  0.10100000352E+00 0. -1.
</event>
<event>
 5   0  0.5506332E-05  0.2106680E+04  0.7818609E-02  0.8558306E-01
       -2   -1    0    0    0  501  0.00000000000E+00  0.00000000000E+00  0.15070912971E+04  0.15070912971E+04  0.25500000920E-02 0.  1.
        2   -1    0    0  501    0  0.00000000000E+00  0.00000000000E+00 -0.73620326127E+03  0.73620326128E+03  0.25500000920E-02 0. -1.
    10030    2    1    2    0    0  0.00000000000E+00  0.00000000000E+00  0.77088803581E+03  0.22432945584E+04  0.21066803535E+04 0.  0.
        3    1    3    3  502    0 -0.46082035759E+03  0.22346024942E+03  0.13655877436E+04  0.14584648713E+04  0.10100000352E+00 0.  1.
       -3    1    3    3    0  502  0.46082035759E+03 -0.22346024942E+03 -0.59469970781E+03  0.78482968708E+03  0.10100000352E+00 0. -1.
</event>
<event>
 5   0  0.2789662E-05  0.2072913E+04  0.7818609E-02  0.8573270E-01
       -1   -1    0    0    0  501  0.00000000000E+00  0.00000000000E+00  0.95559859457E+03  0.95559859458E+03  0.50400001928E-02 0.  1.
        1   -1    0    0  501    0  0.00000000000E+00  0.00000000000E+00 -0.11241558839E+04  0.11241558839E+04  0.50400001928E-02 0. -1.
    10030    2    1    2    0    0  0.00000000000E+00  0.00000000000E+00 -0.16855728929E+03  0.20797544785E+04  0.20729127167E+04 0.  0.
        4    1    3    3  502    0 -0.33362910781E+03  0.53847951392E+03  0.73877742368E+03  0.97317124039E+03  0.12699999809E+01 0.  1.
       -4    1    3    3    0  502  0.33362910781E+03 -0.53847951392E+03 -0.90733471297E+03  0.11065832381E+04  0.12699999809E+01 0. -1.
</event>
<event>
 5   0  0.5462851E-05  0.2108015E+04  0.7818609E-02  0.8557721E-01
       -2   -1    0    0    0  501  0.00000000000E+00  0.00000000000E+00  0.47978916888E+03  0.47978916889E+03  0.25500000920E-02 0.  1.
        2   -1    0    0  501    0  0.00000000000E+00  0.00000000000E+00 -0.23154591635E+04  0.23154591635E+04  0.25500000920E-02 0. -1.
    10030    2    1    2    0    0  0.00000000000E+00  0.00000000000E+00 -0.18356699946E+04  0.27952483324E+04  0.21080153962E+04 0.  0.
        1    1    3    3  502    0  0.12702595605E+03  0.98713258775E+03 -0.45779209863E+03  0.10955089890E+04  0.50400001928E-02 0. -1.
       -1    1    3    3    0  502 -0.12702595605E+03 -0.98713258775E+03 -0.13778778959E+04  0.16997393434E+04  0.50400001928E-02 0.  1.
</event>
<event>
 5   0  0.2699285E-05  0.2099185E+04  0.7818609E-02  0.8561603E-01
        1   -1    0    0  501    0  0.00000000000E+00  0.00000000000E+00  0.11633756049E+04  0.11633756049E+04  0.50400001928E-02 0.  1.
       -1   -1    0    0    0  501  0.00000000000E+00  0.00000000000E+00 -0.94693745472E+03  0.94693745473E+03  0.50400001928E-02 0. -1.
    10030    2    1    2    0    0  0.00000000000E+00  0.00000000000E+00  0.21643815018E+03  0.21103130596E+04  0.20991845409E+04 0.  0.
        2    1    3    3  502    0 -0.17465416947E+03 -0.46161251756E+03 -0.82300353302E+03  0.95964837866E+03  0.25500000920E-02 0. -1.
       -2    1    3    3    0  502  0.17465416947E+03  0.46161251756E+03  0.10394416832E+04  0.11506646810E+04  0.25500000920E-02 0.  1.
</event>
<event>
 5   0  0.2732159E-05  0.2088144E+04  0.7818609E-02  0.8566484E-01
       -1   -1    0    0    0  501  0.00000000000E+00  0.00000000000E+00  0.47026514858E+03  0.47026514861E+03  0.50400001928E-02 0.  1.
        1   -1    0    0  501    0  0.00000000000E+00  0.00000000000E+00 -0.23180249998E+04  0.23180249998E+04  0.50400001928E-02 0. -1.
    10030    2    1    2    0    0  0.00000000000E+00  0.00000000000E+00 -0.18477598512E+04  0.27882901484E+04  0.20881440285E+04 0.  0.
        3    1    3    3  502    0 -0.65453435273E+02 -0.13505653350E+03 -0.23035462219E+04  0.23084301215E+04  0.10100000352E+00 0. -1.
       -3    1    3    3    0  502  0.65453435273E+02  0.13505653350E+03  0.45578637071E+03  0.47986002684E+03  0.10100000352E+00 0.  1.
</event>
<event>
 5   0  0.2604390E-05  0.2101130E+04  0.7818609E-02  0.8560746E-01
       -1   -1    0    0    0  501  0.00000000000E+00  0.00000000000E+00  0.71220513699E+03  0.71220513701E+03  0.50400001928E-02 0.  1.
        1   -1    0    0  501    0  0.00000000000E+00  0.00000000000E+00 -0.15496751719E+04  0.15496751720E+04  0.50400001928E-02 0. -1.
    10030    2    1    2    0    0  0.00000000000E+00  0.00000000000E+00 -0.83747003495E+03  0.22618803090E+04  0.21011298086E+04 0.  0.
        5    1    3    3  502    0  0.64407185750E+03 -0.69736311827E+03  0.65717697283E+02  0.95156964122E+03  0.46999998093E+01 0.  1.
       -5    1    3    3    0  502 -0.64407185750E+03  0.69736311827E+03 -0.90318773223E+03  0.13103106677E+04  0.46999998093E+01 0. -1.
</event>
<event>
 5   0  0.5954140E-05  0.2099278E+04  0.7818609E-02  0.8561562E-01
       -2   -1    0    0    0  501  0.00000000000E+00  0.00000000000E+00  0.65639066261E+03  0.65639066261E+03  0.25500000920E-02 0.  1.
        2   -1    0    0  501    0  0.00000000000E+00  0.00000000000E+00 -0.16784848034E+04  0.16784848034E+04  0.25500000920E-02 0. -1.
    10030    2    1    2    0    0  0.00000000000E+00  0.00000000000E+00 -0.10220941408E+04  0.23348754660E+04  0.20992777351E+04 0.  0.
        2    1    3    3  502    0  0.10857950531E+03  0.59358377878E+03 -0.14662758075E+04  0.15855900968E+04  0.25500000920E-02 0. -1.
       -2    1    3    3    0  502 -0.10857950531E+03 -0.59358377878E+03  0.44418166674E+03  0.74928536919E+03  0.25500000920E-02 0.  1.
</event>
<event>
 5   0  0.5462851E-05  0.2093993E+04  0.7818609E-02  0.8563894E-01
       -2   -1    0    0    0  501  0.00000000000E+00  0.00000000000E+00  0.46301197214E+03  0.46301197215E+03  0.25500000920E-02 0. -1.
        2   -1    0    0  501    0  0.00000000000E+00  0.00000000000E+00 -0.23675445839E+04  0.23675445839E+04  0.25500000920E-02 0.  1.
    10030    2    1    2    0    0  0.00000000000E+00  0.00000000000E+00 -0.19045326117E+04  0.28305565560E+04  0.20939928242E+04 0.  0.
        1    1    3    3  502    0 -0.30789602237E+03 -0.99887528165E+03 -0.10339292651E+04  0.14702249876E+04  0.50400001928E-02 0.  1.
       -1    1    3    3    0  502  0.30789602237E+03  0.99887528165E+03 -0.87060334666E+03  0.13603315684E+04  0.50400001928E-02 0. -1.
</event>
<event>
 5   0  0.5866610E-05  0.2096749E+04  0.7818609E-02  0.8562677E-01
       -2   -1    0    0    0  501  0.00000000000E+00  0.00000000000E+00  0.94369877712E+03  0.94369877713E+03  0.25500000920E-02 0.  1.
        2   -1    0    0  501    0  0.00000000000E+00  0.00000000000E+00 -0.11646609414E+04  0.11646609414E+04  0.25500000920E-02 0. -1.
    10030    2    1    2    0    0  0.00000000000E+00  0.00000000000E+00 -0.22096216426E+03  0.21083597185E+04  0.20967490133E+04 0.  0.
        5    1    3    3  502    0 -0.57062690447E+03 -0.81704238713E+03  0.21673399257E+03  0.10198867780E+04  0.46999998093E+01 0.  1.
       -5    1    3    3    0  502  0.57062690447E+03  0.81704238713E+03 -0.43769615683E+03  0.10884729405E+04  0.46999998093E+01 0. -1.
</event>
<event>
 5   0  0.2699285E-05  0.2096142E+04  0.7818609E-02  0.8562945E-01
       -1   -1    0    0    0  501  0.00000000000E+00  0.00000000000E+00  0.85711705071E+03  0.85711705072E+03  0.50400001928E-02 0. -1.
        1   -1    0    0  501    0  0.00000000000E+00  0.00000000000E+00 -0.12815674178E+04  0.12815674178E+04  0.50400001928E-02 0.  1.
    10030    2    1    2    0    0  0.00000000000E+00  0.00000000000E+00 -0.42445036706E+03  0.21386844685E+04  0.20961424431E+04 0.  0.
        2    1    3    3  502    0  0.99658719684E+03  0.12150763533E+03  0.94717824718E+02  0.10084253134E+04  0.25500000920E-02 0. -1.
       -2    1    3    3    0  502 -0.99658719684E+03 -0.12150763533E+03 -0.51916819178E+03  0.11302591551E+04  0.25500000920E-02 0.  1.
</event>
<event>
 5   0  0.5967046E-05  0.2088310E+04  0.7818609E-02  0.8566411E-01
        2   -1    0    0  501    0  0.00000000000E+00  0.00000000000E+00  0.60536580504E+03  0.60536580504E+03  0.25500000920E-02 0. -1.
       -2   -1    0    0    0  501  0.00000000000E+00  0.00000000000E+00 -0.18009925856E+04  0.18009925856E+04  0.25500000920E-02 0.  1.
    10030    2    1    2    0    0  0.00000000000E+00  0.00000000000E+00 -0.11956267806E+04  0.24063583906E+04  0.20883096767E+04 0.  0.
        4    1    3    3  502    0  0.66340362197E+03 -0.47126346470E+03 -0.13517239204E+04  0.15777682937E+04  0.12699999809E+01 0.  1.
       -4    1    3    3    0  502 -0.66340362197E+03  0.47126346470E+03  0.15609713980E+03  0.82859009695E+03  0.12699999809E+01 0. -1.
</event>
<event>
 5   0  0.5462851E-05  0.2124033E+04  0.7818609E-02  0.8550730E-01
        2   -1    0    0  501    0  0.00000000000E+00  0.00000000000E+00  0.16059587582E+04  0.16059587582E+04  0.25500000920E-02 0. -1.
       -2   -1    0    0    0  501  0.00000000000E+00  0.00000000000E+00 -0.70230887465E+03  0.70230887466E+03  0.25500000920E-02 0.  1.
    10030    2    1    2    0    0  0.00000000000E+00  0.00000000000E+00  0.90364988351E+03  0.23082676328E+04  0.21240330395E+04 0.  0.
        1    1    3    3  502    0  0.53600166104E+03  0.90564579594E+03  0.29665715936E+03  0.10933881098E+04  0.50400001928E-02 0. -1.
       -1    1    3    3    0  502 -0.53600166104E+03 -0.90564579594E+03  0.60699272415E+03  0.12148795231E+04  0.50400001928E-02 0.  1.
</event>
<event>
 5   0  0.2602060E-05  0.2111410E+04  0.7818609E-02  0.8556234E-01
        1   -1    0    0  501    0  0.00000000000E+00  0.00000000000E+00  0.25261516810E+04  0.25261516811E+04  0.50400001928E-02 0. -1.
       -1   -1    0    0    0  501  0.00000000000E+00  0.00000000000E+00 -0.44119008406E+03  0.44119008408E+03  0.50400001928E-02 0.  1.
    10030    2    1    2    0    0  0.00000000000E+00  0.00000000000E+00  0.20849615970E+04  0.29673417651E+04  0.21114100242E+04 0.  0.
        1    1    3    3  502    0 -0.76982578484E+03 -0.59767716514E+03  0.16127677701E+04  0.18843751253E+04  0.50400001928E-02 0. -1.
       -1    1    3    3    0  502  0.76982578484E+03  0.59767716514E+03  0.47219382692E+03  0.10829666398E+04  0.50400001928E-02 0.  1.
</event>
<event>
 5   0  0.2604390E-05  0.2092984E+04  0.7818609E-02  0.8564340E-01
        1   -1    0    0  501    0  0.00000000000E+00  0.00000000000E+00  0.19121559172E+04  0.19121559172E+04  0.50400001928E-02 0.  1.
       -1   -1    0    0    0  501  0.00000000000E+00  0.00000000000E+00 -0.57272833325E+03  0.57272833327E+03  0.50400001928E-02 0. -1.
    10030    2    1    2    0    0  0.00000000000E+00  0.00000000000E+00  0.13394275839E+04  0.24848842504E+04  0.20929843491E+04 0.  0.
        5    1    3    3  502    0  0.59768724950E+03 -0.43384086668E+03  0.15499383991E+04  0.17169097462E+04  0.46999998093E+01 0.  1.
       -5    1    3    3    0  502 -0.59768724950E+03  0.43384086668E+03 -0.21051081515E+03  0.76797450420E+03  0.46999998093E+01 0. -1.
</event>
<event>
 5   0  0.5866610E-05  0.2025877E+04  0.7818609E-02  0.8594617E-01
        2   -1    0    0  501    0  0.00000000000E+00  0.00000000000E+00  0.13292774110E+04  0.13292774110E+04  0.25500000920E-02 0. -1.
       -2   -1    0    0    0  501  0.00000000000E+00  0.00000000000E+00 -0.77188094769E+03  0.77188094769E+03  0.25500000920E-02 0.  1.
    10030    2    1    2    0    0  0.00000000000E+00  0.00000000000E+00  0.55739646334E+03  0.21011583587E+04  0.20258765093E+04 0.  0.
        5    1    3    3  502    0 -0.39405646218E+03 -0.16405010963E+03  0.12314351845E+04  0.13033217705E+04  0.46999998093E+01 0. -1.
       -5    1    3    3    0  502  0.39405646218E+03  0.16405010963E+03 -0.67403872116E+03  0.79783658821E+03  0.46999998093E+01 0.  1.
</event>
<event>
 5   0  0.5866610E-05  0.2108388E+04  0.7818609E-02  0.8557557E-01
       -2   -1    0    0    0  501  0.00000000000E+00  0.00000000000E+00  0.62432825292E+03  0.62432825292E+03  0.25500000920E-02 0. -1.
        2   -1    0    0  501    0  0.00000000000E+00  0.00000000000E+00 -0.17800331510E+04  0.17800331510E+04  0.25500000920E-02 0.  1.
    10030    2    1    2    0    0  0.00000000000E+00  0.00000000000E+00 -0.11557048981E+04  0.24043614039E+04  0.21083879978E+04 0.  0.
        5    1    3    3  502    0 -0.33182565151E+03 -0.65470300035E+03 -0.14407499071E+04  0.16169498033E+04  0.46999998093E+01 0.  1.
       -5    1    3    3    0  502  0.33182565151E+03  0.65470300035E+03  0.28504500898E+03  0.78741160063E+03  0.46999998093E+01 0. -1.
</event>
<event>
 5   0  0.5866610E-05  0.2099470E+04  0.7818609E-02  0.8561477E-01
       -2   -1    0    0    0  501  0.00000000000E+00  0.00000000000E+00  0.84574685834E+03  0.84574685834E+03  0.25500000920E-02 0. -1.
        2   -1    0    0  501    0  0.00000000000E+00  0.00000000000E+00 -0.13029233050E+04  0.13029233050E+04  0.25500000920E-02 0.  1.
    10030    2    1    2    0    0  0.00000000000E+00  0.00000000000E+00 -0.45717644670E+03  0.21486701634E+04  0.20994697349E+04 0.  0.
        5    1    3    3  502    0 -0.79305088112E+03 -0.60883079634E+03  0.98777426136E+02  0.10046808989E+04  0.46999998093E+01 0. -1.
       -5    1    3    3    0  502  0.79305088112E+03  0.60883079634E+03 -0.55595387283E+03  0.11439892645E+04  0.46999998093E+01 0.  1.
</event>
<event>
 5   0  0.5967046E-05  0.2102448E+04  0.7818609E-02  0.8560166E-01
        2   -1    0    0  501    0  0.00000000000E+00  0.00000000000E+00  0.17356794698E+04  0.17356794698E+04  0.25500000920E-02 0. -1.
       -2   -1    0    0    0  501  0.00000000000E+00  0.00000000000E+00 -0.63667986460E+03  0.63667986460E+03  0.25500000920E-02 0.  1.
    10030    2    1    2    0    0  0.00000000000E+00  0.00000000000E+00  0.10989996052E+04  0.23723593344E+04  0.21024482584E+04 0.  0.
        4    1    3    3  502    0  0.86758047375E+02  0.46190061139E+03  0.16105313660E+04  0.16777043921E+04  0.12699999809E+01 0. -1.
       -4    1    3    3    0  502 -0.86758047375E+02 -0.46190061139E+03 -0.51153176081E+03  0.69465494226E+03  0.12699999809E+01 0.  1.
</event>
<event>
 5   0  0.5967046E-05  0.2095707E+04  0.7818609E-02  0.8563137E-01
        2   -1    0    0  501    0  0.00000000000E+00  0.00000000000E+00  0.13579766197E+04  0.13579766197E+04  0.25500000920E-02 0. -1.
       -2   -1    0    0    0  501  0.00000000000E+00  0.00000000000E+00 -0.80855371949E+03  0.80855371949E+03  0.25500000920E-02 0.  1.
    10030    2    1    2    0    0  0.00000000000E+00  0.00000000000E+00  0.54942290021E+03  0.21665303392E+04  0.20957070853E+04 0.  0.
        4    1    3    3  502    0 -0.72338239788E+03 -0.24751197687E+02 -0.50858875207E+03  0.88462356231E+03  0.12699999809E+01 0.  1.
       -4    1    3    3    0  502  0.72338239788E+03  0.24751197687E+02  0.10580116523E+04  0.12819067769E+04  0.12699999809E+01 0. -1.
</event>
<event>
 5   0  0.2604390E-05  0.2100538E+04  0.7818609E-02  0.8561007E-01
       -1   -1    0    0    0  501  0.00000000000E+00  0.00000000000E+00  0.61163425205E+03  0.61163425207E+03  0.50400001928E-02 0. -1.
        1   -1    0    0  501    0  0.00000000000E+00  0.00000000000E+00 -0.18034710903E+04  0.18034710903E+04  0.50400001928E-02 0.  1.
    10030    2    1    2    0    0  0.00000000000E+00  0.00000000000E+00 -0.11918368382E+04  0.24151053423E+04  0.21005377325E+04 0.  0.
        5    1    3    3  502    0  0.56684351258E+01 -0.84611437141E+03 -0.13112669749E+04  0.15605719561E+04  0.46999998093E+01 0.  1.
       -5    1    3    3    0  502 -0.56684351258E+01  0.84611437141E+03  0.11943013668E+03  0.85453338625E+03  0.46999998093E+01 0. -1.
</event>
<event>
 5   0  0.5506332E-05  0.2274166E+04  0.7818609E-02  0.8488177E-01
        2   -1    0    0  501    0  0.00000000000E+00  0.00000000000E+00  0.11996740980E+04  0.11996740980E+04  0.25500000920E-02 0.  1.
       -2   -1    0    0    0  501  0.00000000000E+00  0.00000000000E+00 -0.10777575453E+04  0.10777575453E+04  0.25500000920E-02 0. -1.
    10030    2    1    2    0    0  0.00000000000E+00  0.00000000000E+00  0.12191655268E+03  0.22774316433E+04  0.22741660547E+04 0.  0.
        3    1    3    3  502    0  0.99596641311E+03  0.15080785089E+03 -0.46730815449E+03  0.11104364121E+04  0.10100000352E+00 0. -1.
       -3    1    3    3    0  502 -0.99596641311E+03 -0.15080785089E+03  0.58922470717E+03  0.11669952312E+04  0.10100000352E+00 0.  1.
</event>
<event>
 5   0  0.5967046E-05  0.2070187E+04  0.7818609E-02  0.8574491E-01
        2   -1    0    0  501    0  0.00000000000E+00  0.00000000000E+00  0.80759663247E+03  0.80759663247E+03  0.25500000920E-02 0.  1.
       -2   -1    0    0    0  501  0.00000000000E+00  0.00000000000E+00 -0.13266752774E+04  0.13266752774E+04  0.25500000920E-02 0. -1.
    10030    2    1    2    0    0  0.00000000000E+00  0.00000000000E+00 -0.51907864496E+03  0.21342719099E+04  0.20701869350E+04 0.  0.
        4    1    3    3  502    0 -0.12171893554E+03 -0.87347831929E+03 -0.81819674619E+03  0.12030076483E+04  0.12699999809E+01 0. -1.
       -4    1    3    3    0  502  0.12171893554E+03  0.87347831929E+03  0.29911810123E+03  0.93126426159E+03  0.12699999809E+01 0.  1.
</event>
<event>
 5   0  0.2732159E-05  0.2115243E+04  0.7818609E-02  0.8554558E-01
        1   -1    0    0  501    0  0.00000000000E+00  0.00000000000E+00  0.11354748972E+04  0.11354748972E+04  0.50400001928E-02 0. -1.
       -1   -1    0    0    0  501  0.00000000000E+00  0.00000000000E+00 -0.98510638723E+03  0.98510638725E+03  0.50400001928E-02 0.  1.
    10030    2    1    2    0    0  0.00000000000E+00  0.00000000000E+00  0.15036850998E+03  0.21205812845E+04  0.21152433182E+04 0.  0.
        3    1    3    3  502    0 -0.55705370390E+02  0.98492253915E+03  0.45744435916E+03  0.10873963621E+04  0.10100000352E+00 0. -1.
       -3    1    3    3    0  502  0.55705370390E+02 -0.98492253915E+03 -0.30707584919E+03  0.10331849223E+04  0.10100000352E+00 0.  1.
</event>
<event>
 5   0  0.5866610E-05  0.2101674E+04  0.7818609E-02  0.8560506E-01
       -2   -1    0    0    0  501  0.00000000000E+00  0.00000000000E+00  0.17750942654E+04  0.17750942654E+04  0.25500000920E-02 0. -1.
        2   -1    0    0  501    0  0.00000000000E+00  0.00000000000E+00 -0.62208440663E+03  0.62208440664E+03  0.25500000920E-02 0.  1.
    10030    2    1    2    0    0  0.00000000000E+00  0.00000000000E+00  0.11530098588E+04  0.23971786721E+04  0.21016740593E+04 0.  0.
        5    1    3    3  502    0  0.33348620371E+03 -0.97443587799E+03  0.33861836854E+03  0.10841691832E+04  0.46999998093E+01 0.  1.
       -5    1    3    3    0  502 -0.33348620371E+03  0.97443587799E+03  0.81439149027E+03  0.13130094888E+04  0.46999998093E+01 0. -1.
</event>
<event>
 5   0  0.5954140E-05  0.2096043E+04  0.7818609E-02  0.8562988E-01
       -2   -1    0    0    0  501  0.00000000000E+00  0.00000000000E+00  0.88831666732E+03  0.88831666732E+03  0.25500000920E-02 0. -1.
        2   -1    0    0  501    0  0.00000000000E+00  0.00000000000E+00 -0.12364389870E+04  0.12364389870E+04  0.25500000920E-02 0.  1.
    10030    2    1    2    0    0  0.00000000000E+00  0.00000000000E+00 -0.34812231963E+03  0.21247556543E+04  0.20960432822E+04 0.  0.
        2    1    3    3  502    0  0.94494024769E+03 -0.34471182291E+02  0.28406885351E+03  0.98731729836E+03  0.25500000920E-02 0. -1.
       -2    1    3    3    0  502 -0.94494024769E+03  0.34471182291E+02 -0.63219117314E+03  0.11374383559E+04  0.25500000920E-02 0.  1.
</event>
<event>
 5   0  0.2602060E-05  0.2106646E+04  0.7818609E-02  0.8558321E-01
        1   -1    0    0  501    0  0.00000000000E+00  0.00000000000E+00  0.15484628099E+04  0.15484628099E+04  0.50400001928E-02 0. -1.
       -1   -1    0    0    0  501  0.00000000000E+00  0.00000000000E+00 -0.71651043396E+03  0.71651043398E+03  0.50400001928E-02 0.  1.
    10030    2    1    2    0    0  0.00000000000E+00  0.00000000000E+00  0.83195237591E+03  0.22649732439E+04  0.21066463964E+04 0.  0.
        1    1    3    3  502    0  0.74779376819E+03  0.18902254974E+03  0.11872195386E+04  0.14157737379E+04  0.50400001928E-02 0. -1.
       -1    1    3    3    0  502 -0.74779376819E+03 -0.18902254974E+03 -0.35526716268E+03  0.84919950598E+03  0.50400001928E-02 0.  1.
</event>
<event>
 5   0  0.5866610E-05  0.2099850E+04  0.7818609E-02  0.8561309E-01
       -2   -1    0    0    0  501  0.00000000000E+00  0.00000000000E+00  0.45221903833E+03  0.45221903834E+03  0.25500000920E-02 0. -1.
        2   -1    0    0  501    0  0.00000000000E+00  0.00000000000E+00 -0.24376297617E+04  0.24376297617E+04  0.25500000920E-02 0.  1.
    10030    2    1    2    0    0  0.00000000000E+00  0.00000000000E+00 -0.19854107234E+04  0.28898488000E+04  0.20998500772E+04 0.  0.
        5    1    3    3  502    0  0.32816041100E+02  0.99915681532E+03 -0.14342313411E+04  0.17482656731E+04  0.46999998093E+01 0.  1.
       -5    1    3    3    0  502 -0.32816041100E+02 -0.99915681532E+03 -0.55117938230E+03  0.11415831269E+04  0.46999998093E+01 0. -1.
</event>
<event>
 5   0  0.2017750E-05  0.2093787E+04  0.7818609E-02  0.8563985E-01
        4   -1    0    0  501    0  0.00000000000E+00  0.00000000000E+00  0.12055275220E+04  0.12055281909E+04  0.12699999809E+01 0.  1.
       -4   -1    0    0    0  501  0.00000000000E+00  0.00000000000E+00 -0.90913284964E+03  0.90913373669E+03  0.12699999809E+01 0. -1.
    10030    2    1    2    0    0  0.00000000000E+00  0.00000000000E+00  0.29639467234E+03  0.21146619276E+04  0.20937873021E+04 0.  0.
        4    1    3    3  502    0  0.63216997874E+02  0.27883415401E+03 -0.86893793678E+03  0.91476752518E+03  0.12699999809E+01 0. -1.
       -4    1    3    3    0  502 -0.63216997874E+02 -0.27883415401E+03  0.11653326091E+04  0.11998944025E+04  0.12699999809E+01 0.  1.
</event>
<event>
 5   0  0.5506332E-05  0.2091123E+04  0.7818609E-02  0.8565164E-01
       -2   -1    0    0    0  501  0.00000000000E+00  0.00000000000E+00  0.55632867857E+03  0.55632867858E+03  0.25500000920E-02 0. -1.
        2   -1    0    0  501    0  0.00000000000E+00  0.00000000000E+00 -0.19650235953E+04  0.19650235953E+04  0.25500000920E-02 0.  1.
    10030    2    1    2    0    0  0.00000000000E+00  0.00000000000E+00 -0.14086949168E+04  0.25213522739E+04  0.20911231242E+04 0.  0.
        3    1    3    3  502    0 -0.42070582612E+02  0.58804763294E+03  0.33680738510E+03  0.67897656615E+03  0.10100000352E+00 0. -1.
       -3    1    3    3    0  502  0.42070582612E+02 -0.58804763294E+03 -0.17455023019E+04  0.18423757078E+04  0.10100000352E+00 0.  1.
</event>
<event>
 5   0  0.2699285E-05  0.2101274E+04  0.7818609E-02  0.8560682E-01
        1   -1    0    0  501    0  0.00000000000E+00  0.00000000000E+00  0.17710482887E+04  0.17710482887E+04  0.50400001928E-02 0.  1.
       -1   -1    0    0    0  501  0.00000000000E+00  0.00000000000E+00 -0.62326825369E+03  0.62326825371E+03  0.50400001928E-02 0. -1.
    10030    2    1    2    0    0  0.00000000000E+00  0.00000000000E+00  0.11477800350E+04  0.23943165424E+04  0.21012740651E+04 0.  0.
        2    1    3    3  502    0 -0.51594372635E+03  0.40391761039E+03 -0.36191826356E+03  0.74855340107E+03  0.25500000920E-02 0. -1.
       -2    1    3    3    0  502  0.51594372635E+03 -0.40391761039E+03  0.15096982986E+04  0.16457631414E+04  0.25500000920E-02 0.  1.
</event>
<event>
 5   0  0.2604390E-05  0.2085802E+04  0.7818609E-02  0.8567524E-01
        1   -1    0    0  501    0  0.00000000000E+00  0.00000000000E+00  0.28499970370E+04  0.28499970370E+04  0.50400001928E-02 0. -1.
       -1   -1    0    0    0  501  0.00000000000E+00  0.00000000000E+00 -0.38162917783E+03  0.38162917787E+03  0.50400001928E-02 0.  1.
    10030    2    1    2    0    0  0.00000000000E+00  0.00000000000E+00  0.24683678592E+04  0.32316262149E+04  0.20858015496E+04 0.  0.
        5    1    3    3  502    0 -0.24939523197E+03 -0.20034901711E+03 -0.30371735900E+03  0.44113947289E+03  0.46999998093E+01 0.  1.
       -5    1    3    3    0  502  0.24939523197E+03  0.20034901711E+03  0.27720852182E+04  0.27904867420E+04  0.46999998093E+01 0. -1.
</event>
<event>
 5   0  0.5954140E-05  0.2108640E+04  0.7818609E-02  0.8557447E-01
       -2   -1    0    0    0  501  0.00000000000E+00  0.00000000000E+00  0.90072360140E+03  0.90072360140E+03  0.25500000920E-02 0.  1.
        2   -1    0    0  501    0  0.00000000000E+00  0.00000000000E+00 -0.12341083485E+04  0.12341083485E+04  0.25500000920E-02 0. -1.
    10030    2    1    2    0    0  0.00000000000E+00  0.00000000000E+00 -0.33338474714E+03  0.21348319499E+04  0.21086398613E+04 0.  0.
        2    1    3    3  502    0 -0.58373406799E+03  0.32394363751E+03  0.65947417566E+03  0.93839817284E+03  0.25500000920E-02 0.  1.
       -2    1    3    3    0  502  0.58373406799E+03 -0.32394363751E+03 -0.99285892280E+03  0.11964337771E+04  0.25500000920E-02 0. -1.
</event>
<event>
 5   0  0.5462851E-05  0.2122545E+04  0.7818609E-02  0.8551376E-01
        2   -1    0    0  501    0  0.00000000000E+00  0.00000000000E+00  0.50898370965E+03  0.50898370966E+03  0.25500000920E-02 0.  1.
       -2   -1    0    0    0  501  0.00000000000E+00  0.00000000000E+00 -0.22128406148E+04  0.22128406148E+04  0.25500000920E-02 0. -1.
    10030    2    1    2    0    0  0.00000000000E+00  0.00000000000E+00 -0.17038569051E+04  0.27218243244E+04  0.21225454765E+04 0.  0.
        1    1    3    3  502    0  0.97564616661E+03  0.49391832451E+02 -0.13837127761E+04  0.16938081480E+04  0.50400001928E-02 0.  1.
       -1    1    3    3    0  502 -0.97564616661E+03 -0.49391832451E+02 -0.32014412898E+03  0.10280161764E+04  0.50400001928E-02 0. -1.
</event>
<event>
 5   0  0.2789662E-05  0.2106687E+04  0.7818609E-02  0.8558303E-01
       -1   -1    0    0    0  501  0.00000000000E+00  0.00000000000E+00  0.82198679531E+03  0.82198679532E+03  0.50400001928E-02 0. -1.
        1   -1    0    0  501    0  0.00000000000E+00  0.00000000000E+00 -0.13498185525E+04  0.13498185525E+04  0.50400001928E-02 0.  1.
    10030    2    1    2    0    0  0.00000000000E+00  0.00000000000E+00 -0.52783175718E+03  0.21718053478E+04  0.21066874721E+04 0.  0.
        4    1    3    3  502    0  0.55279568789E+03  0.19852105851E+03 -0.11653214686E+04  0.13049787053E+04  0.12699999809E+01 0.  1.
       -4    1    3    3    0  502 -0.55279568789E+03 -0.19852105851E+03  0.63748971138E+03  0.86682664255E+03  0.12699999809E+01 0. -1.
</event>
<event>
 5   0  0.2732159E-05  0.2100421E+04  0.7818609E-02  0.8561058E-01
       -1   -1    0    0    0  501  0.00000000000E+00  0.00000000000E+00  0.14610118386E+04  0.14610118387E+04  0.50400001928E-02 0.  1.
        1   -1    0    0  501    0  0.00000000000E+00  0.00000000000E+00 -0.75491692225E+03  0.75491692227E+03  0.50400001928E-02 0. -1.
    10030    2    1    2    0    0  0.00000000000E+00  0.00000000000E+00  0.70609491639E+03  0.22159287609E+04  0.21004214440E+04 0.  0.
        3    1    3    3  502    0 -0.45966806612E+03  0.48113989404E+03 -0.50413129052E+03  0.83482854343E+03  0.10100000352E+00 0. -1.
       -3    1    3    3    0  502  0.45966806612E+03 -0.48113989404E+03  0.12102262069E+04  0.13811002175E+04  0.10100000352E+00 0.  1.
</event>
<event>
 5   0  0.5954140E-05  0.2079426E+04  0.7818609E-02  0.8570361E-01
        2   -1    0    0  501    0  0.00000000000E+00  0.00000000000E+00  0.23636985551E+04  0.23636985551E+04  0.25500000920E-02 0. -1.
       -2   -1    0    0    0  501  0.00000000000E+00  0.00000000000E+00 -0.45733544694E+03  0.45733544694E+03  0.25500000920E-02 0.  1.
    10030    2    1    2    0    0  0.00000000000E+00  0.00000000000E+00  0.19063631081E+04  0.28210340020E+04  0.20794260123E+04 0.  0.
        2    1    3    3  502    0  0.58300728992E+03  0.55330529094E+03  0.18479052805E+04  0.20151422210E+04  0.25500000920E-02 0. -1.
       -2    1    3    3    0  502 -0.58300728992E+03 -0.55330529094E+03  0.58457827599E+02  0.80589178100E+03  0.25500000920E-02 0.  1.
</event>
<event>
 5   0  0.2732159E-05  0.2118132E+04  0.7818609E-02  0.8553298E-01
       -1   -1    0    0    0  501  0.00000000000E+00  0.00000000000E+00  0.62822689139E+03  0.62822689141E+03  0.50400001928E-02 0.  1.
        1   -1    0    0  501    0  0.00000000000E+00  0.00000000000E+00 -0.17853748685E+04  0.17853748685E+04  0.50400001928E-02 0. -1.
    10030    2    1    2    0    0  0.00000000000E+00  0.00000000000E+00 -0.11571479771E+04  0.24136017599E+04  0.21181317274E+04 0.  0.
        3    1    3    3  502    0 -0.89929634513E+03 -0.49949119386E+02  0.56270965236E+02  0.90243850905E+03  0.10100000352E+00 0.  1.
       -3    1    3    3    0  502  0.89929634513E+03  0.49949119386E+02 -0.12134189423E+04  0.15111632508E+04  0.10100000352E+00 0. -1.
</event>
<event>
 5   0  0.2602060E-05  0.2102101E+04  0.7818609E-02  0.8560319E-01
        1   -1    0    0  501    0  0.00000000000E+00  0.00000000000E+00  0.11789042038E+04  0.11789042038E+04  0.50400001928E-02 0. -1.
       -1   -1    0    0    0  501  0.00000000000E+00  0.00000000000E+00 -0.93706227546E+03  0.93706227547E+03  0.50400001928E-02 0.  1.
    10030    2    1    2    0    0  0.00000000000E+00  0.00000000000E+00  0.24184192831E+03  0.21159664792E+04  0.21021005264E+04 0.  0.
        1    1    3    3  502    0  0.75225581673E+03 -0.66883349399E+03 -0.18353005284E+03  0.10231863647E+04  0.50400001928E-02 0.  1.
       -1    1    3    3    0  502 -0.75225581673E+03  0.66883349399E+03  0.42537198115E+03  0.10927801146E+04  0.50400001928E-02 0. -1.
</event>
<event>
 5   0  0.2699285E-05  0.2099958E+04  0.7818609E-02  0.8561262E-01
       -1   -1    0    0    0  501  0.00000000000E+00  0.00000000000E+00  0.12684173349E+04  0.12684173349E+04  0.50400001928E-02 0.  1.
        1   -1    0    0  501    0  0.00000000000E+00  0.00000000000E+00 -0.86915902202E+03  0.86915902203E+03  0.50400001928E-02 0. -1.
    10030    2    1    2    0    0  0.00000000000E+00  0.00000000000E+00  0.39925831284E+03  0.21375763569E+04  0.20999584475E+04 0.  0.
        2    1    3    3  502    0 -0.41388671461E+03 -0.10951933517E+03 -0.77627331289E+03  0.88650829304E+03  0.25500000920E-02 0. -1.
       -2    1    3    3    0  502  0.41388671461E+03  0.10951933517E+03  0.11755316257E+04  0.12510680639E+04  0.25500000920E-02 0.  1.
</event>
<event>
 5   0  0.5967046E-05  0.2073171E+04  0.7818609E-02  0.8573155E-01
        2   -1    0    0  501    0  0.00000000000E+00  0.00000000000E+00  0.89256139773E+03  0.89256139773E+03  0.25500000920E-02 0.  1.
       -2   -1    0    0    0  501  0.00000000000E+00  0.00000000000E+00 -0.12038494685E+04  0.12038494685E+04  0.25500000920E-02 0. -1.
    10030    2    1    2    0    0  0.00000000000E+00  0.00000000000E+00 -0.31128807080E+03  0.20964108663E+04  0.20731710632E+04 0.  0.
        4    1    3    3  502    0  0.67022720792E+03 -0.20570083448E+03 -0.92774135146E+03  0.11628512251E+04  0.12699999809E+01 0. -1.
       -4    1    3    3    0  502 -0.67022720792E+03  0.20570083448E+03  0.61645328065E+03  0.93355964120E+03  0.12699999809E+01 0.  1.
</event>
<event>
 5   0  0.2017750E-05  0.2098714E+04  0.7818609E-02  0.8561810E-01
        4   -1    0    0  501    0  0.00000000000E+00  0.00000000000E+00  0.21286381598E+04  0.21286385386E+04  0.12699999809E+01 0.  1.
       -4   -1    0    0    0  501  0.00000000000E+00  0.00000000000E+00 -0.51730118794E+03  0.51730274690E+03  0.12699999809E+01 0. -1.
    10030    2    1    2    0    0  0.00000000000E+00  0.00000000000E+00  0.16113369718E+04  0.26459412855E+04  0.20987135225E+04 0.  0.
        3    1    3    3  502    0 -0.44542829209E+03 -0.73427613173E+03  0.45468056809E+02  0.86002043895E+03  0.10100000352E+00 0. -1.
       -3    1    3    3    0  502  0.44542829209E+03  0.73427613173E+03  0.15658689150E+04  0.17859208466E+04  0.10100000352E+00 0.  1.
</event>
<event>
 5   0  0.5967046E-05  0.2116850E+04  0.7818609E-02  0.8553857E-01
       -2   -1    0    0    0  501  0.00000000000E+00  0.00000000000E+00  0.16648081990E+04  0.16648081990E+04  0.25500000920E-02 0. -1.
        2   -1    0    0  501    0  0.00000000000E+00  0.00000000000E+00 -0.67290825266E+03  0.67290825266E+03  0.25500000920E-02 0.  1.
    10030    2    1    2    0    0  0.00000000000E+00  0.00000000000E+00  0.99189994636E+03  0.23377164517E+04  0.21168497124E+04 0.  0.
        4    1    3    3  502    0  0.50247732383E+03  0.19827985134E+02 -0.53255820483E+03  0.73245918957E+03  0.12699999809E+01 0.  1.
       -4    1    3    3    0  502 -0.50247732383E+03 -0.19827985134E+02  0.15244581512E+04  0.16052572621E+04  0.12699999809E+01 0. -1.
</event>
<event>
 5   0  0.5462851E-05  0.2066734E+04  0.7818609E-02  0.8576041E-01
       -2   -1    0    0    0  501  0.00000000000E+00  0.00000000000E+00  0.10411904032E+04  0.10411904032E+04  0.25500000920E-02 0.  1.
        2   -1    0    0  501    0  0.00000000000E+00  0.00000000000E+00 -0.10256019197E+04  0.10256019197E+04  0.25500000920E-02 0. -1.
    10030    2    1    2    0    0  0.00000000000E+00  0.00000000000E+00  0.15588483408E+02  0.20667923229E+04  0.20667335351E+04 0.  0.
        1    1    3    3  502    0 -0.35749598674E+03 -0.72480976071E+03  0.65178018769E+03  0.10382533327E+04  0.50400001928E-02 0.  1.
       -1    1    3    3    0  502  0.35749598674E+03  0.72480976071E+03 -0.63619170429E+03  0.10285389902E+04  0.50400001928E-02 0. -1.
</event>
<event>
 5   0  0.2017750E-05  0.2050968E+04  0.7818609E-02  0.8583155E-01
        4   -1    0    0  501    0  0.00000000000E+00  0.00000000000E+00  0.12857743600E+04  0.12857749872E+04  0.12699999809E+01 0.  1.
       -4   -1    0    0    0  501  0.00000000000E+00  0.00000000000E+00 -0.81788508589E+03  0.81788607191E+03  0.12699999809E+01 0. -1.
    10030    2    1    2    0    0  0.00000000000E+00  0.00000000000E+00  0.46788927409E+03  0.21036610591E+04  0.20509679370E+04 0.  0.
        2    1    3    3  502    0  0.54658083145E+03  0.37618695748E+03 -0.56803234548E+03  0.87345748483E+03  0.25500000920E-02 0. -1.
       -2    1    3    3    0  502 -0.54658083145E+03 -0.37618695748E+03  0.10359216196E+04  0.12302035743E+04  0.25500000920E-02 0.  1.
</event>
<event>
 5   0  0.5506332E-05  0.2118604E+04  0.7818609E-02  0.8553092E-01
       -2   -1    0    0    0  501  0.00000000000E+00  0.00000000000E+00  0.59778974989E+03  0.59778974989E+03  0.25500000920E-02 0. -1.
        2   -1    0    0  501    0  0.00000000000E+00  0.00000000000E+00 -0.18771168743E+04  0.18771168743E+04  0.25500000920E-02 0.  1.
    10030    2    1    2    0    0  0.00000000000E+00  0.00000000000E+00 -0.12793271244E+04  0.24749066242E+04  0.21186044716E+04 0.  0.
        3    1    3    3  502    0  0.16171528037E+03  0.94944969968E+03 -0.11548745236E+04  0.15037758276E+04  0.10100000352E+00 0.  1.
       -3    1    3    3    0  502 -0.16171528037E+03 -0.94944969968E+03 -0.12445260082E+03  0.97113079663E+03  0.10100000352E+00 0. -1.
</event>
<event>
 5   0  0.5967046E-05  0.2110943E+04  0.7818609E-02  0.8556438E-01
        2   -1    0    0  501    0  0.00000000000E+00  0.00000000000E+00  0.83024257091E+03  0.83024257092E+03  0.25500000920E-02 0.  1.
       -2   -1    0    0    0  501  0.00000000000E+00  0.00000000000E+00 -0.13418013380E+04  0.13418013381E+04  0.25500000920E-02 0. -1.
    10030    2    1    2    0    0  0.00000000000E+00  0.00000000000E+00 -0.51155876714E+03  0.21720439090E+04  0.21109434787E+04 0.  0.
        4    1    3    3  502    0  0.45118444099E+03 -0.88832975606E+03 -0.61417398701E+03  0.11704308841E+04  0.12699999809E+01 0.  1.
       -4    1    3    3    0  502 -0.45118444099E+03  0.88832975606E+03  0.10261521988E+03  0.10016130248E+04  0.12699999809E+01 0. -1.
</event>
<event>
 5   0  0.2732159E-05  0.2121838E+04  0.7818609E-02  0.8551684E-01
       -1   -1    0    0    0  501  0.00000000000E+00  0.00000000000E+00  0.99670899246E+03  0.99670899247E+03  0.50400001928E-02 0.  1.
        1   -1    0    0  501    0  0.00000000000E+00  0.00000000000E+00 -0.11292654234E+04  0.11292654234E+04  0.50400001928E-02 0. -1.
    10030    2    1    2    0    0  0.00000000000E+00  0.00000000000E+00 -0.13255643097E+03  0.21259744159E+04  0.21218378849E+04 0.  0.
        3    1    3    3  502    0  0.67313502036E+02  0.91945867999E+03  0.45973441512E+03  0.10301898439E+04  0.10100000352E+00 0.  1.
       -3    1    3    3    0  502 -0.67313502036E+02 -0.91945867999E+03 -0.59229084609E+03  0.10957845720E+04  0.10100000352E+00 0. -1.
</event>
<event>
 5   0  0.2699285E-05  0.2083919E+04  0.7818609E-02  0.8568361E-01
       -1   -1    0    0    0  501  0.00000000000E+00  0.00000000000E+00  0.40326574282E+03  0.40326574285E+03  0.50400001928E-02 0.  1.
        1   -1    0    0  501    0  0.00000000000E+00  0.00000000000E+00 -0.26922176190E+04  0.26922176190E+04  0.50400001928E-02 0. -1.
    10030    2    1    2    0    0  0.00000000000E+00  0.00000000000E+00 -0.22889518762E+04  0.30954833618E+04  0.20839185570E+04 0.  0.
        2    1    3    3  502    0  0.24499219433E+03 -0.57443131647E+03  0.94476284424E+02  0.63159977909E+03  0.25500000920E-02 0.  1.
       -2    1    3    3    0  502 -0.24499219433E+03  0.57443131647E+03 -0.23834281606E+04  0.24638835827E+04  0.25500000920E-02 0. -1.
</event>
<event>
 5   0  0.2604390E-05  0.2090133E+04  0.7818609E-02  0.8565602E-01
       -1   -1    0    0    0  501  0.00000000000E+00  0.00000000000E+00  0.70927054665E+03  0.70927054666E+03  0.50400001928E-02 0. -1.
        1   -1    0    0  501    0  0.00000000000E+00  0.00000000000E+00 -0.15398417124E+04  0.15398417124E+04  0.50400001928E-02 0.  1.
    10030    2    1    2    0    0  0.00000000000E+00  0.00000000000E+00 -0.83057116574E+03  0.22491122591E+04  0.20901333672E+04 0.  0.
        5    1    3    3  502    0  0.73925228115E+02 -0.69485062193E+03 -0.12514761232E+04  0.14333516328E+04  0.46999998093E+01 0.  1.
       -5    1    3    3    0  502 -0.73925228115E+02  0.69485062193E+03  0.42090495750E+03  0.81576062628E+03  0.46999998093E+01 0. -1.
</event>
<event>
 5   0  0.5967046E-05  0.2104044E+04  0.7818609E-02  0.8559464E-01
        2   -1    0    0  501    0  0.00000000000E+00  0.00000000000E+00  0.15590034233E+04  0.15590034233E+04  0.25500000920E-02 0. -1.
       -2   -1    0    0    0  501  0.00000000000E+00  0.00000000000E+00 -0.70990892220E+03  0.70990892220E+03  0.25500000920E-02 0.  1.
    10030    2    1    2    0    0  0.00000000000E+00  0.00000000000E+00  0.84909450115E+03  0.22689123456E+04  0.21040441440E+04 0.  0.
        4    1    3    3  502    0 -0.81967297342E+03 -0.65088479475E+03  0.31025136000E+03  0.10916832502E+04  0.12699999809E+01 0. -1.
       -4    1    3    3    0  502  0.81967297342E+03  0.65088479475E+03  0.53884314114E+03  0.11772290954E+04  0.12699999809E+01 0.  1.
</event>
<event>
 5   0  0.2602060E-05  0.2095914E+04  0.7818609E-02  0.8563045E-01
       -1   -1    0    0    0  501  0.00000000000E+00  0.00000000000E+00  0.91021326355E+03  0.91021326356E+03  0.50400001928E-02 0.  1.
        1   -1    0    0  501    0  0.00000000000E+00  0.00000000000E+00 -0.12065460117E+04  0.12065460117E+04  0.50400001928E-02 0. -1.
    10030    2    1    2    0    0  0.00000000000E+00  0.00000000000E+00 -0.29633274811E+03  0.21167592752E+04  0.20959142949E+04 0.  0.
        1    1    3    3  502    0 -0.24892167129E+03 -0.25259176626E+03 -0.11441025303E+04  0.11978043240E+04  0.50400001928E-02 0. -1.
       -1    1    3    3    0  502  0.24892167129E+03  0.25259176626E+03  0.84776978216E+03  0.91895495122E+03  0.50400001928E-02 0.  1.
</event>
<event>
 5   0  0.2604390E-05  0.2080607E+04  0.7818609E-02  0.8569835E-01
       -1   -1    0    0    0  501  0.00000000000E+00  0.00000000000E+00  0.78179783995E+03  0.78179783997E+03  0.50400001928E-02 0. -1.
        1   -1    0    0  501    0  0.00000000000E+00  0.00000000000E+00 -0.13842852991E+04  0.13842852992E+04  0.50400001928E-02 0.  1.
    10030    2    1    2    0    0  0.00000000000E+00  0.00000000000E+00 -0.60248745919E+03  0.21660831391E+04  0.20806068891E+04 0.  0.
        5    1    3    3  502    0  0.25668921667E+03  0.51890021266E+03  0.59859260128E+03  0.83275565261E+03  0.46999998093E+01 0. -1.
       -5    1    3    3    0  502 -0.25668921667E+03 -0.51890021266E+03 -0.12010800605E+04  0.13333274865E+04  0.46999998093E+01 0.  1.
</event>
<event>
 5   0  0.2602060E-05  0.2090668E+04  0.7818609E-02  0.8565365E-01
        1   -1    0    0  501    0  0.00000000000E+00  0.00000000000E+00  0.12749135415E+04  0.12749135415E+04  0.50400001928E-02 0. -1.
       -1   -1    0    0    0  501  0.00000000000E+00  0.00000000000E+00 -0.85709565625E+03  0.85709565627E+03  0.50400001928E-02 0.  1.
    10030    2    1    2    0    0  0.00000000000E+00  0.00000000000E+00  0.41781788520E+03  0.21320091977E+04  0.20906677005E+04 0.  0.
        1    1    3    3  502    0 -0.19257860772E+03 -0.84186780633E+02  0.12531443471E+04  0.12706473503E+04  0.50400001928E-02 0. -1.
       -1    1    3    3    0  502  0.19257860772E+03  0.84186780633E+02 -0.83532646190E+03  0.86136184741E+03  0.50400001928E-02 0.  1.
</event>
<event>
 5   0  0.2699285E-05  0.2108878E+04  0.7818609E-02  0.8557343E-01
        1   -1    0    0  501    0  0.00000000000E+00  0.00000000000E+00  0.10298133215E+04  0.10298133215E+04  0.50400001928E-02 0.  1.
       -1   -1    0    0    0  501  0.00000000000E+00  0.00000000000E+00 -0.10796533240E+04  0.10796533241E+04  0.50400001928E-02 0. -1.
    10030    2    1    2    0    0  0.00000000000E+00  0.00000000000E+00 -0.49840002568E+02  0.21094666455E+04  0.21088777828E+04 0.  0.
        2    1    3    3  502    0  0.93026105749E+03  0.13858285173E+03  0.45192112745E+03  0.10434670801E+04  0.25500000920E-02 0. -1.
       -2    1    3    3    0  502 -0.93026105749E+03 -0.13858285173E+03 -0.50176113002E+03  0.10659995654E+04  0.25500000920E-02 0.  1.
</event>
<event>
 5   0  0.5866610E-05  0.2097477E+04  0.7818609E-02  0.8562356E-01
       -2   -1    0    0    0  501  0.00000000000E+00  0.00000000000E+00  0.93537630849E+03  0.93537630849E+03  0.25500000920E-02 0.  1.
        2   -1    0    0  501    0  0.00000000000E+00  0.00000000000E+00 -0.11758390564E+04  0.11758390564E+04  0.25500000920E-02 0. -1.
    10030    2    1    2    0    0  0.00000000000E+00  0.00000000000E+00 -0.24046274795E+03  0.21112153649E+04  0.20974765753E+04 0.  0.
        5    1    3    3  502    0 -0.83797525512E+02  0.89704643565E+03 -0.66051124204E+03  0.11171443612E+04  0.46999998093E+01 0. -1.
       -5    1    3    3    0  502  0.83797525512E+02 -0.89704643565E+03  0.42004849410E+03  0.99407100369E+03  0.46999998093E+01 0.  1.
</event>
<event>
 5   0  0.5967046E-05  0.2060543E+04  0.7818609E-02  0.8578826E-01
       -2   -1    0    0    0  501  0.00000000000E+00  0.00000000000E+00  0.10277809072E+04  0.10277809072E+04  0.25500000920E-02 0.  1.
        2   -1    0    0  501    0  0.00000000000E+00  0.00000000000E+00 -0.10327685848E+04  0.10327685848E+04  0.25500000920E-02 0. -1.
    10030    2    1    2    0    0  0.00000000000E+00  0.00000000000E+00 -0.49876776075E+01  0.20605494919E+04  0.20605434554E+04 0.  0.
        4    1    3    3  502    0  0.10254955436E+04 -0.96790401203E+02  0.18689432675E+02  0.10302234706E+04  0.12699999809E+01 0. -1.
       -4    1    3    3    0  502 -0.10254955436E+04  0.96790401203E+02 -0.23677110283E+02  0.10303260213E+04  0.12699999809E+01 0.  1.
</event>
<event>
 5   0  0.2732159E-05  0.2096624E+04  0.7818609E-02  0.8562732E-01
        1   -1    0    0  501    0  0.00000000000E+00  0.00000000000E+00  0.83064486222E+03  0.83064486223E+03  0.50400001928E-02 0.  1.
       -1   -1    0    0    0  501  0.00000000000E+00  0.00000000000E+00 -0.13230182295E+04  0.13230182295E+04  0.50400001928E-02 0. -1.
    10030    2    1    2    0    0  0.00000000000E+00  0.00000000000E+00 -0.49237336731E+03  0.21536630918E+04  0.20966242343E+04 0.  0.
        3    1    3    3  502    0 -0.20720188227E+03 -0.18712087883E+02 -0.13015995639E+04  0.13181214652E+04  0.10100000352E+00 0. -1.
       -3    1    3    3    0  502  0.20720188227E+03  0.18712087883E+02  0.80922619657E+03  0.83554162653E+03  0.10100000352E+00 0.  1.
</event>
<event>
 5   0  0.2699285E-05  0.2109312E+04  0.7818609E-02  0.8557152E-01
        1   -1    0    0  501    0  0.00000000000E+00  0.00000000000E+00  0.13187593468E+04  0.13187593468E+04  0.50400001928E-02 0. -1.
       -1   -1    0    0    0  501  0.00000000000E+00  0.00000000000E+00 -0.84344366208E+03  0.84344366210E+03  0.50400001928E-02 0.  1.
    10030    2    1    2    0    0  0.00000000000E+00  0.00000000000E+00  0.47531568470E+03  0.21622030089E+04  0.21093119379E+04 0.  0.
        2    1    3    3  502    0  0.12032219766E+03 -0.34745264075E+03  0.12509269860E+04  0.13038478029E+04  0.25500000920E-02 0. -1.
       -2    1    3    3    0  502 -0.12032219766E+03  0.34745264075E+03 -0.77561130134E+03  0.85835520595E+03  0.25500000920E-02 0.  1.
</event>
<event>
 5   0  0.5967046E-05  0.2099587E+04  0.7818609E-02  0.8561426E-01
       -2   -1    0    0    0  501  0.00000000000E+00  0.00000000000E+00  0.92457580764E+03  0.92457580764E+03  0.25500000920E-02 0.  1.
        2   -1    0    0  501    0  0.00000000000E+00  0.00000000000E+00 -0.11919691900E+04  0.11919691900E+04  0.25500000920E-02 0. -1.
    10030    2    1    2    0    0  0.00000000000E+00  0.00000000000E+00 -0.26739338237E+03  0.21165449977E+04  0.20995865084E+04 0.  0.
        4    1    3    3  502    0 -0.25046348988E+03 -0.10172734381E+04 -0.66170153944E+02  0.10497415443E+04  0.12699999809E+01 0. -1.
       -4    1    3    3    0  502  0.25046348988E+03  0.10172734381E+04 -0.20122322842E+03  0.10668034534E+04  0.12699999809E+01 0.  1.
</event>
<event>
 5   0  0.2602060E-05  0.2097502E+04  0.7818609E-02  0.8562345E-01
        1   -1    0    0  501    0  0.00000000000E+00  0.00000000000E+00  0.20636347696E+04  0.20636347696E+04  0.50400001928E-02 0. -1.
       -1   -1    0    0    0  501  0.00000000000E+00  0.00000000000E+00 -0.53298132839E+03  0.53298132841E+03  0.50400001928E-02 0.  1.
    10030    2    1    2    0    0  0.00000000000E+00  0.00000000000E+00  0.15306534412E+04  0.25966160980E+04  0.20975021343E+04 0.  0.
        1    1    3    3  502    0  0.60797998238E+03  0.43361791181E+03  0.16768986788E+04  0.18356615514E+04  0.50400001928E-02 0. -1.
       -1    1    3    3    0  502 -0.60797998238E+03 -0.43361791181E+03 -0.14624523758E+03  0.76095454658E+03  0.50400001928E-02 0.  1.
</event>
<event>
 5   0  0.5462851E-05  0.2103213E+04  0.7818609E-02  0.8559829E-01
       -2   -1    0    0    0  501  0.00000000000E+00  0.00000000000E+00  0.69265081255E+03  0.69265081255E+03  0.25500000920E-02 0. -1.
        2   -1    0    0  501    0  0.00000000000E+00  0.00000000000E+00 -0.15965855988E+04  0.15965855988E+04  0.25500000920E-02 0.  1.
    10030    2    1    2    0    0  0.00000000000E+00  0.00000000000E+00 -0.90393478621E+03  0.22892364113E+04  0.21032130774E+04 0.  0.
        1    1    3    3  502    0 -0.93683883255E+03  0.47657643071E+03 -0.41612755527E+03  0.11304663793E+04  0.50400001928E-02 0.  1.
       -1    1    3    3    0  502  0.93683883255E+03 -0.47657643071E+03 -0.48780723094E+03  0.11587700320E+04  0.50400001928E-02 0. -1.
</event>
<event>
 5   0  0.2602060E-05  0.2101316E+04  0.7818609E-02  0.8560664E-01
        1   -1    0    0  501    0  0.00000000000E+00  0.00000000000E+00  0.15372623423E+04  0.15372623423E+04  0.50400001928E-02 0.  1.
       -1   -1    0    0    0  501  0.00000000000E+00  0.00000000000E+00 -0.71808338862E+03  0.71808338864E+03  0.50400001928E-02 0. -1.
    10030    2    1    2    0    0  0.00000000000E+00  0.00000000000E+00  0.81917895365E+03  0.22553457309E+04  0.21013163036E+04 0.  0.
        1    1    3    3  502    0  0.73953491996E+03  0.15422955424E+03 -0.37412922223E+03  0.84301324319E+03  0.50400001928E-02 0. -1.
       -1    1    3    3    0  502 -0.73953491996E+03 -0.15422955424E+03  0.11933081759E+04  0.14123324877E+04  0.50400001928E-02 0.  1.
</event>
<event>
 5   0  0.2602060E-05  0.2114030E+04  0.7818609E-02  0.8555088E-01
        1   -1    0    0  501    0  0.00000000000E+00  0.00000000000E+00  0.12617911459E+04  0.12617911459E+04  0.50400001928E-02 0. -1.
       -1   -1    0    0    0  501  0.00000000000E+00  0.00000000000E+00 -0.88547168525E+03  0.88547168526E+03  0.50400001928E-02 0.  1.
    10030    2    1    2    0    0  0.00000000000E+00  0.00000000000E+00  0.37631946063E+03  0.21472628311E+04  0.21140296426E+04 0.  0.
        1    1    3    3  502    0  0.53337344630E+02 -0.10537657691E+04  0.12381431885E+03  0.10623545331E+04  0.50400001928E-02 0. -1.
       -1    1    3    3    0  502 -0.53337344630E+02  0.10537657691E+04  0.25250514178E+03  0.10849082980E+04  0.50400001928E-02 0.  1.
</event>
<event>
 5   0  0.5506332E-05  0.2051412E+04  0.7818609E-02  0.8582954E-01
        2   -1    0    0  501    0  0.00000000000E+00  0.00000000000E+00  0.78242012629E+03  0.78242012629E+03  0.25500000920E-02 0.  1.
       -2   -1    0    0    0  501  0.00000000000E+00  0.00000000000E+00 -0.13446389250E+04  0.13446389250E+04  0.25500000920E-02 0. -1.
    10030    2    1    2    0    0  0.00000000000E+00  0.00000000000E+00 -0.56221879875E+03  0.21270590513E+04  0.20514117651E+04 0.  0.
        3    1    3    3  502    0 -0.31141566515E+02  0.33300413421E+03 -0.12865105275E+04  0.13292745759E+04  0.10100000352E+00 0. -1.
       -3    1    3    3    0  502  0.31141566515E+02 -0.33300413421E+03  0.72429172880E+03  0.79778447539E+03  0.10100000352E+00 0.  1.
</event>
<event>
 5   0  0.2017750E-05  0.2100030E+04  0.7818609E-02  0.8561230E-01
       -3   -1    0    0    0  501  0.00000000000E+00  0.00000000000E+00  0.11756371163E+04  0.11756371206E+04  0.10100000352E+00 0. -1.
        3   -1    0    0  501    0  0.00000000000E+00  0.00000000000E+00 -0.93781653552E+03  0.93781654096E+03  0.10100000352E+00 0.  1.
    10030    2    1    2    0    0  0.00000000000E+00  0.00000000000E+00  0.23782058074E+03  0.21134536616E+04  0.21000304167E+04 0.  0.
        2    1    3    3  502    0  0.10980967257E+03  0.20783295318E+03 -0.91099761530E+03  0.94083439335E+03  0.25500000920E-02 0.  1.
       -2    1    3    3    0  502 -0.10980967257E+03 -0.20783295318E+03  0.11488181960E+04  0.11726192682E+04  0.25500000920E-02 0. -1.
</event>
<event>
 5   0  0.5506332E-05  0.2103489E+04  0.7818609E-02  0.8559708E-01
       -2   -1    0    0    0  501  0.00000000000E+00  0.00000000000E+00  0.10590235119E+04  0.10590235119E+04  0.25500000920E-02 0.  1.
        2   -1    0    0  501    0  0.00000000000E+00  0.00000000000E+00 -0.10445154253E+04  0.10445154253E+04  0.25500000920E-02 0. -1.
    10030    2    1    2    0    0  0.00000000000E+00  0.00000000000E+00  0.14508086630E+02  0.21035389373E+04  0.21034889056E+04 0.  0.
        3    1    3    3  502    0  0.76924868732E+03  0.51358643545E+03 -0.49340925457E+03  0.10483163990E+04  0.10100000352E+00 0. -1.
       -3    1    3    3    0  502 -0.76924868732E+03 -0.51358643545E+03  0.50791734120E+03  0.10552225383E+04  0.10100000352E+00 0.  1.
</event>
<event>
 5   0  0.5967046E-05  0.2099055E+04  0.7818609E-02  0.8561660E-01
       -2   -1    0    0    0  501  0.00000000000E+00  0.00000000000E+00  0.11943281610E+04  0.11943281610E+04  0.25500000920E-02 0. -1.
        2   -1    0    0  501    0  0.00000000000E+00  0.00000000000E+00 -0.92228230671E+03  0.92228230671E+03  0.25500000920E-02 0.  1.
    10030    2    1    2    0    0  0.00000000000E+00  0.00000000000E+00  0.27204585433E+03  0.21166104678E+04  0.20990547695E+04 0.  0.
        4    1    3    3  502    0  0.94817034595E+03  0.44808341539E+03  0.17760330389E+03  0.10636495187E+04  0.12699999809E+01 0.  1.
       -4    1    3    3    0  502 -0.94817034595E+03 -0.44808341539E+03  0.94442550441E+02  0.10529609491E+04  0.12699999809E+01 0. -1.
</event>
<event>
 5   0  0.5506332E-05  0.2112411E+04  0.7818609E-02  0.8555796E-01
       -2   -1    0    0    0  501  0.00000000000E+00  0.00000000000E+00  0.13999267129E+04  0.13999267129E+04  0.25500000920E-02 0.  1.
        2   -1    0    0  501    0  0.00000000000E+00  0.00000000000E+00 -0.79687743936E+03  0.79687743936E+03  0.25500000920E-02 0. -1.
    10030    2    1    2    0    0  0.00000000000E+00  0.00000000000E+00  0.60304927357E+03  0.21968041523E+04  0.21124109584E+04 0.  0.
        3    1    3    3  502    0  0.10241530191E+04  0.20399367007E+03  0.13687314507E+03  0.10532032529E+04  0.10100000352E+00 0. -1.
       -3    1    3    3    0  502 -0.10241530191E+04 -0.20399367007E+03  0.46617612851E+03  0.11436008993E+04  0.10100000352E+00 0.  1.
</event>
<event>
 5   0  0.5462851E-05  0.2135268E+04  0.7818609E-02  0.8545865E-01
       -2   -1    0    0    0  501  0.00000000000E+00  0.00000000000E+00  0.18163243916E+04  0.18163243916E+04  0.25500000920E-02 0. -1.
        2   -1    0    0  501    0  0.00000000000E+00  0.00000000000E+00 -0.62755428538E+03  0.62755428539E+03  0.25500000920E-02 0.  1.
    10030    2    1    2    0    0  0.00000000000E+00  0.00000000000E+00  0.11887701062E+04  0.24438786770E+04  0.21352678105E+04 0.  0.
        1    1    3    3  502    0  0.58065211066E+03  0.61473162487E+02  0.16173840806E+04  0.17195543281E+04  0.50400001928E-02 0. -1.
       -1    1    3    3    0  502 -0.58065211066E+03 -0.61473162487E+02 -0.42861397435E+03  0.72432434886E+03  0.50400001928E-02 0.  1.
</event>
<event>
 5   0  0.2699285E-05  0.2097232E+04  0.7818609E-02  0.8562464E-01
       -1   -1    0    0    0  501  0.00000000000E+00  0.00000000000E+00  0.65055246537E+03  0.65055246539E+03  0.50400001928E-02 0. -1.
        1   -1    0    0  501    0  0.00000000000E+00  0.00000000000E+00 -0.16902486302E+04  0.16902486302E+04  0.50400001928E-02 0.  1.
    10030    2    1    2    0    0  0.00000000000E+00  0.00000000000E+00 -0.10396961648E+04  0.23408010956E+04  0.20972319027E+04 0.  0.
        2    1    3    3  502    0  0.64039738551E+02  0.34776932363E+03  0.58199640399E+03  0.68100249987E+03  0.25500000920E-02 0. -1.
       -2    1    3    3    0  502 -0.64039738551E+02 -0.34776932363E+03 -0.16216925688E+04  0.16597985957E+04  0.25500000920E-02 0.  1.
</event>
<event>
 5   0  0.2789662E-05  0.2102657E+04  0.7818609E-02  0.8560074E-01
       -1   -1    0    0    0  501  0.00000000000E+00  0.00000000000E+00  0.85907700828E+03  0.85907700830E+03  0.50400001928E-02 0. -1.
        1   -1    0    0  501    0  0.00000000000E+00  0.00000000000E+00 -0.12866038271E+04  0.12866038271E+04  0.50400001928E-02 0.  1.
    10030    2    1    2    0    0  0.00000000000E+00  0.00000000000E+00 -0.42752681885E+03  0.21456808354E+04  0.21026571444E+04 0.  0.
        4    1    3    3  502    0  0.94801159106E+03 -0.16527436384E+03 -0.64580394803E+03  0.11589244774E+04  0.12699999809E+01 0.  1.
       -4    1    3    3    0  502 -0.94801159106E+03  0.16527436384E+03  0.21827712917E+03  0.98675635804E+03  0.12699999809E+01 0. -1.
</event>
<event>
 5   0  0.5866610E-05  0.2159300E+04  0.7818609E-02  0.8535562E-01
       -2   -1    0    0    0  501  0.00000000000E+00  0.00000000000E+00  0.10596425986E+04  0.10596425986E+04  0.25500000920E-02 0. -1.
        2   -1    0    0  501    0  0.00000000000E+00  0.00000000000E+00 -0.11000347627E+04  0.11000347627E+04  0.25500000920E-02 0.  1.
    10030    2    1    2    0    0  0.00000000000E+00  0.00000000000E+00 -0.40392164056E+02  0.21596773613E+04  0.21592996036E+04 0.  0.
        5    1    3    3  502    0 -0.61011449613E+03  0.88592386534E+03 -0.11252046947E+03  0.10815654116E+04  0.46999998093E+01 0.  1.
       -5    1    3    3    0  502  0.61011449613E+03 -0.88592386534E+03  0.72128305418E+02  0.10781119497E+04  0.46999998093E+01 0. -1.
</event>
<event>
 5   0  0.2602060E-05  0.2102271E+04  0.7818609E-02  0.8560244E-01
       -1   -1    0    0    0  501  0.00000000000E+00  0.00000000000E+00  0.17120920497E+04  0.17120920497E+04  0.50400001928E-02 0.  1.
        1   -1    0    0  501    0  0.00000000000E+00  0.00000000000E+00 -0.64534257236E+03  0.64534257238E+03  0.50400001928E-02 0. -1.
    10030    2    1    2    0    0  0.00000000000E+00  0.00000000000E+00  0.10667494773E+04  0.23574346221E+04  0.21022710458E+04 0.  0.
        1    1    3    3  502    0  0.17969850440E+03 -0.45035809781E+03 -0.51243730659E+03  0.70548278643E+03  0.50400001928E-02 0. -1.
       -1    1    3    3    0  502 -0.17969850440E+03  0.45035809781E+03  0.15791867839E+04  0.16519518356E+04  0.50400001928E-02 0.  1.
</event>
<event>
 5   0  0.2789662E-05  0.2053702E+04  0.7818609E-02  0.8581917E-01
        1   -1    0    0  501    0  0.00000000000E+00  0.00000000000E+00  0.24675137217E+04  0.24675137217E+04  0.50400001928E-02 0. -1.
       -1   -1    0    0    0  501  0.00000000000E+00  0.00000000000E+00 -0.42732215375E+03  0.42732215378E+03  0.50400001928E-02 0.  1.
    10030    2    1    2    0    0  0.00000000000E+00  0.00000000000E+00  0.20401915679E+04  0.28948358755E+04  0.20537022939E+04 0.  0.
        4    1    3    3  502    0 -0.13696152242E+03 -0.76142750591E+03  0.19718331899E+04  0.21181732807E+04  0.12699999809E+01 0. -1.
       -4    1    3    3    0  502  0.13696152242E+03  0.76142750591E+03  0.68358378044E+02  0.77666259478E+03  0.12699999809E+01 0.  1.
</event>
<event>
 5   0  0.2604390E-05  0.2072897E+04  0.7818609E-02  0.8573277E-01
        1   -1    0    0  501    0  0.00000000000E+00  0.00000000000E+00  0.16875727243E+04  0.16875727243E+04  0.50400001928E-02 0.  1.
       -1   -1    0    0    0  501  0.00000000000E+00  0.00000000000E+00 -0.63655051148E+03  0.63655051150E+03  0.50400001928E-02 0. -1.
    10030    2    1    2    0    0  0.00000000000E+00  0.00000000000E+00  0.10510222129E+04  0.23241232358E+04  0.20728967952E+04 0.  0.
        5    1    3    3  502    0 -0.68048997827E+03 -0.63938692017E+03  0.10298261192E+04  0.13901245160E+04  0.46999998093E+01 0. -1.
       -5    1    3    3    0  502  0.68048997827E+03  0.63938692017E+03  0.21196093620E+02  0.93399871980E+03  0.46999998093E+01 0.  1.
</event>
<event>
 5   0  0.5967046E-05  0.2160050E+04  0.7818609E-02  0.8535243E-01
       -2   -1    0    0    0  501  0.00000000000E+00  0.00000000000E+00  0.50501968050E+03  0.50501968051E+03  0.25500000920E-02 0.  1.
        2   -1    0    0  501    0  0.00000000000E+00  0.00000000000E+00 -0.23097200961E+04  0.23097200961E+04  0.25500000920E-02 0. -1.
    10030    2    1    2    0    0  0.00000000000E+00  0.00000000000E+00 -0.18047004156E+04  0.28147397766E+04  0.21600500966E+04 0.  0.
        4    1    3    3  502    0 -0.53535458254E+03 -0.36440943224E+03 -0.20286405127E+04  0.21295029246E+04  0.12699999809E+01 0. -1.
       -4    1    3    3    0  502  0.53535458254E+03  0.36440943224E+03  0.22394009709E+03  0.68523685199E+03  0.12699999809E+01 0.  1.
</event>
<event>
 5   0  0.2602060E-05  0.2100001E+04  0.7818609E-02  0.8561243E-01
       -1   -1    0    0    0  501  0.00000000000E+00  0.00000000000E+00  0.92677993951E+03  0.92677993952E+03  0.50400001928E-02 0.  1.
        1   -1    0    0  501    0  0.00000000000E+00  0.00000000000E+00 -0.11896041315E+04  0.11896041315E+04  0.50400001928E-02 0. -1.
    10030    2    1    2    0    0  0.00000000000E+00  0.00000000000E+00 -0.26282419198E+03  0.21163840710E+04  0.21000011857E+04 0.  0.
        1    1    3    3  502    0  0.16612291668E+03  0.74507773474E+02  0.91075052643E+03  0.92877056003E+03  0.50400001928E-02 0.  1.
       -1    1    3    3    0  502 -0.16612291668E+03 -0.74507773474E+02 -0.11735747184E+04  0.11876135110E+04  0.50400001928E-02 0. -1.
</event>
<event>
 5   0  0.5954140E-05  0.2096028E+04  0.7818609E-02  0.8562995E-01
        2   -1    0    0  501    0  0.00000000000E+00  0.00000000000E+00  0.17126647617E+04  0.17126647617E+04  0.25500000920E-02 0. -1.
       -2   -1    0    0    0  501  0.00000000000E+00  0.00000000000E+00 -0.64130111856E+03  0.64130111856E+03  0.25500000920E-02 0.  1.
    10030    2    1    2    0    0  0.00000000000E+00  0.00000000000E+00  0.10713636431E+04  0.23539658802E+04  0.20960284610E+04 0.  0.
        2    1    3    3  502    0 -0.96691083548E+03  0.38859576574E+03  0.41056973124E+03  0.11200405069E+04  0.25500000920E-02 0. -1.
       -2    1    3    3    0  502  0.96691083548E+03 -0.38859576574E+03  0.66079391188E+03  0.12339253733E+04  0.25500000920E-02 0.  1.
</event>
<event>
 5   0  0.5866610E-05  0.2100361E+04  0.7818609E-02  0.8561085E-01
       -2   -1    0    0    0  501  0.00000000000E+00  0.00000000000E+00  0.74848719929E+03  0.74848719930E+03  0.25500000920E-02 0. -1.
        2   -1    0    0  501    0  0.00000000000E+00  0.00000000000E+00 -0.14734770783E+04  0.14734770783E+04  0.25500000920E-02 0.  1.
    10030    2    1    2    0    0  0.00000000000E+00  0.00000000000E+00 -0.72498987901E+03  0.22219642776E+04  0.21003606658E+04 0.  0.
        5    1    3    3  502    0 -0.58868145792E+03 -0.28997346836E+03 -0.12298579633E+04  0.13939882249E+04  0.46999998093E+01 0.  1.
       -5    1    3    3    0  502  0.58868145792E+03  0.28997346836E+03  0.50486808432E+03  0.82797605268E+03  0.46999998093E+01 0. -1.
</event>
<event>
 5   0  0.2732159E-05  0.2114604E+04  0.7818609E-02  0.8554838E-01
        1   -1    0    0  501    0  0.00000000000E+00  0.00000000000E+00  0.12615062896E+04  0.12615062896E+04  0.50400001928E-02 0. -1.
       -1   -1    0    0    0  501  0.00000000000E+00  0.00000000000E+00 -0.88615258971E+03  0.88615258972E+03  0.50400001928E-02 0.  1.
    10030    2    1    2    0    0  0.00000000000E+00  0.00000000000E+00  0.37535369986E+03  0.21476588793E+04  0.21146035708E+04 0.  0.
        3    1    3    3  502    0  0.96878586278E+03 -0.22069838659E+03 -0.17940522037E+03  0.10096732487E+04  0.10100000352E+00 0.  1.
       -3    1    3    3    0  502 -0.96878586278E+03  0.22069838659E+03  0.55475892023E+03  0.11379856306E+04  0.10100000352E+00 0. -1.
</event>
<event>
 5   0  0.2604390E-05  0.2091599E+04  0.7818609E-02  0.8564953E-01
        1   -1    0    0  501    0  0.00000000000E+00  0.00000000000E+00  0.90918414501E+03  0.90918414503E+03  0.50400001928E-02 0. -1.
       -1   -1    0    0    0  501  0.00000000000E+00  0.00000000000E+00 -0.12029433710E+04  0.12029433710E+04  0.50400001928E-02 0.  1.
    10030    2    1    2    0    0  0.00000000000E+00  0.00000000000E+00 -0.29375922597E+03  0.21121275160E+04  0.20915994265E+04 0.  0.
        5    1    3    3  502    0 -0.21665572765E+03 -0.98055929381E+03  0.14794251266E+03  0.10150592643E+04  0.46999998093E+01 0. -1.
       -5    1    3    3    0  502  0.21665572765E+03  0.98055929381E+03 -0.44170173863E+03  0.10970682517E+04  0.46999998093E+01 0.  1.
</event>
<event>
 5   0  0.5954140E-05  0.2088517E+04  0.7818609E-02  0.8566318E-01
        2   -1    0    0  501    0  0.00000000000E+00  0.00000000000E+00  0.10693004108E+04  0.10693004108E+04  0.25500000920E-02 0. -1.
       -2   -1    0    0    0  501  0.00000000000E+00  0.00000000000E+00 -0.10198034553E+04  0.10198034553E+04  0.25500000920E-02 0.  1.
    10030    2    1    2    0    0  0.00000000000E+00  0.00000000000E+00  0.49496955486E+02  0.20891038660E+04  0.20885174202E+04 0.  0.
        2    1    3    3  502    0  0.82901995966E+03  0.63491990876E+03  0.33631825157E+02  0.10447624054E+04  0.25500000920E-02 0. -1.
       -2    1    3    3    0  502 -0.82901995966E+03 -0.63491990876E+03  0.15865130330E+02  0.10443414606E+04  0.25500000920E-02 0.  1.
</event>
<event>
 5   0  0.2789662E-05  0.2028001E+04  0.7818609E-02  0.8593640E-01
       -1   -1    0    0    0  501  0.00000000000E+00  0.00000000000E+00  0.77987157066E+03  0.77987157067E+03  0.50400001928E-02 0.  1.
        1   -1    0    0  501    0  0.00000000000E+00  0.00000000000E+00 -0.13184181689E+04  0.13184181689E+04  0.50400001928E-02 0. -1.
    10030    2    1    2    0    0  0.00000000000E+00  0.00000000000E+00 -0.53854659828E+03  0.20982897396E+04  0.20280008365E+04 0.  0.
        4    1    3    3  502    0  0.35275680893E+03  0.58628731619E+03 -0.10435586714E+04  0.12478727888E+04  0.12699999809E+01 0. -1.
       -4    1    3    3    0  502 -0.35275680893E+03 -0.58628731619E+03  0.50501207314E+03  0.85041695084E+03  0.12699999809E+01 0.  1.
</event>
<event>
 5   0  0.5506332E-05  0.2097048E+04  0.7818609E-02  0.8562545E-01
       -2   -1    0    0    0  501  0.00000000000E+00  0.00000000000E+00  0.79389513127E+03  0.79389513128E+03  0.25500000920E-02 0. -1.
        2   -1    0    0  501    0  0.00000000000E+00  0.00000000000E+00 -0.13848204325E+04  0.13848204325E+04  0.25500000920E-02 0.  1.
    10030    2    1    2    0    0  0.00000000000E+00  0.00000000000E+00 -0.59092530120E+03  0.21787155638E+04  0.20970476380E+04 0.  0.
        3    1    3    3  502    0 -0.97112949031E+02 -0.24726251845E+03 -0.13492781436E+04  0.13751804234E+04  0.10100000352E+00 0.  1.
       -3    1    3    3    0  502  0.97112949031E+02  0.24726251845E+03  0.75835284244E+03  0.80353514032E+03  0.10100000352E+00 0. -1.
</event>
<event>
 5   0  0.5866610E-05  0.2120252E+04  0.7818609E-02  0.8552375E-01
        2   -1    0    0  501    0  0.00000000000E+00  0.00000000000E+00  0.15874835897E+04  0.15874835897E+04  0.25500000920E-02 0.  1.
       -2   -1    0    0    0  501  0.00000000000E+00  0.00000000000E+00 -0.70795482679E+03  0.70795482679E+03  0.25500000920E-02 0. -1.
    10030    2    1    2    0    0  0.00000000000E+00  0.00000000000E+00  0.87952876287E+03  0.22954384165E+04  0.21202515603E+04 0.  0.
        5    1    3    3  502    0  0.14480303315E+03 -0.93407831586E+03 -0.79866946421E+02  0.94861532652E+03  0.46999998093E+01 0. -1.
       -5    1    3    3    0  502 -0.14480303315E+03  0.93407831586E+03  0.95939570929E+03  0.13468230899E+04  0.46999998093E+01 0.  1.
</event>
<event>
 5   0  0.5462851E-05  0.2141961E+04  0.7818609E-02  0.8542981E-01
        2   -1    0    0  501    0  0.00000000000E+00  0.00000000000E+00  0.11273546865E+04  0.11273546865E+04  0.25500000920E-02 0.  1.
       -2   -1    0    0    0  501  0.00000000000E+00  0.00000000000E+00 -0.10174256550E+04  0.10174256550E+04  0.25500000920E-02 0. -1.
    10030    2    1    2    0    0  0.00000000000E+00  0.00000000000E+00  0.10992903148E+03  0.21447803416E+04  0.21419613259E+04 0.  0.
        1    1    3    3  502    0  0.46222520172E+03  0.45163608017E+03 -0.80019242779E+03  0.10285597734E+04  0.50400001928E-02 0. -1.
       -1    1    3    3    0  502 -0.46222520172E+03 -0.45163608017E+03  0.91012145928E+03  0.11162205681E+04  0.50400001928E-02 0.  1.
</event>
<event>
 5   0  0.2602060E-05  0.2222577E+04  0.7818609E-02  0.8509090E-01
        1   -1    0    0  501    0  0.00000000000E+00  0.00000000000E+00  0.98856349228E+03  0.98856349230E+03  0.50400001928E-02 0.  1.
       -1   -1    0    0    0  501  0.00000000000E+00  0.00000000000E+00 -0.12492487770E+04  0.12492487770E+04  0.50400001928E-02 0. -1.
    10030    2    1    2    0    0  0.00000000000E+00  0.00000000000E+00 -0.26068528468E+03  0.22378122693E+04  0.22225766432E+04 0.  0.
        1    1    3    3  502    0  0.71075434765E+03  0.36193738582E+03  0.64877789539E+03  0.10281455011E+04  0.50400001928E-02 0.  1.
       -1    1    3    3    0  502 -0.71075434765E+03 -0.36193738582E+03 -0.90946318007E+03  0.12096667681E+04  0.50400001928E-02 0. -1.
</event>
<event>
 5   0  0.5462851E-05  0.2108861E+04  0.7818609E-02  0.8557350E-01
        2   -1    0    0  501    0  0.00000000000E+00  0.00000000000E+00  0.12802387640E+04  0.12802387640E+04  0.25500000920E-02 0. -1.
       -2   -1    0    0    0  501  0.00000000000E+00  0.00000000000E+00 -0.86845039528E+03  0.86845039528E+03  0.25500000920E-02 0.  1.
    10030    2    1    2    0    0  0.00000000000E+00  0.00000000000E+00  0.41178836869E+03  0.21486891593E+04  0.21088611719E+04 0.  0.
        1    1    3    3  502    0  0.71440957794E+03  0.77501040963E+03  0.17704548319E+03  0.10688158322E+04  0.50400001928E-02 0.  1.
       -1    1    3    3    0  502 -0.71440957794E+03 -0.77501040963E+03  0.23474288550E+03  0.10798733270E+04  0.50400001928E-02 0. -1.
</event>
<event>
 5   0  0.2602060E-05  0.2074645E+04  0.7818609E-02  0.8572495E-01
        1   -1    0    0  501    0  0.00000000000E+00  0.00000000000E+00  0.13161258052E+04  0.13161258052E+04  0.50400001928E-02 0. -1.
       -1   -1    0    0    0  501  0.00000000000E+00  0.00000000000E+00 -0.81758009515E+03  0.81758009516E+03  0.50400001928E-02 0.  1.
    10030    2    1    2    0    0  0.00000000000E+00  0.00000000000E+00  0.49854571007E+03  0.21337059004E+04  0.20746452816E+04 0.  0.
        1    1    3    3  502    0  0.56699491201E+03  0.17359120597E+03 -0.62608626012E+03  0.86232310775E+03  0.50400001928E-02 0.  1.
       -1    1    3    3    0  502 -0.56699491201E+03 -0.17359120597E+03  0.11246319702E+04  0.12713827926E+04  0.50400001928E-02 0. -1.
</event>
<event>
 5   0  0.5967046E-05  0.2105825E+04  0.7818609E-02  0.8558682E-01
       -2   -1    0    0    0  501  0.00000000000E+00  0.00000000000E+00  0.72459757269E+03  0.72459757269E+03  0.25500000920E-02 0.  1.
        2   -1    0    0  501    0  0.00000000000E+00  0.00000000000E+00 -0.15299862930E+04  0.15299862930E+04  0.25500000920E-02 0. -1.
    10030    2    1    2    0    0  0.00000000000E+00  0.00000000000E+00 -0.80538872030E+03  0.22545838657E+04  0.21058246405E+04 0.  0.
        4    1    3    3  502    0  0.17668138392E+03  0.36334136948E+03 -0.14436915906E+04  0.14991598594E+04  0.12699999809E+01 0. -1.
       -4    1    3    3    0  502 -0.17668138392E+03 -0.36334136948E+03  0.63830287031E+03  0.75542400633E+03  0.12699999809E+01 0.  1.
</event>
<event>
 5   0  0.2602060E-05  0.2041414E+04  0.7818609E-02  0.8587499E-01
        1   -1    0    0  501    0  0.00000000000E+00  0.00000000000E+00  0.13515053749E+04  0.13515053749E+04  0.50400001928E-02 0. -1.
       -1   -1    0    0    0  501  0.00000000000E+00  0.00000000000E+00 -0.77087614054E+03  0.77087614056E+03  0.50400001928E-02 0.  1.
    10030    2    1    2    0    0  0.00000000000E+00  0.00000000000E+00  0.58062923440E+03  0.21223815155E+04  0.20414144580E+04 0.  0.
        1    1    3    3  502    0 -0.79754178505E+03 -0.18827220584E+03 -0.34236399555E+03  0.88810609043E+03  0.50400001928E-02 0.  1.
       -1    1    3    3    0  502  0.79754178505E+03  0.18827220584E+03  0.92299322994E+03  0.12342754251E+04  0.50400001928E-02 0. -1.
</event>
<event>
 5   0  0.5866610E-05  0.2148142E+04  0.7818609E-02  0.8540328E-01
       -2   -1    0    0    0  501  0.00000000000E+00  0.00000000000E+00  0.99826200361E+03  0.99826200361E+03  0.25500000920E-02 0.  1.
        2   -1    0    0  501    0  0.00000000000E+00  0.00000000000E+00 -0.11556375172E+04  0.11556375172E+04  0.25500000920E-02 0. -1.
    10030    2    1    2    0    0  0.00000000000E+00  0.00000000000E+00 -0.15737551355E+03  0.21538995208E+04  0.21481424751E+04 0.  0.
        5    1    3    3  502    0  0.66893840065E+03 -0.76881693806E+03  0.26140981161E+03  0.10521003981E+04  0.46999998093E+01 0. -1.
       -5    1    3    3    0  502 -0.66893840065E+03  0.76881693806E+03 -0.41878532516E+03  0.11017991227E+04  0.46999998093E+01 0.  1.
</event>
<event>
 5   0  0.5866610E-05  0.2106232E+04  0.7818609E-02  0.8558503E-01
        2   -1    0    0  501    0  0.00000000000E+00  0.00000000000E+00  0.15109238045E+04  0.15109238046E+04  0.25500000920E-02 0. -1.
       -2   -1    0    0    0  501  0.00000000000E+00  0.00000000000E+00 -0.73402327530E+03  0.73402327531E+03  0.25500000920E-02 0.  1.
    10030    2    1    2    0    0  0.00000000000E+00  0.00000000000E+00  0.77690052925E+03  0.22449470799E+04  0.21062319338E+04 0.  0.
        5    1    3    3  502    0  0.12568667723E+03  0.90289243731E+03 -0.17355107764E+03  0.92798381491E+03  0.46999998093E+01 0.  1.
       -5    1    3    3    0  502 -0.12568667723E+03 -0.90289243731E+03  0.95045160689E+03  0.13169632649E+04  0.46999998093E+01 0. -1.
</event>
<event>
 5   0  0.5954140E-05  0.2101819E+04  0.7818609E-02  0.8560443E-01
        2   -1    0    0  501    0  0.00000000000E+00  0.00000000000E+00  0.97675421167E+03  0.97675421168E+03  0.25500000920E-02 0. -1.
       -2   -1    0    0    0  501  0.00000000000E+00  0.00000000000E+00 -0.11306945856E+04  0.11306945856E+04  0.25500000920E-02 0.  1.
    10030    2    1    2    0    0  0.00000000000E+00  0.00000000000E+00 -0.15394037390E+03  0.21074487973E+04  0.21018189252E+04 0.  0.
        2    1    3    3  502    0  0.32115100123E+03  0.11823042976E+03 -0.10732585280E+04  0.11264991203E+04  0.25500000920E-02 0.  1.
       -2    1    3    3    0  502 -0.32115100123E+03 -0.11823042976E+03  0.91931815414E+03  0.98094967692E+03  0.25500000920E-02 0. -1.
</event>
<event>
 5   0  0.5954140E-05  0.2098678E+04  0.7818609E-02  0.8561826E-01
       -2   -1    0    0    0  501  0.00000000000E+00  0.00000000000E+00  0.88618054454E+03  0.88618054454E+03  0.25500000920E-02 0. -1.
        2   -1    0    0  501    0  0.00000000000E+00  0.00000000000E+00 -0.12425375365E+04  0.12425375365E+04  0.25500000920E-02 0.  1.
    10030    2    1    2    0    0  0.00000000000E+00  0.00000000000E+00 -0.35635699197E+03  0.21287180811E+04  0.20986782419E+04 0.  0.
        2    1    3    3  502    0  0.35318992341E+03  0.28583994169E+03  0.78122768491E+03  0.90375012583E+03  0.25500000920E-02 0. -1.
       -2    1    3    3    0  502 -0.35318992341E+03 -0.28583994169E+03 -0.11375846769E+04  0.12249679552E+04  0.25500000920E-02 0.  1.
</event>
<event>
 5   0  0.5462851E-05  0.2100171E+04  0.7818609E-02  0.8561168E-01
       -2   -1    0    0    0  501  0.00000000000E+00  0.00000000000E+00  0.21588147039E+04  0.21588147039E+04  0.25500000920E-02 0. -1.
        2   -1    0    0  501    0  0.00000000000E+00  0.00000000000E+00 -0.51078031743E+03  0.51078031744E+03  0.25500000920E-02 0.  1.
    10030    2    1    2    0    0  0.00000000000E+00  0.00000000000E+00  0.16480343864E+04  0.26695950213E+04  0.21001714785E+04 0.  0.
        1    1    3    3  502    0 -0.14739385657E+03 -0.69869159141E+03 -0.15465960585E+03  0.73062608944E+03  0.50400001928E-02 0.  1.
       -1    1    3    3    0  502  0.14739385657E+03  0.69869159141E+03  0.18026939923E+04  0.19389689319E+04  0.50400001928E-02 0. -1.
</event>
<event>
 5   0  0.2604390E-05  0.2094919E+04  0.7818609E-02  0.8563485E-01
       -1   -1    0    0    0  501  0.00000000000E+00  0.00000000000E+00  0.81082676834E+03  0.81082676835E+03  0.50400001928E-02 0.  1.
        1   -1    0    0  501    0  0.00000000000E+00  0.00000000000E+00 -0.13531518223E+04  0.13531518223E+04  0.50400001928E-02 0. -1.
    10030    2    1    2    0    0  0.00000000000E+00  0.00000000000E+00 -0.54232505397E+03  0.21639785907E+04  0.20949193008E+04 0.  0.
        5    1    3    3  502    0 -0.80965346924E+03 -0.64918414210E+03 -0.12445660720E+03  0.10452226211E+04  0.46999998093E+01 0.  1.
       -5    1    3    3    0  502  0.80965346924E+03  0.64918414210E+03 -0.41786844677E+03  0.11187559696E+04  0.46999998093E+01 0. -1.
</event>
<event>
 5   0  0.2732159E-05  0.2075946E+04  0.7818609E-02  0.8571914E-01
        1   -1    0    0  501    0  0.00000000000E+00  0.00000000000E+00  0.13638689859E+04  0.13638689859E+04  0.50400001928E-02 0. -1.
       -1   -1    0    0    0  501  0.00000000000E+00  0.00000000000E+00 -0.78994989968E+03  0.78994989969E+03  0.50400001928E-02 0.  1.
    10030    2    1    2    0    0  0.00000000000E+00  0.00000000000E+00  0.57391908622E+03  0.21538188856E+04  0.20759462118E+04 0.  0.
        3    1    3    3  502    0  0.47032785014E+03 -0.29272488241E+03  0.11976633567E+04  0.13195808689E+04  0.10100000352E+00 0. -1.
       -3    1    3    3    0  502 -0.47032785014E+03  0.29272488241E+03 -0.62374427046E+03  0.83423801671E+03  0.10100000352E+00 0.  1.
</event>
<event>
 5   0  0.5506332E-05  0.2105122E+04  0.7818609E-02  0.8558990E-01
       -2   -1    0    0    0  501  0.00000000000E+00  0.00000000000E+00  0.13280202526E+04  0.13280202526E+04  0.25500000920E-02 0. -1.
        2   -1    0    0  501    0  0.00000000000E+00  0.00000000000E+00 -0.83423772351E+03  0.83423772351E+03  0.25500000920E-02 0.  1.
    10030    2    1    2    0    0  0.00000000000E+00  0.00000000000E+00  0.49378252908E+03  0.21622579761E+04  0.21051219369E+04 0.  0.
        3    1    3    3  502    0  0.71184181009E+03 -0.63497370758E+03 -0.21012805609E+03  0.97676209082E+03  0.10100000352E+00 0.  1.
       -3    1    3    3    0  502 -0.71184181009E+03  0.63497370758E+03  0.70391058516E+03  0.11854958853E+04  0.10100000352E+00 0. -1.
</event>
<event>
 5   0  0.2602060E-05  0.2170855E+04  0.7818609E-02  0.8530658E-01
        1   -1    0    0  501    0  0.00000000000E+00  0.00000000000E+00  0.13278851692E+04  0.13278851692E+04  0.50400001928E-02 0. -1.
       -1   -1    0    0    0  501  0.00000000000E+00  0.00000000000E+00 -0.88723994735E+03  0.88723994736E+03  0.50400001928E-02 0.  1.
    10030    2    1    2    0    0  0.00000000000E+00  0.00000000000E+00  0.44064522189E+03  0.22151251166E+04  0.21708549170E+04 0.  0.
        1    1    3    3  502    0  0.14728186033E+03  0.64842080958E+03 -0.65508374508E+03  0.93342177271E+03  0.50400001928E-02 0.  1.
       -1    1    3    3    0  502 -0.14728186033E+03 -0.64842080958E+03  0.10957289670E+04  0.12817033439E+04  0.50400001928E-02 0. -1.
</event>
<event>
 5   0  0.5954140E-05  0.2092862E+04  0.7818609E-02  0.8564394E-01
        2   -1    0    0  501    0  0.00000000000E+00  0.00000000000E+00  0.80138184435E+03  0.80138184436E+03  0.25500000920E-02 0.  1.
       -2   -1    0    0    0  501  0.00000000000E+00  0.00000000000E+00 -0.13664115949E+04  0.13664115949E+04  0.25500000920E-02 0. -1.
    10030    2    1    2    0    0  0.00000000000E+00  0.00000000000E+00 -0.56502975058E+03  0.21677934393E+04  0.20928616238E+04 0.  0.
        2    1    3    3  502    0  0.80532719130E+03  0.61070969063E+03 -0.56332889486E+03  0.11570901672E+04  0.25500000920E-02 0.  1.
       -2    1    3    3    0  502 -0.80532719130E+03 -0.61070969063E+03 -0.17008557229E+01  0.10107032721E+04  0.25500000920E-02 0. -1.
</event>
<event>
 5   0  0.2789662E-05  0.2089864E+04  0.7818609E-02  0.8565722E-01
        1   -1    0    0  501    0  0.00000000000E+00  0.00000000000E+00  0.93821890833E+03  0.93821890834E+03  0.50400001928E-02 0. -1.
       -1   -1    0    0    0  501  0.00000000000E+00  0.00000000000E+00 -0.11637824678E+04  0.11637824678E+04  0.50400001928E-02 0.  1.
    10030    2    1    2    0    0  0.00000000000E+00  0.00000000000E+00 -0.22556355942E+03  0.21020013761E+04  0.20898638391E+04 0.  0.
        4    1    3    3  502    0  0.52104818326E+03 -0.41367048273E+03 -0.92323237270E+03  0.11379692898E+04  0.12699999809E+01 0.  1.
       -4    1    3    3    0  502 -0.52104818326E+03  0.41367048273E+03  0.69766881328E+03  0.96403208634E+03  0.12699999809E+01 0. -1.
</event>
<event>
 5   0  0.2602060E-05  0.2105622E+04  0.7818609E-02  0.8558771E-01
        1   -1    0    0  501    0  0.00000000000E+00  0.00000000000E+00  0.16910841308E+04  0.16910841308E+04  0.50400001928E-02 0.  1.
       -1   -1    0    0    0  501  0.00000000000E+00  0.00000000000E+00 -0.65544422403E+03  0.65544422405E+03  0.50400001928E-02 0. -1.
    10030    2    1    2    0    0  0.00000000000E+00  0.00000000000E+00  0.10356399068E+04  0.23465283548E+04  0.21056223079E+04 0.  0.
        1    1    3    3  502    0  0.15427779646E+03  0.22024375698E+03 -0.61652898256E+03  0.67261945953E+03  0.50400001928E-02 0. -1.
       -1    1    3    3    0  502 -0.15427779646E+03 -0.22024375698E+03  0.16521688893E+04  0.16739088953E+04  0.50400001928E-02 0.  1.
</event>
<event>
 5   0  0.2699285E-05  0.2099692E+04  0.7818609E-02  0.8561379E-01
        1   -1    0    0  501    0  0.00000000000E+00  0.00000000000E+00  0.10374564108E+04  0.10374564108E+04  0.50400001928E-02 0. -1.
       -1   -1    0    0    0  501  0.00000000000E+00  0.00000000000E+00 -0.10623831119E+04  0.10623831120E+04  0.50400001928E-02 0.  1.
    10030    2    1    2    0    0  0.00000000000E+00  0.00000000000E+00 -0.24926701135E+02  0.20998395228E+04  0.20996915681E+04 0.  0.
        2    1    3    3  502    0  0.77396472457E+03 -0.46800557030E+03  0.52060850646E+03  0.10435917907E+04  0.25500000920E-02 0. -1.
       -2    1    3    3    0  502 -0.77396472457E+03  0.46800557030E+03 -0.54553520759E+03  0.10562477320E+04  0.25500000920E-02 0.  1.
</event>
<event>
 5   0  0.2604390E-05  0.2115154E+04  0.7818609E-02  0.8554597E-01
        1   -1    0    0  501    0  0.00000000000E+00  0.00000000000E+00  0.10055473314E+04  0.10055473314E+04  0.50400001928E-02 0.  1.
       -1   -1    0    0    0  501  0.00000000000E+00  0.00000000000E+00 -0.11122984247E+04  0.11122984247E+04  0.50400001928E-02 0. -1.
    10030    2    1    2    0    0  0.00000000000E+00  0.00000000000E+00 -0.10675109334E+03  0.21178457561E+04  0.21151536234E+04 0.  0.
        5    1    3    3  502    0 -0.28414733207E+03 -0.34516338002E+03  0.90626445088E+03  0.10105517355E+04  0.46999998093E+01 0.  1.
       -5    1    3    3    0  502  0.28414733207E+03  0.34516338002E+03 -0.10130155442E+04  0.11072940206E+04  0.46999998093E+01 0. -1.
</event>
<event>
 5   0  0.5967046E-05  0.2092570E+04  0.7818609E-02  0.8564524E-01
        2   -1    0    0  501    0  0.00000000000E+00  0.00000000000E+00  0.74183911351E+03  0.74183911352E+03  0.25500000920E-02 0.  1.
       -2   -1    0    0    0  501  0.00000000000E+00  0.00000000000E+00 -0.14756729684E+04  0.14756729684E+04  0.25500000920E-02 0. -1.
    10030    2    1    2    0    0  0.00000000000E+00  0.00000000000E+00 -0.73383385485E+03  0.22175120819E+04  0.20925696420E+04 0.  0.
        4    1    3    3  502    0 -0.25344360796E+03  0.13434696102E+03 -0.14331890395E+04  0.14616139039E+04  0.12699999809E+01 0. -1.
       -4    1    3    3    0  502  0.25344360796E+03 -0.13434696102E+03  0.69935518460E+03  0.75589817799E+03  0.12699999809E+01 0.  1.
</event>
<event>
 5   0  0.5967046E-05  0.2099729E+04  0.7818609E-02  0.8561363E-01
       -2   -1    0    0    0  501  0.00000000000E+00  0.00000000000E+00  0.10712922765E+04  0.10712922765E+04  0.25500000920E-02 0. -1.
        2   -1    0    0  501    0  0.00000000000E+00  0.00000000000E+00 -0.10288655796E+04  0.10288655796E+04  0.25500000920E-02 0.  1.
    10030    2    1    2    0    0  0.00000000000E+00  0.00000000000E+00  0.42426696962E+02  0.21001578561E+04  0.20997292673E+04 0.  0.
        4    1    3    3  502    0  0.18765570315E+03  0.77099358181E+03 -0.66636305263E+03  0.10361887361E+04  0.12699999809E+01 0.  1.
       -4    1    3    3    0  502 -0.18765570315E+03 -0.77099358181E+03  0.70878974959E+03  0.10639691199E+04  0.12699999809E+01 0. -1.
</event>
<event>
 5   0  0.2699285E-05  0.2090592E+04  0.7818609E-02  0.8565399E-01
        1   -1    0    0  501    0  0.00000000000E+00  0.00000000000E+00  0.19737691680E+04  0.19737691680E+04  0.50400001928E-02 0. -1.
       -1   -1    0    0    0  501  0.00000000000E+00  0.00000000000E+00 -0.55358229764E+03  0.55358229766E+03  0.50400001928E-02 0.  1.
    10030    2    1    2    0    0  0.00000000000E+00  0.00000000000E+00  0.14201868704E+04  0.25273514657E+04  0.20905919459E+04 0.  0.
        2    1    3    3  502    0 -0.70087284348E+02  0.15785571068E+03 -0.53621289526E+03  0.56334263275E+03  0.25500000920E-02 0.  1.
       -2    1    3    3    0  502  0.70087284348E+02 -0.15785571068E+03  0.19563997657E+04  0.19640088330E+04  0.25500000920E-02 0. -1.
</event>
<event>
 5   0  0.5967046E-05  0.2085830E+04  0.7818609E-02  0.8567511E-01
        2   -1    0    0  501    0  0.00000000000E+00  0.00000000000E+00  0.21296238979E+04  0.21296238979E+04  0.25500000920E-02 0. -1.
       -2   -1    0    0    0  501  0.00000000000E+00  0.00000000000E+00 -0.51073400015E+03  0.51073400016E+03  0.25500000920E-02 0.  1.
    10030    2    1    2    0    0  0.00000000000E+00  0.00000000000E+00  0.16188898978E+04  0.26403578981E+04  0.20858296500E+04 0.  0.
        4    1    3    3  502    0 -0.25516403125E+03 -0.83165475281E+03  0.15376267698E+04  0.17666510710E+04  0.12699999809E+01 0. -1.
       -4    1    3    3    0  502  0.25516403125E+03  0.83165475281E+03  0.81263127949E+02  0.87370682702E+03  0.12699999809E+01 0.  1.
</event>
<event>
 5   0  0.5462851E-05  0.2177117E+04  0.7818609E-02  0.8528013E-01
       -2   -1    0    0    0  501  0.00000000000E+00  0.00000000000E+00  0.10619741950E+04  0.10619741950E+04  0.25500000920E-02 0. -1.
        2   -1    0    0  501    0  0.00000000000E+00  0.00000000000E+00 -0.11158079421E+04  0.11158079421E+04  0.25500000920E-02 0.  1.
    10030    2    1    2    0    0  0.00000000000E+00  0.00000000000E+00 -0.53833747089E+02  0.21777821371E+04  0.21771166630E+04 0.  0.
        1    1    3    3  502    0  0.29534713963E+03  0.64243500315E+03 -0.85482109964E+03  0.11093564705E+04  0.50400001928E-02 0.  1.
       -1    1    3    3    0  502 -0.29534713963E+03 -0.64243500315E+03  0.80098735255E+03  0.10684256666E+04  0.50400001928E-02 0. -1.
</event>
<event>
 5   0  0.5967046E-05  0.2100351E+04  0.7818609E-02  0.8561089E-01
        2   -1    0    0  501    0  0.00000000000E+00  0.00000000000E+00  0.23774749790E+04  0.23774749790E+04  0.25500000920E-02 0. -1.
       -2   -1    0    0    0  501  0.00000000000E+00  0.00000000000E+00 -0.46388222012E+03  0.46388222013E+03  0.25500000920E-02 0.  1.
    10030    2    1    2    0    0  0.00000000000E+00  0.00000000000E+00  0.19135927589E+04  0.28413571992E+04  0.21003508008E+04 0.  0.
        4    1    3    3  502    0  0.74401951754E+03 -0.61081899778E+03  0.38893902895E+03  0.10382389280E+04  0.12699999809E+01 0.  1.
       -4    1    3    3    0  502 -0.74401951754E+03  0.61081899778E+03  0.15246537300E+04  0.18031182711E+04  0.12699999809E+01 0. -1.
</event>
<event>
 5   0  0.2604390E-05  0.2070647E+04  0.7818609E-02  0.8574285E-01
        1   -1    0    0  501    0  0.00000000000E+00  0.00000000000E+00  0.13457853627E+04  0.13457853627E+04  0.50400001928E-02 0.  1.
       -1   -1    0    0    0  501  0.00000000000E+00  0.00000000000E+00 -0.79648292217E+03  0.79648292219E+03  0.50400001928E-02 0. -1.
    10030    2    1    2    0    0  0.00000000000E+00  0.00000000000E+00  0.54930244053E+03  0.21422682849E+04  0.20706472981E+04 0.  0.
        5    1    3    3  502    0 -0.11540087373E+02  0.42644405736E+03 -0.70131488488E+03  0.82088511098E+03  0.46999998093E+01 0. -1.
       -5    1    3    3    0  502  0.11540087373E+02 -0.42644405736E+03  0.12506173254E+04  0.13213831739E+04  0.46999998093E+01 0.  1.
</event>
<event>
 5   0  0.5866610E-05  0.2086138E+04  0.7818609E-02  0.8567374E-01
        2   -1    0    0  501    0  0.00000000000E+00  0.00000000000E+00  0.79470989457E+03  0.79470989458E+03  0.25500000920E-02 0. -1.
       -2   -1    0    0    0  501  0.00000000000E+00  0.00000000000E+00 -0.13690440264E+04  0.13690440264E+04  0.25500000920E-02 0.  1.
    10030    2    1    2    0    0  0.00000000000E+00  0.00000000000E+00 -0.57433413179E+03  0.21637539209E+04  0.20861378994E+04 0.  0.
        5    1    3    3  502    0  0.97423990344E+03 -0.33658402079E+03 -0.45292067147E+03  0.11258736240E+04  0.46999998093E+01 0. -1.
       -5    1    3    3    0  502 -0.97423990344E+03  0.33658402079E+03 -0.12141346031E+03  0.10378802970E+04  0.46999998093E+01 0.  1.
</event>
<event>
 5   0  0.2604390E-05  0.2095162E+04  0.7818609E-02  0.8563377E-01
       -1   -1    0    0    0  501  0.00000000000E+00  0.00000000000E+00  0.80684770889E+03  0.80684770890E+03  0.50400001928E-02 0.  1.
        1   -1    0    0  501    0  0.00000000000E+00  0.00000000000E+00 -0.13601407830E+04  0.13601407830E+04  0.50400001928E-02 0. -1.
    10030    2    1    2    0    0  0.00000000000E+00  0.00000000000E+00 -0.55329307410E+03  0.21669884919E+04  0.20951624992E+04 0.  0.
        5    1    3    3  502    0 -0.39795480398E+03 -0.85303108827E+03 -0.75216239583E+03  0.12049068110E+04  0.46999998093E+01 0. -1.
       -5    1    3    3    0  502  0.39795480398E+03  0.85303108827E+03  0.19886932173E+03  0.96208168088E+03  0.46999998093E+01 0.  1.
</event>
<event>
 5   0  0.2732159E-05  0.2106659E+04  0.7818609E-02  0.8558316E-01
       -1   -1    0    0    0  501  0.00000000000E+00  0.00000000000E+00  0.63161340354E+03  0.63161340356E+03  0.50400001928E-02 0.  1.
        1   -1    0    0  501    0  0.00000000000E+00  0.00000000000E+00 -0.17566176721E+04  0.17566176721E+04  0.50400001928E-02 0. -1.
    10030    2    1    2    0    0  0.00000000000E+00  0.00000000000E+00 -0.11250042686E+04  0.23882310757E+04  0.21066592194E+04 0.  0.
        3    1    3    3  502    0  0.80932268667E+03 -0.61571782863E+03 -0.87377663069E+03  0.13407450415E+04  0.10100000352E+00 0.  1.
       -3    1    3    3    0  502 -0.80932268667E+03  0.61571782863E+03 -0.25122763788E+03  0.10474860342E+04  0.10100000352E+00 0. -1.
</event>
<event>
 5   0  0.5506332E-05  0.2096131E+04  0.7818609E-02  0.8562950E-01
       -2   -1    0    0    0  501  0.00000000000E+00  0.00000000000E+00  0.74216548471E+03  0.74216548471E+03  0.25500000920E-02 0.  1.
        2   -1    0    0  501    0  0.00000000000E+00  0.00000000000E+00 -0.14800488933E+04  0.14800488933E+04  0.25500000920E-02 0. -1.
    10030    2    1    2    0    0  0.00000000000E+00  0.00000000000E+00 -0.73788340856E+03  0.22222143780E+04  0.20961309160E+04 0.  0.
        3    1    3    3  502    0 -0.82020895956E+03 -0.52130566716E+03  0.47008823895E+02  0.97299135437E+03  0.10100000352E+00 0. -1.
       -3    1    3    3    0  502  0.82020895956E+03  0.52130566716E+03 -0.78489223246E+03  0.12492230236E+04  0.10100000352E+00 0.  1.
</event>
<event>
 5   0  0.2602060E-05  0.2109476E+04  0.7818609E-02  0.8557080E-01
        1   -1    0    0  501    0  0.00000000000E+00  0.00000000000E+00  0.10537236687E+04  0.10537236687E+04  0.50400001928E-02 0. -1.
       -1   -1    0    0    0  501  0.00000000000E+00  0.00000000000E+00 -0.10557536937E+04  0.10557536937E+04  0.50400001928E-02 0.  1.
    10030    2    1    2    0    0  0.00000000000E+00  0.00000000000E+00 -0.20300249585E+01  0.21094773624E+04  0.21094763856E+04 0.  0.
        1    1    3    3  502    0  0.46063380008E+03 -0.92683567641E+03 -0.20415246516E+03  0.10549341676E+04  0.50400001928E-02 0.  1.
       -1    1    3    3    0  502 -0.46063380008E+03  0.92683567641E+03  0.20212244020E+03  0.10545431948E+04  0.50400001928E-02 0. -1.
</event>
<event>
 5   0  0.2789662E-05  0.2179809E+04  0.7818609E-02  0.8526880E-01
        1   -1    0    0  501    0  0.00000000000E+00  0.00000000000E+00  0.15693753329E+04  0.15693753329E+04  0.50400001928E-02 0.  1.
       -1   -1    0    0    0  501  0.00000000000E+00  0.00000000000E+00 -0.75691984412E+03  0.75691984414E+03  0.50400001928E-02 0. -1.
    10030    2    1    2    0    0  0.00000000000E+00  0.00000000000E+00  0.81245548877E+03  0.23262951770E+04  0.21798085534E+04 0.  0.
        4    1    3    3  502    0  0.12331472742E+03 -0.67634370996E+03 -0.49632603427E+03  0.84793188476E+03  0.12699999809E+01 0. -1.
       -4    1    3    3    0  502 -0.12331472742E+03  0.67634370996E+03  0.13087815230E+04  0.14783632923E+04  0.12699999809E+01 0.  1.
</event>
<event>
 5   0  0.2604390E-05  0.2087759E+04  0.7818609E-02  0.8566655E-01
       -1   -1    0    0    0  501  0.00000000000E+00  0.00000000000E+00  0.57092434798E+03  0.57092434800E+03  0.50400001928E-02 0.  1.
        1   -1    0    0  501    0  0.00000000000E+00  0.00000000000E+00 -0.19086311675E+04  0.19086311675E+04  0.50400001928E-02 0. -1.
    10030    2    1    2    0    0  0.00000000000E+00  0.00000000000E+00 -0.13377068195E+04  0.24795555155E+04  0.20877586114E+04 0.  0.
        5    1    3    3  502    0 -0.10070139288E+04  0.10997269421E+03 -0.96811376469E+03  0.14012271042E+04  0.46999998093E+01 0. -1.
       -5    1    3    3    0  502  0.10070139288E+04 -0.10997269421E+03 -0.36959305479E+03  0.10783284112E+04  0.46999998093E+01 0.  1.
</event>
<event>
 5   0  0.2602060E-05  0.2107175E+04  0.7818609E-02  0.8558090E-01
        1   -1    0    0  501    0  0.00000000000E+00  0.00000000000E+00  0.10514606753E+04  0.10514606753E+04  0.50400001928E-02 0.  1.
       -1   -1    0    0    0  501  0.00000000000E+00  0.00000000000E+00 -0.10557181308E+04  0.10557181308E+04  0.50400001928E-02 0. -1.
    10030    2    1    2    0    0  0.00000000000E+00  0.00000000000E+00 -0.42574554953E+01  0.21071788060E+04  0.21071745050E+04 0.  0.
        1    1    3    3  502    0 -0.30884421326E+03 -0.72461850831E+03 -0.70183678589E+03  0.10550031302E+04  0.50400001928E-02 0. -1.
       -1    1    3    3    0  502  0.30884421326E+03  0.72461850831E+03  0.69757933039E+03  0.10521756759E+04  0.50400001928E-02 0.  1.
</event>
<event>
 5   0  0.2602060E-05  0.2126753E+04  0.7818609E-02  0.8549549E-01
        1   -1    0    0  501    0  0.00000000000E+00  0.00000000000E+00  0.10464373054E+04  0.10464373054E+04  0.50400001928E-02 0. -1.
       -1   -1    0    0    0  501  0.00000000000E+00  0.00000000000E+00 -0.10805903563E+04  0.10805903564E+04  0.50400001928E-02 0.  1.
    10030    2    1    2    0    0  0.00000000000E+00  0.00000000000E+00 -0.34153050971E+02  0.21270276617E+04  0.21267534514E+04 0.  0.
        1    1    3    3  502    0  0.60555866018E+02  0.63151363076E+03  0.83643469140E+03  0.10498092549E+04  0.50400001928E-02 0. -1.
       -1    1    3    3    0  502 -0.60555866018E+02 -0.63151363076E+03 -0.87058774237E+03  0.10772184068E+04  0.50400001928E-02 0.  1.
</event>
<event>
 5   0  0.5967046E-05  0.2090502E+04  0.7818609E-02  0.8565439E-01
       -2   -1    0    0    0  501  0.00000000000E+00  0.00000000000E+00  0.10885756974E+04  0.10885756974E+04  0.25500000920E-02 0.  1.
        2   -1    0    0  501    0  0.00000000000E+00  0.00000000000E+00 -0.10036505741E+04  0.10036505741E+04  0.25500000920E-02 0. -1.
    10030    2    1    2    0    0  0.00000000000E+00  0.00000000000E+00  0.84925123310E+02  0.20922262715E+04  0.20905019720E+04 0.  0.
        4    1    3    3  502    0  0.25122464663E+03  0.10009726099E+04 -0.12346931054E+03  0.10393778295E+04  0.12699999809E+01 0. -1.
       -4    1    3    3    0  502 -0.25122464663E+03 -0.10009726099E+04  0.20839443385E+03  0.10528484420E+04  0.12699999809E+01 0.  1.
</event>
<event>
 5   0  0.2789662E-05  0.2106530E+04  0.7818609E-02  0.8558372E-01
        1   -1    0    0  501    0  0.00000000000E+00  0.00000000000E+00  0.79867810975E+03  0.79867810976E+03  0.50400001928E-02 0. -1.
       -1   -1    0    0    0  501  0.00000000000E+00  0.00000000000E+00 -0.13890044293E+04  0.13890044293E+04  0.50400001928E-02 0.  1.
    10030    2    1    2    0    0  0.00000000000E+00  0.00000000000E+00 -0.59032631957E+03  0.21876825391E+04  0.21065302581E+04 0.  0.
        4    1    3    3  502    0 -0.69729596306E+03 -0.15620008534E+03 -0.10987592217E+04  0.13106843888E+04  0.12699999809E+01 0.  1.
       -4    1    3    3    0  502  0.69729596306E+03  0.15620008534E+03  0.50843290215E+03  0.87699815031E+03  0.12699999809E+01 0. -1.
</event>
<event>
 5   0  0.2602060E-05  0.2093082E+04  0.7818609E-02  0.8564297E-01
       -1   -1    0    0    0  501  0.00000000000E+00  0.00000000000E+00  0.74116117896E+03  0.74116117898E+03  0.50400001928E-02 0. -1.
        1   -1    0    0  501    0  0.00000000000E+00  0.00000000000E+00 -0.14777468312E+04  0.14777468312E+04  0.50400001928E-02 0.  1.
    10030    2    1    2    0    0  0.00000000000E+00  0.00000000000E+00 -0.73658565220E+03  0.22189080101E+04  0.20930824959E+04 0.  0.
        1    1    3    3  502    0 -0.27049946452E+03 -0.33132214272E+03 -0.13808575747E+04  0.14455836068E+04  0.50400001928E-02 0.  1.
       -1    1    3    3    0  502  0.27049946452E+03  0.33132214272E+03  0.64427192255E+03  0.77332440332E+03  0.50400001928E-02 0. -1.
</event>
<event>
 5   0  0.2732159E-05  0.2094244E+04  0.7818609E-02  0.8563783E-01
        1   -1    0    0  501    0  0.00000000000E+00  0.00000000000E+00  0.14784340076E+04  0.14784340076E+04  0.50400001928E-02 0. -1.
       -1   -1    0    0    0  501  0.00000000000E+00  0.00000000000E+00 -0.74163902488E+03  0.74163902490E+03  0.50400001928E-02 0.  1.
    10030    2    1    2    0    0  0.00000000000E+00  0.00000000000E+00  0.73679498274E+03  0.22200730325E+04  0.20942438786E+04 0.  0.
        3    1    3    3  502    0 -0.56758620576E+03 -0.53077749290E+03 -0.37561601151E+03  0.86311427183E+03  0.10100000352E+00 0.  1.
       -3    1    3    3    0  502  0.56758620576E+03  0.53077749290E+03  0.11124109942E+04  0.13569587607E+04  0.10100000352E+00 0. -1.
</event>
<event>
 5   0  0.2604390E-05  0.2090092E+04  0.7818609E-02  0.8565621E-01
        1   -1    0    0  501    0  0.00000000000E+00  0.00000000000E+00  0.16692701023E+04  0.16692701023E+04  0.50400001928E-02 0.  1.
       -1   -1    0    0    0  501  0.00000000000E+00  0.00000000000E+00 -0.65425060128E+03  0.65425060130E+03  0.50400001928E-02 0. -1.
    10030    2    1    2    0    0  0.00000000000E+00  0.00000000000E+00  0.10150195010E+04  0.23235207036E+04  0.20900918335E+04 0.  0.
        5    1    3    3  502    0  0.66156274004E+03  0.79828261320E+03  0.36180501949E+03  0.10981098996E+04  0.46999998093E+01 0. -1.
       -5    1    3    3    0  502 -0.66156274004E+03 -0.79828261320E+03  0.65321448151E+03  0.12254108039E+04  0.46999998093E+01 0.  1.
</event>
<event>
 5   0  0.5967046E-05  0.2161300E+04  0.7818609E-02  0.8534711E-01
       -2   -1    0    0    0  501  0.00000000000E+00  0.00000000000E+00  0.81739470885E+03  0.81739470885E+03  0.25500000920E-02 0. -1.
        2   -1    0    0  501    0  0.00000000000E+00  0.00000000000E+00 -0.14286909172E+04  0.14286909172E+04  0.25500000920E-02 0.  1.
    10030    2    1    2    0    0  0.00000000000E+00  0.00000000000E+00 -0.61129620832E+03  0.22460856260E+04  0.21612999757E+04 0.  0.
        4    1    3    3  502    0 -0.48160569144E+03  0.95696637715E+03 -0.45288926765E+03  0.11631160693E+04  0.12699999809E+01 0. -1.
       -4    1    3    3    0  502  0.48160569144E+03 -0.95696637715E+03 -0.15840694067E+03  0.10829695567E+04  0.12699999809E+01 0.  1.
</event>
<event>
 5   0  0.2699285E-05  0.2104787E+04  0.7818609E-02  0.8559137E-01
        1   -1    0    0  501    0  0.00000000000E+00  0.00000000000E+00  0.59647268493E+03  0.59647268495E+03  0.50400001928E-02 0. -1.
       -1   -1    0    0    0  501  0.00000000000E+00  0.00000000000E+00 -0.18568033131E+04  0.18568033131E+04  0.50400001928E-02 0.  1.
    10030    2    1    2    0    0  0.00000000000E+00  0.00000000000E+00 -0.12603306282E+04  0.24532759981E+04  0.21047873599E+04 0.  0.
        2    1    3    3  502    0 -0.80880813446E+02  0.10373368833E+04 -0.81417379421E+03  0.13211693618E+04  0.25500000920E-02 0. -1.
       -2    1    3    3    0  502  0.80880813446E+02 -0.10373368833E+04 -0.44615683399E+03  0.11321066363E+04  0.25500000920E-02 0.  1.
</event>
<event>
 5   0  0.2789662E-05  0.2105002E+04  0.7818609E-02  0.8559043E-01
       -1   -1    0    0    0  501  0.00000000000E+00  0.00000000000E+00  0.10963540773E+04  0.10963540774E+04  0.50400001928E-02 0. -1.
        1   -1    0    0  501    0  0.00000000000E+00  0.00000000000E+00 -0.10104022820E+04  0.10104022820E+04  0.50400001928E-02 0.  1.
    10030    2    1    2    0    0  0.00000000000E+00  0.00000000000E+00  0.85951795369E+02  0.21067563594E+04  0.21050022913E+04 0.  0.
        4    1    3    3  502    0 -0.35076263547E+03 -0.57009414077E+03 -0.76992951716E+03  0.10202131297E+04  0.12699999809E+01 0.  1.
       -4    1    3    3    0  502  0.35076263547E+03  0.57009414077E+03  0.85588131253E+03  0.10865432296E+04  0.12699999809E+01 0. -1.
</event>
<event>
 5   0  0.5967046E-05  0.2089790E+04  0.7818609E-02  0.8565754E-01
       -2   -1    0    0    0  501  0.00000000000E+00  0.00000000000E+00  0.94639568265E+03  0.94639568265E+03  0.25500000920E-02 0.  1.
        2   -1    0    0  501    0  0.00000000000E+00  0.00000000000E+00 -0.11536460302E+04  0.11536460302E+04  0.25500000920E-02 0. -1.
    10030    2    1    2    0    0  0.00000000000E+00  0.00000000000E+00 -0.20725034756E+03  0.21000417129E+04  0.20897900586E+04 0.  0.
        4    1    3    3  502    0 -0.49708359664E+03  0.68239362636E+03  0.51506610973E+03  0.98896302946E+03  0.12699999809E+01 0.  1.
       -4    1    3    3    0  502  0.49708359664E+03 -0.68239362636E+03 -0.72231645729E+03  0.11110786834E+04  0.12699999809E+01 0. -1.
</event>
<event>
 5   0  0.5866610E-05  0.2119144E+04  0.7818609E-02  0.8552857E-01
       -2   -1    0    0    0  501  0.00000000000E+00  0.00000000000E+00  0.10161268412E+04  0.10161268412E+04  0.25500000920E-02 0. -1.
        2   -1    0    0  501    0  0.00000000000E+00  0.00000000000E+00 -0.11048746793E+04  0.11048746793E+04  0.25500000920E-02 0.  1.
    10030    2    1    2    0    0  0.00000000000E+00  0.00000000000E+00 -0.88747838088E+02  0.21210015206E+04  0.21191439950E+04 0.  0.
        5    1    3    3  502    0 -0.73921381238E+03 -0.12510044411E+03  0.70500364315E+03  0.10291449890E+04  0.46999998093E+01 0. -1.
       -5    1    3    3    0  502  0.73921381238E+03  0.12510044411E+03 -0.79375148124E+03  0.10918565316E+04  0.46999998093E+01 0.  1.
</event>
<event>
 5   0  0.2789662E-05  0.2094847E+04  0.7818609E-02  0.8563517E-01
       -1   -1    0    0    0  501  0.00000000000E+00  0.00000000000E+00  0.61863251011E+03  0.61863251013E+03  0.50400001928E-02 0. -1.
        1   -1    0    0  501    0  0.00000000000E+00  0.00000000000E+00 -0.17734210504E+04  0.17734210504E+04  0.50400001928E-02 0.  1.
    10030    2    1    2    0    0  0.00000000000E+00  0.00000000000E+00 -0.11547885403E+04  0.23920535606E+04  0.20948469309E+04 0.  0.
        4    1    3    3  502    0  0.10394389806E+03  0.87236996625E+03 -0.12286241845E+04  0.15104147416E+04  0.12699999809E+01 0.  1.
       -4    1    3    3    0  502 -0.10394389806E+03 -0.87236996625E+03  0.73835644141E+02  0.88163881902E+03  0.12699999809E+01 0. -1.
</event>
<event>
 5   0  0.5967046E-05  0.2096095E+04  0.7818609E-02  0.8562966E-01
        2   -1    0    0  501    0  0.00000000000E+00  0.00000000000E+00  0.16178841488E+04  0.16178841488E+04  0.25500000920E-02 0.  1.
       -2   -1    0    0    0  501  0.00000000000E+00  0.00000000000E+00 -0.67891359598E+03  0.67891359598E+03  0.25500000920E-02 0. -1.
    10030    2    1    2    0    0  0.00000000000E+00  0.00000000000E+00  0.93897055278E+03  0.22967977447E+04  0.20960949838E+04 0.  0.
        4    1    3    3  502    0 -0.52517499719E+03  0.14752556060E+03 -0.51109191874E+03  0.74752199366E+03  0.12699999809E+01 0. -1.
       -4    1    3    3    0  502  0.52517499719E+03 -0.14752556060E+03  0.14500624715E+04  0.15492757511E+04  0.12699999809E+01 0.  1.
</event>
<event>
 5   0  0.5506332E-05  0.2096669E+04  0.7818609E-02  0.8562712E-01
       -2   -1    0    0    0  501  0.00000000000E+00  0.00000000000E+00  0.89710761336E+03  0.89710761337E+03  0.25500000920E-02 0.  1.
        2   -1    0    0  501    0  0.00000000000E+00  0.00000000000E+00 -0.12250541740E+04  0.12250541740E+04  0.25500000920E-02 0. -1.
    10030    2    1    2    0    0  0.00000000000E+00  0.00000000000E+00 -0.32794656063E+03  0.21221617874E+04  0.20966691931E+04 0.  0.
        3    1    3    3  502    0 -0.76100839590E+03 -0.36925871891E+03  0.46284604604E+03  0.96421587451E+03  0.10100000352E+00 0.  1.
       -3    1    3    3    0  502  0.76100839590E+03  0.36925871891E+03 -0.79079260667E+03  0.11579459128E+04  0.10100000352E+00 0. -1.
</event>
<event>
 5   0  0.2604390E-05  0.2099396E+04  0.7818609E-02  0.8561510E-01
       -1   -1    0    0    0  501  0.00000000000E+00  0.00000000000E+00  0.16794104641E+04  0.16794104641E+04  0.50400001928E-02 0.  1.
        1   -1    0    0  501    0  0.00000000000E+00  0.00000000000E+00 -0.65610274581E+03  0.65610274583E+03  0.50400001928E-02 0. -1.
    10030    2    1    2    0    0  0.00000000000E+00  0.00000000000E+00  0.10233077183E+04  0.23355132099E+04  0.20993959292E+04 0.  0.
        5    1    3    3  502    0  0.81258477085E+03  0.37056526026E+03  0.11252601234E+04  0.14366088742E+04  0.46999998093E+01 0.  1.
       -5    1    3    3    0  502 -0.81258477085E+03 -0.37056526026E+03 -0.10195240517E+03  0.89890433576E+03  0.46999998093E+01 0. -1.
</event>
<event>
 5   0  0.5954140E-05  0.2106476E+04  0.7818609E-02  0.8558396E-01
        2   -1    0    0  501    0  0.00000000000E+00  0.00000000000E+00  0.95539438433E+03  0.95539438433E+03  0.25500000920E-02 0.  1.
       -2   -1    0    0    0  501  0.00000000000E+00  0.00000000000E+00 -0.11611017828E+04  0.11611017828E+04  0.25500000920E-02 0. -1.
    10030    2    1    2    0    0  0.00000000000E+00  0.00000000000E+00 -0.20570739844E+03  0.21164961671E+04  0.21064758464E+04 0.  0.
        2    1    3    3  502    0 -0.97004656310E+03  0.39052960303E+03  0.23467932337E+02  0.10459705776E+04  0.25500000920E-02 0. -1.
       -2    1    3    3    0  502  0.97004656310E+03 -0.39052960303E+03 -0.22917533077E+03  0.10705255895E+04  0.25500000920E-02 0.  1.
</event>
<event>
 5   0  0.2017750E-05  0.2100458E+04  0.7818609E-02  0.8561042E-01
       -3   -1    0    0    0  501  0.00000000000E+00  0.00000000000E+00  0.13249212351E+04  0.13249212389E+04  0.10100000352E+00 0. -1.
        3   -1    0    0  501    0  0.00000000000E+00  0.00000000000E+00 -0.83248775547E+03  0.83248776160E+03  0.10100000352E+00 0.  1.
    10030    2    1    2    0    0  0.00000000000E+00  0.00000000000E+00  0.49243347963E+03  0.21574090005E+04  0.21004577748E+04 0.  0.
        1    1    3    3  502    0  0.68608099357E+03 -0.77967147486E+03  0.85822556341E+02  0.10420941654E+04  0.50400001928E-02 0. -1.
       -1    1    3    3    0  502 -0.68608099357E+03  0.77967147486E+03  0.40661092329E+03  0.11153148351E+04  0.50400001928E-02 0.  1.
</event>
<event>
 5   0  0.5954140E-05  0.2099125E+04  0.7818609E-02  0.8561629E-01
        2   -1    0    0  501    0  0.00000000000E+00  0.00000000000E+00  0.16165491310E+04  0.16165491310E+04  0.25500000920E-02 0. -1.
       -2   -1    0    0    0  501  0.00000000000E+00  0.00000000000E+00 -0.68143997039E+03  0.68143997040E+03  0.25500000920E-02 0.  1.
    10030    2    1    2    0    0  0.00000000000E+00  0.00000000000E+00  0.93510916061E+03  0.22979891014E+04  0.20991247623E+04 0.  0.
        2    1    3    3  502    0 -0.92398443021E+03 -0.13115827639E+03 -0.58182970409E+02  0.93505881034E+03  0.25500000920E-02 0.  1.
       -2    1    3    3    0  502  0.92398443021E+03  0.13115827639E+03  0.99329213102E+03  0.13629302911E+04  0.25500000920E-02 0. -1.
</event>
<event>
 5   0  0.2732159E-05  0.2128719E+04  0.7818609E-02  0.8548697E-01
       -1   -1    0    0    0  501  0.00000000000E+00  0.00000000000E+00  0.87542567031E+03  0.87542567032E+03  0.50400001928E-02 0. -1.
        1   -1    0    0  501    0  0.00000000000E+00  0.00000000000E+00 -0.12940694195E+04  0.12940694195E+04  0.50400001928E-02 0.  1.
    10030    2    1    2    0    0  0.00000000000E+00  0.00000000000E+00 -0.41864374922E+03  0.21694950899E+04  0.21287194170E+04 0.  0.
        3    1    3    3  502    0  0.97316586065E+03 -0.21379470930E+03 -0.59079312346E+03  0.11583593980E+04  0.10100000352E+00 0.  1.
       -3    1    3    3    0  502 -0.97316586065E+03  0.21379470930E+03  0.17214937425E+03  0.10111356918E+04  0.10100000352E+00 0. -1.
</event>
<event>
 5   0  0.5506332E-05  0.2105196E+04  0.7818609E-02  0.8558958E-01
        2   -1    0    0  501    0  0.00000000000E+00  0.00000000000E+00  0.11618845400E+04  0.11618845400E+04  0.25500000920E-02 0.  1.
       -2   -1    0    0    0  501  0.00000000000E+00  0.00000000000E+00 -0.95359080723E+03  0.95359080723E+03  0.25500000920E-02 0. -1.
    10030    2    1    2    0    0  0.00000000000E+00  0.00000000000E+00  0.20829373281E+03  0.21154753473E+04  0.21051958735E+04 0.  0.
        3    1    3    3  502    0 -0.42425678370E+03 -0.96317410868E+03  0.87812523255E+02  0.10561293631E+04  0.10100000352E+00 0. -1.
       -3    1    3    3    0  502  0.42425678370E+03  0.96317410868E+03  0.12048120956E+03  0.10593459842E+04  0.10100000352E+00 0.  1.
</event>
<event>
 5   0  0.2789662E-05  0.2098068E+04  0.7818609E-02  0.8562095E-01
        1   -1    0    0  501    0  0.00000000000E+00  0.00000000000E+00  0.20983941972E+04  0.20983941972E+04  0.50400001928E-02 0.  1.
       -1   -1    0    0    0  501  0.00000000000E+00  0.00000000000E+00 -0.52443533428E+03  0.52443533430E+03  0.50400001928E-02 0. -1.
    10030    2    1    2    0    0  0.00000000000E+00  0.00000000000E+00  0.15739588629E+04  0.26228295315E+04  0.20980677418E+04 0.  0.
        4    1    3    3  502    0 -0.43378311266E+03 -0.94968768007E+03  0.65951673978E+03  0.12349244598E+04  0.12699999809E+01 0. -1.
       -4    1    3    3    0  502  0.43378311266E+03  0.94968768007E+03  0.91444212310E+03  0.13879050717E+04  0.12699999809E+01 0.  1.
</event>
<event>
 5   0  0.2602060E-05  0.2095666E+04  0.7818609E-02  0.8563155E-01
        1   -1    0    0  501    0  0.00000000000E+00  0.00000000000E+00  0.81726030557E+03  0.81726030559E+03  0.50400001928E-02 0. -1.
       -1   -1    0    0    0  501  0.00000000000E+00  0.00000000000E+00 -0.13434572157E+04  0.13434572157E+04  0.50400001928E-02 0.  1.
    10030    2    1    2    0    0  0.00000000000E+00  0.00000000000E+00 -0.52619691015E+03  0.21607175213E+04  0.20956662470E+04 0.  0.
        1    1    3    3  502    0 -0.35583523037E+03  0.91009477827E+03  0.12687908606E+03  0.98538800435E+03  0.50400001928E-02 0. -1.
       -1    1    3    3    0  502  0.35583523037E+03 -0.91009477827E+03 -0.65307599621E+03  0.11753295170E+04  0.50400001928E-02 0.  1.
</event>
<event>
 5   0  0.5954140E-05  0.2099233E+04  0.7818609E-02  0.8561581E-01
       -2   -1    0    0    0  501  0.00000000000E+00  0.00000000000E+00  0.46613992231E+03  0.46613992232E+03  0.25500000920E-02 0. -1.
        2   -1    0    0  501    0  0.00000000000E+00  0.00000000000E+00 -0.23634419127E+04  0.23634419127E+04  0.25500000920E-02 0.  1.
    10030    2    1    2    0    0  0.00000000000E+00  0.00000000000E+00 -0.18973019904E+04  0.28295818351E+04  0.20992328404E+04 0.  0.
        2    1    3    3  502    0  0.66268106928E+03 -0.24892738664E+03  0.95945047771E+02  0.71436439973E+03  0.25500000920E-02 0. -1.
       -2    1    3    3    0  502 -0.66268106928E+03  0.24892738664E+03 -0.19932470382E+04  0.21152174353E+04  0.25500000920E-02 0.  1.
</event>
<event>
 5   0  0.2604390E-05  0.2148944E+04  0.7818609E-02  0.8539984E-01
       -1   -1    0    0    0  501  0.00000000000E+00  0.00000000000E+00  0.80285595467E+03  0.80285595468E+03  0.50400001928E-02 0.  1.
        1   -1    0    0  501    0  0.00000000000E+00  0.00000000000E+00 -0.14379796508E+04  0.14379796508E+04  0.50400001928E-02 0. -1.
    10030    2    1    2    0    0  0.00000000000E+00  0.00000000000E+00 -0.63512369615E+03  0.22408356055E+04  0.21489444156E+04 0.  0.
        5    1    3    3  502    0  0.10372833157E+04  0.27892589891E+03 -0.34538816442E+03  0.11283046611E+04  0.46999998093E+01 0. -1.
       -5    1    3    3    0  502 -0.10372833157E+04 -0.27892589891E+03 -0.28973553173E+03  0.11125309445E+04  0.46999998093E+01 0.  1.
</event>
<event>
 5   0  0.5967046E-05  0.2104333E+04  0.7818609E-02  0.8559337E-01
       -2   -1    0    0    0  501  0.00000000000E+00  0.00000000000E+00  0.10244023248E+04  0.10244023248E+04  0.25500000920E-02 0.  1.
        2   -1    0    0  501    0  0.00000000000E+00  0.00000000000E+00 -0.10806827624E+04  0.10806827624E+04  0.25500000920E-02 0. -1.
    10030    2    1    2    0    0  0.00000000000E+00  0.00000000000E+00 -0.56280437625E+02  0.21050850871E+04  0.21043326107E+04 0.  0.
        4    1    3    3  502    0  0.84881727007E+03 -0.46632592992E+03 -0.43950702373E+03  0.10635406281E+04  0.12699999809E+01 0. -1.
       -4    1    3    3    0  502 -0.84881727007E+03  0.46632592992E+03  0.38322658611E+03  0.10415444590E+04  0.12699999809E+01 0.  1.
</event>
<event>
 5   0  0.5506332E-05  0.2115344E+04  0.7818609E-02  0.8554514E-01
        2   -1    0    0  501    0  0.00000000000E+00  0.00000000000E+00  0.20961687070E+04  0.20961687070E+04  0.25500000920E-02 0. -1.
       -2   -1    0    0    0  501  0.00000000000E+00  0.00000000000E+00 -0.53367351446E+03  0.53367351446E+03  0.25500000920E-02 0.  1.
    10030    2    1    2    0    0  0.00000000000E+00  0.00000000000E+00  0.15624951926E+04  0.26298422215E+04  0.21153436797E+04 0.  0.
        3    1    3    3  502    0 -0.57607782527E+03  0.37618146670E+03  0.17799285026E+04  0.19082776636E+04  0.10100000352E+00 0. -1.
       -3    1    3    3    0  502  0.57607782527E+03 -0.37618146670E+03 -0.21743331009E+03  0.72156455788E+03  0.10100000352E+00 0.  1.
</event>
<event>
 5   0  0.5866610E-05  0.2094904E+04  0.7818609E-02  0.8563491E-01
       -2   -1    0    0    0  501  0.00000000000E+00  0.00000000000E+00  0.82305356389E+03  0.82305356389E+03  0.25500000920E-02 0.  1.
        2   -1    0    0  501    0  0.00000000000E+00  0.00000000000E+00 -0.13330313078E+04  0.13330313078E+04  0.25500000920E-02 0. -1.
    10030    2    1    2    0    0  0.00000000000E+00  0.00000000000E+00 -0.50997774389E+03  0.21560848717E+04  0.20949044548E+04 0.  0.
        5    1    3    3  502    0  0.78104647651E+02 -0.28527752354E+03 -0.12891474996E+04  0.13226514912E+04  0.46999998093E+01 0. -1.
       -5    1    3    3    0  502 -0.78104647651E+02  0.28527752354E+03  0.77916975573E+03  0.83343338046E+03  0.46999998093E+01 0.  1.
</event>
<event>
 5   0  0.2789662E-05  0.2098594E+04  0.7818609E-02  0.8561863E-01
        1   -1    0    0  501    0  0.00000000000E+00  0.00000000000E+00  0.15853803935E+04  0.15853803935E+04  0.50400001928E-02 0.  1.
       -1   -1    0    0    0  501  0.00000000000E+00  0.00000000000E+00 -0.69448612536E+03  0.69448612537E+03  0.50400001928E-02 0. -1.
    10030    2    1    2    0    0  0.00000000000E+00  0.00000000000E+00  0.89089426813E+03  0.22798665189E+04  0.20985944694E+04 0.  0.
        4    1    3    3  502    0  0.57388266183E+03  0.85384489986E+03  0.66975364518E+03  0.12275846124E+04  0.12699999809E+01 0.  1.
       -4    1    3    3    0  502 -0.57388266183E+03 -0.85384489986E+03  0.22114062294E+03  0.10522819064E+04  0.12699999809E+01 0. -1.
</event>
<event>
 5   0  0.2732159E-05  0.2070195E+04  0.7818609E-02  0.8574487E-01
        1   -1    0    0  501    0  0.00000000000E+00  0.00000000000E+00  0.14944459634E+04  0.14944459634E+04  0.50400001928E-02 0. -1.
       -1   -1    0    0    0  501  0.00000000000E+00  0.00000000000E+00 -0.71693934978E+03  0.71693934980E+03  0.50400001928E-02 0.  1.
    10030    2    1    2    0    0  0.00000000000E+00  0.00000000000E+00  0.77750661365E+03  0.22113853132E+04  0.20701952732E+04 0.  0.
        3    1    3    3  502    0 -0.56361383262E+02 -0.99779468574E+03  0.10082149655E+03  0.10044579756E+04  0.10100000352E+00 0.  1.
       -3    1    3    3    0  502  0.56361383262E+02  0.99779468574E+03  0.67668511709E+03  0.12069273376E+04  0.10100000352E+00 0. -1.
</event>
<event>
 5   0  0.2604390E-05  0.2082492E+04  0.7818609E-02  0.8568995E-01
        1   -1    0    0  501    0  0.00000000000E+00  0.00000000000E+00  0.41356275774E+03  0.41356275777E+03  0.50400001928E-02 0.  1.
       -1   -1    0    0    0  501  0.00000000000E+00  0.00000000000E+00 -0.26215920294E+04  0.26215920294E+04  0.50400001928E-02 0. -1.
    10030    2    1    2    0    0  0.00000000000E+00  0.00000000000E+00 -0.22080292717E+04  0.30351547872E+04  0.20824916129E+04 0.  0.
        5    1    3    3  502    0 -0.10215858134E+04  0.43861609225E+02 -0.13903952955E+04  0.17259149987E+04  0.46999998093E+01 0.  1.
       -5    1    3    3    0  502  0.10215858134E+04 -0.43861609225E+02 -0.81763397622E+03  0.13092397886E+04  0.46999998093E+01 0. -1.
</event>
<event>
 5   0  0.5967046E-05  0.2101608E+04  0.7818609E-02  0.8560535E-01
        2   -1    0    0  501    0  0.00000000000E+00  0.00000000000E+00  0.20514549777E+04  0.20514549777E+04  0.25500000920E-02 0. -1.
       -2   -1    0    0    0  501  0.00000000000E+00  0.00000000000E+00 -0.53824689753E+03  0.53824689754E+03  0.25500000920E-02 0.  1.
    10030    2    1    2    0    0  0.00000000000E+00  0.00000000000E+00  0.15132080801E+04  0.25897018752E+04  0.21016082196E+04 0.  0.
        4    1    3    3  502    0 -0.20611685446E+03 -0.48320909278E+03  0.18780255911E+04  0.19501171551E+04  0.12699999809E+01 0. -1.
       -4    1    3    3    0  502  0.20611685446E+03  0.48320909278E+03 -0.36481751092E+03  0.63958472012E+03  0.12699999809E+01 0.  1.
</event>
<event>
 5   0  0.5462851E-05  0.2096191E+04  0.7818609E-02  0.8562923E-01
        2   -1    0    0  501    0  0.00000000000E+00  0.00000000000E+00  0.13127388600E+04  0.13127388600E+04  0.25500000920E-02 0.  1.
       -2   -1    0    0    0  501  0.00000000000E+00  0.00000000000E+00 -0.83680346057E+03  0.83680346058E+03  0.25500000920E-02 0. -1.
    10030    2    1    2    0    0  0.00000000000E+00  0.00000000000E+00  0.47593539941E+03  0.21495423206E+04  0.20961912326E+04 0.  0.
        1    1    3    3  502    0  0.15393627566E+02 -0.87928355370E+03 -0.34674457655E+03  0.94530859140E+03  0.50400001928E-02 0. -1.
       -1    1    3    3    0  502 -0.15393627566E+02  0.87928355370E+03  0.82267997596E+03  0.12042337292E+04  0.50400001928E-02 0.  1.
</event>
<event>
 5   0  0.5866610E-05  0.2091940E+04  0.7818609E-02  0.8564802E-01
       -2   -1    0    0    0  501  0.00000000000E+00  0.00000000000E+00  0.91912504389E+03  0.91912504390E+03  0.25500000920E-02 0. -1.
        2   -1    0    0  501    0  0.00000000000E+00  0.00000000000E+00 -0.11903207335E+04  0.11903207335E+04  0.25500000920E-02 0.  1.
    10030    2    1    2    0    0  0.00000000000E+00  0.00000000000E+00 -0.27119568963E+03  0.21094457774E+04  0.20919403399E+04 0.  0.
        5    1    3    3  502    0  0.65159659456E+03 -0.65163676453E+03  0.36333845389E+03  0.99057837499E+03  0.46999998093E+01 0. -1.
       -5    1    3    3    0  502 -0.65159659456E+03  0.65163676453E+03 -0.63453414352E+03  0.11188674024E+04  0.46999998093E+01 0.  1.
</event>
<event>
 5   0  0.5967046E-05  0.2107142E+04  0.7818609E-02  0.8558104E-01
        2   -1    0    0  501    0  0.00000000000E+00  0.00000000000E+00  0.61674611287E+03  0.61674611288E+03  0.25500000920E-02 0. -1.
       -2   -1    0    0    0  501  0.00000000000E+00  0.00000000000E+00 -0.17997880535E+04  0.17997880535E+04  0.25500000920E-02 0.  1.
    10030    2    1    2    0    0  0.00000000000E+00  0.00000000000E+00 -0.11830419406E+04  0.24165341664E+04  0.21071424119E+04 0.  0.
        4    1    3    3  502    0 -0.45043435412E+03  0.13358252440E+03  0.48995571197E+03  0.67881780383E+03  0.12699999809E+01 0. -1.
       -4    1    3    3    0  502  0.45043435412E+03 -0.13358252440E+03 -0.16729976526E+04  0.17377163626E+04  0.12699999809E+01 0.  1.
</event>
<event>
 5   0  0.5954140E-05  0.2087125E+04  0.7818609E-02  0.8566936E-01
        2   -1    0    0  501    0  0.00000000000E+00  0.00000000000E+00  0.12996481854E+04  0.12996481854E+04  0.25500000920E-02 0. -1.
       -2   -1    0    0    0  501  0.00000000000E+00  0.00000000000E+00 -0.83793640664E+03  0.83793640664E+03  0.25500000920E-02 0.  1.
    10030    2    1    2    0    0  0.00000000000E+00  0.00000000000E+00  0.46171177873E+03  0.21375845920E+04  0.20871248457E+04 0.  0.
        2    1    3    3  502    0 -0.83417410638E+03 -0.34279438762E+03  0.76859068238E+03  0.11849413779E+04  0.25500000920E-02 0.  1.
       -2    1    3    3    0  502  0.83417410638E+03  0.34279438762E+03 -0.30687890364E+03  0.95264321414E+03  0.25500000920E-02 0. -1.
</event>
<event>
 5   0  0.5866610E-05  0.2090707E+04  0.7818609E-02  0.8565348E-01
       -2   -1    0    0    0  501  0.00000000000E+00  0.00000000000E+00  0.87464824194E+03  0.87464824195E+03  0.25500000920E-02 0.  1.
        2   -1    0    0  501    0  0.00000000000E+00  0.00000000000E+00 -0.12493755304E+04  0.12493755304E+04  0.25500000920E-02 0. -1.
    10030    2    1    2    0    0  0.00000000000E+00  0.00000000000E+00 -0.37472728849E+03  0.21240237724E+04  0.20907071638E+04 0.  0.
        5    1    3    3  502    0 -0.51307528109E+03 -0.49478728550E+03 -0.96419326121E+03  0.11990627327E+04  0.46999998093E+01 0. -1.
       -5    1    3    3    0  502  0.51307528109E+03  0.49478728550E+03  0.58946597272E+03  0.92496103970E+03  0.46999998093E+01 0.  1.
</event>
<event>
 5   0  0.5866610E-05  0.2082883E+04  0.7818609E-02  0.8568821E-01
        2   -1    0    0  501    0  0.00000000000E+00  0.00000000000E+00  0.12624623781E+04  0.12624623781E+04  0.25500000920E-02 0.  1.
       -2   -1    0    0    0  501  0.00000000000E+00  0.00000000000E+00 -0.85911471786E+03  0.85911471786E+03  0.25500000920E-02 0. -1.
    10030    2    1    2    0    0  0.00000000000E+00  0.00000000000E+00  0.40334766027E+03  0.21215770960E+04  0.20828826273E+04 0.  0.
        5    1    3    3  502    0 -0.90979378992E+03 -0.19855349426E+03  0.67662990126E+03  0.11510857238E+04  0.46999998093E+01 0.  1.
       -5    1    3    3    0  502  0.90979378992E+03  0.19855349426E+03 -0.27328224099E+03  0.97049137219E+03  0.46999998093E+01 0. -1.
</event>
<event>
 5   0  0.2699285E-05  0.2100642E+04  0.7818609E-02  0.8560961E-01
       -1   -1    0    0    0  501  0.00000000000E+00  0.00000000000E+00  0.76710665117E+03  0.76710665118E+03  0.50400001928E-02 0. -1.
        1   -1    0    0  501    0  0.00000000000E+00  0.00000000000E+00 -0.14380969710E+04  0.14380969710E+04  0.50400001928E-02 0.  1.
    10030    2    1    2    0    0  0.00000000000E+00  0.00000000000E+00 -0.67099031983E+03  0.22052036222E+04  0.21006415701E+04 0.  0.
        2    1    3    3  502    0  0.91934285312E+03 -0.18400253369E+03 -0.83247916727E+03  0.12538220679E+04  0.25500000920E-02 0.  1.
       -2    1    3    3    0  502 -0.91934285312E+03  0.18400253369E+03  0.16148884744E+03  0.95138155429E+03  0.25500000920E-02 0. -1.
</event>
<event>
 5   0  0.2699285E-05  0.2099770E+04  0.7818609E-02  0.8561345E-01
        1   -1    0    0  501    0  0.00000000000E+00  0.00000000000E+00  0.18709395119E+04  0.18709395119E+04  0.50400001928E-02 0. -1.
       -1   -1    0    0    0  501  0.00000000000E+00  0.00000000000E+00 -0.58914682213E+03  0.58914682216E+03  0.50400001928E-02 0.  1.
    10030    2    1    2    0    0  0.00000000000E+00  0.00000000000E+00  0.12817926898E+04  0.24600863341E+04  0.20997695758E+04 0.  0.
        2    1    3    3  502    0  0.10058305791E+04 -0.17863008953E+03  0.35715129970E+03  0.10822018821E+04  0.25500000920E-02 0.  1.
       -2    1    3    3    0  502 -0.10058305791E+04  0.17863008953E+03  0.92464139007E+03  0.13778844520E+04  0.25500000920E-02 0. -1.
</event>
<event>
 5   0  0.2699285E-05  0.2104245E+04  0.7818609E-02  0.8559376E-01
       -1   -1    0    0    0  501  0.00000000000E+00  0.00000000000E+00  0.13219812780E+04  0.13219812780E+04  0.50400001928E-02 0. -1.
        1   -1    0    0  501    0  0.00000000000E+00  0.00000000000E+00 -0.83735033105E+03  0.83735033106E+03  0.50400001928E-02 0.  1.
    10030    2    1    2    0    0  0.00000000000E+00  0.00000000000E+00  0.48463094698E+03  0.21593316091E+04  0.21042447204E+04 0.  0.
        2    1    3    3  502    0 -0.11095270841E+02 -0.64545559099E+03 -0.61023200803E+03  0.88832377465E+03  0.25500000920E-02 0.  1.
       -2    1    3    3    0  502  0.11095270841E+02  0.64545559099E+03  0.10948629550E+04  0.12710078344E+04  0.25500000920E-02 0. -1.
</event>
<event>
 5   0  0.2604390E-05  0.2095701E+04  0.7818609E-02  0.8563139E-01
       -1   -1    0    0    0  501  0.00000000000E+00  0.00000000000E+00  0.65419684089E+03  0.65419684091E+03  0.50400001928E-02 0.  1.
        1   -1    0    0  501    0  0.00000000000E+00  0.00000000000E+00 -0.16783804001E+04  0.16783804001E+04  0.50400001928E-02 0. -1.
    10030    2    1    2    0    0  0.00000000000E+00  0.00000000000E+00 -0.10241835592E+04  0.23325772410E+04  0.20957014631E+04 0.  0.
        5    1    3    3  502    0 -0.53705389041E+03  0.19251905425E+02 -0.15133057925E+04  0.16058997568E+04  0.46999998093E+01 0. -1.
       -5    1    3    3    0  502  0.53705389041E+03 -0.19251905425E+02  0.48912223329E+03  0.72667748428E+03  0.46999998093E+01 0.  1.
</event>
<event>
 5   0  0.5506332E-05  0.2105423E+04  0.7818609E-02  0.8558858E-01
        2   -1    0    0  501    0  0.00000000000E+00  0.00000000000E+00  0.14534529079E+04  0.14534529079E+04  0.25500000920E-02 0.  1.
       -2   -1    0    0    0  501  0.00000000000E+00  0.00000000000E+00 -0.76246091334E+03  0.76246091335E+03  0.25500000920E-02 0. -1.
    10030    2    1    2    0    0  0.00000000000E+00  0.00000000000E+00  0.69099199456E+03  0.22159138213E+04  0.21054225530E+04 0.  0.
        3    1    3    3  502    0 -0.51026280614E+03  0.86121785843E+03  0.68837932316E+03  0.12148787733E+04  0.10100000352E+00 0.  1.
       -3    1    3    3    0  502  0.51026280614E+03 -0.86121785843E+03  0.26126713981E+01  0.10010350480E+04  0.10100000352E+00 0. -1.
</event>
<event>
 5   0  0.2732159E-05  0.2101253E+04  0.7818609E-02  0.8560691E-01
       -1   -1    0    0    0  501  0.00000000000E+00  0.00000000000E+00  0.78246882195E+03  0.78246882197E+03  0.50400001928E-02 0. -1.
        1   -1    0    0  501    0  0.00000000000E+00  0.00000000000E+00 -0.14106843847E+04  0.14106843847E+04  0.50400001928E-02 0.  1.
    10030    2    1    2    0    0  0.00000000000E+00  0.00000000000E+00 -0.62821556275E+03  0.21931532067E+04  0.21012534818E+04 0.  0.
        3    1    3    3  502    0  0.50347700592E+03  0.45358609194E+03  0.52386773553E+03  0.85654354987E+03  0.10100000352E+00 0. -1.
       -3    1    3    3    0  502 -0.50347700592E+03 -0.45358609194E+03 -0.11520832983E+04  0.13366096568E+04  0.10100000352E+00 0.  1.
</event>
<event>
 5   0  0.2699285E-05  0.2099566E+04  0.7818609E-02  0.8561435E-01
       -1   -1    0    0    0  501  0.00000000000E+00  0.00000000000E+00  0.15139654959E+04  0.15139654959E+04  0.50400001928E-02 0. -1.
        1   -1    0    0  501    0  0.00000000000E+00  0.00000000000E+00 -0.72791908565E+03  0.72791908567E+03  0.50400001928E-02 0.  1.
    10030    2    1    2    0    0  0.00000000000E+00  0.00000000000E+00  0.78604641021E+03  0.22418845815E+04  0.20995660309E+04 0.  0.
        2    1    3    3  502    0  0.45332665592E+02  0.65868645588E+03  0.12645092401E+04  0.14265014953E+04  0.25500000920E-02 0. -1.
       -2    1    3    3    0  502 -0.45332665592E+02 -0.65868645588E+03 -0.47846282990E+03  0.81538308625E+03  0.25500000920E-02 0.  1.
</event>
<event>
 5   0  0.2604390E-05  0.2071179E+04  0.7818609E-02  0.8574046E-01
       -1   -1    0    0    0  501  0.00000000000E+00  0.00000000000E+00  0.55090537475E+03  0.55090537478E+03  0.50400001928E-02 0.  1.
        1   -1    0    0  501    0  0.00000000000E+00  0.00000000000E+00 -0.19466971528E+04  0.19466971528E+04  0.50400001928E-02 0. -1.
    10030    2    1    2    0    0  0.00000000000E+00  0.00000000000E+00 -0.13957917780E+04  0.24976025275E+04  0.20711793013E+04 0.  0.
        5    1    3    3  502    0 -0.69168544976E+03  0.65468680297E+03 -0.11882925079E+04  0.15228607112E+04  0.46999998093E+01 0. -1.
       -5    1    3    3    0  502  0.69168544976E+03 -0.65468680297E+03 -0.20749927006E+03  0.97474181631E+03  0.46999998093E+01 0.  1.
</event>
<event>
 5   0  0.5954140E-05  0.2117433E+04  0.7818609E-02  0.8553603E-01
        2   -1    0    0  501    0  0.00000000000E+00  0.00000000000E+00  0.11325080820E+04  0.11325080820E+04  0.25500000920E-02 0.  1.
       -2   -1    0    0    0  501  0.00000000000E+00  0.00000000000E+00 -0.98973304987E+03  0.98973304987E+03  0.25500000920E-02 0. -1.
    10030    2    1    2    0    0  0.00000000000E+00  0.00000000000E+00  0.14277503217E+03  0.21222411319E+04  0.21174330479E+04 0.  0.
        2    1    3    3  502    0  0.37212754656E+03  0.72803366970E+03 -0.60272336138E+03  0.10157693564E+04  0.25500000920E-02 0. -1.
       -2    1    3    3    0  502 -0.37212754656E+03 -0.72803366970E+03  0.74549839356E+03  0.11064717755E+04  0.25500000920E-02 0.  1.
</event>
<event>
 5   0  0.5967046E-05  0.2177849E+04  0.7818609E-02  0.8527705E-01
        2   -1    0    0  501    0  0.00000000000E+00  0.00000000000E+00  0.13331640334E+04  0.13331640334E+04  0.25500000920E-02 0. -1.
       -2   -1    0    0    0  501  0.00000000000E+00  0.00000000000E+00 -0.88943040661E+03  0.88943040661E+03  0.25500000920E-02 0.  1.
    10030    2    1    2    0    0  0.00000000000E+00  0.00000000000E+00  0.44373362681E+03  0.22225944400E+04  0.21778490566E+04 0.  0.
        4    1    3    3  502    0  0.63731470564E+03 -0.85999166225E+03  0.17759407154E+02  0.10705478516E+04  0.12699999809E+01 0.  1.
       -4    1    3    3    0  502 -0.63731470564E+03  0.85999166225E+03  0.42597421965E+03  0.11520465884E+04  0.12699999809E+01 0. -1.
</event>
<event>
 5   0  0.2732159E-05  0.2089101E+04  0.7818609E-02  0.8566060E-01
        1   -1    0    0  501    0  0.00000000000E+00  0.00000000000E+00  0.27266674342E+04  0.27266674342E+04  0.50400001928E-02 0.  1.
       -1   -1    0    0    0  501  0.00000000000E+00  0.00000000000E+00 -0.40015357679E+03  0.40015357682E+03  0.50400001928E-02 0. -1.
    10030    2    1    2    0    0  0.00000000000E+00  0.00000000000E+00  0.23265138574E+04  0.31268210110E+04  0.20891009804E+04 0.  0.
        3    1    3    3  502    0 -0.74569476973E+03 -0.55841140888E+03  0.18703756934E+04  0.20895428294E+04  0.10100000352E+00 0.  1.
       -3    1    3    3    0  502  0.74569476973E+03  0.55841140888E+03  0.45613816395E+03  0.10372781816E+04  0.10100000352E+00 0. -1.
</event>
<event>
 5   0  0.5954140E-05  0.2138746E+04  0.7818609E-02  0.8544365E-01
       -2   -1    0    0    0  501  0.00000000000E+00  0.00000000000E+00  0.93953844559E+03  0.93953844559E+03  0.25500000920E-02 0. -1.
        2   -1    0    0  501    0  0.00000000000E+00  0.00000000000E+00 -0.12171498781E+04  0.12171498781E+04  0.25500000920E-02 0.  1.
    10030    2    1    2    0    0  0.00000000000E+00  0.00000000000E+00 -0.27761143246E+03  0.21566883237E+04  0.21387464595E+04 0.  0.
        2    1    3    3  502    0 -0.64489745646E+03  0.60642530747E+03 -0.74376742807E+03  0.11562155378E+04  0.25500000920E-02 0.  1.
       -2    1    3    3    0  502  0.64489745646E+03 -0.60642530747E+03  0.46615599561E+03  0.10004727858E+04  0.25500000920E-02 0. -1.
</event>
<event>
 5   0  0.2604390E-05  0.2102182E+04  0.7818609E-02  0.8560283E-01
       -1   -1    0    0    0  501  0.00000000000E+00  0.00000000000E+00  0.62132919221E+03  0.62132919223E+03  0.50400001928E-02 0. -1.
        1   -1    0    0  501    0  0.00000000000E+00  0.00000000000E+00 -0.17781115035E+04  0.17781115035E+04  0.50400001928E-02 0.  1.
    10030    2    1    2    0    0  0.00000000000E+00  0.00000000000E+00 -0.11567823113E+04  0.23994406957E+04  0.21021822796E+04 0.  0.
        5    1    3    3  502    0  0.51990610022E+03  0.85336108152E+03 -0.95043131684E+03  0.13790827628E+04  0.46999998093E+01 0.  1.
       -5    1    3    3    0  502 -0.51990610022E+03 -0.85336108152E+03 -0.20635099447E+03  0.10203579330E+04  0.46999998093E+01 0. -1.
</event>
<event>
 5   0  0.2602060E-05  0.2099474E+04  0.7818609E-02  0.8561475E-01
       -1   -1    0    0    0  501  0.00000000000E+00  0.00000000000E+00  0.48327912088E+03  0.48327912090E+03  0.50400001928E-02 0.  1.
        1   -1    0    0  501    0  0.00000000000E+00  0.00000000000E+00 -0.22801467620E+04  0.22801467620E+04  0.50400001928E-02 0. -1.
    10030    2    1    2    0    0  0.00000000000E+00  0.00000000000E+00 -0.17968676411E+04  0.27634258829E+04  0.20994735746E+04 0.  0.
        1    1    3    3  502    0 -0.98424274068E+03  0.20017791892E+02 -0.41874738600E+03  0.10698055234E+04  0.50400001928E-02 0. -1.
       -1    1    3    3    0  502  0.98424274068E+03 -0.20017791892E+02 -0.13781202551E+04  0.16936203595E+04  0.50400001928E-02 0.  1.
</event>
<event>
 5   0  0.2699285E-05  0.2110693E+04  0.7818609E-02  0.8556548E-01
        1   -1    0    0  501    0  0.00000000000E+00  0.00000000000E+00  0.11539602306E+04  0.11539602307E+04  0.50400001928E-02 0. -1.
       -1   -1    0    0    0  501  0.00000000000E+00  0.00000000000E+00 -0.96515958648E+03  0.96515958649E+03  0.50400001928E-02 0.  1.
    10030    2    1    2    0    0  0.00000000000E+00  0.00000000000E+00  0.18880064417E+03  0.21191198172E+04  0.21106925679E+04 0.  0.
        2    1    3    3  502    0  0.45182762750E+03  0.93428408365E+03 -0.97991561911E+02  0.10424189657E+04  0.25500000920E-02 0. -1.
       -2    1    3    3    0  502 -0.45182762750E+03 -0.93428408365E+03  0.28679220608E+03  0.10767008514E+04  0.25500000920E-02 0.  1.
</event>
<event>
 5   0  0.2604390E-05  0.2103458E+04  0.7818609E-02  0.8559722E-01
       -1   -1    0    0    0  501  0.00000000000E+00  0.00000000000E+00  0.11939715316E+04  0.11939715316E+04  0.50400001928E-02 0.  1.
        1   -1    0    0  501    0  0.00000000000E+00  0.00000000000E+00 -0.92643252946E+03  0.92643252948E+03  0.50400001928E-02 0. -1.
    10030    2    1    2    0    0  0.00000000000E+00  0.00000000000E+00  0.26753900211E+03  0.21204040611E+04  0.21034581680E+04 0.  0.
        5    1    3    3  502    0 -0.40988454003E+03  0.90746655979E+03  0.47503945643E+03  0.11032612875E+04  0.46999998093E+01 0.  1.
       -5    1    3    3    0  502  0.40988454003E+03 -0.90746655979E+03 -0.20750045432E+03  0.10171427736E+04  0.46999998093E+01 0. -1.
</event>
<event>
 5   0  0.2602060E-05  0.2105263E+04  0.7818609E-02  0.8558928E-01
        1   -1    0    0  501    0  0.00000000000E+00  0.00000000000E+00  0.22043209854E+04  0.22043209854E+04  0.50400001928E-02 0.  1.
       -1   -1    0    0    0  501  0.00000000000E+00  0.00000000000E+00 -0.50266421229E+03  0.50266421232E+03  0.50400001928E-02 0. -1.
    10030    2    1    2    0    0  0.00000000000E+00  0.00000000000E+00  0.17016567731E+04  0.27069851977E+04  0.21052631872E+04 0.  0.
        1    1    3    3  502    0 -0.93076650450E+03  0.36339699288E+03  0.12766062056E+04  0.16211437520E+04  0.50400001928E-02 0.  1.
       -1    1    3    3    0  502  0.93076650450E+03 -0.36339699288E+03  0.42505056750E+03  0.10858414457E+04  0.50400001928E-02 0. -1.
</event>
<event>
 5   0  0.5506332E-05  0.2095067E+04  0.7818609E-02  0.8563420E-01
       -2   -1    0    0    0  501  0.00000000000E+00  0.00000000000E+00  0.16578019933E+04  0.16578019933E+04  0.25500000920E-02 0.  1.
        2   -1    0    0  501    0  0.00000000000E+00  0.00000000000E+00 -0.66191617253E+03  0.66191617254E+03  0.25500000920E-02 0. -1.
    10030    2    1    2    0    0  0.00000000000E+00  0.00000000000E+00  0.99588582078E+03  0.23197181659E+04  0.20950665386E+04 0.  0.
        3    1    3    3  502    0  0.63098566058E+03 -0.82790789019E+03  0.36810144411E+03  0.11041164168E+04  0.10100000352E+00 0.  1.
       -3    1    3    3    0  502 -0.63098566058E+03  0.82790789019E+03  0.62778437668E+03  0.12156017491E+04  0.10100000352E+00 0. -1.
</event>
<event>
 5   0  0.5506332E-05  0.2098422E+04  0.7818609E-02  0.8561939E-01
       -2   -1    0    0    0  501  0.00000000000E+00  0.00000000000E+00  0.57522988508E+03  0.57522988508E+03  0.25500000920E-02 0. -1.
        2   -1    0    0  501    0  0.00000000000E+00  0.00000000000E+00 -0.19137458969E+04  0.19137458969E+04  0.25500000920E-02 0.  1.
    10030    2    1    2    0    0  0.00000000000E+00  0.00000000000E+00 -0.13385160118E+04  0.24889757820E+04  0.20984221047E+04 0.  0.
        3    1    3    3  502    0  0.98378373604E+03 -0.49422454518E+02 -0.24065929809E+03  0.10139970051E+04  0.10100000352E+00 0.  1.
       -3    1    3    3    0  502 -0.98378373604E+03  0.49422454518E+02 -0.10978567137E+04  0.14749787769E+04  0.10100000352E+00 0. -1.
</event>
<event>
 5   0  0.2604390E-05  0.2069668E+04  0.7818609E-02  0.8574724E-01
       -1   -1    0    0    0  501  0.00000000000E+00  0.00000000000E+00  0.89709916109E+03  0.89709916110E+03  0.50400001928E-02 0. -1.
        1   -1    0    0  501    0  0.00000000000E+00  0.00000000000E+00 -0.11937159978E+04  0.11937159978E+04  0.50400001928E-02 0.  1.
    10030    2    1    2    0    0  0.00000000000E+00  0.00000000000E+00 -0.29661683675E+03  0.20908151590E+04  0.20696682056E+04 0.  0.
        5    1    3    3  502    0 -0.74390235364E+03 -0.59279819819E+03  0.26335878713E+03  0.98700575291E+03  0.46999998093E+01 0. -1.
       -5    1    3    3    0  502  0.74390235364E+03  0.59279819819E+03 -0.55997562388E+03  0.11038094060E+04  0.46999998093E+01 0.  1.
</event>
<event>
 5   0  0.2732159E-05  0.2092539E+04  0.7818609E-02  0.8564537E-01
        1   -1    0    0  501    0  0.00000000000E+00  0.00000000000E+00  0.11126490386E+04  0.11126490386E+04  0.50400001928E-02 0.  1.
       -1   -1    0    0    0  501  0.00000000000E+00  0.00000000000E+00 -0.98385042685E+03  0.98385042686E+03  0.50400001928E-02 0. -1.
    10030    2    1    2    0    0  0.00000000000E+00  0.00000000000E+00  0.12879861170E+03  0.20964994654E+04  0.20925393488E+04 0.  0.
        3    1    3    3  502    0 -0.26182096578E+03 -0.10119403459E+04  0.11038540252E+03  0.10510748922E+04  0.10100000352E+00 0. -1.
       -3    1    3    3    0  502  0.26182096578E+03  0.10119403459E+04  0.18413209183E+02  0.10454245732E+04  0.10100000352E+00 0.  1.
</event>
<event>
 5   0  0.2732159E-05  0.2042946E+04  0.7818609E-02  0.8586801E-01
        1   -1    0    0  501    0  0.00000000000E+00  0.00000000000E+00  0.11937963064E+04  0.11937963064E+04  0.50400001928E-02 0.  1.
       -1   -1    0    0    0  501  0.00000000000E+00  0.00000000000E+00 -0.87402459970E+03  0.87402459971E+03  0.50400001928E-02 0. -1.
    10030    2    1    2    0    0  0.00000000000E+00  0.00000000000E+00  0.31977170668E+03  0.20678209061E+04  0.20429462439E+04 0.  0.
        3    1    3    3  502    0  0.46144082118E+03 -0.29221513511E+03  0.10335818656E+04  0.11690204445E+04  0.10100000352E+00 0.  1.
       -3    1    3    3    0  502 -0.46144082118E+03  0.29221513511E+03 -0.71381015888E+03  0.89880046160E+03  0.10100000352E+00 0. -1.
</event>
<event>
 5   0  0.5954140E-05  0.2102229E+04  0.7818609E-02  0.8560262E-01
        2   -1    0    0  501    0  0.00000000000E+00  0.00000000000E+00  0.13143123382E+04  0.13143123382E+04  0.25500000920E-02 0. -1.
       -2   -1    0    0    0  501  0.00000000000E+00  0.00000000000E+00 -0.84062321758E+03  0.84062321758E+03  0.25500000920E-02 0.  1.
    10030    2    1    2    0    0  0.00000000000E+00  0.00000000000E+00  0.47368912059E+03  0.21549355558E+04  0.21022287855E+04 0.  0.
        2    1    3    3  502    0  0.10477301254E+04 -0.74977811561E+02  0.27629822502E+03  0.10861403211E+04  0.25500000920E-02 0.  1.
       -2    1    3    3    0  502 -0.10477301254E+04  0.74977811561E+02  0.19739089558E+03  0.10687952347E+04  0.25500000920E-02 0. -1.
</event>
<event>
 5   0  0.5954140E-05  0.2086031E+04  0.7818609E-02  0.8567422E-01
       -2   -1    0    0    0  501  0.00000000000E+00  0.00000000000E+00  0.50674490005E+03  0.50674490006E+03  0.25500000920E-02 0. -1.
        2   -1    0    0  501    0  0.00000000000E+00  0.00000000000E+00 -0.21468022576E+04  0.21468022576E+04  0.25500000920E-02 0.  1.
    10030    2    1    2    0    0  0.00000000000E+00  0.00000000000E+00 -0.16400573576E+04  0.26535471577E+04  0.20860307720E+04 0.  0.
        2    1    3    3  502    0 -0.93491806344E+03  0.44255907610E+03 -0.99045932582E+03  0.14321103300E+04  0.25500000920E-02 0. -1.
       -2    1    3    3    0  502  0.93491806344E+03 -0.44255907610E+03 -0.64959803177E+03  0.12214368277E+04  0.25500000920E-02 0.  1.
</event>
<event>
 5   0  0.2789662E-05  0.2111101E+04  0.7818609E-02  0.8556369E-01
       -1   -1    0    0    0  501  0.00000000000E+00  0.00000000000E+00  0.70003707474E+03  0.70003707476E+03  0.50400001928E-02 0. -1.
        1   -1    0    0  501    0  0.00000000000E+00  0.00000000000E+00 -0.15916119130E+04  0.15916119130E+04  0.50400001928E-02 0.  1.
    10030    2    1    2    0    0  0.00000000000E+00  0.00000000000E+00 -0.89157483827E+03  0.22916489878E+04  0.21111014639E+04 0.  0.
        4    1    3    3  502    0  0.67871946240E+03 -0.21627881353E+03  0.39977088937E+03  0.81685678715E+03  0.12699999809E+01 0. -1.
       -4    1    3    3    0  502 -0.67871946240E+03  0.21627881353E+03 -0.12913457276E+04  0.14747922006E+04  0.12699999809E+01 0.  1.
</event>
<event>
 5   0  0.5462851E-05  0.1956547E+04  0.7818609E-02  0.8627210E-01
       -2   -1    0    0    0  501  0.00000000000E+00  0.00000000000E+00  0.93649825183E+03  0.93649825184E+03  0.25500000920E-02 0.  1.
        2   -1    0    0  501    0  0.00000000000E+00  0.00000000000E+00 -0.10219121603E+04  0.10219121603E+04  0.25500000920E-02 0. -1.
    10030    2    1    2    0    0  0.00000000000E+00  0.00000000000E+00 -0.85413908481E+02  0.19584104122E+04  0.19565469089E+04 0.  0.
        1    1    3    3  502    0 -0.90398052282E+02  0.53796764069E+02 -0.10162344816E+04  0.10216645346E+04  0.50400001928E-02 0. -1.
       -1    1    3    3    0  502  0.90398052282E+02 -0.53796764069E+02  0.93082057313E+03  0.93674587753E+03  0.50400001928E-02 0.  1.
</event>
<event>
 5   0  0.5866610E-05  0.2094210E+04  0.7818609E-02  0.8563798E-01
       -2   -1    0    0    0  501  0.00000000000E+00  0.00000000000E+00  0.10191427265E+04  0.10191427265E+04  0.25500000920E-02 0. -1.
        2   -1    0    0  501    0  0.00000000000E+00  0.00000000000E+00 -0.10758342093E+04  0.10758342093E+04  0.25500000920E-02 0.  1.
    10030    2    1    2    0    0  0.00000000000E+00  0.00000000000E+00 -0.56691482767E+02  0.20949769359E+04  0.20942097406E+04 0.  0.
        5    1    3    3  502    0 -0.77183430859E+02  0.10423881933E+04  0.33935333176E+02  0.10458031002E+04  0.46999998093E+01 0. -1.
       -5    1    3    3    0  502  0.77183430859E+02 -0.10423881933E+04 -0.90626815942E+02  0.10491738356E+04  0.46999998093E+01 0.  1.
</event>
<event>
 5   0  0.5866610E-05  0.1880844E+04  0.7818609E-02  0.8664450E-01
        2   -1    0    0  501    0  0.00000000000E+00  0.00000000000E+00  0.65802197155E+03  0.65802197156E+03  0.25500000920E-02 0.  1.
       -2   -1    0    0    0  501  0.00000000000E+00  0.00000000000E+00 -0.13440189495E+04  0.13440189495E+04  0.25500000920E-02 0. -1.
    10030    2    1    2    0    0  0.00000000000E+00  0.00000000000E+00 -0.68599697799E+03  0.20020409211E+04  0.18808444901E+04 0.  0.
        5    1    3    3  502    0 -0.85425008018E+03 -0.87443340605E+01 -0.76146212227E+03  0.11444065346E+04  0.46999998093E+01 0. -1.
       -5    1    3    3    0  502  0.85425008018E+03  0.87443340605E+01  0.75465144275E+02  0.85763438647E+03  0.46999998093E+01 0.  1.
</event>
<event>
 5   0  0.5954140E-05  0.2098139E+04  0.7818609E-02  0.8562064E-01
        2   -1    0    0  501    0  0.00000000000E+00  0.00000000000E+00  0.16986201174E+04  0.16986201174E+04  0.25500000920E-02 0. -1.
       -2   -1    0    0    0  501  0.00000000000E+00  0.00000000000E+00 -0.64790632207E+03  0.64790632207E+03  0.25500000920E-02 0.  1.
    10030    2    1    2    0    0  0.00000000000E+00  0.00000000000E+00  0.10507137954E+04  0.23465264395E+04  0.20981389019E+04 0.  0.
        2    1    3    3  502    0  0.24729918785E+03  0.19114740259E+03  0.16453355520E+04  0.16747606684E+04  0.25500000920E-02 0. -1.
       -2    1    3    3    0  502 -0.24729918785E+03 -0.19114740259E+03 -0.59462175659E+03  0.67176577112E+03  0.25500000920E-02 0.  1.
</event>
<event>
 5   0  0.2017750E-05  0.2102597E+04  0.7818609E-02  0.8560100E-01
        3   -1    0    0  501    0  0.00000000000E+00  0.00000000000E+00  0.10426808774E+04  0.10426808823E+04  0.10100000352E+00 0.  1.
       -3   -1    0    0    0  501  0.00000000000E+00  0.00000000000E+00 -0.10599872447E+04  0.10599872495E+04  0.10100000352E+00 0. -1.
    10030    2    1    2    0    0  0.00000000000E+00  0.00000000000E+00 -0.17306367306E+02  0.21026681318E+04  0.21025969091E+04 0.  0.
        2    1    3    3  502    0 -0.77686238820E+03 -0.41115994580E+03 -0.58544023843E+03  0.10560814097E+04  0.25500000920E-02 0. -1.
       -2    1    3    3    0  502  0.77686238820E+03  0.41115994580E+03  0.56813387112E+03  0.10465867220E+04  0.25500000920E-02 0.  1.
</event>
<event>
 5   0  0.5506332E-05  0.2131080E+04  0.7818609E-02  0.8547675E-01
       -2   -1    0    0    0  501  0.00000000000E+00  0.00000000000E+00  0.78359336800E+03  0.78359336800E+03  0.25500000920E-02 0.  1.
        2   -1    0    0  501    0  0.00000000000E+00  0.00000000000E+00 -0.14489347031E+04  0.14489347031E+04  0.25500000920E-02 0. -1.
    10030    2    1    2    0    0  0.00000000000E+00  0.00000000000E+00 -0.66534133508E+03  0.22325280711E+04  0.21310801243E+04 0.  0.
        3    1    3    3  502    0 -0.84373288288E+03  0.65073665101E+03 -0.33861965481E+03  0.11180369616E+04  0.10100000352E+00 0.  1.
       -3    1    3    3    0  502  0.84373288288E+03 -0.65073665101E+03 -0.32672168027E+03  0.11144911095E+04  0.10100000352E+00 0. -1.
</event>
<event>
 5   0  0.2732159E-05  0.2085145E+04  0.7818609E-02  0.8567815E-01
       -1   -1    0    0    0  501  0.00000000000E+00  0.00000000000E+00  0.18564334196E+04  0.18564334196E+04  0.50400001928E-02 0.  1.
        1   -1    0    0  501    0  0.00000000000E+00  0.00000000000E+00 -0.58550851562E+03  0.58550851564E+03  0.50400001928E-02 0. -1.
    10030    2    1    2    0    0  0.00000000000E+00  0.00000000000E+00  0.12709249040E+04  0.24419419352E+04  0.20851451517E+04 0.  0.
        3    1    3    3  502    0 -0.47118280462E+03 -0.50613253305E+03 -0.27828705565E+03  0.74540396559E+03  0.10100000352E+00 0. -1.
       -3    1    3    3    0  502  0.47118280462E+03  0.50613253305E+03  0.15492119596E+04  0.16965379696E+04  0.10100000352E+00 0.  1.
</event>
<event>
 5   0  0.5967046E-05  0.2087562E+04  0.7818609E-02  0.8566742E-01
        2   -1    0    0  501    0  0.00000000000E+00  0.00000000000E+00  0.14545707318E+04  0.14545707318E+04  0.25500000920E-02 0.  1.
       -2   -1    0    0    0  501  0.00000000000E+00  0.00000000000E+00 -0.74900333436E+03  0.74900333436E+03  0.25500000920E-02 0. -1.
    10030    2    1    2    0    0  0.00000000000E+00  0.00000000000E+00  0.70556739746E+03  0.22035740662E+04  0.20875615710E+04 0.  0.
        4    1    3    3  502    0 -0.34417181166E+03 -0.42956629485E+03  0.12889142494E+04  0.14015288055E+04  0.12699999809E+01 0.  1.
       -4    1    3    3    0  502  0.34417181166E+03  0.42956629485E+03 -0.58334685191E+03  0.80204526066E+03  0.12699999809E+01 0. -1.
</event>
<event>
 5   0  0.2699285E-05  0.2101304E+04  0.7818609E-02  0.8560669E-01
       -1   -1    0    0    0  501  0.00000000000E+00  0.00000000000E+00  0.12534507559E+04  0.12534507559E+04  0.50400001928E-02 0. -1.
        1   -1    0    0  501    0  0.00000000000E+00  0.00000000000E+00 -0.88066466286E+03  0.88066466287E+03  0.50400001928E-02 0.  1.
    10030    2    1    2    0    0  0.00000000000E+00  0.00000000000E+00  0.37278609299E+03  0.21341154187E+04  0.21013041544E+04 0.  0.
        2    1    3    3  502    0  0.33694867668E+02 -0.89113652945E+03  0.75059433352E+03  0.11656120760E+04  0.25500000920E-02 0.  1.
       -2    1    3    3    0  502 -0.33694867668E+02  0.89113652945E+03 -0.37780824053E+03  0.96850334272E+03  0.25500000920E-02 0. -1.
</event>
<event>
 5   0  0.2602060E-05  0.2100709E+04  0.7818609E-02  0.8560931E-01
        1   -1    0    0  501    0  0.00000000000E+00  0.00000000000E+00  0.20526161917E+04  0.20526161917E+04  0.50400001928E-02 0.  1.
       -1   -1    0    0    0  501  0.00000000000E+00  0.00000000000E+00 -0.53748236665E+03  0.53748236668E+03  0.50400001928E-02 0. -1.
    10030    2    1    2    0    0  0.00000000000E+00  0.00000000000E+00  0.15151338250E+04  0.25900985584E+04  0.21007094122E+04 0.  0.
        1    1    3    3  502    0  0.77016557134E+03 -0.50860102068E+03  0.13934285085E+03  0.93340582579E+03  0.50400001928E-02 0. -1.
       -1    1    3    3    0  502 -0.77016557134E+03  0.50860102068E+03  0.13757909742E+04  0.16566927326E+04  0.50400001928E-02 0.  1.
</event>
<event>
 5   0  0.5866610E-05  0.2103833E+04  0.7818609E-02  0.8559557E-01
        2   -1    0    0  501    0  0.00000000000E+00  0.00000000000E+00  0.95052817223E+03  0.95052817223E+03  0.25500000920E-02 0.  1.
       -2   -1    0    0    0  501  0.00000000000E+00  0.00000000000E+00 -0.11641197560E+04  0.11641197560E+04  0.25500000920E-02 0. -1.
    10030    2    1    2    0    0  0.00000000000E+00  0.00000000000E+00 -0.21359158378E+03  0.21146479282E+04  0.21038332861E+04 0.  0.
        5    1    3    3  502    0 -0.16358405048E+03  0.10078909453E+04 -0.36088494848E+03  0.10829884280E+04  0.46999998093E+01 0.  1.
       -5    1    3    3    0  502  0.16358405048E+03 -0.10078909453E+04  0.14729336471E+03  0.10316595002E+04  0.46999998093E+01 0. -1.
</event>
<event>
 5   0  0.2604390E-05  0.2113253E+04  0.7818609E-02  0.8555428E-01
        1   -1    0    0  501    0  0.00000000000E+00  0.00000000000E+00  0.16438914922E+04  0.16438914922E+04  0.50400001928E-02 0. -1.
       -1   -1    0    0    0  501  0.00000000000E+00  0.00000000000E+00 -0.67915629942E+03  0.67915629944E+03  0.50400001928E-02 0.  1.
    10030    2    1    2    0    0  0.00000000000E+00  0.00000000000E+00  0.96473519277E+03  0.23230477916E+04  0.21132527180E+04 0.  0.
        5    1    3    3  502    0 -0.69842137402E+03  0.10755764045E+03  0.13458949024E+04  0.15201369149E+04  0.46999998093E+01 0. -1.
       -5    1    3    3    0  502  0.69842137402E+03 -0.10755764045E+03 -0.38115970965E+03  0.80291087672E+03  0.46999998093E+01 0.  1.
</event>
<event>
 5   0  0.5506332E-05  0.2108133E+04  0.7818609E-02  0.8557669E-01
        2   -1    0    0  501    0  0.00000000000E+00  0.00000000000E+00  0.16804789544E+04  0.16804789544E+04  0.25500000920E-02 0. -1.
       -2   -1    0    0    0  501  0.00000000000E+00  0.00000000000E+00 -0.66115454189E+03  0.66115454190E+03  0.25500000920E-02 0.  1.
    10030    2    1    2    0    0  0.00000000000E+00  0.00000000000E+00  0.10193244125E+04  0.23416334963E+04  0.21081331014E+04 0.  0.
        3    1    3    3  502    0  0.43138423043E+03 -0.76272428956E+03  0.11603975506E+04  0.14540849981E+04  0.10100000352E+00 0. -1.
       -3    1    3    3    0  502 -0.43138423043E+03  0.76272428956E+03 -0.14107313807E+03  0.88754849819E+03  0.10100000352E+00 0.  1.
</event>
<event>
 5   0  0.5462851E-05  0.2107335E+04  0.7818609E-02  0.8558019E-01
       -2   -1    0    0    0  501  0.00000000000E+00  0.00000000000E+00  0.56237546511E+03  0.56237546511E+03  0.25500000920E-02 0.  1.
        2   -1    0    0  501    0  0.00000000000E+00  0.00000000000E+00 -0.19741533762E+04  0.19741533762E+04  0.25500000920E-02 0. -1.
    10030    2    1    2    0    0  0.00000000000E+00  0.00000000000E+00 -0.14117779111E+04  0.25365288413E+04  0.21073352113E+04 0.  0.
        1    1    3    3  502    0 -0.42088557969E+03  0.17648912409E+03 -0.18490061395E+04  0.19044990906E+04  0.50400001928E-02 0. -1.
       -1    1    3    3    0  502  0.42088557969E+03 -0.17648912409E+03  0.43722822838E+03  0.63202975075E+03  0.50400001928E-02 0.  1.
</event>
<event>
 5   0  0.2699285E-05  0.2116760E+04  0.7818609E-02  0.8553896E-01
        1   -1    0    0  501    0  0.00000000000E+00  0.00000000000E+00  0.27027269966E+04  0.27027269966E+04  0.50400001928E-02 0.  1.
       -1   -1    0    0    0  501  0.00000000000E+00  0.00000000000E+00 -0.41445860127E+03  0.41445860130E+03  0.50400001928E-02 0. -1.
    10030    2    1    2    0    0  0.00000000000E+00  0.00000000000E+00  0.22882683953E+04  0.31171855979E+04  0.21167602138E+04 0.  0.
        2    1    3    3  502    0  0.23021376736E+03  0.55936779312E+02  0.26631776907E+04  0.26736945813E+04  0.25500000920E-02 0.  1.
       -2    1    3    3    0  502 -0.23021376736E+03 -0.55936779312E+02 -0.37490929541E+03  0.44349101654E+03  0.25500000920E-02 0. -1.
</event>
<event>
 5   0  0.2699285E-05  0.2100212E+04  0.7818609E-02  0.8561150E-01
        1   -1    0    0  501    0  0.00000000000E+00  0.00000000000E+00  0.71930778169E+03  0.71930778171E+03  0.50400001928E-02 0.  1.
       -1   -1    0    0    0  501  0.00000000000E+00  0.00000000000E+00 -0.15330329157E+04  0.15330329157E+04  0.50400001928E-02 0. -1.
    10030    2    1    2    0    0  0.00000000000E+00  0.00000000000E+00 -0.81372513398E+03  0.22523406974E+04  0.21002118997E+04 0.  0.
        2    1    3    3  502    0  0.10143490201E+03  0.48491440954E+03 -0.13998305000E+04  0.14849095773E+04  0.25500000920E-02 0. -1.
       -2    1    3    3    0  502 -0.10143490201E+03 -0.48491440954E+03  0.58610536607E+03  0.76743112008E+03  0.25500000920E-02 0.  1.
</event>
<event>
 5   0  0.5506332E-05  0.2100383E+04  0.7818609E-02  0.8561075E-01
       -2   -1    0    0    0  501  0.00000000000E+00  0.00000000000E+00  0.92264710655E+03  0.92264710655E+03  0.25500000920E-02 0. -1.
        2   -1    0    0  501    0  0.00000000000E+00  0.00000000000E+00 -0.11953670008E+04  0.11953670008E+04  0.25500000920E-02 0.  1.
    10030    2    1    2    0    0  0.00000000000E+00  0.00000000000E+00 -0.27271989421E+03  0.21180141073E+04  0.21003827313E+04 0.  0.
        3    1    3    3  502    0  0.41725298927E+03 -0.13730126068E+03 -0.10982805397E+04  0.11828659464E+04  0.10100000352E+00 0.  1.
       -3    1    3    3    0  502 -0.41725298927E+03  0.13730126068E+03  0.82556064546E+03  0.93514816086E+03  0.10100000352E+00 0. -1.
</event>
<event>
 5   0  0.5506332E-05  0.2096518E+04  0.7818609E-02  0.8562779E-01
        2   -1    0    0  501    0  0.00000000000E+00  0.00000000000E+00  0.18322677370E+04  0.18322677370E+04  0.25500000920E-02 0.  1.
       -2   -1    0    0    0  501  0.00000000000E+00  0.00000000000E+00 -0.59971987376E+03  0.59971987376E+03  0.25500000920E-02 0. -1.
    10030    2    1    2    0    0  0.00000000000E+00  0.00000000000E+00  0.12325478633E+04  0.24319876108E+04  0.20965184244E+04 0.  0.
        3    1    3    3  502    0  0.27515631708E+03 -0.58871614008E+03  0.15704148460E+04  0.16995589107E+04  0.10100000352E+00 0.  1.
       -3    1    3    3    0  502 -0.27515631708E+03  0.58871614008E+03 -0.33786698272E+03  0.73242870003E+03  0.10100000352E+00 0. -1.
</event>
<event>
 5   0  0.2789662E-05  0.2092729E+04  0.7818609E-02  0.8564453E-01
        1   -1    0    0  501    0  0.00000000000E+00  0.00000000000E+00  0.11219215721E+04  0.11219215721E+04  0.50400001928E-02 0.  1.
       -1   -1    0    0    0  501  0.00000000000E+00  0.00000000000E+00 -0.97589596623E+03  0.97589596625E+03  0.50400001928E-02 0. -1.
    10030    2    1    2    0    0  0.00000000000E+00  0.00000000000E+00  0.14602560588E+03  0.20978175384E+04  0.20927290667E+04 0.  0.
        4    1    3    3  502    0 -0.84173163243E+03 -0.60551833118E+03 -0.67729912540E+02  0.10391119018E+04  0.12699999809E+01 0.  1.
       -4    1    3    3    0  502  0.84173163243E+03  0.60551833118E+03  0.21375551842E+03  0.10587056366E+04  0.12699999809E+01 0. -1.
</event>
<event>
 5   0  0.2789662E-05  0.2106571E+04  0.7818609E-02  0.8558354E-01
       -1   -1    0    0    0  501  0.00000000000E+00  0.00000000000E+00  0.88850059352E+03  0.88850059354E+03  0.50400001928E-02 0. -1.
        1   -1    0    0  501    0  0.00000000000E+00  0.00000000000E+00 -0.12486318421E+04  0.12486318421E+04  0.50400001928E-02 0.  1.
    10030    2    1    2    0    0  0.00000000000E+00  0.00000000000E+00 -0.36013124856E+03  0.21371324356E+04  0.21065707990E+04 0.  0.
        4    1    3    3  502    0  0.57695230047E+02 -0.89347254437E+03 -0.74289949508E+03  0.11634101597E+04  0.12699999809E+01 0.  1.
       -4    1    3    3    0  502 -0.57695230047E+02  0.89347254437E+03  0.38276824652E+03  0.97372227588E+03  0.12699999809E+01 0. -1.
</event>
<event>
 5   0  0.2602060E-05  0.2116602E+04  0.7818609E-02  0.8553965E-01
       -1   -1    0    0    0  501  0.00000000000E+00  0.00000000000E+00  0.90724503837E+03  0.90724503838E+03  0.50400001928E-02 0. -1.
        1   -1    0    0  501    0  0.00000000000E+00  0.00000000000E+00 -0.12345074843E+04  0.12345074843E+04  0.50400001928E-02 0.  1.
    10030    2    1    2    0    0  0.00000000000E+00  0.00000000000E+00 -0.32726244592E+03  0.21417525227E+04  0.21166017953E+04 0.  0.
        1    1    3    3  502    0  0.82061523874E+03  0.62782555909E+03 -0.39532027184E+03  0.11062786358E+04  0.50400001928E-02 0.  1.
       -1    1    3    3    0  502 -0.82061523874E+03 -0.62782555909E+03  0.68057825913E+02  0.10354738869E+04  0.50400001928E-02 0. -1.
</event>
<event>
 5   0  0.2602060E-05  0.2087642E+04  0.7818609E-02  0.8566707E-01
        1   -1    0    0  501    0  0.00000000000E+00  0.00000000000E+00  0.13279604918E+04  0.13279604919E+04  0.50400001928E-02 0.  1.
       -1   -1    0    0    0  501  0.00000000000E+00  0.00000000000E+00 -0.82047788630E+03  0.82047788632E+03  0.50400001928E-02 0. -1.
    10030    2    1    2    0    0  0.00000000000E+00  0.00000000000E+00  0.50748260555E+03  0.21484383782E+04  0.20876419401E+04 0.  0.
        1    1    3    3  502    0 -0.57315155133E+03 -0.50989898191E+03 -0.47473068868E+03  0.90214682804E+03  0.50400001928E-02 0. -1.
       -1    1    3    3    0  502  0.57315155133E+03  0.50989898191E+03  0.98221329423E+03  0.12462915501E+04  0.50400001928E-02 0.  1.
</event>
<event>
 5   0  0.2699285E-05  0.2101959E+04  0.7818609E-02  0.8560381E-01
       -1   -1    0    0    0  501  0.00000000000E+00  0.00000000000E+00  0.13090277298E+04  0.13090277298E+04  0.50400001928E-02 0. -1.
        1   -1    0    0  501    0  0.00000000000E+00  0.00000000000E+00 -0.84380047620E+03  0.84380047622E+03  0.50400001928E-02 0.  1.
    10030    2    1    2    0    0  0.00000000000E+00  0.00000000000E+00  0.46522725356E+03  0.21528282060E+04  0.21019592972E+04 0.  0.
        2    1    3    3  502    0  0.77788183799E+03 -0.49653604243E+03  0.74768581019E+03  0.11877214598E+04  0.25500000920E-02 0. -1.
       -2    1    3    3    0  502 -0.77788183799E+03  0.49653604243E+03 -0.28245855663E+03  0.96510674619E+03  0.25500000920E-02 0.  1.
</event>
<event>
 5   0  0.2604390E-05  0.2184676E+04  0.7818609E-02  0.8524834E-01
        1   -1    0    0  501    0  0.00000000000E+00  0.00000000000E+00  0.87653104949E+03  0.87653104951E+03  0.50400001928E-02 0. -1.
       -1   -1    0    0    0  501  0.00000000000E+00  0.00000000000E+00 -0.13612774456E+04  0.13612774456E+04  0.50400001928E-02 0.  1.
    10030    2    1    2    0    0  0.00000000000E+00  0.00000000000E+00 -0.48474639614E+03  0.22378084951E+04  0.21846756721E+04 0.  0.
        5    1    3    3  502    0 -0.79226177491E+03 -0.74850498478E+03 -0.16821474369E+03  0.11028402977E+04  0.46999998093E+01 0.  1.
       -5    1    3    3    0  502  0.79226177491E+03  0.74850498478E+03 -0.31653165245E+03  0.11349681975E+04  0.46999998093E+01 0. -1.
</event>
<event>
 5   0  0.2699285E-05  0.2106284E+04  0.7818609E-02  0.8558480E-01
       -1   -1    0    0    0  501  0.00000000000E+00  0.00000000000E+00  0.86130243992E+03  0.86130243994E+03  0.50400001928E-02 0. -1.
        1   -1    0    0  501    0  0.00000000000E+00  0.00000000000E+00 -0.12877104964E+04  0.12877104965E+04  0.50400001928E-02 0.  1.
    10030    2    1    2    0    0  0.00000000000E+00  0.00000000000E+00 -0.42640805652E+03  0.21490129364E+04  0.21062841143E+04 0.  0.
        2    1    3    3  502    0  0.19063839683E+03 -0.89674560195E+03  0.31558836943E+03  0.96958325681E+03  0.25500000920E-02 0.  1.
       -2    1    3    3    0  502 -0.19063839683E+03  0.89674560195E+03 -0.74199642595E+03  0.11794296796E+04  0.25500000920E-02 0. -1.
</event>
<event>
 5   0  0.5462851E-05  0.2101751E+04  0.7818609E-02  0.8560472E-01
       -2   -1    0    0    0  501  0.00000000000E+00  0.00000000000E+00  0.78174927660E+03  0.78174927660E+03  0.25500000920E-02 0. -1.
        2   -1    0    0  501    0  0.00000000000E+00  0.00000000000E+00 -0.14126520564E+04  0.14126520564E+04  0.25500000920E-02 0.  1.
    10030    2    1    2    0    0  0.00000000000E+00  0.00000000000E+00 -0.63090277983E+03  0.21944013330E+04  0.21017513870E+04 0.  0.
        1    1    3    3  502    0  0.85138170795E+03 -0.12284112856E+03 -0.94571652668E+03  0.12784054538E+04  0.50400001928E-02 0.  1.
       -1    1    3    3    0  502 -0.85138170795E+03  0.12284112856E+03  0.31481374685E+03  0.91599587921E+03  0.50400001928E-02 0. -1.
</event>
<event>
 5   0  0.5462851E-05  0.2135596E+04  0.7818609E-02  0.8545723E-01
        2   -1    0    0  501    0  0.00000000000E+00  0.00000000000E+00  0.10580217528E+04  0.10580217528E+04  0.25500000920E-02 0.  1.
       -2   -1    0    0    0  501  0.00000000000E+00  0.00000000000E+00 -0.10776646378E+04  0.10776646378E+04  0.25500000920E-02 0. -1.
    10030    2    1    2    0    0  0.00000000000E+00  0.00000000000E+00 -0.19642885055E+02  0.21356863906E+04  0.21355960564E+04 0.  0.
        1    1    3    3  502    0  0.40396214560E+03 -0.42069183960E+03  0.88465788784E+03  0.10596162596E+04  0.50400001928E-02 0.  1.
       -1    1    3    3    0  502 -0.40396214560E+03  0.42069183960E+03 -0.90430077290E+03  0.10760701310E+04  0.50400001928E-02 0. -1.
</event>
<event>
 5   0  0.5954140E-05  0.2095618E+04  0.7818609E-02  0.8563176E-01
       -2   -1    0    0    0  501  0.00000000000E+00  0.00000000000E+00  0.76214115318E+03  0.76214115318E+03  0.25500000920E-02 0.  1.
        2   -1    0    0  501    0  0.00000000000E+00  0.00000000000E+00 -0.14405518257E+04  0.14405518257E+04  0.25500000920E-02 0. -1.
    10030    2    1    2    0    0  0.00000000000E+00  0.00000000000E+00 -0.67841067255E+03  0.22026929789E+04  0.20956181233E+04 0.  0.
        2    1    3    3  502    0  0.36451934217E+03  0.88112691396E+03  0.11731937182E+03  0.96074076854E+03  0.25500000920E-02 0.  1.
       -2    1    3    3    0  502 -0.36451934217E+03 -0.88112691396E+03 -0.79573004437E+03  0.12419522104E+04  0.25500000920E-02 0. -1.
</event>
<event>
 5   0  0.2789662E-05  0.2101570E+04  0.7818609E-02  0.8560552E-01
        1   -1    0    0  501    0  0.00000000000E+00  0.00000000000E+00  0.17900625629E+04  0.17900625629E+04  0.50400001928E-02 0. -1.
       -1   -1    0    0    0  501  0.00000000000E+00  0.00000000000E+00 -0.61682168517E+03  0.61682168519E+03  0.50400001928E-02 0.  1.
    10030    2    1    2    0    0  0.00000000000E+00  0.00000000000E+00  0.11732408777E+04  0.24068842481E+04  0.21015702764E+04 0.  0.
        4    1    3    3  502    0  0.15066809134E+03  0.48571783908E+03 -0.46649150840E+03  0.69010045157E+03  0.12699999809E+01 0.  1.
       -4    1    3    3    0  502 -0.15066809134E+03 -0.48571783908E+03  0.16397323861E+04  0.17167837965E+04  0.12699999809E+01 0. -1.
</event>
<event>
 5   0  0.2789662E-05  0.2097631E+04  0.7818609E-02  0.8562288E-01
        1   -1    0    0  501    0  0.00000000000E+00  0.00000000000E+00  0.83983333233E+03  0.83983333234E+03  0.50400001928E-02 0.  1.
       -1   -1    0    0    0  501  0.00000000000E+00  0.00000000000E+00 -0.13098005118E+04  0.13098005118E+04  0.50400001928E-02 0. -1.
    10030    2    1    2    0    0  0.00000000000E+00  0.00000000000E+00 -0.46996717950E+03  0.21496338442E+04  0.20976311673E+04 0.  0.
        4    1    3    3  502    0  0.38770516853E+03 -0.30749574925E+03 -0.11826486835E+04  0.12820017375E+04  0.12699999809E+01 0. -1.
       -4    1    3    3    0  502 -0.38770516853E+03  0.30749574925E+03  0.71268150398E+03  0.86763210668E+03  0.12699999809E+01 0.  1.
</event>
<event>
 5   0  0.2602060E-05  0.2092571E+04  0.7818609E-02  0.8564523E-01
       -1   -1    0    0    0  501  0.00000000000E+00  0.00000000000E+00  0.72877777805E+03  0.72877777806E+03  0.50400001928E-02 0.  1.
        1   -1    0    0  501    0  0.00000000000E+00  0.00000000000E+00 -0.15021222302E+04  0.15021222302E+04  0.50400001928E-02 0. -1.
    10030    2    1    2    0    0  0.00000000000E+00  0.00000000000E+00 -0.77334445213E+03  0.22309000083E+04  0.20925709558E+04 0.  0.
        1    1    3    3  502    0  0.37505995973E+03  0.39406224950E+03  0.56614060326E+03  0.78515617081E+03  0.50400001928E-02 0.  1.
       -1    1    3    3    0  502 -0.37505995973E+03 -0.39406224950E+03 -0.13394850554E+04  0.14457438374E+04  0.50400001928E-02 0. -1.
</event>
<event>
 5   0  0.2699285E-05  0.2105837E+04  0.7818609E-02  0.8558676E-01
       -1   -1    0    0    0  501  0.00000000000E+00  0.00000000000E+00  0.48542521325E+03  0.48542521328E+03  0.50400001928E-02 0.  1.
        1   -1    0    0  501    0  0.00000000000E+00  0.00000000000E+00 -0.22838487934E+04  0.22838487934E+04  0.50400001928E-02 0. -1.
    10030    2    1    2    0    0  0.00000000000E+00  0.00000000000E+00 -0.17984235801E+04  0.27692740067E+04  0.21058373989E+04 0.  0.
        2    1    3    3  502    0  0.53726781405E+03 -0.68501974855E+03 -0.12040998296E+03  0.87886706840E+03  0.25500000920E-02 0.  1.
       -2    1    3    3    0  502 -0.53726781405E+03  0.68501974855E+03 -0.16780135972E+04  0.18904069383E+04  0.25500000920E-02 0. -1.
</event>
<event>
 5   0  0.2699285E-05  0.2322638E+04  0.7818609E-02  0.8469048E-01
        1   -1    0    0  501    0  0.00000000000E+00  0.00000000000E+00  0.72213731193E+03  0.72213731195E+03  0.50400001928E-02 0.  1.
       -1   -1    0    0    0  501  0.00000000000E+00  0.00000000000E+00 -0.18675979924E+04  0.18675979924E+04  0.50400001928E-02 0. -1.
    10030    2    1    2    0    0  0.00000000000E+00  0.00000000000E+00 -0.11454606805E+04  0.25897353044E+04  0.23226383223E+04 0.  0.
        2    1    3    3  502    0  0.25973546486E+03  0.29543769687E+02 -0.18343667568E+04  0.18528995506E+04  0.25500000920E-02 0. -1.
       -2    1    3    3    0  502 -0.25973546486E+03 -0.29543769687E+02  0.68890607633E+03  0.73683575378E+03  0.25500000920E-02 0.  1.
</event>
<event>
 5   0  0.5506332E-05  0.2093009E+04  0.7818609E-02  0.8564329E-01
        2   -1    0    0  501    0  0.00000000000E+00  0.00000000000E+00  0.10311908713E+04  0.10311908713E+04  0.25500000920E-02 0. -1.
       -2   -1    0    0    0  501  0.00000000000E+00  0.00000000000E+00 -0.10620454638E+04  0.10620454638E+04  0.25500000920E-02 0.  1.
    10030    2    1    2    0    0  0.00000000000E+00  0.00000000000E+00 -0.30854592466E+02  0.20932363351E+04  0.20930089223E+04 0.  0.
        3    1    3    3  502    0 -0.68298112890E+03 -0.77503565383E+03 -0.18286140540E+03  0.10490861694E+04  0.10100000352E+00 0.  1.
       -3    1    3    3    0  502  0.68298112890E+03  0.77503565383E+03  0.15200681293E+03  0.10441501657E+04  0.10100000352E+00 0. -1.
</event>
<event>
 5   0  0.5462851E-05  0.2097878E+04  0.7818609E-02  0.8562179E-01
       -2   -1    0    0    0  501  0.00000000000E+00  0.00000000000E+00  0.17323757737E+04  0.17323757737E+04  0.25500000920E-02 0.  1.
        2   -1    0    0  501    0  0.00000000000E+00  0.00000000000E+00 -0.63512390082E+03  0.63512390083E+03  0.25500000920E-02 0. -1.
    10030    2    1    2    0    0  0.00000000000E+00  0.00000000000E+00  0.10972518729E+04  0.23674996746E+04  0.20978782225E+04 0.  0.
        1    1    3    3  502    0 -0.39626658128E+03  0.51529376031E+03 -0.38041380145E+03  0.75317297031E+03  0.50400001928E-02 0. -1.
       -1    1    3    3    0  502  0.39626658128E+03 -0.51529376031E+03  0.14776656744E+04  0.16143267042E+04  0.50400001928E-02 0.  1.
</event>
<event>
 5   0  0.5506332E-05  0.2100479E+04  0.7818609E-02  0.8561032E-01
        2   -1    0    0  501    0  0.00000000000E+00  0.00000000000E+00  0.57714046543E+03  0.57714046543E+03  0.25500000920E-02 0.  1.
       -2   -1    0    0    0  501  0.00000000000E+00  0.00000000000E+00 -0.19111518577E+04  0.19111518577E+04  0.25500000920E-02 0. -1.
    10030    2    1    2    0    0  0.00000000000E+00  0.00000000000E+00 -0.13340113923E+04  0.24882923232E+04  0.21004790622E+04 0.  0.
        3    1    3    3  502    0  0.89621402232E+03 -0.38495649994E+02 -0.19974271878E+02  0.89726276564E+03  0.10100000352E+00 0.  1.
       -3    1    3    3    0  502 -0.89621402232E+03  0.38495649994E+02 -0.13140371204E+04  0.15910295575E+04  0.10100000352E+00 0. -1.
</event>
<event>
 5   0  0.2602060E-05  0.2101061E+04  0.7818609E-02  0.8560776E-01
       -1   -1    0    0    0  501  0.00000000000E+00  0.00000000000E+00  0.10698417350E+04  0.10698417350E+04  0.50400001928E-02 0.  1.
        1   -1    0    0  501    0  0.00000000000E+00  0.00000000000E+00 -0.10315680884E+04  0.10315680884E+04  0.50400001928E-02 0. -1.
    10030    2    1    2    0    0  0.00000000000E+00  0.00000000000E+00  0.38273646586E+02  0.21014098234E+04  0.21010612495E+04 0.  0.
        1    1    3    3  502    0 -0.85655162663E+03  0.25563966510E+03 -0.53284445999E+03  0.10406515008E+04  0.50400001928E-02 0. -1.
       -1    1    3    3    0  502  0.85655162663E+03 -0.25563966510E+03  0.57111810658E+03  0.10607583227E+04  0.50400001928E-02 0.  1.
</event>
<event>
 5   0  0.5954140E-05  0.2139467E+04  0.7818609E-02  0.8544054E-01
        2   -1    0    0  501    0  0.00000000000E+00  0.00000000000E+00  0.75203454703E+03  0.75203454703E+03  0.25500000920E-02 0.  1.
       -2   -1    0    0    0  501  0.00000000000E+00  0.00000000000E+00 -0.15216457521E+04  0.15216457521E+04  0.25500000920E-02 0. -1.
    10030    2    1    2    0    0  0.00000000000E+00  0.00000000000E+00 -0.76961120506E+03  0.22736802991E+04  0.21394673860E+04 0.  0.
        2    1    3    3  502    0  0.87969945670E+03  0.57580082274E+03 -0.59444264736E+03  0.12077995623E+04  0.25500000920E-02 0.  1.
       -2    1    3    3    0  502 -0.87969945670E+03 -0.57580082274E+03 -0.17516855770E+03  0.10658807369E+04  0.25500000920E-02 0. -1.
</event>
<event>
 5   0  0.5954140E-05  0.2097173E+04  0.7818609E-02  0.8562490E-01
        2   -1    0    0  501    0  0.00000000000E+00  0.00000000000E+00  0.11010670009E+04  0.11010670009E+04  0.25500000920E-02 0. -1.
       -2   -1    0    0    0  501  0.00000000000E+00  0.00000000000E+00 -0.99860769262E+03  0.99860769262E+03  0.25500000920E-02 0.  1.
    10030    2    1    2    0    0  0.00000000000E+00  0.00000000000E+00  0.10245930829E+03  0.20996746935E+04  0.20971733140E+04 0.  0.
        2    1    3    3  502    0 -0.59903268257E+03 -0.77711873744E+03 -0.31904966092E+03  0.10317685656E+04  0.25500000920E-02 0.  1.
       -2    1    3    3    0  502  0.59903268257E+03  0.77711873744E+03  0.42150896922E+03  0.10679061279E+04  0.25500000920E-02 0. -1.
</event>
<event>
 5   0  0.2602060E-05  0.2099271E+04  0.7818609E-02  0.8561565E-01
        1   -1    0    0  501    0  0.00000000000E+00  0.00000000000E+00  0.11219114966E+04  0.11219114966E+04  0.50400001928E-02 0.  1.
       -1   -1    0    0    0  501  0.00000000000E+00  0.00000000000E+00 -0.98201582452E+03  0.98201582453E+03  0.50400001928E-02 0. -1.
    10030    2    1    2    0    0  0.00000000000E+00  0.00000000000E+00  0.13989567206E+03  0.21039273211E+04  0.20992711529E+04 0.  0.
        1    1    3    3  502    0 -0.53953576635E+03  0.33553109100E+03 -0.76740208042E+03  0.99628605795E+03  0.50400001928E-02 0. -1.
       -1    1    3    3    0  502  0.53953576635E+03 -0.33553109100E+03  0.90729775248E+03  0.11076412632E+04  0.50400001928E-02 0.  1.
</event>
<event>
 5   0  0.2789662E-05  0.1920670E+04  0.7818609E-02  0.8644636E-01
        1   -1    0    0  501    0  0.00000000000E+00  0.00000000000E+00  0.88576564246E+03  0.88576564248E+03  0.50400001928E-02 0.  1.
       -1   -1    0    0    0  501  0.00000000000E+00  0.00000000000E+00 -0.10411819747E+04  0.10411819747E+04  0.50400001928E-02 0. -1.
    10030    2    1    2    0    0  0.00000000000E+00  0.00000000000E+00 -0.15541633223E+03  0.19269476172E+04  0.19206699048E+04 0.  0.
        4    1    3    3  502    0  0.53279027575E+03 -0.77350823622E+03  0.12309882126E+03  0.94727789066E+03  0.12699999809E+01 0.  1.
       -4    1    3    3    0  502 -0.53279027575E+03  0.77350823622E+03 -0.27851515349E+03  0.97966972652E+03  0.12699999809E+01 0. -1.
</event>
<event>
 5   0  0.2604390E-05  0.2100970E+04  0.7818609E-02  0.8560816E-01
        1   -1    0    0  501    0  0.00000000000E+00  0.00000000000E+00  0.11460927552E+04  0.11460927552E+04  0.50400001928E-02 0.  1.
       -1   -1    0    0    0  501  0.00000000000E+00  0.00000000000E+00 -0.96285282115E+03  0.96285282116E+03  0.50400001928E-02 0. -1.
    10030    2    1    2    0    0  0.00000000000E+00  0.00000000000E+00  0.18323993401E+03  0.21089455763E+04  0.21009699119E+04 0.  0.
        5    1    3    3  502    0  0.28033400127E+03  0.72089949724E+03 -0.62186188939E+03  0.99248049697E+03  0.46999998093E+01 0. -1.
       -5    1    3    3    0  502 -0.28033400127E+03 -0.72089949724E+03  0.80510182341E+03  0.11164650794E+04  0.46999998093E+01 0.  1.
</event>
<event>
 5   0  0.5967046E-05  0.2018176E+04  0.7818609E-02  0.8598170E-01
       -2   -1    0    0    0  501  0.00000000000E+00  0.00000000000E+00  0.59980968835E+03  0.59980968836E+03  0.25500000920E-02 0. -1.
        2   -1    0    0  501    0  0.00000000000E+00  0.00000000000E+00 -0.16976356135E+04  0.16976356135E+04  0.25500000920E-02 0.  1.
    10030    2    1    2    0    0  0.00000000000E+00  0.00000000000E+00 -0.10978259251E+04  0.22974453018E+04  0.20181756993E+04 0.  0.
        4    1    3    3  502    0 -0.15357014571E+03 -0.99533733111E+03 -0.47712762061E+03  0.11144202850E+04  0.12699999809E+01 0.  1.
       -4    1    3    3    0  502  0.15357014571E+03  0.99533733111E+03 -0.62069830452E+03  0.11830250168E+04  0.12699999809E+01 0. -1.
</event>
<event>
 5   0  0.2604390E-05  0.2086887E+04  0.7818609E-02  0.8567042E-01
       -1   -1    0    0    0  501  0.00000000000E+00  0.00000000000E+00  0.15639484721E+04  0.15639484722E+04  0.50400001928E-02 0. -1.
        1   -1    0    0  501    0  0.00000000000E+00  0.00000000000E+00 -0.69616993912E+03  0.69616993913E+03  0.50400001928E-02 0.  1.
    10030    2    1    2    0    0  0.00000000000E+00  0.00000000000E+00  0.86777853303E+03  0.22601184113E+04  0.20868865927E+04 0.  0.
        5    1    3    3  502    0 -0.15479329352E+03  0.36673381140E+03 -0.61069431218E+03  0.72898853562E+03  0.46999998093E+01 0. -1.
       -5    1    3    3    0  502  0.15479329352E+03 -0.36673381140E+03  0.14784728452E+04  0.15311298757E+04  0.46999998093E+01 0.  1.
</event>
<event>
 5   0  0.5506332E-05  0.2130149E+04  0.7818609E-02  0.8548078E-01
        2   -1    0    0  501    0  0.00000000000E+00  0.00000000000E+00  0.62408746666E+03  0.62408746666E+03  0.25500000920E-02 0. -1.
       -2   -1    0    0    0  501  0.00000000000E+00  0.00000000000E+00 -0.18176677382E+04  0.18176677382E+04  0.25500000920E-02 0.  1.
    10030    2    1    2    0    0  0.00000000000E+00  0.00000000000E+00 -0.11935802715E+04  0.24417552048E+04  0.21301489656E+04 0.  0.
        3    1    3    3  502    0  0.69973834858E+03 -0.66660040347E+03 -0.11099282518E+04  0.14717100899E+04  0.10100000352E+00 0. -1.
       -3    1    3    3    0  502 -0.69973834858E+03  0.66660040347E+03 -0.83652019708E+02  0.97004511492E+03  0.10100000352E+00 0.  1.
</event>
<event>
 5   0  0.2604390E-05  0.2200562E+04  0.7818609E-02  0.8518194E-01
       -1   -1    0    0    0  501  0.00000000000E+00  0.00000000000E+00  0.13684089841E+04  0.13684089841E+04  0.50400001928E-02 0.  1.
        1   -1    0    0  501    0  0.00000000000E+00  0.00000000000E+00 -0.88469058304E+03  0.88469058305E+03  0.50400001928E-02 0. -1.
    10030    2    1    2    0    0  0.00000000000E+00  0.00000000000E+00  0.48371840103E+03  0.22530995671E+04  0.22005622390E+04 0.  0.
        5    1    3    3  502    0 -0.62434140474E+03 -0.77255124933E+03 -0.24268212416E+03  0.10225235087E+04  0.46999998093E+01 0. -1.
       -5    1    3    3    0  502  0.62434140474E+03  0.77255124933E+03  0.72640052519E+03  0.12305760584E+04  0.46999998093E+01 0.  1.
</event>
<event>
 5   0  0.2732159E-05  0.2076861E+04  0.7818609E-02  0.8571506E-01
        1   -1    0    0  501    0  0.00000000000E+00  0.00000000000E+00  0.11500561925E+04  0.11500561925E+04  0.50400001928E-02 0. -1.
       -1   -1    0    0    0  501  0.00000000000E+00  0.00000000000E+00 -0.93763896460E+03  0.93763896462E+03  0.50400001928E-02 0.  1.
    10030    2    1    2    0    0  0.00000000000E+00  0.00000000000E+00  0.21241722792E+03  0.20876951571E+04  0.20768606093E+04 0.  0.
        3    1    3    3  502    0  0.69619091398E+03 -0.53763021070E+03 -0.44858496291E+03  0.98739886131E+03  0.10100000352E+00 0.  1.
       -3    1    3    3    0  502 -0.69619091398E+03  0.53763021070E+03  0.66100219083E+03  0.11002962958E+04  0.10100000352E+00 0. -1.
</event>
<event>
 5   0  0.2732159E-05  0.2096298E+04  0.7818609E-02  0.8562876E-01
        1   -1    0    0  501    0  0.00000000000E+00  0.00000000000E+00  0.17064142482E+04  0.17064142482E+04  0.50400001928E-02 0.  1.
       -1   -1    0    0    0  501  0.00000000000E+00  0.00000000000E+00 -0.64381584238E+03  0.64381584240E+03  0.50400001928E-02 0. -1.
    10030    2    1    2    0    0  0.00000000000E+00  0.00000000000E+00  0.10625984058E+04  0.23502300906E+04  0.20962981913E+04 0.  0.
        3    1    3    3  502    0  0.67608216960E+03 -0.62326556762E+03  0.10952967072E+04  0.14301125672E+04  0.10100000352E+00 0.  1.
       -3    1    3    3    0  502 -0.67608216960E+03  0.62326556762E+03 -0.32698301354E+02  0.92011752344E+03  0.10100000352E+00 0. -1.
</event>
<event>
 5   0  0.2604390E-05  0.2097463E+04  0.7818609E-02  0.8562362E-01
       -1   -1    0    0    0  501  0.00000000000E+00  0.00000000000E+00  0.11878940588E+04  0.11878940588E+04  0.50400001928E-02 0.  1.
        1   -1    0    0  501    0  0.00000000000E+00  0.00000000000E+00 -0.92587156602E+03  0.92587156603E+03  0.50400001928E-02 0. -1.
    10030    2    1    2    0    0  0.00000000000E+00  0.00000000000E+00  0.26202249278E+03  0.21137656248E+04  0.20974625932E+04 0.  0.
        5    1    3    3  502    0  0.54007853837E+03 -0.68690607583E+03  0.71542426104E+03  0.11293266790E+04  0.46999998093E+01 0.  1.
       -5    1    3    3    0  502 -0.54007853837E+03  0.68690607583E+03 -0.45340176825E+03  0.98443894584E+03  0.46999998093E+01 0. -1.
</event>
<event>
 5   0  0.5967046E-05  0.1871950E+04  0.7818609E-02  0.8668946E-01
        2   -1    0    0  501    0  0.00000000000E+00  0.00000000000E+00  0.11544015569E+04  0.11544015569E+04  0.25500000920E-02 0.  1.
       -2   -1    0    0    0  501  0.00000000000E+00  0.00000000000E+00 -0.75887709632E+03  0.75887709633E+03  0.25500000920E-02 0. -1.
    10030    2    1    2    0    0  0.00000000000E+00  0.00000000000E+00  0.39552446054E+03  0.19132786532E+04  0.18719496804E+04 0.  0.
        4    1    3    3  502    0 -0.35211540275E+02  0.62846558511E+02 -0.75603853215E+03  0.75946390137E+03  0.12699999809E+01 0. -1.
       -4    1    3    3    0  502  0.35211540275E+02 -0.62846558511E+02  0.11515629927E+04  0.11538147518E+04  0.12699999809E+01 0.  1.
</event>
<event>
 5   0  0.5506332E-05  0.2103866E+04  0.7818609E-02  0.8559542E-01
        2   -1    0    0  501    0  0.00000000000E+00  0.00000000000E+00  0.14306918927E+04  0.14306918927E+04  0.25500000920E-02 0.  1.
       -2   -1    0    0    0  501  0.00000000000E+00  0.00000000000E+00 -0.77344624364E+03  0.77344624364E+03  0.25500000920E-02 0. -1.
    10030    2    1    2    0    0  0.00000000000E+00  0.00000000000E+00  0.65724564910E+03  0.22041381364E+04  0.21038662222E+04 0.  0.
        3    1    3    3  502    0 -0.57192880204E+02 -0.99896942251E+03  0.66867280559E+03  0.12034675998E+04  0.10100000352E+00 0.  1.
       -3    1    3    3    0  502  0.57192880204E+02  0.99896942251E+03 -0.11427156492E+02  0.10006705366E+04  0.10100000352E+00 0. -1.
</event>
<event>
 5   0  0.5954140E-05  0.2102012E+04  0.7818609E-02  0.8560358E-01
        2   -1    0    0  501    0  0.00000000000E+00  0.00000000000E+00  0.11908762156E+04  0.11908762156E+04  0.25500000920E-02 0.  1.
       -2   -1    0    0    0  501  0.00000000000E+00  0.00000000000E+00 -0.92756379835E+03  0.92756379836E+03  0.25500000920E-02 0. -1.
    10030    2    1    2    0    0  0.00000000000E+00  0.00000000000E+00  0.26331241727E+03  0.21184400140E+04  0.21020120513E+04 0.  0.
        2    1    3    3  502    0 -0.47631123261E+03 -0.58145475811E+03 -0.60869488105E+03  0.96719774827E+03  0.25500000920E-02 0. -1.
       -2    1    3    3    0  502  0.47631123261E+03  0.58145475811E+03  0.87200729832E+03  0.11512422657E+04  0.25500000920E-02 0.  1.
</event>
<event>
 5   0  0.5462851E-05  0.2108917E+04  0.7818609E-02  0.8557325E-01
       -2   -1    0    0    0  501  0.00000000000E+00  0.00000000000E+00  0.12248406943E+04  0.12248406943E+04  0.25500000920E-02 0.  1.
        2   -1    0    0  501    0  0.00000000000E+00  0.00000000000E+00 -0.90777756868E+03  0.90777756869E+03  0.25500000920E-02 0. -1.
    10030    2    1    2    0    0  0.00000000000E+00  0.00000000000E+00  0.31706312558E+03  0.21326182630E+04  0.21089171700E+04 0.  0.
        1    1    3    3  502    0  0.10416047512E+04 -0.11248235736E+03  0.27941652613E+03  0.10842814826E+04  0.50400001928E-02 0.  1.
       -1    1    3    3    0  502 -0.10416047512E+04  0.11248235736E+03  0.37646599453E+02  0.10483367803E+04  0.50400001928E-02 0. -1.
</event>
<event>
 5   0  0.5866610E-05  0.2104343E+04  0.7818609E-02  0.8559333E-01
        2   -1    0    0  501    0  0.00000000000E+00  0.00000000000E+00  0.15021922466E+04  0.15021922466E+04  0.25500000920E-02 0.  1.
       -2   -1    0    0    0  501  0.00000000000E+00  0.00000000000E+00 -0.73696620717E+03  0.73696620717E+03  0.25500000920E-02 0. -1.
    10030    2    1    2    0    0  0.00000000000E+00  0.00000000000E+00  0.76522603947E+03  0.22391584538E+04  0.21043430542E+04 0.  0.
        5    1    3    3  502    0 -0.71322501581E+03 -0.11073440476E+03 -0.43199885972E+03  0.84118793166E+03  0.46999998093E+01 0. -1.
       -5    1    3    3    0  502  0.71322501581E+03  0.11073440476E+03  0.11972248992E+04  0.13979705222E+04  0.46999998093E+01 0.  1.
</event>
<event>
 5   0  0.5506332E-05  0.2075108E+04  0.7818609E-02  0.8572289E-01
        2   -1    0    0  501    0  0.00000000000E+00  0.00000000000E+00  0.92766051057E+03  0.92766051057E+03  0.25500000920E-02 0.  1.
       -2   -1    0    0    0  501  0.00000000000E+00  0.00000000000E+00 -0.11604656097E+04  0.11604656097E+04  0.25500000920E-02 0. -1.
    10030    2    1    2    0    0  0.00000000000E+00  0.00000000000E+00 -0.23280509911E+03  0.20881261203E+04  0.20751078237E+04 0.  0.
        3    1    3    3  502    0 -0.83455669172E+02  0.75638256295E+03  0.59331547345E+03  0.96493662563E+03  0.10100000352E+00 0.  1.
       -3    1    3    3    0  502  0.83455669172E+02 -0.75638256295E+03 -0.82612057255E+03  0.11231894946E+04  0.10100000352E+00 0. -1.
</event>
<event>
 5   0  0.2732159E-05  0.2101554E+04  0.7818609E-02  0.8560559E-01
       -1   -1    0    0    0  501  0.00000000000E+00  0.00000000000E+00  0.60931102169E+03  0.60931102171E+03  0.50400001928E-02 0. -1.
        1   -1    0    0  501    0  0.00000000000E+00  0.00000000000E+00 -0.18120996752E+04  0.18120996752E+04  0.50400001928E-02 0.  1.
    10030    2    1    2    0    0  0.00000000000E+00  0.00000000000E+00 -0.12027886535E+04  0.24214106969E+04  0.21015540008E+04 0.  0.
        3    1    3    3  502    0 -0.40100058268E+03  0.20723797197E+03  0.49191135795E+03  0.66762702059E+03  0.10100000352E+00 0. -1.
       -3    1    3    3    0  502  0.40100058268E+03 -0.20723797197E+03 -0.16947000115E+04  0.17537836764E+04  0.10100000352E+00 0.  1.
</event>
<event>
 5   0  0.2732159E-05  0.2073214E+04  0.7818609E-02  0.8573136E-01
        1   -1    0    0  501    0  0.00000000000E+00  0.00000000000E+00  0.11897106297E+04  0.11897106298E+04  0.50400001928E-02 0.  1.
       -1   -1    0    0    0  501  0.00000000000E+00  0.00000000000E+00 -0.90320598717E+03  0.90320598719E+03  0.50400001928E-02 0. -1.
    10030    2    1    2    0    0  0.00000000000E+00  0.00000000000E+00  0.28650464258E+03  0.20929166169E+04  0.20732137023E+04 0.  0.
        3    1    3    3  502    0 -0.20666605258E+03 -0.93135640565E+03 -0.26608630116E+03  0.99042291042E+03  0.10100000352E+00 0. -1.
       -3    1    3    3    0  502  0.20666605258E+03  0.93135640565E+03  0.55259094374E+03  0.11024937065E+04  0.10100000352E+00 0.  1.
</event>
<event>
 5   0  0.2604390E-05  0.2091650E+04  0.7818609E-02  0.8564930E-01
        1   -1    0    0  501    0  0.00000000000E+00  0.00000000000E+00  0.20314618267E+04  0.20314618267E+04  0.50400001928E-02 0. -1.
       -1   -1    0    0    0  501  0.00000000000E+00  0.00000000000E+00 -0.53840549418E+03  0.53840549420E+03  0.50400001928E-02 0.  1.
    10030    2    1    2    0    0  0.00000000000E+00  0.00000000000E+00  0.14930563325E+04  0.25698673209E+04  0.20916502659E+04 0.  0.
        5    1    3    3  502    0 -0.30971784682E+03 -0.93729095623E+03  0.11708752000E+04  0.15314732466E+04  0.46999998093E+01 0. -1.
       -5    1    3    3    0  502  0.30971784682E+03  0.93729095623E+03  0.32218113253E+03  0.10383940742E+04  0.46999998093E+01 0.  1.
</event>
<event>
 5   0  0.2732159E-05  0.2106112E+04  0.7818609E-02  0.8558556E-01
        1   -1    0    0  501    0  0.00000000000E+00  0.00000000000E+00  0.12717924834E+04  0.12717924835E+04  0.50400001928E-02 0. -1.
       -1   -1    0    0    0  501  0.00000000000E+00  0.00000000000E+00 -0.87193982493E+03  0.87193982494E+03  0.50400001928E-02 0.  1.
    10030    2    1    2    0    0  0.00000000000E+00  0.00000000000E+00  0.39985265852E+03  0.21437323084E+04  0.21061115976E+04 0.  0.
        3    1    3    3  502    0 -0.31017302251E+03 -0.10054972214E+04  0.24182642042E+03  0.10796814317E+04  0.10100000352E+00 0. -1.
       -3    1    3    3    0  502  0.31017302251E+03  0.10054972214E+04  0.15802623809E+03  0.10640508767E+04  0.10100000352E+00 0.  1.
</event>
<event>
 5   0  0.5954140E-05  0.2091113E+04  0.7818609E-02  0.8565168E-01
       -2   -1    0    0    0  501  0.00000000000E+00  0.00000000000E+00  0.54006072761E+03  0.54006072761E+03  0.25500000920E-02 0.  1.
        2   -1    0    0  501    0  0.00000000000E+00  0.00000000000E+00 -0.20241958327E+04  0.20241958327E+04  0.25500000920E-02 0. -1.
    10030    2    1    2    0    0  0.00000000000E+00  0.00000000000E+00 -0.14841351051E+04  0.25642565603E+04  0.20911132673E+04 0.  0.
        2    1    3    3  502    0  0.11083694518E+02 -0.40496481852E+03 -0.19240417001E+04  0.19662288311E+04  0.25500000920E-02 0. -1.
       -2    1    3    3    0  502 -0.11083694518E+02  0.40496481852E+03  0.43990659503E+03  0.59802772919E+03  0.25500000920E-02 0.  1.
</event>
<event>
 5   0  0.5506332E-05  0.2125600E+04  0.7818609E-02  0.8550050E-01
       -2   -1    0    0    0  501  0.00000000000E+00  0.00000000000E+00  0.73142386993E+03  0.73142386994E+03  0.25500000920E-02 0.  1.
        2   -1    0    0  501    0  0.00000000000E+00  0.00000000000E+00 -0.15443074802E+04  0.15443074802E+04  0.25500000920E-02 0. -1.
    10030    2    1    2    0    0  0.00000000000E+00  0.00000000000E+00 -0.81288361025E+03  0.22757313501E+04  0.21255995423E+04 0.  0.
        3    1    3    3  502    0  0.48772614466E+03  0.79178265050E+03  0.14443551457E+03  0.94109414295E+03  0.10100000352E+00 0.  1.
       -3    1    3    3    0  502 -0.48772614466E+03 -0.79178265050E+03 -0.95731912482E+03  0.13346372072E+04  0.10100000352E+00 0. -1.
</event>
<event>
 5   0  0.2732159E-05  0.2095808E+04  0.7818609E-02  0.8563092E-01
        1   -1    0    0  501    0  0.00000000000E+00  0.00000000000E+00  0.93484781150E+03  0.93484781151E+03  0.50400001928E-02 0.  1.
       -1   -1    0    0    0  501  0.00000000000E+00  0.00000000000E+00 -0.11746321936E+04  0.11746321936E+04  0.50400001928E-02 0. -1.
    10030    2    1    2    0    0  0.00000000000E+00  0.00000000000E+00 -0.23978438214E+03  0.21094800052E+04  0.20958075633E+04 0.  0.
        3    1    3    3  502    0 -0.96940573312E+03  0.34687101492E+03  0.76406639590E+02  0.10324267340E+04  0.10100000352E+00 0.  1.
       -3    1    3    3    0  502  0.96940573312E+03 -0.34687101492E+03 -0.31619102173E+03  0.10770532711E+04  0.10100000352E+00 0. -1.
</event>
<event>
 5   0  0.2699285E-05  0.2101701E+04  0.7818609E-02  0.8560494E-01
        1   -1    0    0  501    0  0.00000000000E+00  0.00000000000E+00  0.96666507871E+03  0.96666507872E+03  0.50400001928E-02 0. -1.
       -1   -1    0    0    0  501  0.00000000000E+00  0.00000000000E+00 -0.11423678757E+04  0.11423678757E+04  0.50400001928E-02 0.  1.
    10030    2    1    2    0    0  0.00000000000E+00  0.00000000000E+00 -0.17570279700E+03  0.21090329544E+04  0.21017013418E+04 0.  0.
        2    1    3    3  502    0 -0.14143276935E+03  0.33782385099E+03  0.90055104770E+03  0.97217301550E+03  0.25500000920E-02 0. -1.
       -2    1    3    3    0  502  0.14143276935E+03 -0.33782385099E+03 -0.10762538447E+04  0.11368599389E+04  0.25500000920E-02 0.  1.
</event>
<event>
 5   0  0.5954140E-05  0.2104467E+04  0.7818609E-02  0.8559278E-01
       -2   -1    0    0    0  501  0.00000000000E+00  0.00000000000E+00  0.56944679043E+03  0.56944679043E+03  0.25500000920E-02 0.  1.
        2   -1    0    0  501    0  0.00000000000E+00  0.00000000000E+00 -0.19443341249E+04  0.19443341249E+04  0.25500000920E-02 0. -1.
    10030    2    1    2    0    0  0.00000000000E+00  0.00000000000E+00 -0.13748873345E+04  0.25137809153E+04  0.21044665138E+04 0.  0.
        2    1    3    3  502    0 -0.47673952607E+03  0.87022572824E+03 -0.11057251115E+04  0.14856653109E+04  0.25500000920E-02 0. -1.
       -2    1    3    3    0  502  0.47673952607E+03 -0.87022572824E+03 -0.26916222299E+03  0.10281156044E+04  0.25500000920E-02 0.  1.
</event>
<event>
 5   0  0.2789662E-05  0.2094961E+04  0.7818609E-02  0.8563466E-01
        1   -1    0    0  501    0  0.00000000000E+00  0.00000000000E+00  0.98684531693E+03  0.98684531694E+03  0.50400001928E-02 0. -1.
       -1   -1    0    0    0  501  0.00000000000E+00  0.00000000000E+00 -0.11118415701E+04  0.11118415701E+04  0.50400001928E-02 0.  1.
    10030    2    1    2    0    0  0.00000000000E+00  0.00000000000E+00 -0.12499625313E+03  0.20986868870E+04  0.20949612374E+04 0.  0.
        4    1    3    3  502    0 -0.42138593304E+03  0.24896260125E+03 -0.99024743834E+03  0.11045995127E+04  0.12699999809E+01 0.  1.
       -4    1    3    3    0  502  0.42138593304E+03 -0.24896260125E+03  0.86525118521E+03  0.99408737432E+03  0.12699999809E+01 0. -1.
</event>
<event>
 5   0  0.5462851E-05  0.2111010E+04  0.7818609E-02  0.8556409E-01
       -2   -1    0    0    0  501  0.00000000000E+00  0.00000000000E+00  0.76262633030E+03  0.76262633030E+03  0.25500000920E-02 0.  1.
        2   -1    0    0  501    0  0.00000000000E+00  0.00000000000E+00 -0.14608606718E+04  0.14608606718E+04  0.25500000920E-02 0. -1.
    10030    2    1    2    0    0  0.00000000000E+00  0.00000000000E+00 -0.69823434154E+03  0.22234870021E+04  0.21110100078E+04 0.  0.
        1    1    3    3  502    0 -0.15176256922E+03  0.25395141535E+03  0.71806382425E+03  0.77662014814E+03  0.50400001928E-02 0.  1.
       -1    1    3    3    0  502  0.15176256922E+03 -0.25395141535E+03 -0.14162981658E+04  0.14468668540E+04  0.50400001928E-02 0. -1.
</event>
<event>
 5   0  0.2789662E-05  0.2096999E+04  0.7818609E-02  0.8562566E-01
       -1   -1    0    0    0  501  0.00000000000E+00  0.00000000000E+00  0.11690610714E+04  0.11690610715E+04  0.50400001928E-02 0.  1.
        1   -1    0    0  501    0  0.00000000000E+00  0.00000000000E+00 -0.94037133929E+03  0.94037133930E+03  0.50400001928E-02 0. -1.
    10030    2    1    2    0    0  0.00000000000E+00  0.00000000000E+00  0.22868973216E+03  0.21094324108E+04  0.20969993090E+04 0.  0.
        4    1    3    3  502    0 -0.10193898722E+04  0.94197873585E+02  0.34222933087E+03  0.10794218262E+04  0.12699999809E+01 0.  1.
       -4    1    3    3    0  502  0.10193898722E+04 -0.94197873585E+02 -0.11353959872E+03  0.10300105846E+04  0.12699999809E+01 0. -1.
</event>
<event>
 5   0  0.2732159E-05  0.2113748E+04  0.7818609E-02  0.8555211E-01
       -1   -1    0    0    0  501  0.00000000000E+00  0.00000000000E+00  0.87482435548E+03  0.87482435549E+03  0.50400001928E-02 0. -1.
        1   -1    0    0  501    0  0.00000000000E+00  0.00000000000E+00 -0.12768082983E+04  0.12768082983E+04  0.50400001928E-02 0.  1.
    10030    2    1    2    0    0  0.00000000000E+00  0.00000000000E+00 -0.40198394282E+03  0.21516326538E+04  0.21137483262E+04 0.  0.
        3    1    3    3  502    0 -0.93237571581E+03 -0.35870050099E+03 -0.55212733825E+03  0.11414180359E+04  0.10100000352E+00 0.  1.
       -3    1    3    3    0  502  0.93237571581E+03  0.35870050099E+03  0.15014339543E+03  0.10102146179E+04  0.10100000352E+00 0. -1.
</event>
<event>
 5   0  0.2699285E-05  0.2073296E+04  0.7818609E-02  0.8573099E-01
        1   -1    0    0  501    0  0.00000000000E+00  0.00000000000E+00  0.10043873663E+04  0.10043873663E+04  0.50400001928E-02 0. -1.
       -1   -1    0    0    0  501  0.00000000000E+00  0.00000000000E+00 -0.10699443347E+04  0.10699443347E+04  0.50400001928E-02 0.  1.
    10030    2    1    2    0    0  0.00000000000E+00  0.00000000000E+00 -0.65556968363E+02  0.20743317011E+04  0.20732955144E+04 0.  0.
        2    1    3    3  502    0  0.71748630057E+03  0.26925843364E+03  0.66567633449E+03  0.10150919554E+04  0.25500000920E-02 0. -1.
       -2    1    3    3    0  502 -0.71748630057E+03 -0.26925843364E+03 -0.73123330285E+03  0.10592397457E+04  0.25500000920E-02 0.  1.
</event>
<event>
 5   0  0.5462851E-05  0.2133971E+04  0.7818609E-02  0.8546425E-01
        2   -1    0    0  501    0  0.00000000000E+00  0.00000000000E+00  0.21160155234E+04  0.21160155234E+04  0.25500000920E-02 0.  1.
       -2   -1    0    0    0  501  0.00000000000E+00  0.00000000000E+00 -0.53801946448E+03  0.53801946448E+03  0.25500000920E-02 0. -1.
    10030    2    1    2    0    0  0.00000000000E+00  0.00000000000E+00  0.15779960589E+04  0.26540349879E+04  0.21339705141E+04 0.  0.
        1    1    3    3  502    0 -0.52974643652E+03 -0.91108687245E+03  0.99616759425E+03  0.14501932464E+04  0.50400001928E-02 0.  1.
       -1    1    3    3    0  502  0.52974643652E+03  0.91108687245E+03  0.58182846470E+03  0.12038417415E+04  0.50400001928E-02 0. -1.
</event>
<event>
 5   0  0.5866610E-05  0.2086462E+04  0.7818609E-02  0.8567230E-01
        2   -1    0    0  501    0  0.00000000000E+00  0.00000000000E+00  0.23752073682E+04  0.23752073682E+04  0.25500000920E-02 0. -1.
       -2   -1    0    0    0  501  0.00000000000E+00  0.00000000000E+00 -0.45820480504E+03  0.45820480505E+03  0.25500000920E-02 0.  1.
    10030    2    1    2    0    0  0.00000000000E+00  0.00000000000E+00  0.19170025632E+04  0.28334121733E+04  0.20864624886E+04 0.  0.
        5    1    3    3  502    0 -0.76605502037E+02  0.10335399557E+04  0.11205309830E+04  0.15263305726E+04  0.46999998093E+01 0.  1.
       -5    1    3    3    0  502  0.76605502037E+02 -0.10335399557E+04  0.79647158017E+03  0.13070816007E+04  0.46999998093E+01 0. -1.
</event>
<event>
 5   0  0.2604390E-05  0.2139898E+04  0.7818609E-02  0.8543869E-01
        1   -1    0    0  501    0  0.00000000000E+00  0.00000000000E+00  0.88009645109E+03  0.88009645110E+03  0.50400001928E-02 0.  1.
       -1   -1    0    0    0  501  0.00000000000E+00  0.00000000000E+00 -0.13007555637E+04  0.13007555638E+04  0.50400001928E-02 0. -1.
    10030    2    1    2    0    0  0.00000000000E+00  0.00000000000E+00 -0.42065911266E+03  0.21808520149E+04  0.21398975260E+04 0.  0.
        5    1    3    3  502    0  0.40383809356E+03 -0.38196144958E+03 -0.11420409761E+04  0.12701415023E+04  0.46999998093E+01 0. -1.
       -5    1    3    3    0  502 -0.40383809356E+03  0.38196144958E+03  0.72138186345E+03  0.91071051256E+03  0.46999998093E+01 0.  1.
</event>
<event>
 5   0  0.5967046E-05  0.2094054E+04  0.7818609E-02  0.8563867E-01
        2   -1    0    0  501    0  0.00000000000E+00  0.00000000000E+00  0.10526283647E+04  0.10526283647E+04  0.25500000920E-02 0. -1.
       -2   -1    0    0    0  501  0.00000000000E+00  0.00000000000E+00 -0.10414551405E+04  0.10414551405E+04  0.25500000920E-02 0.  1.
    10030    2    1    2    0    0  0.00000000000E+00  0.00000000000E+00  0.11173224240E+02  0.20940835052E+04  0.20940536970E+04 0.  0.
        4    1    3    3  502    0 -0.25546675875E+03 -0.42616580099E+03 -0.91604630580E+03  0.10421242738E+04  0.12699999809E+01 0.  1.
       -4    1    3    3    0  502  0.25546675875E+03  0.42616580099E+03  0.92721953004E+03  0.10519592314E+04  0.12699999809E+01 0. -1.
</event>
<event>
 5   0  0.2602060E-05  0.1848679E+04  0.7818609E-02  0.8680832E-01
       -1   -1    0    0    0  501  0.00000000000E+00  0.00000000000E+00  0.70377538096E+03  0.70377538098E+03  0.50400001928E-02 0. -1.
        1   -1    0    0  501    0  0.00000000000E+00  0.00000000000E+00 -0.12140291080E+04  0.12140291080E+04  0.50400001928E-02 0.  1.
    10030    2    1    2    0    0  0.00000000000E+00  0.00000000000E+00 -0.51025372703E+03  0.19178044890E+04  0.18486793102E+04 0.  0.
        1    1    3    3  502    0  0.26486354440E+03 -0.56935896543E+03  0.44852869196E+03  0.77168666970E+03  0.50400001928E-02 0. -1.
       -1    1    3    3    0  502 -0.26486354440E+03  0.56935896543E+03 -0.95878241899E+03  0.11461178193E+04  0.50400001928E-02 0.  1.
</event>
<event>
 5   0  0.2604390E-05  0.2086719E+04  0.7818609E-02  0.8567116E-01
        1   -1    0    0  501    0  0.00000000000E+00  0.00000000000E+00  0.11622276458E+04  0.11622276458E+04  0.50400001928E-02 0.  1.
       -1   -1    0    0    0  501  0.00000000000E+00  0.00000000000E+00 -0.93664883734E+03  0.93664883735E+03  0.50400001928E-02 0. -1.
    10030    2    1    2    0    0  0.00000000000E+00  0.00000000000E+00  0.22557880850E+03  0.20988764832E+04  0.20867191217E+04 0.  0.
        5    1    3    3  502    0  0.17936162942E+03  0.68127877987E+03 -0.66128228090E+03  0.96624412807E+03  0.46999998093E+01 0. -1.
       -5    1    3    3    0  502 -0.17936162942E+03 -0.68127877987E+03  0.88686108940E+03  0.11326323551E+04  0.46999998093E+01 0.  1.
</event>
<event>
 5   0  0.2699285E-05  0.2110943E+04  0.7818609E-02  0.8556438E-01
        1   -1    0    0  501    0  0.00000000000E+00  0.00000000000E+00  0.18710460766E+04  0.18710460766E+04  0.50400001928E-02 0.  1.
       -1   -1    0    0    0  501  0.00000000000E+00  0.00000000000E+00 -0.59539936399E+03  0.59539936402E+03  0.50400001928E-02 0. -1.
    10030    2    1    2    0    0  0.00000000000E+00  0.00000000000E+00  0.12756467126E+04  0.24664454406E+04  0.21109425800E+04 0.  0.
        2    1    3    3  502    0  0.31506960846E+03 -0.92070721000E+01 -0.53912294990E+03  0.62450555119E+03  0.25500000920E-02 0. -1.
       -2    1    3    3    0  502 -0.31506960846E+03  0.92070721000E+01  0.18147696625E+04  0.18419398894E+04  0.25500000920E-02 0.  1.
</event>
<event>
 5   0  0.2699285E-05  0.1914097E+04  0.7818609E-02  0.8647871E-01
       -1   -1    0    0    0  501  0.00000000000E+00  0.00000000000E+00  0.43083289307E+03  0.43083289310E+03  0.50400001928E-02 0.  1.
        1   -1    0    0  501    0  0.00000000000E+00  0.00000000000E+00 -0.21259790315E+04  0.21259790315E+04  0.50400001928E-02 0. -1.
    10030    2    1    2    0    0  0.00000000000E+00  0.00000000000E+00 -0.16951461384E+04  0.25568119246E+04  0.19140968594E+04 0.  0.
        2    1    3    3  502    0 -0.49740236465E+03 -0.44810942430E+03 -0.17611239293E+04  0.18840829767E+04  0.25500000920E-02 0. -1.
       -2    1    3    3    0  502  0.49740236465E+03  0.44810942430E+03  0.65977790894E+02  0.67272894795E+03  0.25500000920E-02 0.  1.
</event>
<event>
 5   0  0.2017750E-05  0.2101470E+04  0.7818609E-02  0.8560596E-01
        3   -1    0    0  501    0  0.00000000000E+00  0.00000000000E+00  0.96614085733E+03  0.96614086261E+03  0.10100000352E+00 0.  1.
       -3   -1    0    0    0  501  0.00000000000E+00  0.00000000000E+00 -0.11427358639E+04  0.11427358683E+04  0.10100000352E+00 0. -1.
    10030    2    1    2    0    0  0.00000000000E+00  0.00000000000E+00 -0.17659500655E+03  0.21088767309E+04  0.21014697880E+04 0.  0.
        2    1    3    3  502    0  0.30353835861E+03 -0.87505396353E+03 -0.58622054964E+03  0.10961338910E+04  0.25500000920E-02 0. -1.
       -2    1    3    3    0  502 -0.30353835861E+03  0.87505396353E+03  0.40962554309E+03  0.10127428399E+04  0.25500000920E-02 0.  1.
</event>
<event>
 5   0  0.2604390E-05  0.2083196E+04  0.7818609E-02  0.8568682E-01
       -1   -1    0    0    0  501  0.00000000000E+00  0.00000000000E+00  0.67249555098E+03  0.67249555100E+03  0.50400001928E-02 0.  1.
        1   -1    0    0  501    0  0.00000000000E+00  0.00000000000E+00 -0.16132838200E+04  0.16132838200E+04  0.50400001928E-02 0. -1.
    10030    2    1    2    0    0  0.00000000000E+00  0.00000000000E+00 -0.94078826898E+03  0.22857793710E+04  0.20831958059E+04 0.  0.
        5    1    3    3  502    0 -0.65745237221E+03  0.52151100679E+01  0.41602439374E+03  0.77805475726E+03  0.46999998093E+01 0.  1.
       -5    1    3    3    0  502  0.65745237221E+03 -0.52151100679E+01 -0.13568126627E+04  0.15077246137E+04  0.46999998093E+01 0. -1.
</event>
<event>
 5   0  0.2699285E-05  0.1968086E+04  0.7818609E-02  0.8621688E-01
        1   -1    0    0  501    0  0.00000000000E+00  0.00000000000E+00  0.10862663673E+04  0.10862663673E+04  0.50400001928E-02 0.  1.
       -1   -1    0    0    0  501  0.00000000000E+00  0.00000000000E+00 -0.89143971873E+03  0.89143971875E+03  0.50400001928E-02 0. -1.
    10030    2    1    2    0    0  0.00000000000E+00  0.00000000000E+00  0.19482664858E+03  0.19777060861E+04  0.19680863649E+04 0.  0.
        2    1    3    3  502    0  0.83519483473E+03  0.49547121059E+03  0.25724689760E+03  0.10045984764E+04  0.25500000920E-02 0.  1.
       -2    1    3    3    0  502 -0.83519483473E+03 -0.49547121059E+03 -0.62420249021E+02  0.97310760966E+03  0.25500000920E-02 0. -1.
</event>
<event>
 5   0  0.2699285E-05  0.1942418E+04  0.7818609E-02  0.8634026E-01
        1   -1    0    0  501    0  0.00000000000E+00  0.00000000000E+00  0.11963192409E+04  0.11963192409E+04  0.50400001928E-02 0.  1.
       -1   -1    0    0    0  501  0.00000000000E+00  0.00000000000E+00 -0.78845743341E+03  0.78845743342E+03  0.50400001928E-02 0. -1.
    10030    2    1    2    0    0  0.00000000000E+00  0.00000000000E+00  0.40786180753E+03  0.19847766744E+04  0.19424178729E+04 0.  0.
        2    1    3    3  502    0  0.66819492524E+03  0.11323351075E+02  0.92402169876E+03  0.11403634404E+04  0.25500000920E-02 0.  1.
       -2    1    3    3    0  502 -0.66819492524E+03 -0.11323351075E+02 -0.51615989123E+03  0.84441323398E+03  0.25500000920E-02 0. -1.
</event>
<event>
 5   0  0.2699285E-05  0.2110016E+04  0.7818609E-02  0.8556844E-01
        1   -1    0    0  501    0  0.00000000000E+00  0.00000000000E+00  0.71255669373E+03  0.71255669374E+03  0.50400001928E-02 0.  1.
       -1   -1    0    0    0  501  0.00000000000E+00  0.00000000000E+00 -0.15620400042E+04  0.15620400042E+04  0.50400001928E-02 0. -1.
    10030    2    1    2    0    0  0.00000000000E+00  0.00000000000E+00 -0.84948331048E+03  0.22745966980E+04  0.21100161714E+04 0.  0.
        2    1    3    3  502    0 -0.57594977785E+03 -0.25688350382E+03 -0.13364864469E+04  0.14778035403E+04  0.25500000920E-02 0. -1.
       -2    1    3    3    0  502  0.57594977785E+03  0.25688350382E+03  0.48700313641E+03  0.79679315761E+03  0.25500000920E-02 0.  1.
</event>
<event>
 5   0  0.5462851E-05  0.2097468E+04  0.7818609E-02  0.8562360E-01
       -2   -1    0    0    0  501  0.00000000000E+00  0.00000000000E+00  0.60658961054E+03  0.60658961054E+03  0.25500000920E-02 0.  1.
        2   -1    0    0  501    0  0.00000000000E+00  0.00000000000E+00 -0.18131583025E+04  0.18131583025E+04  0.25500000920E-02 0. -1.
    10030    2    1    2    0    0  0.00000000000E+00  0.00000000000E+00 -0.12065686919E+04  0.24197479130E+04  0.20974679865E+04 0.  0.
        1    1    3    3  502    0 -0.20289091167E+03 -0.16620087878E+03  0.56814422418E+03  0.62575978909E+03  0.50400001928E-02 0.  1.
       -1    1    3    3    0  502  0.20289091167E+03  0.16620087878E+03 -0.17747129161E+04  0.17939881239E+04  0.50400001928E-02 0. -1.
</event>
<event>
 5   0  0.2604390E-05  0.2105019E+04  0.7818609E-02  0.8559036E-01
       -1   -1    0    0    0  501  0.00000000000E+00  0.00000000000E+00  0.17174029804E+04  0.17174029804E+04  0.50400001928E-02 0.  1.
        1   -1    0    0  501    0  0.00000000000E+00  0.00000000000E+00 -0.64502994978E+03  0.64502994980E+03  0.50400001928E-02 0. -1.
    10030    2    1    2    0    0  0.00000000000E+00  0.00000000000E+00  0.10723730306E+04  0.23624329302E+04  0.21050191051E+04 0.  0.
        5    1    3    3  502    0  0.16613788365E+03 -0.20450572937E+03 -0.60740551859E+03  0.66210870992E+03  0.46999998093E+01 0. -1.
       -5    1    3    3    0  502 -0.16613788365E+03  0.20450572937E+03  0.16797785492E+04  0.17003242203E+04  0.46999998093E+01 0.  1.
</event>
<event>
 5   0  0.2699285E-05  0.2112781E+04  0.7818609E-02  0.8555634E-01
       -1   -1    0    0    0  501  0.00000000000E+00  0.00000000000E+00  0.10761589132E+04  0.10761589132E+04  0.50400001928E-02 0.  1.
        1   -1    0    0  501    0  0.00000000000E+00  0.00000000000E+00 -0.10369849187E+04  0.10369849187E+04  0.50400001928E-02 0. -1.
    10030    2    1    2    0    0  0.00000000000E+00  0.00000000000E+00  0.39173994499E+02  0.21131438318E+04  0.21127806919E+04 0.  0.
        2    1    3    3  502    0  0.24383181711E+03 -0.19246758829E+02 -0.10082744983E+04  0.10375171597E+04  0.25500000920E-02 0. -1.
       -2    1    3    3    0  502 -0.24383181711E+03  0.19246758829E+02  0.10474484928E+04  0.10756266721E+04  0.25500000920E-02 0.  1.
</event>
<event>
 5   0  0.2602060E-05  0.2078145E+04  0.7818609E-02  0.8570932E-01
       -1   -1    0    0    0  501  0.00000000000E+00  0.00000000000E+00  0.95429921723E+03  0.95429921725E+03  0.50400001928E-02 0.  1.
        1   -1    0    0  501    0  0.00000000000E+00  0.00000000000E+00 -0.11313761790E+04  0.11313761790E+04  0.50400001928E-02 0. -1.
    10030    2    1    2    0    0  0.00000000000E+00  0.00000000000E+00 -0.17707696173E+03  0.20856753962E+04  0.20781447515E+04 0.  0.
        1    1    3    3  502    0  0.68951237893E+03  0.55640070344E+03 -0.63333363869E+03  0.10890916221E+04  0.50400001928E-02 0. -1.
       -1    1    3    3    0  502 -0.68951237893E+03 -0.55640070344E+03  0.45625667696E+03  0.99658377409E+03  0.50400001928E-02 0.  1.
</event>
<event>
 5   0  0.5866610E-05  0.2086498E+04  0.7818609E-02  0.8567214E-01
       -2   -1    0    0    0  501  0.00000000000E+00  0.00000000000E+00  0.13472776689E+04  0.13472776689E+04  0.25500000920E-02 0. -1.
        2   -1    0    0  501    0  0.00000000000E+00  0.00000000000E+00 -0.80782801130E+03  0.80782801130E+03  0.25500000920E-02 0.  1.
    10030    2    1    2    0    0  0.00000000000E+00  0.00000000000E+00  0.53944965761E+03  0.21551056802E+04  0.20864981572E+04 0.  0.
        5    1    3    3  502    0  0.32043721044E+03  0.74196995957E+03  0.95107226248E+03  0.12481025459E+04  0.46999998093E+01 0. -1.
       -5    1    3    3    0  502 -0.32043721044E+03 -0.74196995957E+03 -0.41162260487E+03  0.90700313427E+03  0.46999998093E+01 0.  1.
</event>
<event>
 5   0  0.5866610E-05  0.2188003E+04  0.7818609E-02  0.8523438E-01
       -2   -1    0    0    0  501  0.00000000000E+00  0.00000000000E+00  0.49905151236E+03  0.49905151237E+03  0.25500000920E-02 0.  1.
        2   -1    0    0  501    0  0.00000000000E+00  0.00000000000E+00 -0.23982271327E+04  0.23982271327E+04  0.25500000920E-02 0. -1.
    10030    2    1    2    0    0  0.00000000000E+00  0.00000000000E+00 -0.18991756204E+04  0.28972786451E+04  0.21880026303E+04 0.  0.
        5    1    3    3  502    0  0.60061943577E+03  0.50504234006E+03 -0.19589161757E+04  0.21102573647E+04  0.46999998093E+01 0. -1.
       -5    1    3    3    0  502 -0.60061943577E+03 -0.50504234006E+03  0.59740555299E+02  0.78702128042E+03  0.46999998093E+01 0.  1.
</event>
<event>
 5   0  0.5967046E-05  0.2107611E+04  0.7818609E-02  0.8557898E-01
       -2   -1    0    0    0  501  0.00000000000E+00  0.00000000000E+00  0.97603637421E+03  0.97603637422E+03  0.25500000920E-02 0. -1.
        2   -1    0    0  501    0  0.00000000000E+00  0.00000000000E+00 -0.11377715324E+04  0.11377715324E+04  0.25500000920E-02 0.  1.
    10030    2    1    2    0    0  0.00000000000E+00  0.00000000000E+00 -0.16173515821E+03  0.21138079066E+04  0.21076113505E+04 0.  0.
        4    1    3    3  502    0 -0.11907672343E+03  0.64006874044E+02 -0.11290376862E+04  0.11371032740E+04  0.12699999809E+01 0.  1.
       -4    1    3    3    0  502  0.11907672343E+03 -0.64006874044E+02  0.96730252796E+03  0.97670463267E+03  0.12699999809E+01 0. -1.
</event>
<event>
 5   0  0.2604390E-05  0.2088946E+04  0.7818609E-02  0.8566128E-01
       -1   -1    0    0    0  501  0.00000000000E+00  0.00000000000E+00  0.92691034309E+03  0.92691034311E+03  0.50400001928E-02 0.  1.
        1   -1    0    0  501    0  0.00000000000E+00  0.00000000000E+00 -0.11769467903E+04  0.11769467904E+04  0.50400001928E-02 0. -1.
    10030    2    1    2    0    0  0.00000000000E+00  0.00000000000E+00 -0.25003644725E+03  0.21038571335E+04  0.20889462925E+04 0.  0.
        5    1    3    3  502    0  0.10311490537E+04 -0.16601586110E+03 -0.11644712204E+03  0.10509099197E+04  0.46999998093E+01 0. -1.
       -5    1    3    3    0  502 -0.10311490537E+04  0.16601586110E+03 -0.13358932521E+03  0.10529472137E+04  0.46999998093E+01 0.  1.
</event>
<event>
 5   0  0.5954140E-05  0.2106996E+04  0.7818609E-02  0.8558168E-01
       -2   -1    0    0    0  501  0.00000000000E+00  0.00000000000E+00  0.11349474315E+04  0.11349474315E+04  0.25500000920E-02 0.  1.
        2   -1    0    0  501    0  0.00000000000E+00  0.00000000000E+00 -0.97789337433E+03  0.97789337433E+03  0.25500000920E-02 0. -1.
    10030    2    1    2    0    0  0.00000000000E+00  0.00000000000E+00  0.15705405718E+03  0.21128408058E+04  0.21069955610E+04 0.  0.
        2    1    3    3  502    0 -0.15855267255E+03  0.11754382435E+03  0.11162418863E+04  0.11335569899E+04  0.25500000920E-02 0.  1.
       -2    1    3    3    0  502  0.15855267255E+03 -0.11754382435E+03 -0.95918782912E+03  0.97928381594E+03  0.25500000920E-02 0. -1.
</event>
<event>
 5   0  0.2699285E-05  0.2109297E+04  0.7818609E-02  0.8557159E-01
        1   -1    0    0  501    0  0.00000000000E+00  0.00000000000E+00  0.15748329243E+04  0.15748329243E+04  0.50400001928E-02 0.  1.
       -1   -1    0    0    0  501  0.00000000000E+00  0.00000000000E+00 -0.70628697112E+03  0.70628697114E+03  0.50400001928E-02 0. -1.
    10030    2    1    2    0    0  0.00000000000E+00  0.00000000000E+00  0.86854595318E+03  0.22811198954E+04  0.21092974908E+04 0.  0.
        2    1    3    3  502    0  0.37746768472E+03  0.48978911729E+03  0.13582146574E+04  0.14923546120E+04  0.25500000920E-02 0.  1.
       -2    1    3    3    0  502 -0.37746768472E+03 -0.48978911729E+03 -0.48966870423E+03  0.78876528342E+03  0.25500000920E-02 0. -1.
</event>
<event>
 5   0  0.5954140E-05  0.2087928E+04  0.7818609E-02  0.8566580E-01
       -2   -1    0    0    0  501  0.00000000000E+00  0.00000000000E+00  0.13069903786E+04  0.13069903786E+04  0.25500000920E-02 0.  1.
        2   -1    0    0  501    0  0.00000000000E+00  0.00000000000E+00 -0.83387055592E+03  0.83387055593E+03  0.25500000920E-02 0. -1.
    10030    2    1    2    0    0  0.00000000000E+00  0.00000000000E+00  0.47311982268E+03  0.21408609345E+04  0.20879279620E+04 0.  0.
        2    1    3    3  502    0 -0.82258231858E+03  0.62699771855E+03  0.38190326021E+03  0.11025506383E+04  0.25500000920E-02 0. -1.
       -2    1    3    3    0  502  0.82258231858E+03 -0.62699771855E+03  0.91216562461E+02  0.10383102962E+04  0.25500000920E-02 0.  1.
</event>
<event>
 5   0  0.2604390E-05  0.2105324E+04  0.7818609E-02  0.8558902E-01
        1   -1    0    0  501    0  0.00000000000E+00  0.00000000000E+00  0.48718300736E+03  0.48718300738E+03  0.50400001928E-02 0.  1.
       -1   -1    0    0    0  501  0.00000000000E+00  0.00000000000E+00 -0.22744998196E+04  0.22744998196E+04  0.50400001928E-02 0. -1.
    10030    2    1    2    0    0  0.00000000000E+00  0.00000000000E+00 -0.17873168122E+04  0.27616828270E+04  0.21053243573E+04 0.  0.
        5    1    3    3  502    0 -0.69242455993E+03  0.34724549451E+03  0.41328663582E+02  0.77573278459E+03  0.46999998093E+01 0.  1.
       -5    1    3    3    0  502  0.69242455993E+03 -0.34724549451E+03 -0.18286454758E+04  0.19859500424E+04  0.46999998093E+01 0. -1.
</event>
<event>
 5   0  0.5967046E-05  0.2095055E+04  0.7818609E-02  0.8563425E-01
       -2   -1    0    0    0  501  0.00000000000E+00  0.00000000000E+00  0.17829385307E+04  0.17829385307E+04  0.25500000920E-02 0.  1.
        2   -1    0    0  501    0  0.00000000000E+00  0.00000000000E+00 -0.61545261290E+03  0.61545261291E+03  0.25500000920E-02 0. -1.
    10030    2    1    2    0    0  0.00000000000E+00  0.00000000000E+00  0.11674859178E+04  0.23983911436E+04  0.20950552999E+04 0.  0.
        4    1    3    3  502    0 -0.44712171737E+03 -0.64190833237E+03  0.13812808660E+04  0.15874201022E+04  0.12699999809E+01 0.  1.
       -4    1    3    3    0  502  0.44712171737E+03  0.64190833237E+03 -0.21379494812E+03  0.81097104144E+03  0.12699999809E+01 0. -1.
</event>
<event>
 5   0  0.2602060E-05  0.2104975E+04  0.7818609E-02  0.8559055E-01
       -1   -1    0    0    0  501  0.00000000000E+00  0.00000000000E+00  0.80486750980E+03  0.80486750981E+03  0.50400001928E-02 0. -1.
        1   -1    0    0  501    0  0.00000000000E+00  0.00000000000E+00 -0.13762889717E+04  0.13762889717E+04  0.50400001928E-02 0.  1.
    10030    2    1    2    0    0  0.00000000000E+00  0.00000000000E+00 -0.57142146185E+03  0.21811564815E+04  0.21049753228E+04 0.  0.
        1    1    3    3  502    0 -0.10509507812E+03 -0.10059237291E+04  0.16037540709E+02  0.10115259398E+04  0.50400001928E-02 0. -1.
       -1    1    3    3    0  502  0.10509507812E+03  0.10059237291E+04 -0.58745900256E+03  0.11696305416E+04  0.50400001928E-02 0.  1.
</event>
<event>
 5   0  0.2604390E-05  0.2082507E+04  0.7818609E-02  0.8568988E-01
       -1   -1    0    0    0  501  0.00000000000E+00  0.00000000000E+00  0.58485513991E+03  0.58485513993E+03  0.50400001928E-02 0. -1.
        1   -1    0    0  501    0  0.00000000000E+00  0.00000000000E+00 -0.18538077870E+04  0.18538077870E+04  0.50400001928E-02 0.  1.
    10030    2    1    2    0    0  0.00000000000E+00  0.00000000000E+00 -0.12689526471E+04  0.24386629269E+04  0.20825071550E+04 0.  0.
        5    1    3    3  502    0 -0.79268712618E+03  0.14582072858E+03  0.13748461180E+03  0.81764336564E+03  0.46999998093E+01 0. -1.
       -5    1    3    3    0  502  0.79268712618E+03 -0.14582072858E+03 -0.14064372589E+04  0.16210195613E+04  0.46999998093E+01 0.  1.
</event>
<event>
 5   0  0.2602060E-05  0.2105450E+04  0.7818609E-02  0.8558847E-01
        1   -1    0    0  501    0  0.00000000000E+00  0.00000000000E+00  0.10925222124E+04  0.10925222124E+04  0.50400001928E-02 0. -1.
       -1   -1    0    0    0  501  0.00000000000E+00  0.00000000000E+00 -0.10143772251E+04  0.10143772251E+04  0.50400001928E-02 0.  1.
    10030    2    1    2    0    0  0.00000000000E+00  0.00000000000E+00  0.78144987342E+02  0.21068994375E+04  0.21054497383E+04 0.  0.
        1    1    3    3  502    0  0.86679334735E+03  0.31249593254E+03 -0.47043939310E+03  0.10345519018E+04  0.50400001928E-02 0.  1.
       -1    1    3    3    0  502 -0.86679334735E+03 -0.31249593254E+03  0.54858438044E+03  0.10723475357E+04  0.50400001928E-02 0. -1.
</event>
<event>
 5   0  0.5954140E-05  0.2054531E+04  0.7818609E-02  0.8581542E-01
        2   -1    0    0  501    0  0.00000000000E+00  0.00000000000E+00  0.15369144957E+04  0.15369144957E+04  0.25500000920E-02 0. -1.
       -2   -1    0    0    0  501  0.00000000000E+00  0.00000000000E+00 -0.68661852756E+03  0.68661852757E+03  0.25500000920E-02 0.  1.
    10030    2    1    2    0    0  0.00000000000E+00  0.00000000000E+00  0.85029596815E+03  0.22235330233E+04  0.20545305722E+04 0.  0.
        2    1    3    3  502    0 -0.71249544470E+03  0.22371766093E+03 -0.33826595365E+03  0.81983120576E+03  0.25500000920E-02 0.  1.
       -2    1    3    3    0  502  0.71249544470E+03 -0.22371766093E+03  0.11885619218E+04  0.14037018175E+04  0.25500000920E-02 0. -1.
</event>
<event>
 5   0  0.5506332E-05  0.2116408E+04  0.7818609E-02  0.8554050E-01
       -2   -1    0    0    0  501  0.00000000000E+00  0.00000000000E+00  0.14623204000E+04  0.14623204000E+04  0.25500000920E-02 0.  1.
        2   -1    0    0  501    0  0.00000000000E+00  0.00000000000E+00 -0.76576622060E+03  0.76576622060E+03  0.25500000920E-02 0. -1.
    10030    2    1    2    0    0  0.00000000000E+00  0.00000000000E+00  0.69655417945E+03  0.22280866207E+04  0.21164078681E+04 0.  0.
        3    1    3    3  502    0  0.98678759397E+03 -0.33246472947E+03  0.14988406086E+03  0.10520208144E+04  0.10100000352E+00 0.  1.
       -3    1    3    3    0  502 -0.98678759397E+03  0.33246472947E+03  0.54667011859E+03  0.11760658063E+04  0.10100000352E+00 0. -1.
</event>
<event>
 5   0  0.2604390E-05  0.2080258E+04  0.7818609E-02  0.8569990E-01
        1   -1    0    0  501    0  0.00000000000E+00  0.00000000000E+00  0.14306582345E+04  0.14306582345E+04  0.50400001928E-02 0. -1.
       -1   -1    0    0    0  501  0.00000000000E+00  0.00000000000E+00 -0.75620354939E+03  0.75620354940E+03  0.50400001928E-02 0.  1.
    10030    2    1    2    0    0  0.00000000000E+00  0.00000000000E+00  0.67445468508E+03  0.21868617839E+04  0.20802584790E+04 0.  0.
        5    1    3    3  502    0  0.70084214124E+03 -0.76555177994E+03  0.40850696399E+03  0.11154143913E+04  0.46999998093E+01 0. -1.
       -5    1    3    3    0  502 -0.70084214124E+03  0.76555177994E+03  0.26594772109E+03  0.10714473926E+04  0.46999998093E+01 0.  1.
</event>
<event>
 5   0  0.5866610E-05  0.2096851E+04  0.7818609E-02  0.8562632E-01
       -2   -1    0    0    0  501  0.00000000000E+00  0.00000000000E+00  0.12249272222E+04  0.12249272222E+04  0.25500000920E-02 0.  1.
        2   -1    0    0  501    0  0.00000000000E+00  0.00000000000E+00 -0.89735610423E+03  0.89735610423E+03  0.25500000920E-02 0. -1.
    10030    2    1    2    0    0  0.00000000000E+00  0.00000000000E+00  0.32757111795E+03  0.21222833264E+04  0.20968508960E+04 0.  0.
        5    1    3    3  502    0  0.26598976639E+03 -0.78926711281E+03  0.80828256725E+03  0.11606187702E+04  0.46999998093E+01 0.  1.
       -5    1    3    3    0  502 -0.26598976639E+03  0.78926711281E+03 -0.48071144931E+03  0.96166455622E+03  0.46999998093E+01 0. -1.
</event>
<event>
 5   0  0.5866610E-05  0.2083567E+04  0.7818609E-02  0.8568517E-01
        2   -1    0    0  501    0  0.00000000000E+00  0.00000000000E+00  0.40520151639E+03  0.40520151640E+03  0.25500000920E-02 0. -1.
       -2   -1    0    0    0  501  0.00000000000E+00  0.00000000000E+00 -0.26784510512E+04  0.26784510512E+04  0.25500000920E-02 0.  1.
    10030    2    1    2    0    0  0.00000000000E+00  0.00000000000E+00 -0.22732495348E+04  0.30836525676E+04  0.20835665840E+04 0.  0.
        5    1    3    3  502    0  0.14119786077E+03  0.88606019791E+02 -0.26585690487E+04  0.26637941624E+04  0.46999998093E+01 0.  1.
       -5    1    3    3    0  502 -0.14119786077E+03 -0.88606019791E+02  0.38531951392E+03  0.41985840522E+03  0.46999998093E+01 0. -1.
</event>
<event>
 5   0  0.5866610E-05  0.2090297E+04  0.7818609E-02  0.8565530E-01
        2   -1    0    0  501    0  0.00000000000E+00  0.00000000000E+00  0.69083435615E+03  0.69083435615E+03  0.25500000920E-02 0.  1.
       -2   -1    0    0    0  501  0.00000000000E+00  0.00000000000E+00 -0.15811829418E+04  0.15811829418E+04  0.25500000920E-02 0. -1.
    10030    2    1    2    0    0  0.00000000000E+00  0.00000000000E+00 -0.89034858568E+03  0.22720172980E+04  0.20902971077E+04 0.  0.
        5    1    3    3  502    0 -0.50205607146E+03  0.56580803922E+03  0.33871194841E+03  0.82882260474E+03  0.46999998093E+01 0.  1.
       -5    1    3    3    0  502  0.50205607146E+03 -0.56580803922E+03 -0.12290605341E+04  0.14431946932E+04  0.46999998093E+01 0. -1.
</event>
<event>
 5   0  0.2602060E-05  0.2095066E+04  0.7818609E-02  0.8563420E-01
       -1   -1    0    0    0  501  0.00000000000E+00  0.00000000000E+00  0.62825054675E+03  0.62825054677E+03  0.50400001928E-02 0.  1.
        1   -1    0    0  501    0  0.00000000000E+00  0.00000000000E+00 -0.17466371203E+04  0.17466371204E+04  0.50400001928E-02 0. -1.
    10030    2    1    2    0    0  0.00000000000E+00  0.00000000000E+00 -0.11183865736E+04  0.23748876671E+04  0.20950663244E+04 0.  0.
        1    1    3    3  502    0  0.80139053205E+02 -0.71248317298E+03  0.30653290590E+03  0.77975442419E+03  0.50400001928E-02 0.  1.
       -1    1    3    3    0  502 -0.80139053205E+02  0.71248317298E+03 -0.14249194795E+04  0.15951332429E+04  0.50400001928E-02 0. -1.
</event>
<event>
 5   0  0.5967046E-05  0.2203870E+04  0.7818609E-02  0.8516819E-01
       -2   -1    0    0    0  501  0.00000000000E+00  0.00000000000E+00  0.13607856333E+04  0.13607856333E+04  0.25500000920E-02 0. -1.
        2   -1    0    0  501    0  0.00000000000E+00  0.00000000000E+00 -0.89232335308E+03  0.89232335309E+03  0.25500000920E-02 0.  1.
    10030    2    1    2    0    0  0.00000000000E+00  0.00000000000E+00  0.46846228021E+03  0.22531089864E+04  0.22038700498E+04 0.  0.
        4    1    3    3  502    0 -0.15875536131E+03  0.88103566746E+03 -0.42264416115E+03  0.98997818761E+03  0.12699999809E+01 0.  1.
       -4    1    3    3    0  502  0.15875536131E+03 -0.88103566746E+03  0.89110644135E+03  0.12631307988E+04  0.12699999809E+01 0. -1.
</event>
<event>
 5   0  0.2602060E-05  0.2104666E+04  0.7818609E-02  0.8559191E-01
       -1   -1    0    0    0  501  0.00000000000E+00  0.00000000000E+00  0.76380548230E+03  0.76380548232E+03  0.50400001928E-02 0.  1.
        1   -1    0    0  501    0  0.00000000000E+00  0.00000000000E+00 -0.14498514197E+04  0.14498514197E+04  0.50400001928E-02 0. -1.
    10030    2    1    2    0    0  0.00000000000E+00  0.00000000000E+00 -0.68604593742E+03  0.22136569021E+04  0.21046657340E+04 0.  0.
        1    1    3    3  502    0  0.68681813947E+03 -0.48224070357E+03 -0.10108274256E+04  0.13137912076E+04  0.50400001928E-02 0. -1.
       -1    1    3    3    0  502 -0.68681813947E+03  0.48224070357E+03  0.32478148818E+03  0.89986569441E+03  0.50400001928E-02 0.  1.
</event>
<event>
 5   0  0.2732159E-05  0.2035544E+04  0.7818609E-02  0.8590181E-01
       -1   -1    0    0    0  501  0.00000000000E+00  0.00000000000E+00  0.60713418010E+03  0.60713418012E+03  0.50400001928E-02 0.  1.
        1   -1    0    0  501    0  0.00000000000E+00  0.00000000000E+00 -0.17061469025E+04  0.17061469025E+04  0.50400001928E-02 0. -1.
    10030    2    1    2    0    0  0.00000000000E+00  0.00000000000E+00 -0.10990127224E+04  0.23132810826E+04  0.20355442523E+04 0.  0.
        3    1    3    3  502    0 -0.94751298600E+03  0.16638929788E+03 -0.92709617117E+03  0.13360290333E+04  0.10100000352E+00 0. -1.
       -3    1    3    3    0  502  0.94751298600E+03 -0.16638929788E+03 -0.17191655123E+03  0.97725204931E+03  0.10100000352E+00 0.  1.
</event>
<event>
 5   0  0.2699285E-05  0.2079435E+04  0.7818609E-02  0.8570357E-01
       -1   -1    0    0    0  501  0.00000000000E+00  0.00000000000E+00  0.65111947119E+03  0.65111947121E+03  0.50400001928E-02 0. -1.
        1   -1    0    0  501    0  0.00000000000E+00  0.00000000000E+00 -0.16602372124E+04  0.16602372124E+04  0.50400001928E-02 0.  1.
    10030    2    1    2    0    0  0.00000000000E+00  0.00000000000E+00 -0.10091177412E+04  0.23113566836E+04  0.20794352847E+04 0.  0.
        2    1    3    3  502    0 -0.77503059815E+03  0.43079355026E+03  0.98908537717E+02  0.89220984631E+03  0.25500000920E-02 0.  1.
       -2    1    3    3    0  502  0.77503059815E+03 -0.43079355026E+03 -0.11080262789E+04  0.14191468373E+04  0.25500000920E-02 0. -1.
</event>
<event>
 5   0  0.5967046E-05  0.2104491E+04  0.7818609E-02  0.8559268E-01
       -2   -1    0    0    0  501  0.00000000000E+00  0.00000000000E+00  0.92511031528E+03  0.92511031528E+03  0.25500000920E-02 0.  1.
        2   -1    0    0  501    0  0.00000000000E+00  0.00000000000E+00 -0.11968523373E+04  0.11968523373E+04  0.25500000920E-02 0. -1.
    10030    2    1    2    0    0  0.00000000000E+00  0.00000000000E+00 -0.27174202202E+03  0.21219626526E+04  0.21044908582E+04 0.  0.
        4    1    3    3  502    0  0.28795892613E+03  0.86316859150E+03 -0.66868831043E+03  0.11292147847E+04  0.12699999809E+01 0. -1.
       -4    1    3    3    0  502 -0.28795892613E+03 -0.86316859150E+03  0.39694628841E+03  0.99274786792E+03  0.12699999809E+01 0.  1.
</event>
<event>
 5   0  0.2789662E-05  0.2140698E+04  0.7818609E-02  0.8543524E-01
       -1   -1    0    0    0  501  0.00000000000E+00  0.00000000000E+00  0.15097731858E+04  0.15097731859E+04  0.50400001928E-02 0.  1.
        1   -1    0    0  501    0  0.00000000000E+00  0.00000000000E+00 -0.75882078396E+03  0.75882078397E+03  0.50400001928E-02 0. -1.
    10030    2    1    2    0    0  0.00000000000E+00  0.00000000000E+00  0.75095240189E+03  0.22685939698E+04  0.21406982716E+04 0.  0.
        4    1    3    3  502    0 -0.93184121794E+03 -0.34241752040E+03  0.79946400578E+03  0.12746458815E+04  0.12699999809E+01 0.  1.
       -4    1    3    3    0  502  0.93184121794E+03  0.34241752040E+03 -0.48511603892E+02  0.99394808835E+03  0.12699999809E+01 0. -1.
</event>
<event>
 5   0  0.2732159E-05  0.2106217E+04  0.7818609E-02  0.8558510E-01
       -1   -1    0    0    0  501  0.00000000000E+00  0.00000000000E+00  0.68724160185E+03  0.68724160187E+03  0.50400001928E-02 0.  1.
        1   -1    0    0  501    0  0.00000000000E+00  0.00000000000E+00 -0.16137523201E+04  0.16137523201E+04  0.50400001928E-02 0. -1.
    10030    2    1    2    0    0  0.00000000000E+00  0.00000000000E+00 -0.92651071824E+03  0.23009939220E+04  0.21062172058E+04 0.  0.
        3    1    3    3  502    0  0.14703446401E+02 -0.12496056729E+03  0.67900050147E+03  0.69055993651E+03  0.10100000352E+00 0.  1.
       -3    1    3    3    0  502 -0.14703446401E+02  0.12496056729E+03 -0.16055112197E+04  0.16104339855E+04  0.10100000352E+00 0. -1.
</event>
<event>
 5   0  0.5462851E-05  0.2094305E+04  0.7818609E-02  0.8563756E-01
        2   -1    0    0  501    0  0.00000000000E+00  0.00000000000E+00  0.14397267001E+04  0.14397267001E+04  0.25500000920E-02 0.  1.
       -2   -1    0    0    0  501  0.00000000000E+00  0.00000000000E+00 -0.76162252804E+03  0.76162252804E+03  0.25500000920E-02 0. -1.
    10030    2    1    2    0    0  0.00000000000E+00  0.00000000000E+00  0.67810417209E+03  0.22013492282E+04  0.20943049339E+04 0.  0.
        1    1    3    3  502    0  0.32435356636E+03 -0.57450703311E+03  0.11937973573E+04  0.13639705633E+04  0.50400001928E-02 0.  1.
       -1    1    3    3    0  502 -0.32435356636E+03  0.57450703311E+03 -0.51569318523E+03  0.83737866490E+03  0.50400001928E-02 0. -1.
</event>
<event>
 5   0  0.5866610E-05  0.2103411E+04  0.7818609E-02  0.8559742E-01
       -2   -1    0    0    0  501  0.00000000000E+00  0.00000000000E+00  0.10121672609E+04  0.10121672609E+04  0.25500000920E-02 0.  1.
        2   -1    0    0  501    0  0.00000000000E+00  0.00000000000E+00 -0.10927884209E+04  0.10927884209E+04  0.25500000920E-02 0. -1.
    10030    2    1    2    0    0  0.00000000000E+00  0.00000000000E+00 -0.80621160065E+02  0.21049556818E+04  0.21034111940E+04 0.  0.
        5    1    3    3  502    0  0.92660276722E+03  0.45098567978E+03 -0.25042141149E+03  0.10605252213E+04  0.46999998093E+01 0. -1.
       -5    1    3    3    0  502 -0.92660276722E+03 -0.45098567978E+03  0.16980025142E+03  0.10444304606E+04  0.46999998093E+01 0.  1.
</event>
<event>
 5   0  0.2789662E-05  0.2104430E+04  0.7818609E-02  0.8559294E-01
       -1   -1    0    0    0  501  0.00000000000E+00  0.00000000000E+00  0.61852899403E+03  0.61852899405E+03  0.50400001928E-02 0.  1.
        1   -1    0    0  501    0  0.00000000000E+00  0.00000000000E+00 -0.17899832927E+04  0.17899832927E+04  0.50400001928E-02 0. -1.
    10030    2    1    2    0    0  0.00000000000E+00  0.00000000000E+00 -0.11714542986E+04  0.24085122867E+04  0.21044301513E+04 0.  0.
        4    1    3    3  502    0  0.86610362499E+03 -0.50477941133E+03 -0.95163890320E+03  0.13822286201E+04  0.12699999809E+01 0. -1.
       -4    1    3    3    0  502 -0.86610362499E+03  0.50477941133E+03 -0.21981539542E+03  0.10262836666E+04  0.12699999809E+01 0.  1.
</event>
<event>
 5   0  0.5462851E-05  0.2101799E+04  0.7818609E-02  0.8560451E-01
       -2   -1    0    0    0  501  0.00000000000E+00  0.00000000000E+00  0.55113932047E+03  0.55113932048E+03  0.25500000920E-02 0.  1.
        2   -1    0    0  501    0  0.00000000000E+00  0.00000000000E+00 -0.20038299146E+04  0.20038299146E+04  0.25500000920E-02 0. -1.
    10030    2    1    2    0    0  0.00000000000E+00  0.00000000000E+00 -0.14526905941E+04  0.25549692351E+04  0.21017987130E+04 0.  0.
        1    1    3    3  502    0  0.49849487250E+03  0.89763942725E+03 -0.99853295805E+03  0.14322436062E+04  0.50400001928E-02 0. -1.
       -1    1    3    3    0  502 -0.49849487250E+03 -0.89763942725E+03 -0.45415763609E+03  0.11227256289E+04  0.50400001928E-02 0.  1.
</event>
<event>
 5   0  0.5954140E-05  0.2105866E+04  0.7818609E-02  0.8558664E-01
       -2   -1    0    0    0  501  0.00000000000E+00  0.00000000000E+00  0.11228853545E+04  0.11228853545E+04  0.25500000920E-02 0. -1.
        2   -1    0    0  501    0  0.00000000000E+00  0.00000000000E+00 -0.98733876344E+03  0.98733876344E+03  0.25500000920E-02 0.  1.
    10030    2    1    2    0    0  0.00000000000E+00  0.00000000000E+00  0.13554659103E+03  0.21102241179E+04  0.21058663180E+04 0.  0.
        2    1    3    3  502    0  0.10504062846E+03  0.10232119507E+04  0.29334355544E+03  0.10696011739E+04  0.25500000920E-02 0.  1.
       -2    1    3    3    0  502 -0.10504062846E+03 -0.10232119507E+04 -0.15779696442E+03  0.10406229440E+04  0.25500000920E-02 0. -1.
</event>
<event>
 5   0  0.2602060E-05  0.2098688E+04  0.7818609E-02  0.8561822E-01
       -1   -1    0    0    0  501  0.00000000000E+00  0.00000000000E+00  0.90965353086E+03  0.90965353088E+03  0.50400001928E-02 0.  1.
        1   -1    0    0  501    0  0.00000000000E+00  0.00000000000E+00 -0.12104853988E+04  0.12104853988E+04  0.50400001928E-02 0. -1.
    10030    2    1    2    0    0  0.00000000000E+00  0.00000000000E+00 -0.30083186789E+03  0.21201389296E+04  0.20986875109E+04 0.  0.
        1    1    3    3  502    0 -0.67288815684E+03 -0.79430592538E+03 -0.17074589907E+02  0.10411493247E+04  0.50400001928E-02 0.  1.
       -1    1    3    3    0  502  0.67288815684E+03  0.79430592538E+03 -0.28375727798E+03  0.10789896049E+04  0.50400001928E-02 0. -1.
</event>
<event>
 5   0  0.5954140E-05  0.2101535E+04  0.7818609E-02  0.8560567E-01
        2   -1    0    0  501    0  0.00000000000E+00  0.00000000000E+00  0.98439100433E+03  0.98439100433E+03  0.25500000920E-02 0.  1.
       -2   -1    0    0    0  501  0.00000000000E+00  0.00000000000E+00 -0.11216197218E+04  0.11216197218E+04  0.25500000920E-02 0. -1.
    10030    2    1    2    0    0  0.00000000000E+00  0.00000000000E+00 -0.13722871750E+03  0.21060107262E+04  0.21015350242E+04 0.  0.
        2    1    3    3  502    0 -0.27057313059E+03  0.65900042247E+03 -0.84267183587E+03  0.11034433374E+04  0.25500000920E-02 0. -1.
       -2    1    3    3    0  502  0.27057313059E+03 -0.65900042247E+03  0.70544311837E+03  0.10025673888E+04  0.25500000920E-02 0.  1.
</event>
<event>
 5   0  0.2699285E-05  0.2086164E+04  0.7818609E-02  0.8567363E-01
       -1   -1    0    0    0  501  0.00000000000E+00  0.00000000000E+00  0.86760147278E+03  0.86760147280E+03  0.50400001928E-02 0. -1.
        1   -1    0    0  501    0  0.00000000000E+00  0.00000000000E+00 -0.12540552391E+04  0.12540552391E+04  0.50400001928E-02 0.  1.
    10030    2    1    2    0    0  0.00000000000E+00  0.00000000000E+00 -0.38645376627E+03  0.21216567119E+04  0.20861641090E+04 0.  0.
        2    1    3    3  502    0  0.20614158684E+03  0.10010468262E+04  0.18719940453E+02  0.10222228418E+04  0.25500000920E-02 0. -1.
       -2    1    3    3    0  502 -0.20614158684E+03 -0.10010468262E+04 -0.40517370672E+03  0.10994338701E+04  0.25500000920E-02 0.  1.
</event>
<event>
 5   0  0.2602060E-05  0.2099548E+04  0.7818609E-02  0.8561443E-01
        1   -1    0    0  501    0  0.00000000000E+00  0.00000000000E+00  0.67484141870E+03  0.67484141872E+03  0.50400001928E-02 0. -1.
       -1   -1    0    0    0  501  0.00000000000E+00  0.00000000000E+00 -0.16330132208E+04  0.16330132208E+04  0.50400001928E-02 0.  1.
    10030    2    1    2    0    0  0.00000000000E+00  0.00000000000E+00 -0.95817180214E+03  0.23078546396E+04  0.20995475310E+04 0.  0.
        1    1    3    3  502    0  0.87772908237E+03  0.57526366136E+03 -0.50792509822E+03  0.11659007366E+04  0.50400001928E-02 0.  1.
       -1    1    3    3    0  502 -0.87772908237E+03 -0.57526366136E+03 -0.45024670392E+03  0.11419539030E+04  0.50400001928E-02 0. -1.
</event>
<event>
 5   0  0.5462851E-05  0.2082212E+04  0.7818609E-02  0.8569120E-01
       -2   -1    0    0    0  501  0.00000000000E+00  0.00000000000E+00  0.11556128636E+04  0.11556128636E+04  0.25500000920E-02 0. -1.
        2   -1    0    0  501    0  0.00000000000E+00  0.00000000000E+00 -0.93794568364E+03  0.93794568364E+03  0.25500000920E-02 0.  1.
    10030    2    1    2    0    0  0.00000000000E+00  0.00000000000E+00  0.21766717998E+03  0.20935585473E+04  0.20822123786E+04 0.  0.
        1    1    3    3  502    0  0.85712600790E+03  0.47431616718E+03  0.46326156523E+03  0.10836291329E+04  0.50400001928E-02 0. -1.
       -1    1    3    3    0  502 -0.85712600790E+03 -0.47431616718E+03 -0.24559438525E+03  0.10099294143E+04  0.50400001928E-02 0.  1.
</event>
<event>
 5   0  0.5954140E-05  0.2098698E+04  0.7818609E-02  0.8561817E-01
        2   -1    0    0  501    0  0.00000000000E+00  0.00000000000E+00  0.13387306888E+04  0.13387306888E+04  0.25500000920E-02 0.  1.
       -2   -1    0    0    0  501  0.00000000000E+00  0.00000000000E+00 -0.82252015451E+03  0.82252015451E+03  0.25500000920E-02 0. -1.
    10030    2    1    2    0    0  0.00000000000E+00  0.00000000000E+00  0.51621053425E+03  0.21612508433E+04  0.20986976657E+04 0.  0.
        2    1    3    3  502    0  0.36040002474E+03  0.60408953449E+03  0.10599798886E+04  0.12721516057E+04  0.25500000920E-02 0.  1.
       -2    1    3    3    0  502 -0.36040002474E+03 -0.60408953449E+03 -0.54376935438E+03  0.88909923759E+03  0.25500000920E-02 0. -1.
</event>
<event>
 5   0  0.2602060E-05  0.2047898E+04  0.7818609E-02  0.8584549E-01
        1   -1    0    0  501    0  0.00000000000E+00  0.00000000000E+00  0.79140995851E+03  0.79140995853E+03  0.50400001928E-02 0. -1.
       -1   -1    0    0    0  501  0.00000000000E+00  0.00000000000E+00 -0.13248140711E+04  0.13248140712E+04  0.50400001928E-02 0.  1.
    10030    2    1    2    0    0  0.00000000000E+00  0.00000000000E+00 -0.53340411263E+03  0.21162240297E+04  0.20478975063E+04 0.  0.
        1    1    3    3  502    0 -0.77897417618E+03 -0.16293896622E+03 -0.93249757531E+03  0.12259288731E+04  0.50400001928E-02 0.  1.
       -1    1    3    3    0  502  0.77897417618E+03  0.16293896622E+03  0.39909346268E+03  0.89029515659E+03  0.50400001928E-02 0. -1.
</event>
<event>
 5   0  0.2699285E-05  0.2083592E+04  0.7818609E-02  0.8568506E-01
        1   -1    0    0  501    0  0.00000000000E+00  0.00000000000E+00  0.24338110900E+04  0.24338110900E+04  0.50400001928E-02 0. -1.
       -1   -1    0    0    0  501  0.00000000000E+00  0.00000000000E+00 -0.44594195554E+03  0.44594195556E+03  0.50400001928E-02 0.  1.
    10030    2    1    2    0    0  0.00000000000E+00  0.00000000000E+00  0.19878691345E+04  0.28797530456E+04  0.20835915885E+04 0.  0.
        2    1    3    3  502    0 -0.53913318821E+03  0.67142969414E+03  0.18043934462E+04  0.19993294220E+04  0.25500000920E-02 0. -1.
       -2    1    3    3    0  502  0.53913318821E+03 -0.67142969414E+03  0.18347568825E+03  0.88042362360E+03  0.25500000920E-02 0.  1.
</event>
<event>
 5   0  0.5462851E-05  0.2116833E+04  0.7818609E-02  0.8553864E-01
       -2   -1    0    0    0  501  0.00000000000E+00  0.00000000000E+00  0.23273378721E+04  0.23273378721E+04  0.25500000920E-02 0.  1.
        2   -1    0    0  501    0  0.00000000000E+00  0.00000000000E+00 -0.48134212476E+03  0.48134212476E+03  0.25500000920E-02 0. -1.
    10030    2    1    2    0    0  0.00000000000E+00  0.00000000000E+00  0.18459957474E+04  0.28086799969E+04  0.21168332541E+04 0.  0.
        1    1    3    3  502    0 -0.17483733164E+03  0.10051375424E+04  0.54917943251E+03  0.11586490499E+04  0.50400001928E-02 0. -1.
       -1    1    3    3    0  502  0.17483733164E+03 -0.10051375424E+04  0.12968163148E+04  0.16500309470E+04  0.50400001928E-02 0.  1.
</event>
<event>
 5   0  0.2699285E-05  0.2113124E+04  0.7818609E-02  0.8555484E-01
        1   -1    0    0  501    0  0.00000000000E+00  0.00000000000E+00  0.10004960969E+04  0.10004960969E+04  0.50400001928E-02 0.  1.
       -1   -1    0    0    0  501  0.00000000000E+00  0.00000000000E+00 -0.11157699128E+04  0.11157699128E+04  0.50400001928E-02 0. -1.
    10030    2    1    2    0    0  0.00000000000E+00  0.00000000000E+00 -0.11527381596E+03  0.21162660097E+04  0.21131241731E+04 0.  0.
        2    1    3    3  502    0 -0.44969643156E+03 -0.32109890437E+03  0.84425302323E+03  0.10090067166E+04  0.25500000920E-02 0.  1.
       -2    1    3    3    0  502  0.44969643156E+03  0.32109890437E+03 -0.95952683919E+03  0.11072592931E+04  0.25500000920E-02 0. -1.
</event>
<event>
 5   0  0.2732159E-05  0.2151236E+04  0.7818609E-02  0.8539003E-01
       -1   -1    0    0    0  501  0.00000000000E+00  0.00000000000E+00  0.56373299389E+03  0.56373299391E+03  0.50400001928E-02 0. -1.
        1   -1    0    0  501    0  0.00000000000E+00  0.00000000000E+00 -0.20523095207E+04  0.20523095207E+04  0.50400001928E-02 0.  1.
    10030    2    1    2    0    0  0.00000000000E+00  0.00000000000E+00 -0.14885765268E+04  0.26160425146E+04  0.21512364728E+04 0.  0.
        3    1    3    3  502    0  0.82572400054E+03 -0.62628622074E+03 -0.10944220139E+04  0.15072538307E+04  0.10100000352E+00 0.  1.
       -3    1    3    3    0  502 -0.82572400054E+03  0.62628622074E+03 -0.39415451284E+03  0.11087886839E+04  0.10100000352E+00 0. -1.
</event>
<event>
 5   0  0.5462851E-05  0.2078270E+04  0.7818609E-02  0.8570876E-01
        2   -1    0    0  501    0  0.00000000000E+00  0.00000000000E+00  0.17473409934E+04  0.17473409934E+04  0.25500000920E-02 0.  1.
       -2   -1    0    0    0  501  0.00000000000E+00  0.00000000000E+00 -0.61796869241E+03  0.61796869242E+03  0.25500000920E-02 0. -1.
    10030    2    1    2    0    0  0.00000000000E+00  0.00000000000E+00  0.11293723010E+04  0.23653096859E+04  0.20782704626E+04 0.  0.
        1    1    3    3  502    0  0.64837718321E+03 -0.40912854322E+03  0.13630090736E+04  0.15638327504E+04  0.50400001928E-02 0.  1.
       -1    1    3    3    0  502 -0.64837718321E+03  0.40912854322E+03 -0.23363677252E+03  0.80147693547E+03  0.50400001928E-02 0. -1.
</event>
<event>
 5   0  0.5967046E-05  0.2174595E+04  0.7818609E-02  0.8529077E-01
       -2   -1    0    0    0  501  0.00000000000E+00  0.00000000000E+00  0.12873359433E+04  0.12873359433E+04  0.25500000920E-02 0. -1.
        2   -1    0    0  501    0  0.00000000000E+00  0.00000000000E+00 -0.91834328354E+03  0.91834328354E+03  0.25500000920E-02 0.  1.
    10030    2    1    2    0    0  0.00000000000E+00  0.00000000000E+00  0.36899265977E+03  0.22056792268E+04  0.21745954265E+04 0.  0.
        4    1    3    3  502    0  0.80715660120E+03  0.59377230080E+03 -0.24361192570E+03  0.10312204940E+04  0.12699999809E+01 0.  1.
       -4    1    3    3    0  502 -0.80715660120E+03 -0.59377230080E+03  0.61260458547E+03  0.11744587328E+04  0.12699999809E+01 0. -1.
</event>
<event>
 5   0  0.5967046E-05  0.2098022E+04  0.7818609E-02  0.8562115E-01
        2   -1    0    0  501    0  0.00000000000E+00  0.00000000000E+00  0.16771554945E+04  0.16771554945E+04  0.25500000920E-02 0. -1.
       -2   -1    0    0    0  501  0.00000000000E+00  0.00000000000E+00 -0.65612509729E+03  0.65612509729E+03  0.25500000920E-02 0.  1.
    10030    2    1    2    0    0  0.00000000000E+00  0.00000000000E+00  0.10210303972E+04  0.23332805917E+04  0.20980217463E+04 0.  0.
        4    1    3    3  502    0 -0.75786500018E+03  0.15813078654E+03  0.12977436191E+04  0.15111270026E+04  0.12699999809E+01 0. -1.
       -4    1    3    3    0  502  0.75786500018E+03 -0.15813078654E+03 -0.27671322189E+03  0.82215358919E+03  0.12699999809E+01 0.  1.
</event>
<event>
 5   0  0.5506332E-05  0.2121846E+04  0.7818609E-02  0.8551680E-01
        2   -1    0    0  501    0  0.00000000000E+00  0.00000000000E+00  0.11278281222E+04  0.11278281222E+04  0.25500000920E-02 0.  1.
       -2   -1    0    0    0  501  0.00000000000E+00  0.00000000000E+00 -0.99798718254E+03  0.99798718255E+03  0.25500000920E-02 0. -1.
    10030    2    1    2    0    0  0.00000000000E+00  0.00000000000E+00  0.12984093966E+03  0.21258153048E+04  0.21218463753E+04 0.  0.
        3    1    3    3  502    0 -0.21707175669E+03  0.80566977794E+03 -0.59154103591E+03  0.10228121753E+04  0.10100000352E+00 0. -1.
       -3    1    3    3    0  502  0.21707175669E+03 -0.80566977794E+03  0.72138197557E+03  0.11030031294E+04  0.10100000352E+00 0.  1.
</event>
<event>
 5   0  0.2602060E-05  0.2087802E+04  0.7818609E-02  0.8566636E-01
        1   -1    0    0  501    0  0.00000000000E+00  0.00000000000E+00  0.11739797479E+04  0.11739797479E+04  0.50400001928E-02 0. -1.
       -1   -1    0    0    0  501  0.00000000000E+00  0.00000000000E+00 -0.92823482882E+03  0.92823482884E+03  0.50400001928E-02 0.  1.
    10030    2    1    2    0    0  0.00000000000E+00  0.00000000000E+00  0.24574491907E+03  0.21022145767E+04  0.20878016097E+04 0.  0.
        1    1    3    3  502    0 -0.77859911504E+03  0.22888437150E+03  0.78400577500E+03  0.11283925260E+04  0.50400001928E-02 0. -1.
       -1    1    3    3    0  502  0.77859911504E+03 -0.22888437150E+03 -0.53826085593E+03  0.97382205074E+03  0.50400001928E-02 0.  1.
</event>
<event>
 5   0  0.5954140E-05  0.2096454E+04  0.7818609E-02  0.8562807E-01
       -2   -1    0    0    0  501  0.00000000000E+00  0.00000000000E+00  0.51087461893E+03  0.51087461893E+03  0.25500000920E-02 0. -1.
        2   -1    0    0  501    0  0.00000000000E+00  0.00000000000E+00 -0.21507812468E+04  0.21507812468E+04  0.25500000920E-02 0.  1.
    10030    2    1    2    0    0  0.00000000000E+00  0.00000000000E+00 -0.16399066279E+04  0.26616558657E+04  0.20964537198E+04 0.  0.
        2    1    3    3  502    0 -0.78190155978E+03  0.37947251866E+03 -0.75952927669E+02  0.87243239786E+03  0.25500000920E-02 0. -1.
       -2    1    3    3    0  502  0.78190155978E+03 -0.37947251866E+03 -0.15639537002E+04  0.17892234679E+04  0.25500000920E-02 0.  1.
</event>
<event>
 5   0  0.5462851E-05  0.2076970E+04  0.7818609E-02  0.8571457E-01
        2   -1    0    0  501    0  0.00000000000E+00  0.00000000000E+00  0.14994296703E+04  0.14994296703E+04  0.25500000920E-02 0.  1.
       -2   -1    0    0    0  501  0.00000000000E+00  0.00000000000E+00 -0.71924088864E+03  0.71924088865E+03  0.25500000920E-02 0. -1.
    10030    2    1    2    0    0  0.00000000000E+00  0.00000000000E+00  0.78018878162E+03  0.22186705589E+04  0.20769700320E+04 0.  0.
        1    1    3    3  502    0  0.56933998420E+03  0.12372532829E+03 -0.52820307417E+03  0.78641875744E+03  0.50400001928E-02 0. -1.
       -1    1    3    3    0  502 -0.56933998420E+03 -0.12372532829E+03  0.13083918558E+04  0.14322518015E+04  0.50400001928E-02 0.  1.
</event>
<event>
 5   0  0.2699285E-05  0.2112045E+04  0.7818609E-02  0.8555956E-01
       -1   -1    0    0    0  501  0.00000000000E+00  0.00000000000E+00  0.11145958481E+04  0.11145958482E+04  0.50400001928E-02 0. -1.
        1   -1    0    0  501    0  0.00000000000E+00  0.00000000000E+00 -0.10005276583E+04  0.10005276583E+04  0.50400001928E-02 0.  1.
    10030    2    1    2    0    0  0.00000000000E+00  0.00000000000E+00  0.11406818982E+03  0.21151235065E+04  0.21120454294E+04 0.  0.
        2    1    3    3  502    0 -0.66375752500E+03 -0.50739635383E+03 -0.58978556751E+03  0.10226788976E+04  0.25500000920E-02 0.  1.
       -2    1    3    3    0  502  0.66375752500E+03  0.50739635383E+03  0.70385375733E+03  0.10924446089E+04  0.25500000920E-02 0. -1.
</event>
<event>
 5   0  0.2699285E-05  0.2099685E+04  0.7818609E-02  0.8561382E-01
       -1   -1    0    0    0  501  0.00000000000E+00  0.00000000000E+00  0.55154561010E+03  0.55154561012E+03  0.50400001928E-02 0. -1.
        1   -1    0    0  501    0  0.00000000000E+00  0.00000000000E+00 -0.19983292762E+04  0.19983292762E+04  0.50400001928E-02 0.  1.
    10030    2    1    2    0    0  0.00000000000E+00  0.00000000000E+00 -0.14467836661E+04  0.25498748863E+04  0.20996854430E+04 0.  0.
        2    1    3    3  502    0  0.58072657004E+03  0.80139805178E+03 -0.11487599034E+04  0.15162887265E+04  0.25500000920E-02 0.  1.
       -2    1    3    3    0  502 -0.58072657004E+03 -0.80139805178E+03 -0.29802376267E+03  0.10335861598E+04  0.25500000920E-02 0. -1.
</event>
<event>
 5   0  0.5462851E-05  0.2108716E+04  0.7818609E-02  0.8557414E-01
        2   -1    0    0  501    0  0.00000000000E+00  0.00000000000E+00  0.76886637174E+03  0.76886637175E+03  0.25500000920E-02 0.  1.
       -2   -1    0    0    0  501  0.00000000000E+00  0.00000000000E+00 -0.14458572730E+04  0.14458572730E+04  0.25500000920E-02 0. -1.
    10030    2    1    2    0    0  0.00000000000E+00  0.00000000000E+00 -0.67699090123E+03  0.22147236447E+04  0.21087162308E+04 0.  0.
        1    1    3    3  502    0  0.65642807138E+03  0.69952874290E+03  0.12102996066E+03  0.96689530273E+03  0.50400001928E-02 0.  1.
       -1    1    3    3    0  502 -0.65642807138E+03 -0.69952874290E+03 -0.79802086189E+03  0.12478283420E+04  0.50400001928E-02 0. -1.
</event>
<event>
 5   0  0.5967046E-05  0.2093128E+04  0.7818609E-02  0.8564276E-01
       -2   -1    0    0    0  501  0.00000000000E+00  0.00000000000E+00  0.10672462821E+04  0.10672462821E+04  0.25500000920E-02 0. -1.
        2   -1    0    0  501    0  0.00000000000E+00  0.00000000000E+00 -0.10262827701E+04  0.10262827701E+04  0.25500000920E-02 0.  1.
    10030    2    1    2    0    0  0.00000000000E+00  0.00000000000E+00  0.40963512024E+02  0.20935290522E+04  0.20931282529E+04 0.  0.
        4    1    3    3  502    0 -0.54830995514E+03  0.19797230663E+03  0.88981906675E+03  0.10637746122E+04  0.12699999809E+01 0. -1.
       -4    1    3    3    0  502  0.54830995514E+03 -0.19797230663E+03 -0.84885555472E+03  0.10297544400E+04  0.12699999809E+01 0.  1.
</event>
<event>
 5   0  0.5967046E-05  0.2094209E+04  0.7818609E-02  0.8563799E-01
       -2   -1    0    0    0  501  0.00000000000E+00  0.00000000000E+00  0.63797785473E+03  0.63797785473E+03  0.25500000920E-02 0. -1.
        2   -1    0    0  501    0  0.00000000000E+00  0.00000000000E+00 -0.17185990518E+04  0.17185990518E+04  0.25500000920E-02 0.  1.
    10030    2    1    2    0    0  0.00000000000E+00  0.00000000000E+00 -0.10806211971E+04  0.23565769066E+04  0.20942092887E+04 0.  0.
        4    1    3    3  502    0 -0.52186524956E+03 -0.20344224555E+03 -0.15358481807E+04  0.16347976429E+04  0.12699999809E+01 0.  1.
       -4    1    3    3    0  502  0.52186524956E+03  0.20344224555E+03  0.45522698363E+03  0.72177926369E+03  0.12699999809E+01 0. -1.
</event>
<event>
 5   0  0.2732159E-05  0.2092206E+04  0.7818609E-02  0.8564685E-01
       -1   -1    0    0    0  501  0.00000000000E+00  0.00000000000E+00  0.69684469409E+03  0.69684469411E+03  0.50400001928E-02 0.  1.
        1   -1    0    0  501    0  0.00000000000E+00  0.00000000000E+00 -0.15704087689E+04  0.15704087690E+04  0.50400001928E-02 0. -1.
    10030    2    1    2    0    0  0.00000000000E+00  0.00000000000E+00 -0.87356407485E+03  0.22672534631E+04  0.20922055523E+04 0.  0.
        3    1    3    3  502    0 -0.81339156597E+02  0.10314858240E+04 -0.60379312697E+03  0.11979754646E+04  0.10100000352E+00 0. -1.
       -3    1    3    3    0  502  0.81339156597E+02 -0.10314858240E+04 -0.26977094788E+03  0.10692779984E+04  0.10100000352E+00 0.  1.
</event>
<event>
 5   0  0.2604390E-05  0.2140702E+04  0.7818609E-02  0.8543523E-01
       -1   -1    0    0    0  501  0.00000000000E+00  0.00000000000E+00  0.72844672499E+03  0.72844672500E+03  0.50400001928E-02 0.  1.
        1   -1    0    0  501    0  0.00000000000E+00  0.00000000000E+00 -0.15727323067E+04  0.15727323067E+04  0.50400001928E-02 0. -1.
    10030    2    1    2    0    0  0.00000000000E+00  0.00000000000E+00 -0.84428558168E+03  0.23011790317E+04  0.21407024063E+04 0.  0.
        5    1    3    3  502    0  0.38554009177E+03 -0.86678381664E+03  0.11066913863E+03  0.95510475624E+03  0.46999998093E+01 0. -1.
       -5    1    3    3    0  502 -0.38554009177E+03  0.86678381664E+03 -0.95495472031E+03  0.13460742754E+04  0.46999998093E+01 0.  1.
</event>
<event>
 5   0  0.5954140E-05  0.2095124E+04  0.7818609E-02  0.8563395E-01
        2   -1    0    0  501    0  0.00000000000E+00  0.00000000000E+00  0.80855072938E+03  0.80855072938E+03  0.25500000920E-02 0. -1.
       -2   -1    0    0    0  501  0.00000000000E+00  0.00000000000E+00 -0.13572255587E+04  0.13572255587E+04  0.25500000920E-02 0.  1.
    10030    2    1    2    0    0  0.00000000000E+00  0.00000000000E+00 -0.54867482928E+03  0.21657762880E+04  0.20951235910E+04 0.  0.
        2    1    3    3  502    0  0.67988948866E+03 -0.47901990247E+02 -0.10966773626E+04  0.12912186318E+04  0.25500000920E-02 0.  1.
       -2    1    3    3    0  502 -0.67988948866E+03  0.47901990247E+02  0.54800253336E+03  0.87455765621E+03  0.25500000920E-02 0. -1.
</event>
<event>
 5   0  0.2699285E-05  0.2098705E+04  0.7818609E-02  0.8561814E-01
       -1   -1    0    0    0  501  0.00000000000E+00  0.00000000000E+00  0.10935241162E+04  0.10935241162E+04  0.50400001928E-02 0.  1.
        1   -1    0    0  501    0  0.00000000000E+00  0.00000000000E+00 -0.10069654791E+04  0.10069654791E+04  0.50400001928E-02 0. -1.
    10030    2    1    2    0    0  0.00000000000E+00  0.00000000000E+00  0.86558637125E+02  0.21004895953E+04  0.20987053491E+04 0.  0.
        2    1    3    3  502    0 -0.19597663861E+03  0.69075561936E+02 -0.98616830532E+03  0.10078225055E+04  0.25500000920E-02 0. -1.
       -2    1    3    3    0  502  0.19597663861E+03 -0.69075561936E+02  0.10727269424E+04  0.10926670898E+04  0.25500000920E-02 0.  1.
</event>
<event>
 5   0  0.2699285E-05  0.2081033E+04  0.7818609E-02  0.8569645E-01
        1   -1    0    0  501    0  0.00000000000E+00  0.00000000000E+00  0.54243401304E+03  0.54243401307E+03  0.50400001928E-02 0. -1.
       -1   -1    0    0    0  501  0.00000000000E+00  0.00000000000E+00 -0.19959561074E+04  0.19959561074E+04  0.50400001928E-02 0.  1.
    10030    2    1    2    0    0  0.00000000000E+00  0.00000000000E+00 -0.14535220944E+04  0.25383901205E+04  0.20810328986E+04 0.  0.
        2    1    3    3  502    0  0.68036642807E+03 -0.75946141473E+03 -0.47383987321E+03  0.11243684193E+04  0.25500000920E-02 0. -1.
       -2    1    3    3    0  502 -0.68036642807E+03  0.75946141473E+03 -0.97968222119E+03  0.14140217012E+04  0.25500000920E-02 0.  1.
</event>
<event>
 5   0  0.2602060E-05  0.2096715E+04  0.7818609E-02  0.8562692E-01
        1   -1    0    0  501    0  0.00000000000E+00  0.00000000000E+00  0.12317738338E+04  0.12317738338E+04  0.50400001928E-02 0.  1.
       -1   -1    0    0    0  501  0.00000000000E+00  0.00000000000E+00 -0.89225235501E+03  0.89225235502E+03  0.50400001928E-02 0. -1.
    10030    2    1    2    0    0  0.00000000000E+00  0.00000000000E+00  0.33952147875E+03  0.21240261888E+04  0.20967146721E+04 0.  0.
        1    1    3    3  502    0  0.42336322717E+03 -0.58323300527E+03 -0.60150791196E+03  0.93872729199E+03  0.50400001928E-02 0. -1.
       -1    1    3    3    0  502 -0.42336322717E+03  0.58323300527E+03  0.94102939071E+03  0.11852988968E+04  0.50400001928E-02 0.  1.
</event>
<event>
 5   0  0.5954140E-05  0.2097326E+04  0.7818609E-02  0.8562422E-01
       -2   -1    0    0    0  501  0.00000000000E+00  0.00000000000E+00  0.12306120115E+04  0.12306120115E+04  0.25500000920E-02 0.  1.
        2   -1    0    0  501    0  0.00000000000E+00  0.00000000000E+00 -0.89361549969E+03  0.89361549970E+03  0.25500000920E-02 0. -1.
    10030    2    1    2    0    0  0.00000000000E+00  0.00000000000E+00  0.33699651180E+03  0.21242275112E+04  0.20973258856E+04 0.  0.
        2    1    3    3  502    0 -0.60289457255E+03  0.36195374975E+03 -0.61942721603E+03  0.93711389838E+03  0.25500000920E-02 0. -1.
       -2    1    3    3    0  502  0.60289457255E+03 -0.36195374975E+03  0.95642372783E+03  0.11871136128E+04  0.25500000920E-02 0.  1.
</event>
<event>
 5   0  0.5967046E-05  0.2123364E+04  0.7818609E-02  0.8551021E-01
        2   -1    0    0  501    0  0.00000000000E+00  0.00000000000E+00  0.20230357173E+04  0.20230357173E+04  0.25500000920E-02 0.  1.
       -2   -1    0    0    0  501  0.00000000000E+00  0.00000000000E+00 -0.55716691194E+03  0.55716691195E+03  0.25500000920E-02 0. -1.
    10030    2    1    2    0    0  0.00000000000E+00  0.00000000000E+00  0.14658688054E+04  0.25802026293E+04  0.21233639004E+04 0.  0.
        4    1    3    3  502    0  0.40633988627E+02  0.48227812933E+03  0.18811846384E+04  0.19424470576E+04  0.12699999809E+01 0.  1.
       -4    1    3    3    0  502 -0.40633988627E+02 -0.48227812933E+03 -0.41531583304E+03  0.63775557162E+03  0.12699999809E+01 0. -1.
</event>
<event>
 5   0  0.2732159E-05  0.2103317E+04  0.7818609E-02  0.8559784E-01
       -1   -1    0    0    0  501  0.00000000000E+00  0.00000000000E+00  0.80240764620E+03  0.80240764622E+03  0.50400001928E-02 0.  1.
        1   -1    0    0  501    0  0.00000000000E+00  0.00000000000E+00 -0.13783333231E+04  0.13783333231E+04  0.50400001928E-02 0. -1.
    10030    2    1    2    0    0  0.00000000000E+00  0.00000000000E+00 -0.57592567687E+03  0.21807409693E+04  0.21033166167E+04 0.  0.
        3    1    3    3  502    0  0.72582731628E+02  0.92749373875E+03 -0.79639376235E+03  0.12246452234E+04  0.10100000352E+00 0. -1.
       -3    1    3    3    0  502 -0.72582731628E+02 -0.92749373875E+03  0.22046808548E+03  0.95609574587E+03  0.10100000352E+00 0.  1.
</event>
<event>
 5   0  0.5462851E-05  0.2089832E+04  0.7818609E-02  0.8565736E-01
        2   -1    0    0  501    0  0.00000000000E+00  0.00000000000E+00  0.11517650266E+04  0.11517650266E+04  0.25500000920E-02 0.  1.
       -2   -1    0    0    0  501  0.00000000000E+00  0.00000000000E+00 -0.94797962253E+03  0.94797962254E+03  0.25500000920E-02 0. -1.
    10030    2    1    2    0    0  0.00000000000E+00  0.00000000000E+00  0.20378540408E+03  0.20997446492E+04  0.20898323140E+04 0.  0.
        1    1    3    3  502    0  0.39481866571E+03 -0.83230931201E+03  0.59741465955E+03  0.10979639544E+04  0.50400001928E-02 0.  1.
       -1    1    3    3    0  502 -0.39481866571E+03  0.83230931201E+03 -0.39362925547E+03  0.10017806948E+04  0.50400001928E-02 0. -1.
</event>
<event>
 5   0  0.2699285E-05  0.2102336E+04  0.7818609E-02  0.8560215E-01
        1   -1    0    0  501    0  0.00000000000E+00  0.00000000000E+00  0.87830179285E+03  0.87830179287E+03  0.50400001928E-02 0.  1.
       -1   -1    0    0    0  501  0.00000000000E+00  0.00000000000E+00 -0.12580580864E+04  0.12580580864E+04  0.50400001928E-02 0. -1.
    10030    2    1    2    0    0  0.00000000000E+00  0.00000000000E+00 -0.37975629352E+03  0.21363598793E+04  0.21023364838E+04 0.  0.
        2    1    3    3  502    0 -0.74045951681E+03  0.58529568886E+03 -0.66007952814E+03  0.11517622684E+04  0.25500000920E-02 0. -1.
       -2    1    3    3    0  502  0.74045951681E+03 -0.58529568886E+03  0.28032323462E+03  0.98459761086E+03  0.25500000920E-02 0.  1.
</event>
<event>
 5   0  0.2602060E-05  0.2099227E+04  0.7818609E-02  0.8561584E-01
       -1   -1    0    0    0  501  0.00000000000E+00  0.00000000000E+00  0.80647276497E+03  0.80647276498E+03  0.50400001928E-02 0. -1.
        1   -1    0    0  501    0  0.00000000000E+00  0.00000000000E+00 -0.13660576724E+04  0.13660576724E+04  0.50400001928E-02 0.  1.
    10030    2    1    2    0    0  0.00000000000E+00  0.00000000000E+00 -0.55958490740E+03  0.21725304374E+04  0.20992268178E+04 0.  0.
        1    1    3    3  502    0 -0.81268831265E+03 -0.16083430588E+03  0.38719547141E+03  0.91446722225E+03  0.50400001928E-02 0. -1.
       -1    1    3    3    0  502  0.81268831265E+03  0.16083430588E+03 -0.94678037880E+03  0.12580632151E+04  0.50400001928E-02 0.  1.
</event>
<event>
 5   0  0.2732159E-05  0.2100883E+04  0.7818609E-02  0.8560855E-01
        1   -1    0    0  501    0  0.00000000000E+00  0.00000000000E+00  0.16247268002E+04  0.16247268002E+04  0.50400001928E-02 0. -1.
       -1   -1    0    0    0  501  0.00000000000E+00  0.00000000000E+00 -0.67914611947E+03  0.67914611949E+03  0.50400001928E-02 0.  1.
    10030    2    1    2    0    0  0.00000000000E+00  0.00000000000E+00  0.94558068068E+03  0.23038729197E+04  0.21008825779E+04 0.  0.
        3    1    3    3  502    0 -0.44661552922E+03  0.66636893502E+03  0.12164855935E+04  0.14571719863E+04  0.10100000352E+00 0. -1.
       -3    1    3    3    0  502  0.44661552922E+03 -0.66636893502E+03 -0.27090491277E+03  0.84670093331E+03  0.10100000352E+00 0.  1.
</event>
<event>
 5   0  0.2602060E-05  0.2087842E+04  0.7818609E-02  0.8566618E-01
       -1   -1    0    0    0  501  0.00000000000E+00  0.00000000000E+00  0.72746567453E+03  0.72746567454E+03  0.50400001928E-02 0. -1.
        1   -1    0    0  501    0  0.00000000000E+00  0.00000000000E+00 -0.14980381116E+04  0.14980381116E+04  0.50400001928E-02 0.  1.
    10030    2    1    2    0    0  0.00000000000E+00  0.00000000000E+00 -0.77057243705E+03  0.22255037861E+04  0.20878422405E+04 0.  0.
        1    1    3    3  502    0 -0.59220307634E+03 -0.71889124071E+03  0.11724548734E+03  0.93875215256E+03  0.50400001928E-02 0. -1.
       -1    1    3    3    0  502  0.59220307634E+03  0.71889124071E+03 -0.88781792439E+03  0.12867516336E+04  0.50400001928E-02 0.  1.
</event>
<event>
 5   0  0.2602060E-05  0.2119359E+04  0.7818609E-02  0.8552763E-01
        1   -1    0    0  501    0  0.00000000000E+00  0.00000000000E+00  0.21329120772E+04  0.21329120772E+04  0.50400001928E-02 0.  1.
       -1   -1    0    0    0  501  0.00000000000E+00  0.00000000000E+00 -0.52647276305E+03  0.52647276308E+03  0.50400001928E-02 0. -1.
    10030    2    1    2    0    0  0.00000000000E+00  0.00000000000E+00  0.16064393141E+04  0.26593848403E+04  0.21193585017E+04 0.  0.
        1    1    3    3  502    0  0.71677269589E+02 -0.98689151083E+03  0.12791001730E+04  0.16171548280E+04  0.50400001928E-02 0.  1.
       -1    1    3    3    0  502 -0.71677269589E+02  0.98689151083E+03  0.32733914114E+03  0.10422300123E+04  0.50400001928E-02 0. -1.
</event>
<event>
 5   0  0.2699285E-05  0.2088578E+04  0.7818609E-02  0.8566292E-01
        1   -1    0    0  501    0  0.00000000000E+00  0.00000000000E+00  0.18542016455E+04  0.18542016455E+04  0.50400001928E-02 0.  1.
       -1   -1    0    0    0  501  0.00000000000E+00  0.00000000000E+00 -0.58814513504E+03  0.58814513506E+03  0.50400001928E-02 0. -1.
    10030    2    1    2    0    0  0.00000000000E+00  0.00000000000E+00  0.12660565105E+04  0.24423467806E+04  0.20885781548E+04 0.  0.
        2    1    3    3  502    0  0.71418662861E+02 -0.10320550078E+04  0.79964582516E+03  0.13075441141E+04  0.25500000920E-02 0. -1.
       -2    1    3    3    0  502 -0.71418662861E+02  0.10320550078E+04  0.46641068531E+03  0.11348026665E+04  0.25500000920E-02 0.  1.
</event>
<event>
 5   0  0.2602060E-05  0.2090242E+04  0.7818609E-02  0.8565554E-01
        1   -1    0    0  501    0  0.00000000000E+00  0.00000000000E+00  0.17030520663E+04  0.17030520663E+04  0.50400001928E-02 0. -1.
       -1   -1    0    0    0  501  0.00000000000E+00  0.00000000000E+00 -0.64136473607E+03  0.64136473609E+03  0.50400001928E-02 0.  1.
    10030    2    1    2    0    0  0.00000000000E+00  0.00000000000E+00  0.10616873302E+04  0.23444168024E+04  0.20902416502E+04 0.  0.
        1    1    3    3  502    0 -0.99093087480E+03  0.33179064527E+03  0.51316259256E+03  0.11642013904E+04  0.50400001928E-02 0. -1.
       -1    1    3    3    0  502  0.99093087480E+03 -0.33179064527E+03  0.54852473766E+03  0.11802154120E+04  0.50400001928E-02 0.  1.
</event>
<event>
 5   0  0.5954140E-05  0.2074684E+04  0.7818609E-02  0.8572478E-01
       -2   -1    0    0    0  501  0.00000000000E+00  0.00000000000E+00  0.49862811700E+03  0.49862811700E+03  0.25500000920E-02 0.  1.
        2   -1    0    0  501    0  0.00000000000E+00  0.00000000000E+00 -0.21580780045E+04  0.21580780045E+04  0.25500000920E-02 0. -1.
    10030    2    1    2    0    0  0.00000000000E+00  0.00000000000E+00 -0.16594498875E+04  0.26567061215E+04  0.20746839487E+04 0.  0.
        2    1    3    3  502    0  0.11446420541E+03  0.46936064801E+03  0.34577364983E+03  0.59410511624E+03  0.25500000920E-02 0.  1.
       -2    1    3    3    0  502 -0.11446420541E+03 -0.46936064801E+03 -0.20052235373E+04  0.20626010052E+04  0.25500000920E-02 0. -1.
</event>
<event>
 5   0  0.2699285E-05  0.2221602E+04  0.7818609E-02  0.8509490E-01
       -1   -1    0    0    0  501  0.00000000000E+00  0.00000000000E+00  0.93411908626E+03  0.93411908627E+03  0.50400001928E-02 0.  1.
        1   -1    0    0  501    0  0.00000000000E+00  0.00000000000E+00 -0.13209007052E+04  0.13209007052E+04  0.50400001928E-02 0. -1.
    10030    2    1    2    0    0  0.00000000000E+00  0.00000000000E+00 -0.38678161894E+03  0.22550197915E+04  0.22216017283E+04 0.  0.
        2    1    3    3  502    0  0.10248933088E+04  0.67650920619E+02 -0.62271366077E+03  0.12011474701E+04  0.25500000920E-02 0. -1.
       -2    1    3    3    0  502 -0.10248933088E+04 -0.67650920619E+02  0.23593204183E+03  0.10538723214E+04  0.25500000920E-02 0.  1.
</event>
<event>
 5   0  0.2604390E-05  0.2113232E+04  0.7818609E-02  0.8555437E-01
        1   -1    0    0  501    0  0.00000000000E+00  0.00000000000E+00  0.20806483264E+04  0.20806483264E+04  0.50400001928E-02 0. -1.
       -1   -1    0    0    0  501  0.00000000000E+00  0.00000000000E+00 -0.53658134200E+03  0.53658134202E+03  0.50400001928E-02 0.  1.
    10030    2    1    2    0    0  0.00000000000E+00  0.00000000000E+00  0.15440669844E+04  0.26172296684E+04  0.21132317159E+04 0.  0.
        5    1    3    3  502    0 -0.32925249311E+03  0.68093302229E+03 -0.14171997904E+03  0.76953468247E+03  0.46999998093E+01 0.  1.
       -5    1    3    3    0  502  0.32925249311E+03 -0.68093302229E+03  0.16857869634E+04  0.18476949860E+04  0.46999998093E+01 0. -1.
</event>
<event>
 5   0  0.5462851E-05  0.2093544E+04  0.7818609E-02  0.8564092E-01
        2   -1    0    0  501    0  0.00000000000E+00  0.00000000000E+00  0.18246683896E+04  0.18246683896E+04  0.25500000920E-02 0.  1.
       -2   -1    0    0    0  501  0.00000000000E+00  0.00000000000E+00 -0.60051019168E+03  0.60051019169E+03  0.25500000920E-02 0. -1.
    10030    2    1    2    0    0  0.00000000000E+00  0.00000000000E+00  0.12241581980E+04  0.24251785813E+04  0.20935443291E+04 0.  0.
        1    1    3    3  502    0  0.83508785616E+03 -0.42280888461E+02  0.13415750657E+04  0.15808172121E+04  0.50400001928E-02 0.  1.
       -1    1    3    3    0  502 -0.83508785616E+03  0.42280888461E+02 -0.11741686775E+03  0.84436136926E+03  0.50400001928E-02 0. -1.
</event>
<event>
 5   0  0.5462851E-05  0.2122899E+04  0.7818609E-02  0.8551223E-01
        2   -1    0    0  501    0  0.00000000000E+00  0.00000000000E+00  0.12266661502E+04  0.12266661502E+04  0.25500000920E-02 0. -1.
       -2   -1    0    0    0  501  0.00000000000E+00  0.00000000000E+00 -0.91848528084E+03  0.91848528085E+03  0.25500000920E-02 0.  1.
    10030    2    1    2    0    0  0.00000000000E+00  0.00000000000E+00  0.30818086935E+03  0.21451514310E+04  0.21228987762E+04 0.  0.
        1    1    3    3  502    0 -0.20695770929E+03 -0.20609107306E+03  0.11852625346E+04  0.12207179444E+04  0.50400001928E-02 0. -1.
       -1    1    3    3    0  502  0.20695770929E+03  0.20609107306E+03 -0.87708166521E+03  0.92443348668E+03  0.50400001928E-02 0.  1.
</event>
<event>
 5   0  0.5954140E-05  0.2097727E+04  0.7818609E-02  0.8562245E-01
       -2   -1    0    0    0  501  0.00000000000E+00  0.00000000000E+00  0.78954214508E+03  0.78954214508E+03  0.25500000920E-02 0.  1.
        2   -1    0    0  501    0  0.00000000000E+00  0.00000000000E+00 -0.13933579940E+04  0.13933579940E+04  0.25500000920E-02 0. -1.
    10030    2    1    2    0    0  0.00000000000E+00  0.00000000000E+00 -0.60381584893E+03  0.21829001391E+04  0.20977272077E+04 0.  0.
        2    1    3    3  502    0  0.40786195130E+03 -0.95042694838E+03 -0.12031726364E+03  0.10412199573E+04  0.25500000920E-02 0.  1.
       -2    1    3    3    0  502 -0.40786195130E+03  0.95042694838E+03 -0.48349858529E+03  0.11416801818E+04  0.25500000920E-02 0. -1.
</event>
<event>
 5   0  0.5866610E-05  0.2103184E+04  0.7818609E-02  0.8559842E-01
        2   -1    0    0  501    0  0.00000000000E+00  0.00000000000E+00  0.13163968900E+04  0.13163968900E+04  0.25500000920E-02 0. -1.
       -2   -1    0    0    0  501  0.00000000000E+00  0.00000000000E+00 -0.84005490567E+03  0.84005490567E+03  0.25500000920E-02 0.  1.
    10030    2    1    2    0    0  0.00000000000E+00  0.00000000000E+00  0.47634198430E+03  0.21564517956E+04  0.21031839342E+04 0.  0.
        5    1    3    3  502    0  0.40476472722E+03  0.85361013675E+03  0.71175545808E+03  0.11828367056E+04  0.46999998093E+01 0. -1.
       -5    1    3    3    0  502 -0.40476472722E+03 -0.85361013675E+03 -0.23541347378E+03  0.97361509006E+03  0.46999998093E+01 0.  1.
</event>
<event>
 5   0  0.2789662E-05  0.2107586E+04  0.7818609E-02  0.8557909E-01
       -1   -1    0    0    0  501  0.00000000000E+00  0.00000000000E+00  0.12040647730E+04  0.12040647730E+04  0.50400001928E-02 0. -1.
        1   -1    0    0  501    0  0.00000000000E+00  0.00000000000E+00 -0.92227526949E+03  0.92227526950E+03  0.50400001928E-02 0.  1.
    10030    2    1    2    0    0  0.00000000000E+00  0.00000000000E+00  0.28178950349E+03  0.21263400425E+04  0.21075855029E+04 0.  0.
        4    1    3    3  502    0 -0.74118405104E+03  0.18878289215E+02 -0.61461292191E+03  0.96304768522E+03  0.12699999809E+01 0.  1.
       -4    1    3    3    0  502  0.74118405104E+03 -0.18878289215E+02  0.89640242539E+03  0.11632923573E+04  0.12699999809E+01 0. -1.
</event>
<event>
 5   0  0.5462851E-05  0.2109634E+04  0.7818609E-02  0.8557011E-01
        2   -1    0    0  501    0  0.00000000000E+00  0.00000000000E+00  0.14989160791E+04  0.14989160791E+04  0.25500000920E-02 0.  1.
       -2   -1    0    0    0  501  0.00000000000E+00  0.00000000000E+00 -0.74229556162E+03  0.74229556162E+03  0.25500000920E-02 0. -1.
    10030    2    1    2    0    0  0.00000000000E+00  0.00000000000E+00  0.75662051747E+03  0.22412116407E+04  0.21096338571E+04 0.  0.
        1    1    3    3  502    0 -0.63899021665E+01  0.56978772714E+03 -0.56471281780E+03  0.80224650293E+03  0.50400001928E-02 0. -1.
       -1    1    3    3    0  502  0.63899021665E+01 -0.56978772714E+03  0.13213333353E+04  0.14389651378E+04  0.50400001928E-02 0.  1.
</event>
<event>
 5   0  0.2602060E-05  0.2117624E+04  0.7818609E-02  0.8553519E-01
       -1   -1    0    0    0  501  0.00000000000E+00  0.00000000000E+00  0.43723423440E+03  0.43723423443E+03  0.50400001928E-02 0. -1.
        1   -1    0    0  501    0  0.00000000000E+00  0.00000000000E+00 -0.25640332534E+04  0.25640332534E+04  0.50400001928E-02 0.  1.
    10030    2    1    2    0    0  0.00000000000E+00  0.00000000000E+00 -0.21267990190E+04  0.30012674878E+04  0.21176242505E+04 0.  0.
        1    1    3    3  502    0 -0.16193678715E+03 -0.77949108165E+03 -0.20527112724E+04  0.22016933114E+04  0.50400001928E-02 0.  1.
       -1    1    3    3    0  502  0.16193678715E+03  0.77949108165E+03 -0.74087746538E+02  0.79957417643E+03  0.50400001928E-02 0. -1.
</event>
<event>
 5   0  0.2699285E-05  0.2091699E+04  0.7818609E-02  0.8564909E-01
        1   -1    0    0  501    0  0.00000000000E+00  0.00000000000E+00  0.10896318887E+04  0.10896318887E+04  0.50400001928E-02 0. -1.
       -1   -1    0    0    0  501  0.00000000000E+00  0.00000000000E+00 -0.10038267742E+04  0.10038267742E+04  0.50400001928E-02 0.  1.
    10030    2    1    2    0    0  0.00000000000E+00  0.00000000000E+00  0.85805114510E+02  0.20934586630E+04  0.20916994660E+04 0.  0.
        2    1    3    3  502    0  0.24159578792E+03  0.16911146267E+03 -0.96135275640E+03  0.10055676674E+04  0.25500000920E-02 0.  1.
       -2    1    3    3    0  502 -0.24159578792E+03 -0.16911146267E+03  0.10471578709E+04  0.10878909955E+04  0.25500000920E-02 0. -1.
</event>
<event>
 5   0  0.2732159E-05  0.2099544E+04  0.7818609E-02  0.8561444E-01
       -1   -1    0    0    0  501  0.00000000000E+00  0.00000000000E+00  0.60557622374E+03  0.60557622376E+03  0.50400001928E-02 0.  1.
        1   -1    0    0  501    0  0.00000000000E+00  0.00000000000E+00 -0.18197895639E+04  0.18197895639E+04  0.50400001928E-02 0. -1.
    10030    2    1    2    0    0  0.00000000000E+00  0.00000000000E+00 -0.12142133401E+04  0.24253657876E+04  0.20995440382E+04 0.  0.
        3    1    3    3  502    0 -0.22090450542E+02  0.21521336873E+02  0.60505277111E+03  0.60583828038E+03  0.10100000352E+00 0.  1.
       -3    1    3    3    0  502  0.22090450542E+02 -0.21521336873E+02 -0.18192661112E+04  0.18195275072E+04  0.10100000352E+00 0. -1.
</event>
<event>
 5   0  0.2604390E-05  0.2139770E+04  0.7818609E-02  0.8543924E-01
        1   -1    0    0  501    0  0.00000000000E+00  0.00000000000E+00  0.17928508643E+04  0.17928508643E+04  0.50400001928E-02 0.  1.
       -1   -1    0    0    0  501  0.00000000000E+00  0.00000000000E+00 -0.63845435594E+03  0.63845435596E+03  0.50400001928E-02 0. -1.
    10030    2    1    2    0    0  0.00000000000E+00  0.00000000000E+00  0.11543965084E+04  0.24313052203E+04  0.21397695613E+04 0.  0.
        5    1    3    3  502    0  0.67242299246E+03 -0.54729218031E+03  0.12894624144E+04  0.15538393803E+04  0.46999998093E+01 0.  1.
       -5    1    3    3    0  502 -0.67242299246E+03  0.54729218031E+03 -0.13506590606E+03  0.87746584002E+03  0.46999998093E+01 0. -1.
</event>
<event>
 5   0  0.2699285E-05  0.2097441E+04  0.7818609E-02  0.8562372E-01
       -1   -1    0    0    0  501  0.00000000000E+00  0.00000000000E+00  0.13869275082E+04  0.13869275082E+04  0.50400001928E-02 0.  1.
        1   -1    0    0  501    0  0.00000000000E+00  0.00000000000E+00 -0.79298609686E+03  0.79298609688E+03  0.50400001928E-02 0. -1.
    10030    2    1    2    0    0  0.00000000000E+00  0.00000000000E+00  0.59394141130E+03  0.21799136051E+04  0.20974405654E+04 0.  0.
        2    1    3    3  502    0 -0.51929032664E+02  0.14422073629E+03  0.13752218247E+04  0.13837381661E+04  0.25500000920E-02 0.  1.
       -2    1    3    3    0  502  0.51929032664E+02 -0.14422073629E+03 -0.78128041340E+03  0.79617543894E+03  0.25500000920E-02 0. -1.
</event>
<event>
 5   0  0.5462851E-05  0.2108715E+04  0.7818609E-02  0.8557414E-01
       -2   -1    0    0    0  501  0.00000000000E+00  0.00000000000E+00  0.14299027441E+04  0.14299027441E+04  0.25500000920E-02 0. -1.
        2   -1    0    0  501    0  0.00000000000E+00  0.00000000000E+00 -0.77744398702E+03  0.77744398703E+03  0.25500000920E-02 0.  1.
    10030    2    1    2    0    0  0.00000000000E+00  0.00000000000E+00  0.65245875706E+03  0.22073467311E+04  0.21087145757E+04 0.  0.
        1    1    3    3  502    0  0.21822141381E+03 -0.82570441115E+03 -0.32096198622E+03  0.91237325512E+03  0.50400001928E-02 0.  1.
       -1    1    3    3    0  502 -0.21822141381E+03  0.82570441115E+03  0.97342074329E+03  0.12949734760E+04  0.50400001928E-02 0. -1.
</event>
<event>
 5   0  0.5506332E-05  0.2088162E+04  0.7818609E-02  0.8566476E-01
        2   -1    0    0  501    0  0.00000000000E+00  0.00000000000E+00  0.12576369252E+04  0.12576369252E+04  0.25500000920E-02 0. -1.
       -2   -1    0    0    0  501  0.00000000000E+00  0.00000000000E+00 -0.86678880392E+03  0.86678880392E+03  0.25500000920E-02 0.  1.
    10030    2    1    2    0    0  0.00000000000E+00  0.00000000000E+00  0.39084812130E+03  0.21244257291E+04  0.20881624517E+04 0.  0.
        3    1    3    3  502    0 -0.65335614339E+03 -0.35168484318E+03 -0.55187212129E+03  0.92472662311E+03  0.10100000352E+00 0.  1.
       -3    1    3    3    0  502  0.65335614339E+03  0.35168484318E+03  0.94272024258E+03  0.11996991060E+04  0.10100000352E+00 0. -1.
</event>
<event>
 5   0  0.2602060E-05  0.2106525E+04  0.7818609E-02  0.8558374E-01
       -1   -1    0    0    0  501  0.00000000000E+00  0.00000000000E+00  0.11625510307E+04  0.11625510307E+04  0.50400001928E-02 0. -1.
        1   -1    0    0  501    0  0.00000000000E+00  0.00000000000E+00 -0.95424798035E+03  0.95424798037E+03  0.50400001928E-02 0.  1.
    10030    2    1    2    0    0  0.00000000000E+00  0.00000000000E+00  0.20830305034E+03  0.21167990111E+04  0.21065250752E+04 0.  0.
        1    1    3    3  502    0  0.24745135707E+03  0.64785384595E+03  0.90074423770E+03  0.11367880021E+04  0.50400001928E-02 0. -1.
       -1    1    3    3    0  502 -0.24745135707E+03 -0.64785384595E+03 -0.69244118736E+03  0.98001100902E+03  0.50400001928E-02 0.  1.
</event>
<event>
 5   0  0.2699285E-05  0.2098044E+04  0.7818609E-02  0.8562106E-01
        1   -1    0    0  501    0  0.00000000000E+00  0.00000000000E+00  0.18419068097E+04  0.18419068098E+04  0.50400001928E-02 0.  1.
       -1   -1    0    0    0  501  0.00000000000E+00  0.00000000000E+00 -0.59744985027E+03  0.59744985029E+03  0.50400001928E-02 0. -1.
    10030    2    1    2    0    0  0.00000000000E+00  0.00000000000E+00  0.12444569595E+04  0.24393566600E+04  0.20980438010E+04 0.  0.
        2    1    3    3  502    0 -0.59219997395E+03  0.85393154233E+03  0.45556686211E+03  0.11346545968E+04  0.25500000920E-02 0. -1.
       -2    1    3    3    0  502  0.59219997395E+03 -0.85393154233E+03  0.78889009737E+03  0.13047020633E+04  0.25500000920E-02 0.  1.
</event>
<event>
 5   0  0.2602060E-05  0.2100590E+04  0.7818609E-02  0.8560984E-01
       -1   -1    0    0    0  501  0.00000000000E+00  0.00000000000E+00  0.87528958266E+03  0.87528958268E+03  0.50400001928E-02 0.  1.
        1   -1    0    0  501    0  0.00000000000E+00  0.00000000000E+00 -0.12602906948E+04  0.12602906948E+04  0.50400001928E-02 0. -1.
    10030    2    1    2    0    0  0.00000000000E+00  0.00000000000E+00 -0.38500111213E+03  0.21355802775E+04  0.21005897422E+04 0.  0.
        1    1    3    3  502    0  0.54930562860E+03  0.46649705697E+03  0.58427042941E+03  0.92775433843E+03  0.50400001928E-02 0.  1.
       -1    1    3    3    0  502 -0.54930562860E+03 -0.46649705697E+03 -0.96927154154E+03  0.12078259391E+04  0.50400001928E-02 0. -1.
</event>
<event>
 5   0  0.2789662E-05  0.2080914E+04  0.7818609E-02  0.8569698E-01
        1   -1    0    0  501    0  0.00000000000E+00  0.00000000000E+00  0.13410677505E+04  0.13410677505E+04  0.50400001928E-02 0.  1.
       -1   -1    0    0    0  501  0.00000000000E+00  0.00000000000E+00 -0.80723027247E+03  0.80723027249E+03  0.50400001928E-02 0. -1.
    10030    2    1    2    0    0  0.00000000000E+00  0.00000000000E+00  0.53383747806E+03  0.21482980230E+04  0.20809137279E+04 0.  0.
        4    1    3    3  502    0  0.14246153911E+03 -0.27673077183E+03  0.12918790049E+04  0.13288446811E+04  0.12699999809E+01 0.  1.
       -4    1    3    3    0  502 -0.14246153911E+03  0.27673077183E+03 -0.75804152688E+03  0.81945334192E+03  0.12699999809E+01 0. -1.
</event>
<event>
 5   0  0.2732159E-05  0.2061720E+04  0.7818609E-02  0.8578296E-01
       -1   -1    0    0    0  501  0.00000000000E+00  0.00000000000E+00  0.91072492713E+03  0.91072492714E+03  0.50400001928E-02 0.  1.
        1   -1    0    0  501    0  0.00000000000E+00  0.00000000000E+00 -0.11668422778E+04  0.11668422778E+04  0.50400001928E-02 0. -1.
    10030    2    1    2    0    0  0.00000000000E+00  0.00000000000E+00 -0.25611735065E+03  0.20775672049E+04  0.20617200086E+04 0.  0.
        3    1    3    3  502    0 -0.12201188597E+03 -0.63267621020E+03  0.68280412747E+03  0.93882244006E+03  0.10100000352E+00 0.  1.
       -3    1    3    3    0  502  0.12201188597E+03  0.63267621020E+03 -0.93892147812E+03  0.11387447649E+04  0.10100000352E+00 0. -1.
</event>
<event>
 5   0  0.5462851E-05  0.2102301E+04  0.7818609E-02  0.8560230E-01
        2   -1    0    0  501    0  0.00000000000E+00  0.00000000000E+00  0.69897452194E+03  0.69897452195E+03  0.25500000920E-02 0. -1.
       -2   -1    0    0    0  501  0.00000000000E+00  0.00000000000E+00 -0.15807690753E+04  0.15807690753E+04  0.25500000920E-02 0.  1.
    10030    2    1    2    0    0  0.00000000000E+00  0.00000000000E+00 -0.88179455332E+03  0.22797435972E+04  0.21023009382E+04 0.  0.
        1    1    3    3  502    0  0.43003073331E+03  0.94291082946E+03 -0.63154908880E+03  0.12136150607E+04  0.50400001928E-02 0. -1.
       -1    1    3    3    0  502 -0.43003073331E+03 -0.94291082946E+03 -0.25024546452E+03  0.10661285365E+04  0.50400001928E-02 0.  1.
</event>
<event>
 5   0  0.2604390E-05  0.2094473E+04  0.7818609E-02  0.8563682E-01
        1   -1    0    0  501    0  0.00000000000E+00  0.00000000000E+00  0.21162521402E+04  0.21162521402E+04  0.50400001928E-02 0. -1.
       -1   -1    0    0    0  501  0.00000000000E+00  0.00000000000E+00 -0.51822945770E+03  0.51822945773E+03  0.50400001928E-02 0.  1.
    10030    2    1    2    0    0  0.00000000000E+00  0.00000000000E+00  0.15980226825E+04  0.26344815979E+04  0.20944729160E+04 0.  0.
        5    1    3    3  502    0  0.30896720763E+03 -0.35738169873E+03 -0.37656760447E+03  0.60415864201E+03  0.46999998093E+01 0.  1.
       -5    1    3    3    0  502 -0.30896720763E+03  0.35738169873E+03  0.19745902869E+04  0.20303229559E+04  0.46999998093E+01 0. -1.
</event>
<event>
 5   0  0.5954140E-05  0.2085743E+04  0.7818609E-02  0.8567550E-01
        2   -1    0    0  501    0  0.00000000000E+00  0.00000000000E+00  0.14292877563E+04  0.14292877563E+04  0.25500000920E-02 0. -1.
       -2   -1    0    0    0  501  0.00000000000E+00  0.00000000000E+00 -0.76092538110E+03  0.76092538110E+03  0.25500000920E-02 0.  1.
    10030    2    1    2    0    0  0.00000000000E+00  0.00000000000E+00  0.66836237523E+03  0.21902131374E+04  0.20857433502E+04 0.  0.
        2    1    3    3  502    0 -0.26285474974E+02  0.35689616049E+03  0.13627930236E+04  0.14089963168E+04  0.25500000920E-02 0. -1.
       -2    1    3    3    0  502  0.26285474974E+02 -0.35689616049E+03 -0.69443064832E+03  0.78121682068E+03  0.25500000920E-02 0.  1.
</event>
<event>
 5   0  0.2789662E-05  0.2103788E+04  0.7818609E-02  0.8559577E-01
        1   -1    0    0  501    0  0.00000000000E+00  0.00000000000E+00  0.60948585818E+03  0.60948585820E+03  0.50400001928E-02 0. -1.
       -1   -1    0    0    0  501  0.00000000000E+00  0.00000000000E+00 -0.18154335986E+04  0.18154335986E+04  0.50400001928E-02 0.  1.
    10030    2    1    2    0    0  0.00000000000E+00  0.00000000000E+00 -0.12059477404E+04  0.24249194568E+04  0.21037881118E+04 0.  0.
        4    1    3    3  502    0  0.90367613117E+03 -0.48097432243E+03 -0.88179146695E+03  0.13511197774E+04  0.12699999809E+01 0. -1.
       -4    1    3    3    0  502 -0.90367613117E+03  0.48097432243E+03 -0.32415627347E+03  0.10737996794E+04  0.12699999809E+01 0.  1.
</event>
<event>
 5   0  0.5506332E-05  0.2114734E+04  0.7818609E-02  0.8554781E-01
        2   -1    0    0  501    0  0.00000000000E+00  0.00000000000E+00  0.16722135022E+04  0.16722135022E+04  0.25500000920E-02 0. -1.
       -2   -1    0    0    0  501  0.00000000000E+00  0.00000000000E+00 -0.66858985966E+03  0.66858985967E+03  0.25500000920E-02 0.  1.
    10030    2    1    2    0    0  0.00000000000E+00  0.00000000000E+00  0.10036236426E+04  0.23408033619E+04  0.21147340171E+04 0.  0.
        3    1    3    3  502    0  0.41793446383E+03 -0.93897979030E+03  0.77669978577E+03  0.12882603891E+04  0.10100000352E+00 0. -1.
       -3    1    3    3    0  502 -0.41793446383E+03  0.93897979030E+03  0.22692385680E+03  0.10525429728E+04  0.10100000352E+00 0.  1.
</event>
<event>
 5   0  0.2602060E-05  0.2095344E+04  0.7818609E-02  0.8563297E-01
        1   -1    0    0  501    0  0.00000000000E+00  0.00000000000E+00  0.53976607621E+03  0.53976607623E+03  0.50400001928E-02 0.  1.
       -1   -1    0    0    0  501  0.00000000000E+00  0.00000000000E+00 -0.20335046154E+04  0.20335046154E+04  0.50400001928E-02 0. -1.
    10030    2    1    2    0    0  0.00000000000E+00  0.00000000000E+00 -0.14937385392E+04  0.25732706916E+04  0.20953441791E+04 0.  0.
        1    1    3    3  502    0 -0.41059622194E+03  0.62042837126E+03 -0.16527435815E+04  0.18124795082E+04  0.50400001928E-02 0. -1.
       -1    1    3    3    0  502  0.41059622194E+03 -0.62042837126E+03  0.15900504231E+03  0.76079118346E+03  0.50400001928E-02 0.  1.
</event>
<event>
 5   0  0.5506332E-05  0.2062728E+04  0.7818609E-02  0.8577842E-01
       -2   -1    0    0    0  501  0.00000000000E+00  0.00000000000E+00  0.68894375073E+03  0.68894375074E+03  0.25500000920E-02 0. -1.
        2   -1    0    0  501    0  0.00000000000E+00  0.00000000000E+00 -0.15439743961E+04  0.15439743961E+04  0.25500000920E-02 0.  1.
    10030    2    1    2    0    0  0.00000000000E+00  0.00000000000E+00 -0.85503064538E+03  0.22329181468E+04  0.20627278167E+04 0.  0.
        3    1    3    3  502    0 -0.66956428366E+03 -0.73131806553E+03 -0.73478168714E+03  0.12341177338E+04  0.10100000352E+00 0.  1.
       -3    1    3    3    0  502  0.66956428366E+03  0.73131806553E+03 -0.12024895824E+03  0.99880041304E+03  0.10100000352E+00 0. -1.
</event>
<event>
 5   0  0.2604390E-05  0.2088793E+04  0.7818609E-02  0.8566196E-01
        1   -1    0    0  501    0  0.00000000000E+00  0.00000000000E+00  0.13005969350E+04  0.13005969350E+04  0.50400001928E-02 0.  1.
       -1   -1    0    0    0  501  0.00000000000E+00  0.00000000000E+00 -0.83866438301E+03  0.83866438303E+03  0.50400001928E-02 0. -1.
    10030    2    1    2    0    0  0.00000000000E+00  0.00000000000E+00  0.46193255196E+03  0.21392613180E+04  0.20887932651E+04 0.  0.
        5    1    3    3  502    0 -0.44531845956E+03 -0.18139089250E+03  0.11804754490E+04  0.12746589983E+04  0.46999998093E+01 0.  1.
       -5    1    3    3    0  502  0.44531845956E+03  0.18139089250E+03 -0.71854289705E+03  0.86460231969E+03  0.46999998093E+01 0. -1.
</event>
<event>
 5   0  0.2604390E-05  0.2092302E+04  0.7818609E-02  0.8564642E-01
       -1   -1    0    0    0  501  0.00000000000E+00  0.00000000000E+00  0.85016835044E+03  0.85016835045E+03  0.50400001928E-02 0.  1.
        1   -1    0    0  501    0  0.00000000000E+00  0.00000000000E+00 -0.12873114208E+04  0.12873114208E+04  0.50400001928E-02 0. -1.
    10030    2    1    2    0    0  0.00000000000E+00  0.00000000000E+00 -0.43714307039E+03  0.21374797713E+04  0.20923015339E+04 0.  0.
        5    1    3    3  502    0 -0.64982201843E+03  0.80479761401E+03 -0.37828499134E+03  0.11014034138E+04  0.46999998093E+01 0.  1.
       -5    1    3    3    0  502  0.64982201843E+03 -0.80479761401E+03 -0.58858079045E+02  0.10360763575E+04  0.46999998093E+01 0. -1.
</event>
<event>
 5   0  0.2732159E-05  0.2091844E+04  0.7818609E-02  0.8564845E-01
        1   -1    0    0  501    0  0.00000000000E+00  0.00000000000E+00  0.10093792854E+04  0.10093792854E+04  0.50400001928E-02 0.  1.
       -1   -1    0    0    0  501  0.00000000000E+00  0.00000000000E+00 -0.10837874163E+04  0.10837874163E+04  0.50400001928E-02 0. -1.
    10030    2    1    2    0    0  0.00000000000E+00  0.00000000000E+00 -0.74408130940E+02  0.20931667017E+04  0.20918437492E+04 0.  0.
        3    1    3    3  502    0 -0.69734684434E+03 -0.31839676756E+03  0.67478190251E+03  0.10212735917E+04  0.10100000352E+00 0.  1.
       -3    1    3    3    0  502  0.69734684434E+03  0.31839676756E+03 -0.74919003345E+03  0.10718931100E+04  0.10100000352E+00 0. -1.
</event>
<event>
 5   0  0.5866610E-05  0.2011786E+04  0.7818609E-02  0.8601130E-01
       -2   -1    0    0    0  501  0.00000000000E+00  0.00000000000E+00  0.24519428521E+04  0.24519428521E+04  0.25500000920E-02 0.  1.
        2   -1    0    0  501    0  0.00000000000E+00  0.00000000000E+00 -0.41266064139E+03  0.41266064140E+03  0.25500000920E-02 0. -1.
    10030    2    1    2    0    0  0.00000000000E+00  0.00000000000E+00  0.20392822107E+04  0.28646034935E+04  0.20117855850E+04 0.  0.
        5    1    3    3  502    0 -0.57875753046E+03 -0.35430220017E+03 -0.37614338291E+02  0.67965230563E+03  0.46999998093E+01 0. -1.
       -5    1    3    3    0  502  0.57875753046E+03  0.35430220017E+03  0.20768965490E+04  0.21849511879E+04  0.46999998093E+01 0.  1.
</event>
<event>
 5   0  0.5462851E-05  0.2094845E+04  0.7818609E-02  0.8563518E-01
        2   -1    0    0  501    0  0.00000000000E+00  0.00000000000E+00  0.13523109091E+04  0.13523109091E+04  0.25500000920E-02 0. -1.
       -2   -1    0    0    0  501  0.00000000000E+00  0.00000000000E+00 -0.81127353830E+03  0.81127353830E+03  0.25500000920E-02 0.  1.
    10030    2    1    2    0    0  0.00000000000E+00  0.00000000000E+00  0.54103737084E+03  0.21635844474E+04  0.20948451553E+04 0.  0.
        1    1    3    3  502    0  0.95422344406E+03  0.22166327053E+02 -0.17498245112E+03  0.97038785311E+03  0.50400001928E-02 0. -1.
       -1    1    3    3    0  502 -0.95422344406E+03 -0.22166327053E+02  0.71601982197E+03  0.11931965943E+04  0.50400001928E-02 0.  1.
</event>
<event>
 5   0  0.5462851E-05  0.2119286E+04  0.7818609E-02  0.8552795E-01
       -2   -1    0    0    0  501  0.00000000000E+00  0.00000000000E+00  0.94639294505E+03  0.94639294506E+03  0.25500000920E-02 0. -1.
        2   -1    0    0  501    0  0.00000000000E+00  0.00000000000E+00 -0.11864452587E+04  0.11864452587E+04  0.25500000920E-02 0.  1.
    10030    2    1    2    0    0  0.00000000000E+00  0.00000000000E+00 -0.24005231363E+03  0.21328382037E+04  0.21192861275E+04 0.  0.
        1    1    3    3  502    0  0.39086652549E+03 -0.61040122247E+03  0.65788313472E+03  0.97886491005E+03  0.50400001928E-02 0. -1.
       -1    1    3    3    0  502 -0.39086652549E+03  0.61040122247E+03 -0.89793544835E+03  0.11539732937E+04  0.50400001928E-02 0.  1.
</event>
<event>
 5   0  0.2699285E-05  0.2102550E+04  0.7818609E-02  0.8560121E-01
        1   -1    0    0  501    0  0.00000000000E+00  0.00000000000E+00  0.21854291588E+04  0.21854291588E+04  0.50400001928E-02 0.  1.
       -1   -1    0    0    0  501  0.00000000000E+00  0.00000000000E+00 -0.50570370799E+03  0.50570370801E+03  0.50400001928E-02 0. -1.
    10030    2    1    2    0    0  0.00000000000E+00  0.00000000000E+00  0.16797254509E+04  0.26911328669E+04  0.21025504790E+04 0.  0.
        2    1    3    3  502    0  0.31089883078E+03 -0.99040965659E+03  0.62718405128E+03  0.12128187025E+04  0.25500000920E-02 0. -1.
       -2    1    3    3    0  502 -0.31089883078E+03  0.99040965659E+03  0.10525413996E+04  0.14783141644E+04  0.25500000920E-02 0.  1.
</event>
<event>
 5   0  0.2699285E-05  0.2115770E+04  0.7818609E-02  0.8554328E-01
       -1   -1    0    0    0  501  0.00000000000E+00  0.00000000000E+00  0.71892840479E+03  0.71892840481E+03  0.50400001928E-02 0. -1.
        1   -1    0    0  501    0  0.00000000000E+00  0.00000000000E+00 -0.15566506339E+04  0.15566506339E+04  0.50400001928E-02 0.  1.
    10030    2    1    2    0    0  0.00000000000E+00  0.00000000000E+00 -0.83772222908E+03  0.22755790387E+04  0.21157697011E+04 0.  0.
        2    1    3    3  502    0 -0.23797486028E+03  0.98353122522E+03 -0.87090021486E+02  0.10156526852E+04  0.25500000920E-02 0. -1.
       -2    1    3    3    0  502  0.23797486028E+03 -0.98353122522E+03 -0.75063220759E+03  0.12599263535E+04  0.25500000920E-02 0.  1.
</event>
<event>
 5   0  0.5954140E-05  0.2156183E+04  0.7818609E-02  0.8536890E-01
        2   -1    0    0  501    0  0.00000000000E+00  0.00000000000E+00  0.17284217652E+04  0.17284217652E+04  0.25500000920E-02 0. -1.
       -2   -1    0    0    0  501  0.00000000000E+00  0.00000000000E+00 -0.67245213616E+03  0.67245213616E+03  0.25500000920E-02 0.  1.
    10030    2    1    2    0    0  0.00000000000E+00  0.00000000000E+00  0.10559696291E+04  0.24008739014E+04  0.21561826529E+04 0.  0.
        2    1    3    3  502    0  0.59473180973E+03 -0.40205411522E+03 -0.36761006042E+03  0.80652997068E+03  0.25500000920E-02 0.  1.
       -2    1    3    3    0  502 -0.59473180973E+03  0.40205411522E+03  0.14235796895E+04  0.15943439307E+04  0.25500000920E-02 0. -1.
</event>
<event>
 5   0  0.2604390E-05  0.1970577E+04  0.7818609E-02  0.8620502E-01
        1   -1    0    0  501    0  0.00000000000E+00  0.00000000000E+00  0.13838238440E+04  0.13838238440E+04  0.50400001928E-02 0.  1.
       -1   -1    0    0    0  501  0.00000000000E+00  0.00000000000E+00 -0.70152954975E+03  0.70152954977E+03  0.50400001928E-02 0. -1.
    10030    2    1    2    0    0  0.00000000000E+00  0.00000000000E+00  0.68229429420E+03  0.20853533937E+04  0.19705768883E+04 0.  0.
        5    1    3    3  502    0 -0.86965759571E+03  0.33159916346E+03 -0.96058829972E+00  0.93074451474E+03  0.46999998093E+01 0. -1.
       -5    1    3    3    0  502  0.86965759571E+03 -0.33159916346E+03  0.68325488250E+03  0.11546088790E+04  0.46999998093E+01 0.  1.
</event>
<event>
 5   0  0.2789662E-05  0.2115229E+04  0.7818609E-02  0.8554564E-01
        1   -1    0    0  501    0  0.00000000000E+00  0.00000000000E+00  0.14924790190E+04  0.14924790190E+04  0.50400001928E-02 0.  1.
       -1   -1    0    0    0  501  0.00000000000E+00  0.00000000000E+00 -0.74945673750E+03  0.74945673751E+03  0.50400001928E-02 0. -1.
    10030    2    1    2    0    0  0.00000000000E+00  0.00000000000E+00  0.74302228146E+03  0.22419357565E+04  0.21152290243E+04 0.  0.
        4    1    3    3  502    0  0.70263214402E+03 -0.44930389647E+03  0.10608395166E+04  0.13494250680E+04  0.12699999809E+01 0. -1.
       -4    1    3    3    0  502 -0.70263214402E+03  0.44930389647E+03 -0.31781723516E+03  0.89251068849E+03  0.12699999809E+01 0.  1.
</event>
<event>
 5   0  0.2732159E-05  0.2082271E+04  0.7818609E-02  0.8569094E-01
       -1   -1    0    0    0  501  0.00000000000E+00  0.00000000000E+00  0.92609357032E+03  0.92609357033E+03  0.50400001928E-02 0.  1.
        1   -1    0    0  501    0  0.00000000000E+00  0.00000000000E+00 -0.11704683329E+04  0.11704683329E+04  0.50400001928E-02 0. -1.
    10030    2    1    2    0    0  0.00000000000E+00  0.00000000000E+00 -0.24437476258E+03  0.20965619032E+04  0.20822710653E+04 0.  0.
        3    1    3    3  502    0 -0.39876694766E+03  0.33071999794E+03 -0.10314758499E+04  0.11542674018E+04  0.10100000352E+00 0.  1.
       -3    1    3    3    0  502  0.39876694766E+03 -0.33071999794E+03  0.78710108736E+03  0.94229450147E+03  0.10100000352E+00 0. -1.
</event>
<event>
 5   0  0.2604390E-05  0.1963358E+04  0.7818609E-02  0.8623946E-01
        1   -1    0    0  501    0  0.00000000000E+00  0.00000000000E+00  0.20265890925E+04  0.20265890925E+04  0.50400001928E-02 0.  1.
       -1   -1    0    0    0  501  0.00000000000E+00  0.00000000000E+00 -0.47552494618E+03  0.47552494621E+03  0.50400001928E-02 0. -1.
    10030    2    1    2    0    0  0.00000000000E+00  0.00000000000E+00  0.15510641463E+04  0.25021140387E+04  0.19633580103E+04 0.  0.
        5    1    3    3  502    0 -0.85344562738E+03 -0.10667779435E+03  0.13785857532E+04  0.16248908762E+04  0.46999998093E+01 0.  1.
       -5    1    3    3    0  502  0.85344562738E+03  0.10667779435E+03  0.17247839311E+03  0.87722316248E+03  0.46999998093E+01 0. -1.
</event>
<event>
 5   0  0.5954140E-05  0.2048553E+04  0.7818609E-02  0.8584251E-01
        2   -1    0    0  501    0  0.00000000000E+00  0.00000000000E+00  0.18052348795E+04  0.18052348795E+04  0.25500000920E-02 0. -1.
       -2   -1    0    0    0  501  0.00000000000E+00  0.00000000000E+00 -0.58116689366E+03  0.58116689366E+03  0.25500000920E-02 0.  1.
    10030    2    1    2    0    0  0.00000000000E+00  0.00000000000E+00  0.12240679858E+04  0.23864017731E+04  0.20485533893E+04 0.  0.
        2    1    3    3  502    0  0.20492155898E+03  0.74965050407E+03  0.13892848032E+04  0.15918797027E+04  0.25500000920E-02 0. -1.
       -2    1    3    3    0  502 -0.20492155898E+03 -0.74965050407E+03 -0.16521681739E+03  0.79452207039E+03  0.25500000920E-02 0.  1.
</event>
<event>
 5   0  0.5954140E-05  0.2095915E+04  0.7818609E-02  0.8563045E-01
       -2   -1    0    0    0  501  0.00000000000E+00  0.00000000000E+00  0.33162703573E+04  0.33162703573E+04  0.25500000920E-02 0.  1.
        2   -1    0    0  501    0  0.00000000000E+00  0.00000000000E+00 -0.33115952026E+03  0.33115952027E+03  0.25500000920E-02 0. -1.
    10030    2    1    2    0    0  0.00000000000E+00  0.00000000000E+00  0.29851108370E+04  0.36474298775E+04  0.20959145980E+04 0.  0.
        2    1    3    3  502    0 -0.22709452257E+03  0.34190481999E+03  0.31705671176E+04  0.31970246598E+04  0.25500000920E-02 0.  1.
       -2    1    3    3    0  502  0.22709452257E+03 -0.34190481999E+03 -0.18545628062E+03  0.45040521771E+03  0.25500000920E-02 0. -1.
</event>
<event>
 5   0  0.2789662E-05  0.2082639E+04  0.7818609E-02  0.8568930E-01
        1   -1    0    0  501    0  0.00000000000E+00  0.00000000000E+00  0.73610004271E+03  0.73610004273E+03  0.50400001928E-02 0. -1.
       -1   -1    0    0    0  501  0.00000000000E+00  0.00000000000E+00 -0.14730970250E+04  0.14730970250E+04  0.50400001928E-02 0.  1.
    10030    2    1    2    0    0  0.00000000000E+00  0.00000000000E+00 -0.73699698227E+03  0.22091970677E+04  0.20826394628E+04 0.  0.
        4    1    3    3  502    0  0.62495128618E+03  0.82266749965E+03 -0.23019435062E+03  0.10584597191E+04  0.12699999809E+01 0. -1.
       -4    1    3    3    0  502 -0.62495128618E+03 -0.82266749965E+03 -0.50680263164E+03  0.11507373486E+04  0.12699999809E+01 0.  1.
</event>
<event>
 5   0  0.2602060E-05  0.2096999E+04  0.7818609E-02  0.8562566E-01
       -1   -1    0    0    0  501  0.00000000000E+00  0.00000000000E+00  0.94454232667E+03  0.94454232668E+03  0.50400001928E-02 0. -1.
        1   -1    0    0  501    0  0.00000000000E+00  0.00000000000E+00 -0.11638984879E+04  0.11638984879E+04  0.50400001928E-02 0.  1.
    10030    2    1    2    0    0  0.00000000000E+00  0.00000000000E+00 -0.21935616120E+03  0.21084408146E+04  0.20969991757E+04 0.  0.
        1    1    3    3  502    0 -0.13493877782E+03 -0.76705810821E+03  0.59612407492E+03  0.98079076661E+03  0.50400001928E-02 0. -1.
       -1    1    3    3    0  502  0.13493877782E+03  0.76705810821E+03 -0.81548023613E+03  0.11276500480E+04  0.50400001928E-02 0.  1.
</event>
<event>
 5   0  0.2602060E-05  0.2104935E+04  0.7818609E-02  0.8559073E-01
        1   -1    0    0  501    0  0.00000000000E+00  0.00000000000E+00  0.14221707387E+04  0.14221707387E+04  0.50400001928E-02 0.  1.
       -1   -1    0    0    0  501  0.00000000000E+00  0.00000000000E+00 -0.77887101336E+03  0.77887101338E+03  0.50400001928E-02 0. -1.
    10030    2    1    2    0    0  0.00000000000E+00  0.00000000000E+00  0.64329972532E+03  0.22010417521E+04  0.21049347395E+04 0.  0.
        1    1    3    3  502    0 -0.83573879920E+03  0.63743630937E+03  0.37799108751E+03  0.11169877579E+04  0.50400001928E-02 0. -1.
       -1    1    3    3    0  502  0.83573879920E+03 -0.63743630937E+03  0.26530863781E+03  0.10840539942E+04  0.50400001928E-02 0.  1.
</event>
<event>
 5   0  0.2604390E-05  0.2250990E+04  0.7818609E-02  0.8497500E-01
       -1   -1    0    0    0  501  0.00000000000E+00  0.00000000000E+00  0.82324107922E+03  0.82324107923E+03  0.50400001928E-02 0.  1.
        1   -1    0    0  501    0  0.00000000000E+00  0.00000000000E+00 -0.15387223629E+04  0.15387223630E+04  0.50400001928E-02 0. -1.
    10030    2    1    2    0    0  0.00000000000E+00  0.00000000000E+00 -0.71548128373E+03  0.23619634422E+04  0.22509904120E+04 0.  0.
        5    1    3    3  502    0 -0.10468089426E+04 -0.58075848079E+02  0.71749383488E+02  0.10508814540E+04  0.46999998093E+01 0.  1.
       -5    1    3    3    0  502  0.10468089426E+04  0.58075848079E+02 -0.78723066722E+03  0.13110819882E+04  0.46999998093E+01 0. -1.
</event>
<event>
 5   0  0.5462851E-05  0.2101693E+04  0.7818609E-02  0.8560498E-01
        2   -1    0    0  501    0  0.00000000000E+00  0.00000000000E+00  0.20357194790E+04  0.20357194790E+04  0.25500000920E-02 0. -1.
       -2   -1    0    0    0  501  0.00000000000E+00  0.00000000000E+00 -0.54245139931E+03  0.54245139931E+03  0.25500000920E-02 0.  1.
    10030    2    1    2    0    0  0.00000000000E+00  0.00000000000E+00  0.14932680797E+04  0.25781708783E+04  0.21016934886E+04 0.  0.
        1    1    3    3  502    0  0.75537246613E+02  0.86665439115E+03  0.23515980887E+02  0.87025784151E+03  0.50400001928E-02 0.  1.
       -1    1    3    3    0  502 -0.75537246613E+02 -0.86665439115E+03  0.14697520988E+04  0.17079130368E+04  0.50400001928E-02 0. -1.
</event>
<event>
 5   0  0.5506332E-05  0.2070744E+04  0.7818609E-02  0.8574242E-01
       -2   -1    0    0    0  501  0.00000000000E+00  0.00000000000E+00  0.60759606988E+03  0.60759606989E+03  0.25500000920E-02 0.  1.
        2   -1    0    0  501    0  0.00000000000E+00  0.00000000000E+00 -0.17643220607E+04  0.17643220607E+04  0.25500000920E-02 0. -1.
    10030    2    1    2    0    0  0.00000000000E+00  0.00000000000E+00 -0.11567259908E+04  0.23719181306E+04  0.20707439727E+04 0.  0.
        3    1    3    3  502    0  0.12716921552E+03  0.14783646540E+03  0.58637095570E+03  0.61794703476E+03  0.10100000352E+00 0.  1.
       -3    1    3    3    0  502 -0.12716921552E+03 -0.14783646540E+03 -0.17430969465E+04  0.17539710958E+04  0.10100000352E+00 0. -1.
</event>
<event>
 5   0  0.5462851E-05  0.2115653E+04  0.7818609E-02  0.8554379E-01
       -2   -1    0    0    0  501  0.00000000000E+00  0.00000000000E+00  0.53047519202E+03  0.53047519203E+03  0.25500000920E-02 0.  1.
        2   -1    0    0  501    0  0.00000000000E+00  0.00000000000E+00 -0.21094235400E+04  0.21094235400E+04  0.25500000920E-02 0. -1.
    10030    2    1    2    0    0  0.00000000000E+00  0.00000000000E+00 -0.15789483480E+04  0.26398987321E+04  0.21156529559E+04 0.  0.
        1    1    3    3  502    0  0.66524578109E+03 -0.54924491766E+03 -0.25588960712E+02  0.86306241012E+03  0.50400001928E-02 0.  1.
       -1    1    3    3    0  502 -0.66524578109E+03  0.54924491766E+03 -0.15533593873E+04  0.17768363219E+04  0.50400001928E-02 0. -1.
</event>
<event>
 5   0  0.5506332E-05  0.2093891E+04  0.7818609E-02  0.8563939E-01
        2   -1    0    0  501    0  0.00000000000E+00  0.00000000000E+00  0.11069596075E+04  0.11069596075E+04  0.25500000920E-02 0. -1.
       -2   -1    0    0    0  501  0.00000000000E+00  0.00000000000E+00 -0.99018461033E+03  0.99018461034E+03  0.25500000920E-02 0.  1.
    10030    2    1    2    0    0  0.00000000000E+00  0.00000000000E+00  0.11677499718E+03  0.20971442179E+04  0.20938905106E+04 0.  0.
        3    1    3    3  502    0 -0.52955259137E+03 -0.89784392734E+03  0.15623625274E+03  0.10540206078E+04  0.10100000352E+00 0.  1.
       -3    1    3    3    0  502  0.52955259137E+03  0.89784392734E+03 -0.39461255556E+02  0.10431236100E+04  0.10100000352E+00 0. -1.
</event>
<event>
 5   0  0.5866610E-05  0.2093369E+04  0.7818609E-02  0.8564170E-01
       -2   -1    0    0    0  501  0.00000000000E+00  0.00000000000E+00  0.10321967748E+04  0.10321967748E+04  0.25500000920E-02 0.  1.
        2   -1    0    0  501    0  0.00000000000E+00  0.00000000000E+00 -0.10613760668E+04  0.10613760669E+04  0.25500000920E-02 0. -1.
    10030    2    1    2    0    0  0.00000000000E+00  0.00000000000E+00 -0.29179292031E+02  0.20935728417E+04  0.20933694878E+04 0.  0.
        5    1    3    3  502    0  0.70485998668E+03  0.30805776958E+03 -0.72444706673E+03  0.10566800995E+04  0.46999998093E+01 0. -1.
       -5    1    3    3    0  502 -0.70485998668E+03 -0.30805776958E+03  0.69526777470E+03  0.10368927422E+04  0.46999998093E+01 0.  1.
</event>
<event>
 5   0  0.2017750E-05  0.2087474E+04  0.7818609E-02  0.8566781E-01
       -4   -1    0    0    0  501  0.00000000000E+00  0.00000000000E+00  0.96504210514E+03  0.96504294080E+03  0.12699999809E+01 0. -1.
        4   -1    0    0  501    0  0.00000000000E+00  0.00000000000E+00 -0.11288477618E+04  0.11288484762E+04  0.12699999809E+01 0.  1.
    10030    2    1    2    0    0  0.00000000000E+00  0.00000000000E+00 -0.16380565669E+03  0.20938914170E+04  0.20874743048E+04 0.  0.
        5    1    3    3  502    0 -0.52584420232E+03 -0.46517351219E+03  0.69278386241E+03  0.98634177219E+03  0.46999998093E+01 0.  1.
       -5    1    3    3    0  502  0.52584420232E+03  0.46517351219E+03 -0.85658951910E+03  0.11075496448E+04  0.46999998093E+01 0. -1.
</event>
<event>
 5   0  0.2732159E-05  0.2078403E+04  0.7818609E-02  0.8570817E-01
        1   -1    0    0  501    0  0.00000000000E+00  0.00000000000E+00  0.16652712949E+04  0.16652712949E+04  0.50400001928E-02 0. -1.
       -1   -1    0    0    0  501  0.00000000000E+00  0.00000000000E+00 -0.64850691301E+03  0.64850691303E+03  0.50400001928E-02 0.  1.
    10030    2    1    2    0    0  0.00000000000E+00  0.00000000000E+00  0.10167643819E+04  0.23137782080E+04  0.20784031821E+04 0.  0.
        3    1    3    3  502    0  0.81171111437E+03 -0.63314206297E+03  0.35017507159E+03  0.10873667257E+04  0.10100000352E+00 0.  1.
       -3    1    3    3    0  502 -0.81171111437E+03  0.63314206297E+03  0.66658931032E+03  0.12264114823E+04  0.10100000352E+00 0. -1.
</event>
<event>
 5   0  0.5462851E-05  0.2103799E+04  0.7818609E-02  0.8559572E-01
        2   -1    0    0  501    0  0.00000000000E+00  0.00000000000E+00  0.25643010212E+04  0.25643010212E+04  0.25500000920E-02 0. -1.
       -2   -1    0    0    0  501  0.00000000000E+00  0.00000000000E+00 -0.43149880952E+03  0.43149880953E+03  0.25500000920E-02 0.  1.
    10030    2    1    2    0    0  0.00000000000E+00  0.00000000000E+00  0.21328022116E+04  0.29957998307E+04  0.21037992660E+04 0.  0.
        1    1    3    3  502    0  0.11327952854E+03 -0.10297891141E+04  0.80695652053E+03  0.13131933206E+04  0.50400001928E-02 0.  1.
       -1    1    3    3    0  502 -0.11327952854E+03  0.10297891141E+04  0.13258456911E+04  0.16826065101E+04  0.50400001928E-02 0. -1.
</event>
<event>
 5   0  0.2732159E-05  0.2094452E+04  0.7818609E-02  0.8563691E-01
       -1   -1    0    0    0  501  0.00000000000E+00  0.00000000000E+00  0.16546181640E+04  0.16546181640E+04  0.50400001928E-02 0.  1.
        1   -1    0    0  501    0  0.00000000000E+00  0.00000000000E+00 -0.66280059936E+03  0.66280059938E+03  0.50400001928E-02 0. -1.
    10030    2    1    2    0    0  0.00000000000E+00  0.00000000000E+00  0.99181756464E+03  0.23174187634E+04  0.20944516331E+04 0.  0.
        3    1    3    3  502    0 -0.10589485859E+03  0.19759360473E+03 -0.63593952489E+03  0.67429670267E+03  0.10100000352E+00 0. -1.
       -3    1    3    3    0  502  0.10589485859E+03 -0.19759360473E+03  0.16277570895E+04  0.16431220607E+04  0.10100000352E+00 0.  1.
</event>
<event>
 5   0  0.2699285E-05  0.2104432E+04  0.7818609E-02  0.8559294E-01
       -1   -1    0    0    0  501  0.00000000000E+00  0.00000000000E+00  0.85049061147E+03  0.85049061149E+03  0.50400001928E-02 0.  1.
        1   -1    0    0  501    0  0.00000000000E+00  0.00000000000E+00 -0.13017880182E+04  0.13017880182E+04  0.50400001928E-02 0. -1.
    10030    2    1    2    0    0  0.00000000000E+00  0.00000000000E+00 -0.45129740671E+03  0.21522786297E+04  0.21044319781E+04 0.  0.
        2    1    3    3  502    0  0.44380605789E+03  0.75227318767E+03 -0.82574275598E+03  0.12019691614E+04  0.25500000920E-02 0. -1.
       -2    1    3    3    0  502 -0.44380605789E+03 -0.75227318767E+03  0.37444534927E+03  0.95030946828E+03  0.25500000920E-02 0.  1.
</event>
<event>
 5   0  0.2789662E-05  0.2019468E+04  0.7818609E-02  0.8597573E-01
       -1   -1    0    0    0  501  0.00000000000E+00  0.00000000000E+00  0.10262220260E+04  0.10262220260E+04  0.50400001928E-02 0. -1.
        1   -1    0    0  501    0  0.00000000000E+00  0.00000000000E+00 -0.99351070874E+03  0.99351070875E+03  0.50400001928E-02 0.  1.
    10030    2    1    2    0    0  0.00000000000E+00  0.00000000000E+00  0.32711317249E+02  0.20197327348E+04  0.20194678234E+04 0.  0.
        4    1    3    3  502    0  0.89976253423E+03  0.12477913966E+03 -0.42463132340E+03  0.10027242021E+04  0.12699999809E+01 0.  1.
       -4    1    3    3    0  502 -0.89976253423E+03 -0.12477913966E+03  0.45734264065E+03  0.10170085327E+04  0.12699999809E+01 0. -1.
</event>
<event>
 5   0  0.5967046E-05  0.2103947E+04  0.7818609E-02  0.8559507E-01
        2   -1    0    0  501    0  0.00000000000E+00  0.00000000000E+00  0.20434976942E+04  0.20434976942E+04  0.25500000920E-02 0.  1.
       -2   -1    0    0    0  501  0.00000000000E+00  0.00000000000E+00 -0.54154600844E+03  0.54154600845E+03  0.25500000920E-02 0. -1.
    10030    2    1    2    0    0  0.00000000000E+00  0.00000000000E+00  0.15019516858E+04  0.25850437027E+04  0.21039467860E+04 0.  0.
        4    1    3    3  502    0  0.31893576293E+03 -0.55834914040E+02  0.19807505879E+04  0.20070406231E+04  0.12699999809E+01 0.  1.
       -4    1    3    3    0  502 -0.31893576293E+03  0.55834914040E+02 -0.47879890207E+03  0.57800307960E+03  0.12699999809E+01 0. -1.
</event>
<event>
 5   0  0.2017750E-05  0.2107013E+04  0.7818609E-02  0.8558160E-01
        3   -1    0    0  501    0  0.00000000000E+00  0.00000000000E+00  0.87853927788E+03  0.87853928369E+03  0.10100000352E+00 0. -1.
       -3   -1    0    0    0  501  0.00000000000E+00  0.00000000000E+00 -0.12633195132E+04  0.12633195172E+04  0.10100000352E+00 0.  1.
    10030    2    1    2    0    0  0.00000000000E+00  0.00000000000E+00 -0.38478023530E+03  0.21418588009E+04  0.21070128840E+04 0.  0.
        2    1    3    3  502    0 -0.81373101899E+01  0.88537715574E+03  0.38794264069E+03  0.96667389341E+03  0.25500000920E-02 0. -1.
       -2    1    3    3    0  502  0.81373101899E+01 -0.88537715574E+03 -0.77272287599E+03  0.11751849075E+04  0.25500000920E-02 0.  1.
</event>
<event>
 5   0  0.2604390E-05  0.2108845E+04  0.7818609E-02  0.8557357E-01
        1   -1    0    0  501    0  0.00000000000E+00  0.00000000000E+00  0.75132819905E+03  0.75132819907E+03  0.50400001928E-02 0.  1.
       -1   -1    0    0    0  501  0.00000000000E+00  0.00000000000E+00 -0.14797880492E+04  0.14797880492E+04  0.50400001928E-02 0. -1.
    10030    2    1    2    0    0  0.00000000000E+00  0.00000000000E+00 -0.72845985012E+03  0.22311162482E+04  0.21088446979E+04 0.  0.
        5    1    3    3  502    0  0.60317742048E+03  0.82934641814E+03 -0.10476379146E+03  0.10308423856E+04  0.46999998093E+01 0. -1.
       -5    1    3    3    0  502 -0.60317742048E+03 -0.82934641814E+03 -0.62369605866E+03  0.12002738627E+04  0.46999998093E+01 0.  1.
</event>
<event>
 5   0  0.2604390E-05  0.2088972E+04  0.7818609E-02  0.8566117E-01
       -1   -1    0    0    0  501  0.00000000000E+00  0.00000000000E+00  0.85032299203E+03  0.85032299204E+03  0.50400001928E-02 0.  1.
        1   -1    0    0  501    0  0.00000000000E+00  0.00000000000E+00 -0.12829845353E+04  0.12829845353E+04  0.50400001928E-02 0. -1.
    10030    2    1    2    0    0  0.00000000000E+00  0.00000000000E+00 -0.43266154331E+03  0.21333075274E+04  0.20889722342E+04 0.  0.
        5    1    3    3  502    0 -0.13478457461E+03 -0.89542106931E+03  0.31527799073E+03  0.95883683406E+03  0.46999998093E+01 0.  1.
       -5    1    3    3    0  502  0.13478457461E+03  0.89542106931E+03 -0.74793953404E+03  0.11744706933E+04  0.46999998093E+01 0. -1.
</event>
<event>
 5   0  0.5866610E-05  0.2096306E+04  0.7818609E-02  0.8562872E-01
        2   -1    0    0  501    0  0.00000000000E+00  0.00000000000E+00  0.21251659651E+04  0.21251659651E+04  0.25500000920E-02 0. -1.
       -2   -1    0    0    0  501  0.00000000000E+00  0.00000000000E+00 -0.51695939209E+03  0.51695939209E+03  0.25500000920E-02 0.  1.
    10030    2    1    2    0    0  0.00000000000E+00  0.00000000000E+00  0.16082065731E+04  0.26421253572E+04  0.20963058035E+04 0.  0.
        5    1    3    3  502    0  0.38403899806E+03  0.53120459861E+03 -0.22673789706E+03  0.69361116021E+03  0.46999998093E+01 0.  1.
       -5    1    3    3    0  502 -0.38403899806E+03 -0.53120459861E+03  0.18349444701E+04  0.19485141970E+04  0.46999998093E+01 0. -1.
</event>
<event>
 5   0  0.5462851E-05  0.2089773E+04  0.7818609E-02  0.8565762E-01
       -2   -1    0    0    0  501  0.00000000000E+00  0.00000000000E+00  0.72414826461E+03  0.72414826462E+03  0.25500000920E-02 0.  1.
        2   -1    0    0  501    0  0.00000000000E+00  0.00000000000E+00 -0.15076857403E+04  0.15076857403E+04  0.25500000920E-02 0. -1.
    10030    2    1    2    0    0  0.00000000000E+00  0.00000000000E+00 -0.78353747573E+03  0.22318340050E+04  0.20897732054E+04 0.  0.
        1    1    3    3  502    0 -0.15547442183E+03  0.97445815229E+03 -0.75870468438E+03  0.12447384402E+04  0.50400001928E-02 0. -1.
       -1    1    3    3    0  502  0.15547442183E+03 -0.97445815229E+03 -0.24832791352E+02  0.98709556475E+03  0.50400001928E-02 0.  1.
</event>
<event>
 5   0  0.2699285E-05  0.2106682E+04  0.7818609E-02  0.8558305E-01
        1   -1    0    0  501    0  0.00000000000E+00  0.00000000000E+00  0.18257554322E+04  0.18257554322E+04  0.50400001928E-02 0.  1.
       -1   -1    0    0    0  501  0.00000000000E+00  0.00000000000E+00 -0.60770874928E+03  0.60770874930E+03  0.50400001928E-02 0. -1.
    10030    2    1    2    0    0  0.00000000000E+00  0.00000000000E+00  0.12180466829E+04  0.24334641815E+04  0.21066822734E+04 0.  0.
        2    1    3    3  502    0  0.20125925812E+03 -0.10302584397E+04  0.70965655270E+03  0.12671030599E+04  0.25500000920E-02 0. -1.
       -2    1    3    3    0  502 -0.20125925812E+03  0.10302584397E+04  0.50839013021E+03  0.11663611216E+04  0.25500000920E-02 0.  1.
</event>
<event>
 5   0  0.2017750E-05  0.2087671E+04  0.7818609E-02  0.8566694E-01
       -4   -1    0    0    0  501  0.00000000000E+00  0.00000000000E+00  0.90499590160E+03  0.90499679271E+03  0.12699999809E+01 0. -1.
        4   -1    0    0  501    0  0.00000000000E+00  0.00000000000E+00 -0.12039729356E+04  0.12039736054E+04  0.12699999809E+01 0.  1.
    10030    2    1    2    0    0  0.00000000000E+00  0.00000000000E+00 -0.29897703398E+03  0.21089703981E+04  0.20876706812E+04 0.  0.
        3    1    3    3  502    0 -0.52224419023E+03 -0.56953473929E+02  0.76171733762E+03  0.92530859990E+03  0.10100000352E+00 0. -1.
       -3    1    3    3    0  502  0.52224419023E+03  0.56953473929E+02 -0.10606943716E+04  0.11836617982E+04  0.10100000352E+00 0.  1.
</event>
<event>
 5   0  0.5462851E-05  0.2085529E+04  0.7818609E-02  0.8567645E-01
        2   -1    0    0  501    0  0.00000000000E+00  0.00000000000E+00  0.15406042575E+04  0.15406042575E+04  0.25500000920E-02 0.  1.
       -2   -1    0    0    0  501  0.00000000000E+00  0.00000000000E+00 -0.70579961343E+03  0.70579961343E+03  0.25500000920E-02 0. -1.
    10030    2    1    2    0    0  0.00000000000E+00  0.00000000000E+00  0.83480464407E+03  0.22464038709E+04  0.20855290834E+04 0.  0.
        1    1    3    3  502    0  0.24859760372E+03  0.32285934704E+03  0.14512976986E+04  0.15074163116E+04  0.50400001928E-02 0.  1.
       -1    1    3    3    0  502 -0.24859760372E+03 -0.32285934704E+03 -0.61649305452E+03  0.73898755933E+03  0.50400001928E-02 0. -1.
</event>
<event>
 5   0  0.5462851E-05  0.2082931E+04  0.7818609E-02  0.8568800E-01
        2   -1    0    0  501    0  0.00000000000E+00  0.00000000000E+00  0.14237828899E+04  0.14237828899E+04  0.25500000920E-02 0. -1.
       -2   -1    0    0    0  501  0.00000000000E+00  0.00000000000E+00 -0.76180916136E+03  0.76180916137E+03  0.25500000920E-02 0.  1.
    10030    2    1    2    0    0  0.00000000000E+00  0.00000000000E+00  0.66197372851E+03  0.21855920512E+04  0.20829314432E+04 0.  0.
        1    1    3    3  502    0 -0.90610592097E+03 -0.30604037301E+03  0.76357071043E+03  0.12238173392E+04  0.50400001928E-02 0. -1.
       -1    1    3    3    0  502  0.90610592097E+03  0.30604037301E+03 -0.10159698192E+03  0.96177471202E+03  0.50400001928E-02 0.  1.
</event>
<event>
 5   0  0.5506332E-05  0.2094411E+04  0.7818609E-02  0.8563709E-01
       -2   -1    0    0    0  501  0.00000000000E+00  0.00000000000E+00  0.55550741324E+03  0.55550741325E+03  0.25500000920E-02 0. -1.
        2   -1    0    0  501    0  0.00000000000E+00  0.00000000000E+00 -0.19741224397E+04  0.19741224397E+04  0.25500000920E-02 0.  1.
    10030    2    1    2    0    0  0.00000000000E+00  0.00000000000E+00 -0.14186150265E+04  0.25296298529E+04  0.20944112776E+04 0.  0.
        3    1    3    3  502    0 -0.74743188451E+03 -0.39828103771E+03 -0.14532156499E+04  0.16819981993E+04  0.10100000352E+00 0.  1.
       -3    1    3    3    0  502  0.74743188451E+03  0.39828103771E+03  0.34600623452E+02  0.84763165368E+03  0.10100000352E+00 0. -1.
</event>
<event>
 5   0  0.2789662E-05  0.2092554E+04  0.7818609E-02  0.8564530E-01
       -1   -1    0    0    0  501  0.00000000000E+00  0.00000000000E+00  0.98597275452E+03  0.98597275454E+03  0.50400001928E-02 0. -1.
        1   -1    0    0  501    0  0.00000000000E+00  0.00000000000E+00 -0.11102699070E+04  0.11102699070E+04  0.50400001928E-02 0.  1.
    10030    2    1    2    0    0  0.00000000000E+00  0.00000000000E+00 -0.12429715243E+03  0.20962426615E+04  0.20925543037E+04 0.  0.
        4    1    3    3  502    0  0.64260794577E+03 -0.79781521341E+03  0.15092371433E+03  0.10354871642E+04  0.12699999809E+01 0.  1.
       -4    1    3    3    0  502 -0.64260794577E+03  0.79781521341E+03 -0.27522086676E+03  0.10607554973E+04  0.12699999809E+01 0. -1.
</event>
<event>
 5   0  0.2789662E-05  0.2123463E+04  0.7818609E-02  0.8550977E-01
        1   -1    0    0  501    0  0.00000000000E+00  0.00000000000E+00  0.14953662905E+04  0.14953662906E+04  0.50400001928E-02 0. -1.
       -1   -1    0    0    0  501  0.00000000000E+00  0.00000000000E+00 -0.75384479769E+03  0.75384479770E+03  0.50400001928E-02 0.  1.
    10030    2    1    2    0    0  0.00000000000E+00  0.00000000000E+00  0.74152149286E+03  0.22492110883E+04  0.21234633021E+04 0.  0.
        4    1    3    3  502    0 -0.86314624725E+03  0.59702228188E+03  0.54094728060E+03  0.11807127604E+04  0.12699999809E+01 0. -1.
       -4    1    3    3    0  502  0.86314624725E+03 -0.59702228188E+03  0.20057421226E+03  0.10684983279E+04  0.12699999809E+01 0.  1.
</event>
<event>
 5   0  0.2602060E-05  0.2086533E+04  0.7818609E-02  0.8567199E-01
       -1   -1    0    0    0  501  0.00000000000E+00  0.00000000000E+00  0.68278320071E+03  0.68278320073E+03  0.50400001928E-02 0. -1.
        1   -1    0    0  501    0  0.00000000000E+00  0.00000000000E+00 -0.15940708531E+04  0.15940708531E+04  0.50400001928E-02 0.  1.
    10030    2    1    2    0    0  0.00000000000E+00  0.00000000000E+00 -0.91128765236E+03  0.22768540538E+04  0.20865328171E+04 0.  0.
        1    1    3    3  502    0  0.13594457551E+03  0.72214724288E+03  0.35246430926E+03  0.81498997377E+03  0.50400001928E-02 0. -1.
       -1    1    3    3    0  502 -0.13594457551E+03 -0.72214724288E+03 -0.12637519616E+04  0.14618640801E+04  0.50400001928E-02 0.  1.
</event>
<event>
 5   0  0.5866610E-05  0.2103991E+04  0.7818609E-02  0.8559487E-01
        2   -1    0    0  501    0  0.00000000000E+00  0.00000000000E+00  0.17155031877E+04  0.17155031877E+04  0.25500000920E-02 0.  1.
       -2   -1    0    0    0  501  0.00000000000E+00  0.00000000000E+00 -0.64511385354E+03  0.64511385355E+03  0.25500000920E-02 0. -1.
    10030    2    1    2    0    0  0.00000000000E+00  0.00000000000E+00  0.10703893342E+04  0.23606170413E+04  0.21039913234E+04 0.  0.
        5    1    3    3  502    0 -0.24098290208E+03  0.43290401659E+03 -0.50600045627E+03  0.70819291045E+03  0.46999998093E+01 0. -1.
       -5    1    3    3    0  502  0.24098290208E+03 -0.43290401659E+03  0.15763897904E+04  0.16524241308E+04  0.46999998093E+01 0.  1.
</event>
<event>
 5   0  0.2732159E-05  0.2105196E+04  0.7818609E-02  0.8558958E-01
        1   -1    0    0  501    0  0.00000000000E+00  0.00000000000E+00  0.93467464466E+03  0.93467464467E+03  0.50400001928E-02 0.  1.
       -1   -1    0    0    0  501  0.00000000000E+00  0.00000000000E+00 -0.11853994808E+04  0.11853994809E+04  0.50400001928E-02 0. -1.
    10030    2    1    2    0    0  0.00000000000E+00  0.00000000000E+00 -0.25072483618E+03  0.21200741255E+04  0.21051962745E+04 0.  0.
        3    1    3    3  502    0  0.53496124735E+03 -0.48794506966E+03 -0.89475708309E+03  0.11510274433E+04  0.10100000352E+00 0. -1.
       -3    1    3    3    0  502 -0.53496124735E+03  0.48794506966E+03  0.64403224691E+03  0.96904668228E+03  0.10100000352E+00 0.  1.
</event>
<event>
 5   0  0.5866610E-05  0.2105880E+04  0.7818609E-02  0.8558658E-01
       -2   -1    0    0    0  501  0.00000000000E+00  0.00000000000E+00  0.14402621201E+04  0.14402621201E+04  0.25500000920E-02 0.  1.
        2   -1    0    0  501    0  0.00000000000E+00  0.00000000000E+00 -0.76977849196E+03  0.76977849196E+03  0.25500000920E-02 0. -1.
    10030    2    1    2    0    0  0.00000000000E+00  0.00000000000E+00  0.67048362816E+03  0.22100406121E+04  0.21058801512E+04 0.  0.
        5    1    3    3  502    0 -0.44030555035E+01  0.31037373906E+03  0.13911429391E+04  0.14253603095E+04  0.46999998093E+01 0.  1.
       -5    1    3    3    0  502  0.44030555035E+01 -0.31037373906E+03 -0.72065931096E+03  0.78468030259E+03  0.46999998093E+01 0. -1.
</event>
<event>
 5   0  0.5462851E-05  0.2153066E+04  0.7818609E-02  0.8538221E-01
       -2   -1    0    0    0  501  0.00000000000E+00  0.00000000000E+00  0.76035710431E+03  0.76035710431E+03  0.25500000920E-02 0.  1.
        2   -1    0    0  501    0  0.00000000000E+00  0.00000000000E+00 -0.15241825250E+04  0.15241825250E+04  0.25500000920E-02 0. -1.
    10030    2    1    2    0    0  0.00000000000E+00  0.00000000000E+00 -0.76382542073E+03  0.22845396294E+04  0.21530657316E+04 0.  0.
        1    1    3    3  502    0 -0.22221789806E+03 -0.29124225649E+03 -0.14560110583E+04  0.15013897056E+04  0.50400001928E-02 0. -1.
       -1    1    3    3    0  502  0.22221789806E+03  0.29124225649E+03  0.69218563757E+03  0.78314992375E+03  0.50400001928E-02 0.  1.
</event>
<event>
 5   0  0.5462851E-05  0.2092283E+04  0.7818609E-02  0.8564650E-01
       -2   -1    0    0    0  501  0.00000000000E+00  0.00000000000E+00  0.49254247912E+03  0.49254247912E+03  0.25500000920E-02 0.  1.
        2   -1    0    0  501    0  0.00000000000E+00  0.00000000000E+00 -0.22219654478E+04  0.22219654478E+04  0.25500000920E-02 0. -1.
    10030    2    1    2    0    0  0.00000000000E+00  0.00000000000E+00 -0.17294229687E+04  0.27145079269E+04  0.20922833175E+04 0.  0.
        1    1    3    3  502    0 -0.92132670333E+03 -0.45322374709E+03 -0.11247005580E+04  0.15228939571E+04  0.50400001928E-02 0.  1.
       -1    1    3    3    0  502  0.92132670333E+03  0.45322374709E+03 -0.60472241065E+03  0.11916139699E+04  0.50400001928E-02 0. -1.
</event>
<event>
 5   0  0.5866610E-05  0.2085555E+04  0.7818609E-02  0.8567633E-01
        2   -1    0    0  501    0  0.00000000000E+00  0.00000000000E+00  0.17521920569E+04  0.17521920569E+04  0.25500000920E-02 0. -1.
       -2   -1    0    0    0  501  0.00000000000E+00  0.00000000000E+00 -0.62058528134E+03  0.62058528134E+03  0.25500000920E-02 0.  1.
    10030    2    1    2    0    0  0.00000000000E+00  0.00000000000E+00  0.11316067756E+04  0.23727773382E+04  0.20855546990E+04 0.  0.
        5    1    3    3  502    0 -0.24385580149E+03  0.97428187567E+03  0.88491648438E+03  0.13385776404E+04  0.46999998093E+01 0. -1.
       -5    1    3    3    0  502  0.24385580149E+03 -0.97428187567E+03  0.24669029119E+03  0.10341996978E+04  0.46999998093E+01 0.  1.
</event>
<event>
 5   0  0.2789662E-05  0.2104011E+04  0.7818609E-02  0.8559478E-01
        1   -1    0    0  501    0  0.00000000000E+00  0.00000000000E+00  0.69415619600E+03  0.69415619602E+03  0.50400001928E-02 0. -1.
       -1   -1    0    0    0  501  0.00000000000E+00  0.00000000000E+00 -0.15943327401E+04  0.15943327401E+04  0.50400001928E-02 0.  1.
    10030    2    1    2    0    0  0.00000000000E+00  0.00000000000E+00 -0.90017654414E+03  0.22884889362E+04  0.21040113594E+04 0.  0.
        4    1    3    3  502    0  0.56816616740E+03 -0.65177207371E+03  0.20169804488E+03  0.88786448519E+03  0.12699999809E+01 0. -1.
       -4    1    3    3    0  502 -0.56816616740E+03  0.65177207371E+03 -0.11018745890E+04  0.14006244510E+04  0.12699999809E+01 0.  1.
</event>
<event>
 5   0  0.5462851E-05  0.2094527E+04  0.7818609E-02  0.8563658E-01
        2   -1    0    0  501    0  0.00000000000E+00  0.00000000000E+00  0.88515117111E+03  0.88515117112E+03  0.25500000920E-02 0.  1.
       -2   -1    0    0    0  501  0.00000000000E+00  0.00000000000E+00 -0.12390660213E+04  0.12390660213E+04  0.25500000920E-02 0. -1.
    10030    2    1    2    0    0  0.00000000000E+00  0.00000000000E+00 -0.35391485015E+03  0.21242171924E+04  0.20945269058E+04 0.  0.
        1    1    3    3  502    0 -0.22069015129E+03  0.99800196721E+03  0.54418301522E+02  0.10235591927E+04  0.50400001928E-02 0.  1.
       -1    1    3    3    0  502  0.22069015129E+03 -0.99800196721E+03 -0.40833315167E+03  0.11006579997E+04  0.50400001928E-02 0. -1.
</event>
<event>
 5   0  0.2602060E-05  0.2094291E+04  0.7818609E-02  0.8563762E-01
       -1   -1    0    0    0  501  0.00000000000E+00  0.00000000000E+00  0.10870486668E+04  0.10870486668E+04  0.50400001928E-02 0. -1.
        1   -1    0    0  501    0  0.00000000000E+00  0.00000000000E+00 -0.10087074680E+04  0.10087074680E+04  0.50400001928E-02 0.  1.
    10030    2    1    2    0    0  0.00000000000E+00  0.00000000000E+00  0.78341198825E+02  0.20957561348E+04  0.20942913917E+04 0.  0.
        1    1    3    3  502    0  0.48096181458E+03  0.84918918629E+03 -0.34065720198E+03  0.10336797717E+04  0.50400001928E-02 0.  1.
       -1    1    3    3    0  502 -0.48096181458E+03 -0.84918918629E+03  0.41899840081E+03  0.10620763631E+04  0.50400001928E-02 0. -1.
</event>
<event>
 5   0  0.2699285E-05  0.2131377E+04  0.7818609E-02  0.8547546E-01
       -1   -1    0    0    0  501  0.00000000000E+00  0.00000000000E+00  0.68423441329E+03  0.68423441331E+03  0.50400001928E-02 0.  1.
        1   -1    0    0  501    0  0.00000000000E+00  0.00000000000E+00 -0.16597997712E+04  0.16597997712E+04  0.50400001928E-02 0. -1.
    10030    2    1    2    0    0  0.00000000000E+00  0.00000000000E+00 -0.97556535791E+03  0.23440341845E+04  0.21313771348E+04 0.  0.
        2    1    3    3  502    0  0.30095200662E+03 -0.49963569768E+03  0.49310530117E+03  0.76378058285E+03  0.25500000920E-02 0.  1.
       -2    1    3    3    0  502 -0.30095200662E+03  0.49963569768E+03 -0.14686706591E+04  0.15802536017E+04  0.25500000920E-02 0. -1.
</event>
<event>
 5   0  0.2699285E-05  0.2097730E+04  0.7818609E-02  0.8562244E-01
       -1   -1    0    0    0  501  0.00000000000E+00  0.00000000000E+00  0.99808035327E+03  0.99808035329E+03  0.50400001928E-02 0.  1.
        1   -1    0    0  501    0  0.00000000000E+00  0.00000000000E+00 -0.11022341693E+04  0.11022341693E+04  0.50400001928E-02 0. -1.
    10030    2    1    2    0    0  0.00000000000E+00  0.00000000000E+00 -0.10415381606E+03  0.21003145226E+04  0.20977304585E+04 0.  0.
        2    1    3    3  502    0 -0.44131893772E+03 -0.25264739513E+03  0.86639991823E+03  0.10046103371E+04  0.25500000920E-02 0.  1.
       -2    1    3    3    0  502  0.44131893772E+03  0.25264739513E+03 -0.97055373429E+03  0.10957041855E+04  0.25500000920E-02 0. -1.
</event>
<event>
 5   0  0.2602060E-05  0.2098876E+04  0.7818609E-02  0.8561739E-01
       -1   -1    0    0    0  501  0.00000000000E+00  0.00000000000E+00  0.55846415299E+03  0.55846415301E+03  0.50400001928E-02 0. -1.
        1   -1    0    0  501    0  0.00000000000E+00  0.00000000000E+00 -0.19720513301E+04  0.19720513301E+04  0.50400001928E-02 0.  1.
    10030    2    1    2    0    0  0.00000000000E+00  0.00000000000E+00 -0.14135871771E+04  0.25305154832E+04  0.20988758665E+04 0.  0.
        1    1    3    3  502    0  0.77129103636E+03 -0.34107625160E+02 -0.15637971346E+04  0.17439938851E+04  0.50400001928E-02 0.  1.
       -1    1    3    3    0  502 -0.77129103636E+03  0.34107625160E+02  0.15020995750E+03  0.78652159807E+03  0.50400001928E-02 0. -1.
</event>
<event>
 5   0  0.2789662E-05  0.2103154E+04  0.7818609E-02  0.8559855E-01
        1   -1    0    0  501    0  0.00000000000E+00  0.00000000000E+00  0.80992304719E+03  0.80992304721E+03  0.50400001928E-02 0. -1.
       -1   -1    0    0    0  501  0.00000000000E+00  0.00000000000E+00 -0.13653320339E+04  0.13653320339E+04  0.50400001928E-02 0.  1.
    10030    2    1    2    0    0  0.00000000000E+00  0.00000000000E+00 -0.55540898674E+03  0.21752550811E+04  0.21031537094E+04 0.  0.
        4    1    3    3  502    0 -0.76515233121E+03  0.49496167422E+03  0.26503974065E+03  0.94904837913E+03  0.12699999809E+01 0. -1.
       -4    1    3    3    0  502  0.76515233121E+03 -0.49496167422E+03 -0.82044872739E+03  0.12262067020E+04  0.12699999809E+01 0.  1.
</event>
<event>
 5   0  0.5967046E-05  0.2068102E+04  0.7818609E-02  0.8575426E-01
        2   -1    0    0  501    0  0.00000000000E+00  0.00000000000E+00  0.21466487704E+04  0.21466487704E+04  0.25500000920E-02 0. -1.
       -2   -1    0    0    0  501  0.00000000000E+00  0.00000000000E+00 -0.49810751184E+03  0.49810751184E+03  0.25500000920E-02 0.  1.
    10030    2    1    2    0    0  0.00000000000E+00  0.00000000000E+00  0.16485412586E+04  0.26447562823E+04  0.20681023938E+04 0.  0.
        4    1    3    3  502    0  0.57560517383E+03  0.85615404903E+03  0.91414619230E+03  0.13783997771E+04  0.12699999809E+01 0.  1.
       -4    1    3    3    0  502 -0.57560517383E+03 -0.85615404903E+03  0.73439506629E+03  0.12663565051E+04  0.12699999809E+01 0. -1.
</event>
<event>
 5   0  0.5967046E-05  0.2079053E+04  0.7818609E-02  0.8570527E-01
        2   -1    0    0  501    0  0.00000000000E+00  0.00000000000E+00  0.11133243070E+04  0.11133243070E+04  0.25500000920E-02 0. -1.
       -2   -1    0    0    0  501  0.00000000000E+00  0.00000000000E+00 -0.97062031205E+03  0.97062031206E+03  0.25500000920E-02 0.  1.
    10030    2    1    2    0    0  0.00000000000E+00  0.00000000000E+00  0.14270399491E+03  0.20839446190E+04  0.20790528481E+04 0.  0.
        4    1    3    3  502    0 -0.18063212780E+03 -0.44429244947E+03  0.99579627109E+03  0.11052762427E+04  0.12699999809E+01 0. -1.
       -4    1    3    3    0  502  0.18063212780E+03  0.44429244947E+03 -0.85309227618E+03  0.97866837633E+03  0.12699999809E+01 0.  1.
</event>
<event>
 5   0  0.2604390E-05  0.2069551E+04  0.7818609E-02  0.8574776E-01
       -1   -1    0    0    0  501  0.00000000000E+00  0.00000000000E+00  0.17492525554E+04  0.17492525554E+04  0.50400001928E-02 0. -1.
        1   -1    0    0  501    0  0.00000000000E+00  0.00000000000E+00 -0.61212464135E+03  0.61212464138E+03  0.50400001928E-02 0.  1.
    10030    2    1    2    0    0  0.00000000000E+00  0.00000000000E+00  0.11371279140E+04  0.23613771968E+04  0.20695512491E+04 0.  0.
        5    1    3    3  502    0  0.14169601713E+02 -0.93320983458E+03  0.10784012408E+04  0.14262021944E+04  0.46999998093E+01 0. -1.
       -5    1    3    3    0  502 -0.14169601713E+02  0.93320983458E+03  0.58726673195E+02  0.93517500240E+03  0.46999998093E+01 0.  1.
</event>
<event>
 5   0  0.5954140E-05  0.2086676E+04  0.7818609E-02  0.8567135E-01
       -2   -1    0    0    0  501  0.00000000000E+00  0.00000000000E+00  0.52816021441E+03  0.52816021441E+03  0.25500000920E-02 0.  1.
        2   -1    0    0  501    0  0.00000000000E+00  0.00000000000E+00 -0.20610307365E+04  0.20610307365E+04  0.25500000920E-02 0. -1.
    10030    2    1    2    0    0  0.00000000000E+00  0.00000000000E+00 -0.15328705220E+04  0.25891909509E+04  0.20866762429E+04 0.  0.
        2    1    3    3  502    0  0.51283590764E+03 -0.70478497354E+03 -0.14779697988E+04  0.17158430153E+04  0.25500000920E-02 0. -1.
       -2    1    3    3    0  502 -0.51283590764E+03  0.70478497354E+03 -0.54900723255E+02  0.87334793554E+03  0.25500000920E-02 0.  1.
</event>
<event>
 5   0  0.2604390E-05  0.2103375E+04  0.7818609E-02  0.8559758E-01
        1   -1    0    0  501    0  0.00000000000E+00  0.00000000000E+00  0.13042115538E+04  0.13042115538E+04  0.50400001928E-02 0.  1.
       -1   -1    0    0    0  501  0.00000000000E+00  0.00000000000E+00 -0.84805744984E+03  0.84805744986E+03  0.50400001928E-02 0. -1.
    10030    2    1    2    0    0  0.00000000000E+00  0.00000000000E+00  0.45615410395E+03  0.21522690037E+04  0.21033747402E+04 0.  0.
        5    1    3    3  502    0 -0.38917085420E+03 -0.19959871822E+02  0.12276010017E+04  0.12879746347E+04  0.46999998093E+01 0.  1.
       -5    1    3    3    0  502  0.38917085420E+03  0.19959871822E+02 -0.77144689773E+03  0.86429436898E+03  0.46999998093E+01 0. -1.
</event>
<event>
 5   0  0.5462851E-05  0.2071610E+04  0.7818609E-02  0.8573854E-01
        2   -1    0    0  501    0  0.00000000000E+00  0.00000000000E+00  0.13624816163E+04  0.13624816163E+04  0.25500000920E-02 0. -1.
       -2   -1    0    0    0  501  0.00000000000E+00  0.00000000000E+00 -0.78745420981E+03  0.78745420982E+03  0.25500000920E-02 0.  1.
    10030    2    1    2    0    0  0.00000000000E+00  0.00000000000E+00  0.57502740646E+03  0.21499358261E+04  0.20716098904E+04 0.  0.
        1    1    3    3  502    0  0.57694103681E+03 -0.74240289378E+03  0.73853568561E+03  0.11955994210E+04  0.50400001928E-02 0. -1.
       -1    1    3    3    0  502 -0.57694103681E+03  0.74240289378E+03 -0.16350827914E+03  0.95433640506E+03  0.50400001928E-02 0.  1.
</event>
<event>
 5   0  0.5967046E-05  0.2012299E+04  0.7818609E-02  0.8600892E-01
       -2   -1    0    0    0  501  0.00000000000E+00  0.00000000000E+00  0.49931785833E+03  0.49931785834E+03  0.25500000920E-02 0. -1.
        2   -1    0    0  501    0  0.00000000000E+00  0.00000000000E+00 -0.20274403703E+04  0.20274403703E+04  0.25500000920E-02 0.  1.
    10030    2    1    2    0    0  0.00000000000E+00  0.00000000000E+00 -0.15281225120E+04  0.25267582287E+04  0.20122993650E+04 0.  0.
        4    1    3    3  502    0  0.73361543892E+03 -0.66014278103E+03 -0.51814641635E+03  0.11146557429E+04  0.12699999809E+01 0.  1.
       -4    1    3    3    0  502 -0.73361543892E+03  0.66014278103E+03 -0.10099760957E+04  0.14121024857E+04  0.12699999809E+01 0. -1.
</event>
<event>
 5   0  0.2604390E-05  0.2093094E+04  0.7818609E-02  0.8564291E-01
       -1   -1    0    0    0  501  0.00000000000E+00  0.00000000000E+00  0.12495559459E+04  0.12495559459E+04  0.50400001928E-02 0.  1.
        1   -1    0    0  501    0  0.00000000000E+00  0.00000000000E+00 -0.87652019902E+03  0.87652019903E+03  0.50400001928E-02 0. -1.
    10030    2    1    2    0    0  0.00000000000E+00  0.00000000000E+00  0.37303574690E+03  0.21260761450E+04  0.20930943853E+04 0.  0.
        5    1    3    3  502    0 -0.82454115606E+03 -0.45394680229E+03 -0.27818766884E+03  0.98150205625E+03  0.46999998093E+01 0.  1.
       -5    1    3    3    0  502  0.82454115606E+03  0.45394680229E+03  0.65122341574E+03  0.11445740887E+04  0.46999998093E+01 0. -1.
</event>
<event>
 5   0  0.5967046E-05  0.2111397E+04  0.7818609E-02  0.8556240E-01
       -2   -1    0    0    0  501  0.00000000000E+00  0.00000000000E+00  0.76049043559E+03  0.76049043560E+03  0.25500000920E-02 0.  1.
        2   -1    0    0  501    0  0.00000000000E+00  0.00000000000E+00 -0.14655003612E+04  0.14655003612E+04  0.25500000920E-02 0. -1.
    10030    2    1    2    0    0  0.00000000000E+00  0.00000000000E+00 -0.70500992560E+03  0.22259907968E+04  0.21113967018E+04 0.  0.
        4    1    3    3  502    0  0.89929568564E+03  0.48046451312E+03 -0.64107292354E+03  0.12043898807E+04  0.12699999809E+01 0. -1.
       -4    1    3    3    0  502 -0.89929568564E+03 -0.48046451312E+03 -0.63937002052E+02  0.10216009161E+04  0.12699999809E+01 0.  1.
</event>
<event>
 5   0  0.5866610E-05  0.2083994E+04  0.7818609E-02  0.8568327E-01
        2   -1    0    0  501    0  0.00000000000E+00  0.00000000000E+00  0.13119763177E+04  0.13119763177E+04  0.25500000920E-02 0. -1.
       -2   -1    0    0    0  501  0.00000000000E+00  0.00000000000E+00 -0.82757425170E+03  0.82757425170E+03  0.25500000920E-02 0.  1.
    10030    2    1    2    0    0  0.00000000000E+00  0.00000000000E+00  0.48440206603E+03  0.21395505694E+04  0.20839940685E+04 0.  0.
        5    1    3    3  502    0  0.28130289498E+03 -0.59903440156E+03  0.10684936582E+04  0.12568509540E+04  0.46999998093E+01 0. -1.
       -5    1    3    3    0  502 -0.28130289498E+03  0.59903440156E+03 -0.58409159219E+03  0.88269961541E+03  0.46999998093E+01 0.  1.
</event>
<event>
 5   0  0.5462851E-05  0.2102580E+04  0.7818609E-02  0.8560108E-01
       -2   -1    0    0    0  501  0.00000000000E+00  0.00000000000E+00  0.70412763157E+03  0.70412763158E+03  0.25500000920E-02 0. -1.
        2   -1    0    0  501    0  0.00000000000E+00  0.00000000000E+00 -0.15696165309E+04  0.15696165309E+04  0.25500000920E-02 0.  1.
    10030    2    1    2    0    0  0.00000000000E+00  0.00000000000E+00 -0.86548889935E+03  0.22737441625E+04  0.21025797206E+04 0.  0.
        1    1    3    3  502    0  0.11660942197E+03 -0.10324897028E+04 -0.25979497468E+03  0.10710397624E+04  0.50400001928E-02 0. -1.
       -1    1    3    3    0  502 -0.11660942197E+03  0.10324897028E+04 -0.60569392467E+03  0.12027044001E+04  0.50400001928E-02 0.  1.
</event>
<event>
 5   0  0.2789662E-05  0.2135512E+04  0.7818609E-02  0.8545759E-01
       -1   -1    0    0    0  501  0.00000000000E+00  0.00000000000E+00  0.58602597715E+03  0.58602597717E+03  0.50400001928E-02 0.  1.
        1   -1    0    0  501    0  0.00000000000E+00  0.00000000000E+00 -0.19454826932E+04  0.19454826932E+04  0.50400001928E-02 0. -1.
    10030    2    1    2    0    0  0.00000000000E+00  0.00000000000E+00 -0.13594567160E+04  0.25315086703E+04  0.21355124877E+04 0.  0.
        4    1    3    3  502    0 -0.27766647815E+02 -0.24738802349E+03  0.55114355487E+03  0.60475834171E+03  0.12699999809E+01 0.  1.
       -4    1    3    3    0  502  0.27766647815E+02  0.24738802349E+03 -0.19106002709E+04  0.19267503286E+04  0.12699999809E+01 0. -1.
</event>
<event>
 5   0  0.5462851E-05  0.2087830E+04  0.7818609E-02  0.8566623E-01
       -2   -1    0    0    0  501  0.00000000000E+00  0.00000000000E+00  0.63335497112E+03  0.63335497113E+03  0.25500000920E-02 0.  1.
        2   -1    0    0  501    0  0.00000000000E+00  0.00000000000E+00 -0.17206124838E+04  0.17206124838E+04  0.25500000920E-02 0. -1.
    10030    2    1    2    0    0  0.00000000000E+00  0.00000000000E+00 -0.10872575126E+04  0.23539674549E+04  0.20878299452E+04 0.  0.
        1    1    3    3  502    0 -0.44132076127E+03  0.48435623618E+03 -0.14598634326E+04  0.16001769339E+04  0.50400001928E-02 0. -1.
       -1    1    3    3    0  502  0.44132076127E+03 -0.48435623618E+03  0.37260592000E+03  0.75379052097E+03  0.50400001928E-02 0.  1.
</event>
<event>
 5   0  0.2699285E-05  0.2102632E+04  0.7818609E-02  0.8560085E-01
        1   -1    0    0  501    0  0.00000000000E+00  0.00000000000E+00  0.93549402455E+03  0.93549402457E+03  0.50400001928E-02 0.  1.
       -1   -1    0    0    0  501  0.00000000000E+00  0.00000000000E+00 -0.11814774184E+04  0.11814774184E+04  0.50400001928E-02 0. -1.
    10030    2    1    2    0    0  0.00000000000E+00  0.00000000000E+00 -0.24598339384E+03  0.21169714430E+04  0.21026317462E+04 0.  0.
        2    1    3    3  502    0  0.98597707319E+03  0.29621729326E+03  0.91462335270E+02  0.10335670430E+04  0.25500000920E-02 0.  1.
       -2    1    3    3    0  502 -0.98597707319E+03 -0.29621729326E+03 -0.33744572911E+03  0.10834043999E+04  0.25500000920E-02 0. -1.
</event>
<event>
 5   0  0.5506332E-05  0.2102067E+04  0.7818609E-02  0.8560334E-01
        2   -1    0    0  501    0  0.00000000000E+00  0.00000000000E+00  0.19484759616E+04  0.19484759616E+04  0.25500000920E-02 0.  1.
       -2   -1    0    0    0  501  0.00000000000E+00  0.00000000000E+00 -0.56694103633E+03  0.56694103633E+03  0.25500000920E-02 0. -1.
    10030    2    1    2    0    0  0.00000000000E+00  0.00000000000E+00  0.13815349252E+04  0.25154169979E+04  0.21020665840E+04 0.  0.
        3    1    3    3  502    0 -0.28399742290E+03  0.70407311819E+03  0.15605341942E+04  0.17354078695E+04  0.10100000352E+00 0.  1.
       -3    1    3    3    0  502  0.28399742290E+03 -0.70407311819E+03 -0.17899926894E+03  0.78000912844E+03  0.10100000352E+00 0. -1.
</event>
<event>
 5   0  0.2789662E-05  0.2100388E+04  0.7818609E-02  0.8561072E-01
        1   -1    0    0  501    0  0.00000000000E+00  0.00000000000E+00  0.14194588786E+04  0.14194588786E+04  0.50400001928E-02 0.  1.
       -1   -1    0    0    0  501  0.00000000000E+00  0.00000000000E+00 -0.77699167516E+03  0.77699167518E+03  0.50400001928E-02 0. -1.
    10030    2    1    2    0    0  0.00000000000E+00  0.00000000000E+00  0.64246720347E+03  0.21964505538E+04  0.21003882803E+04 0.  0.
        4    1    3    3  502    0  0.50453212860E+03 -0.26040324888E+03 -0.60265674128E+03  0.82798507325E+03  0.12699999809E+01 0. -1.
       -4    1    3    3    0  502 -0.50453212860E+03  0.26040324888E+03  0.12451239447E+04  0.13684654806E+04  0.12699999809E+01 0.  1.
</event>
<event>
 5   0  0.2602060E-05  0.2099049E+04  0.7818609E-02  0.8561662E-01
        1   -1    0    0  501    0  0.00000000000E+00  0.00000000000E+00  0.19583958107E+04  0.19583958107E+04  0.50400001928E-02 0.  1.
       -1   -1    0    0    0  501  0.00000000000E+00  0.00000000000E+00 -0.56245108914E+03  0.56245108917E+03  0.50400001928E-02 0. -1.
    10030    2    1    2    0    0  0.00000000000E+00  0.00000000000E+00  0.13959447215E+04  0.25208468998E+04  0.20990491721E+04 0.  0.
        1    1    3    3  502    0  0.41665233712E+03 -0.91374196001E+02  0.18496007046E+04  0.18981494093E+04  0.50400001928E-02 0.  1.
       -1    1    3    3    0  502 -0.41665233712E+03  0.91374196001E+02 -0.45365598305E+03  0.62269749052E+03  0.50400001928E-02 0. -1.
</event>
<event>
 5   0  0.5462851E-05  0.2103789E+04  0.7818609E-02  0.8559576E-01
       -2   -1    0    0    0  501  0.00000000000E+00  0.00000000000E+00  0.52001358406E+03  0.52001358407E+03  0.25500000920E-02 0.  1.
        2   -1    0    0  501    0  0.00000000000E+00  0.00000000000E+00 -0.21277949656E+04  0.21277949656E+04  0.25500000920E-02 0. -1.
    10030    2    1    2    0    0  0.00000000000E+00  0.00000000000E+00 -0.16077813815E+04  0.26478085496E+04  0.21037892349E+04 0.  0.
        1    1    3    3  502    0 -0.42727737686E+03  0.77933939248E+03 -0.95776873125E+02  0.89392899880E+03  0.50400001928E-02 0.  1.
       -1    1    3    3    0  502  0.42727737686E+03 -0.77933939248E+03 -0.15120045084E+04  0.17538795508E+04  0.50400001928E-02 0. -1.
</event>
<event>
 5   0  0.5967046E-05  0.2101291E+04  0.7818609E-02  0.8560675E-01
       -2   -1    0    0    0  501  0.00000000000E+00  0.00000000000E+00  0.77899676693E+03  0.77899676693E+03  0.25500000920E-02 0. -1.
        2   -1    0    0  501    0  0.00000000000E+00  0.00000000000E+00 -0.14170229142E+04  0.14170229142E+04  0.25500000920E-02 0.  1.
    10030    2    1    2    0    0  0.00000000000E+00  0.00000000000E+00 -0.63802614724E+03  0.21960196811E+04  0.21012912876E+04 0.  0.
        4    1    3    3  502    0  0.39522178465E+03 -0.36586554645E+03 -0.12617878546E+04  0.13719213025E+04  0.12699999809E+01 0.  1.
       -4    1    3    3    0  502 -0.39522178465E+03  0.36586554645E+03  0.62376170740E+03  0.82409837863E+03  0.12699999809E+01 0. -1.
</event>
<event>
 5   0  0.2017750E-05  0.2087772E+04  0.7818609E-02  0.8566649E-01
       -3   -1    0    0    0  501  0.00000000000E+00  0.00000000000E+00  0.12320986984E+04  0.12320987025E+04  0.10100000352E+00 0. -1.
        3   -1    0    0  501    0  0.00000000000E+00  0.00000000000E+00 -0.88442451308E+03  0.88442451885E+03  0.10100000352E+00 0.  1.
    10030    2    1    2    0    0  0.00000000000E+00  0.00000000000E+00  0.34767418531E+03  0.21165232214E+04  0.20877723074E+04 0.  0.
        2    1    3    3  502    0  0.76269063509E+03  0.49070807228E+03  0.69787623469E+03  0.11443437665E+04  0.25500000920E-02 0.  1.
       -2    1    3    3    0  502 -0.76269063509E+03 -0.49070807228E+03 -0.35020204937E+03  0.97217945486E+03  0.25500000920E-02 0. -1.
</event>
<event>
 5   0  0.5462851E-05  0.2037120E+04  0.7818609E-02  0.8589460E-01
        2   -1    0    0  501    0  0.00000000000E+00  0.00000000000E+00  0.13670347752E+04  0.13670347752E+04  0.25500000920E-02 0.  1.
       -2   -1    0    0    0  501  0.00000000000E+00  0.00000000000E+00 -0.75891579009E+03  0.75891579009E+03  0.25500000920E-02 0. -1.
    10030    2    1    2    0    0  0.00000000000E+00  0.00000000000E+00  0.60811898515E+03  0.21259505653E+04  0.20371198065E+04 0.  0.
        1    1    3    3  502    0  0.41902776301E+03 -0.50989561869E+03  0.11137030793E+04  0.12945703368E+04  0.50400001928E-02 0.  1.
       -1    1    3    3    0  502 -0.41902776301E+03  0.50989561869E+03 -0.50558409412E+03  0.83138022853E+03  0.50400001928E-02 0. -1.
</event>
<event>
 5   0  0.5506332E-05  0.2105575E+04  0.7818609E-02  0.8558791E-01
        2   -1    0    0  501    0  0.00000000000E+00  0.00000000000E+00  0.21870415363E+04  0.21870415363E+04  0.25500000920E-02 0.  1.
       -2   -1    0    0    0  501  0.00000000000E+00  0.00000000000E+00 -0.50678599000E+03  0.50678599001E+03  0.25500000920E-02 0. -1.
    10030    2    1    2    0    0  0.00000000000E+00  0.00000000000E+00  0.16802555463E+04  0.26938275263E+04  0.21055754654E+04 0.  0.
        3    1    3    3  502    0 -0.33114742424E+03 -0.24636414373E+03 -0.39896055869E+03  0.57404132734E+03  0.10100000352E+00 0. -1.
       -3    1    3    3    0  502  0.33114742424E+03  0.24636414373E+03  0.20792161050E+04  0.21197861989E+04  0.10100000352E+00 0.  1.
</event>
<event>
 5   0  0.2602060E-05  0.2097332E+04  0.7818609E-02  0.8562420E-01
       -1   -1    0    0    0  501  0.00000000000E+00  0.00000000000E+00  0.95826216245E+03  0.95826216247E+03  0.50400001928E-02 0.  1.
        1   -1    0    0  501    0  0.00000000000E+00  0.00000000000E+00 -0.11475981516E+04  0.11475981516E+04  0.50400001928E-02 0. -1.
    10030    2    1    2    0    0  0.00000000000E+00  0.00000000000E+00 -0.18933598913E+03  0.21058603141E+04  0.20973315297E+04 0.  0.
        1    1    3    3  502    0 -0.41723731449E+03 -0.41690453684E+03  0.77592396310E+03  0.97465602444E+03  0.50400001928E-02 0.  1.
       -1    1    3    3    0  502  0.41723731449E+03  0.41690453684E+03 -0.96525995223E+03  0.11312042896E+04  0.50400001928E-02 0. -1.
</event>
<event>
 5   0  0.2602060E-05  0.1854714E+04  0.7818609E-02  0.8677732E-01
        1   -1    0    0  501    0  0.00000000000E+00  0.00000000000E+00  0.11093675272E+04  0.11093675272E+04  0.50400001928E-02 0.  1.
       -1   -1    0    0    0  501  0.00000000000E+00  0.00000000000E+00 -0.77520852593E+03  0.77520852594E+03  0.50400001928E-02 0. -1.
    10030    2    1    2    0    0  0.00000000000E+00  0.00000000000E+00  0.33415900125E+03  0.18845760531E+04  0.18547141726E+04 0.  0.
        1    1    3    3  502    0 -0.56941006213E+03  0.41784262621E+03  0.77773046208E+03  0.10505641108E+04  0.50400001928E-02 0.  1.
       -1    1    3    3    0  502  0.56941006213E+03 -0.41784262621E+03 -0.44357146083E+03  0.83401194238E+03  0.50400001928E-02 0. -1.
</event>
<event>
 5   0  0.2732159E-05  0.2104685E+04  0.7818609E-02  0.8559182E-01
       -1   -1    0    0    0  501  0.00000000000E+00  0.00000000000E+00  0.12307515146E+04  0.12307515146E+04  0.50400001928E-02 0. -1.
        1   -1    0    0  501    0  0.00000000000E+00  0.00000000000E+00 -0.89979563372E+03  0.89979563373E+03  0.50400001928E-02 0.  1.
    10030    2    1    2    0    0  0.00000000000E+00  0.00000000000E+00  0.33095588092E+03  0.21305471484E+04  0.21046850967E+04 0.  0.
        3    1    3    3  502    0 -0.38873241208E+03  0.21182022780E+03  0.11319049303E+04  0.12153968399E+04  0.10100000352E+00 0. -1.
       -3    1    3    3    0  502  0.38873241208E+03 -0.21182022780E+03 -0.80094904938E+03  0.91515030843E+03  0.10100000352E+00 0.  1.
</event>
<event>
 5   0  0.2604390E-05  0.2087787E+04  0.7818609E-02  0.8566642E-01
       -1   -1    0    0    0  501  0.00000000000E+00  0.00000000000E+00  0.72138368248E+03  0.72138368250E+03  0.50400001928E-02 0. -1.
        1   -1    0    0  501    0  0.00000000000E+00  0.00000000000E+00 -0.15105880809E+04  0.15105880809E+04  0.50400001928E-02 0.  1.
    10030    2    1    2    0    0  0.00000000000E+00  0.00000000000E+00 -0.78920439845E+03  0.22319717634E+04  0.20877869552E+04 0.  0.
        5    1    3    3  502    0 -0.10654504497E+03  0.56488787664E+03  0.53691835175E+03  0.78660890297E+03  0.46999998093E+01 0. -1.
       -5    1    3    3    0  502  0.10654504497E+03 -0.56488787664E+03 -0.13261227502E+04  0.14453628605E+04  0.46999998093E+01 0.  1.
</event>
<event>
 5   0  0.2604390E-05  0.2089723E+04  0.7818609E-02  0.8565784E-01
       -1   -1    0    0    0  501  0.00000000000E+00  0.00000000000E+00  0.70352844728E+03  0.70352844730E+03  0.50400001928E-02 0.  1.
        1   -1    0    0  501    0  0.00000000000E+00  0.00000000000E+00 -0.15517996909E+04  0.15517996909E+04  0.50400001928E-02 0. -1.
    10030    2    1    2    0    0  0.00000000000E+00  0.00000000000E+00 -0.84827124363E+03  0.22553281382E+04  0.20897226869E+04 0.  0.
        5    1    3    3  502    0  0.85701233079E+03  0.21432141707E+03  0.17803165409E+03  0.90117765441E+03  0.46999998093E+01 0.  1.
       -5    1    3    3    0  502 -0.85701233079E+03 -0.21432141707E+03 -0.10263028977E+04  0.13541504838E+04  0.46999998093E+01 0. -1.
</event>
<event>
 5   0  0.5967046E-05  0.2110437E+04  0.7818609E-02  0.8556660E-01
       -2   -1    0    0    0  501  0.00000000000E+00  0.00000000000E+00  0.16978715698E+04  0.16978715698E+04  0.25500000920E-02 0. -1.
        2   -1    0    0  501    0  0.00000000000E+00  0.00000000000E+00 -0.65581312421E+03  0.65581312422E+03  0.25500000920E-02 0.  1.
    10030    2    1    2    0    0  0.00000000000E+00  0.00000000000E+00  0.10420584456E+04  0.23536846941E+04  0.21104373563E+04 0.  0.
        4    1    3    3  502    0 -0.51389920342E+03 -0.30682887095E+03 -0.44818717413E+03  0.74773638622E+03  0.12699999809E+01 0.  1.
       -4    1    3    3    0  502  0.51389920342E+03  0.30682887095E+03  0.14902456198E+04  0.16059483078E+04  0.12699999809E+01 0. -1.
</event>
<event>
 5   0  0.5462851E-05  0.2100106E+04  0.7818609E-02  0.8561197E-01
       -2   -1    0    0    0  501  0.00000000000E+00  0.00000000000E+00  0.75987216062E+03  0.75987216062E+03  0.25500000920E-02 0. -1.
        2   -1    0    0  501    0  0.00000000000E+00  0.00000000000E+00 -0.14510486924E+04  0.14510486924E+04  0.25500000920E-02 0.  1.
    10030    2    1    2    0    0  0.00000000000E+00  0.00000000000E+00 -0.69117653179E+03  0.22109208530E+04  0.21001061926E+04 0.  0.
        1    1    3    3  502    0 -0.27123716227E+03 -0.94605574743E+03 -0.73099335338E+03  0.12259454956E+04  0.50400001928E-02 0.  1.
       -1    1    3    3    0  502  0.27123716227E+03  0.94605574743E+03  0.39816821593E+02  0.98497535744E+03  0.50400001928E-02 0. -1.
</event>
<event>
 5   0  0.2699285E-05  0.2095580E+04  0.7818609E-02  0.8563193E-01
        1   -1    0    0  501    0  0.00000000000E+00  0.00000000000E+00  0.69155278535E+03  0.69155278537E+03  0.50400001928E-02 0.  1.
       -1   -1    0    0    0  501  0.00000000000E+00  0.00000000000E+00 -0.15875352071E+04  0.15875352071E+04  0.50400001928E-02 0. -1.
    10030    2    1    2    0    0  0.00000000000E+00  0.00000000000E+00 -0.89598242171E+03  0.22790879924E+04  0.20955804869E+04 0.  0.
        2    1    3    3  502    0  0.68670585931E+02 -0.65462941767E+03  0.43863359803E+03  0.79098341144E+03  0.25500000920E-02 0.  1.
       -2    1    3    3    0  502 -0.68670585931E+02  0.65462941767E+03 -0.13346160197E+04  0.14881045810E+04  0.25500000920E-02 0. -1.
</event>
<event>
 5   0  0.5866610E-05  0.2101831E+04  0.7818609E-02  0.8560437E-01
        2   -1    0    0  501    0  0.00000000000E+00  0.00000000000E+00  0.26819346391E+04  0.26819346391E+04  0.25500000920E-02 0. -1.
       -2   -1    0    0    0  501  0.00000000000E+00  0.00000000000E+00 -0.41180118515E+03  0.41180118516E+03  0.25500000920E-02 0.  1.
    10030    2    1    2    0    0  0.00000000000E+00  0.00000000000E+00  0.22701334539E+04  0.30937358243E+04  0.21018314518E+04 0.  0.
        5    1    3    3  502    0 -0.31934108486E+03  0.46982444452E+03 -0.16630711255E+03  0.59194077646E+03  0.46999998093E+01 0.  1.
       -5    1    3    3    0  502  0.31934108486E+03 -0.46982444452E+03  0.24364405665E+04  0.25017950478E+04  0.46999998093E+01 0. -1.
</event>
<event>
 5   0  0.2699285E-05  0.2112056E+04  0.7818609E-02  0.8555951E-01
       -1   -1    0    0    0  501  0.00000000000E+00  0.00000000000E+00  0.54847149106E+03  0.54847149109E+03  0.50400001928E-02 0. -1.
        1   -1    0    0  501    0  0.00000000000E+00  0.00000000000E+00 -0.20332780173E+04  0.20332780173E+04  0.50400001928E-02 0.  1.
    10030    2    1    2    0    0  0.00000000000E+00  0.00000000000E+00 -0.14848065262E+04  0.25817495083E+04  0.21120558950E+04 0.  0.
        2    1    3    3  502    0  0.86326958942E+03  0.21540401735E+03 -0.47079160242E+02  0.89098244766E+03  0.25500000920E-02 0. -1.
       -2    1    3    3    0  502 -0.86326958942E+03 -0.21540401735E+03 -0.14377273659E+04  0.16907670607E+04  0.25500000920E-02 0.  1.
</event>
<event>
 5   0  0.5954140E-05  0.2105346E+04  0.7818609E-02  0.8558892E-01
        2   -1    0    0  501    0  0.00000000000E+00  0.00000000000E+00  0.95928170185E+03  0.95928170186E+03  0.25500000920E-02 0.  1.
       -2   -1    0    0    0  501  0.00000000000E+00  0.00000000000E+00 -0.11551561397E+04  0.11551561397E+04  0.25500000920E-02 0. -1.
    10030    2    1    2    0    0  0.00000000000E+00  0.00000000000E+00 -0.19587443788E+03  0.21144378416E+04  0.21053457176E+04 0.  0.
        2    1    3    3  502    0  0.10748136913E+03 -0.68388340726E+03 -0.89437603744E+03  0.11309983447E+04  0.25500000920E-02 0. -1.
       -2    1    3    3    0  502 -0.10748136913E+03  0.68388340726E+03  0.69850159955E+03  0.98343949687E+03  0.25500000920E-02 0.  1.
</event>
<event>
 5   0  0.5506332E-05  0.2129752E+04  0.7818609E-02  0.8548250E-01
       -2   -1    0    0    0  501  0.00000000000E+00  0.00000000000E+00  0.69406354747E+03  0.69406354747E+03  0.25500000920E-02 0. -1.
        2   -1    0    0  501    0  0.00000000000E+00  0.00000000000E+00 -0.16337996538E+04  0.16337996538E+04  0.25500000920E-02 0.  1.
    10030    2    1    2    0    0  0.00000000000E+00  0.00000000000E+00 -0.93973610633E+03  0.23278632013E+04  0.21297518950E+04 0.  0.
        3    1    3    3  502    0 -0.70195352244E+01 -0.22960463445E+03 -0.16063959410E+04  0.16227370371E+04  0.10100000352E+00 0.  1.
       -3    1    3    3    0  502  0.70195352244E+01  0.22960463445E+03  0.66665983468E+03  0.70512616418E+03  0.10100000352E+00 0. -1.
</event>
<event>
 5   0  0.5462851E-05  0.2099625E+04  0.7818609E-02  0.8561409E-01
        2   -1    0    0  501    0  0.00000000000E+00  0.00000000000E+00  0.20224874879E+04  0.20224874879E+04  0.25500000920E-02 0. -1.
       -2   -1    0    0    0  501  0.00000000000E+00  0.00000000000E+00 -0.54492619901E+03  0.54492619902E+03  0.25500000920E-02 0.  1.
    10030    2    1    2    0    0  0.00000000000E+00  0.00000000000E+00  0.14775612889E+04  0.25674136869E+04  0.20996251278E+04 0.  0.
        1    1    3    3  502    0 -0.14084990146E+03  0.91997006289E+03  0.13327158306E+04  0.16255199465E+04  0.50400001928E-02 0. -1.
       -1    1    3    3    0  502  0.14084990146E+03 -0.91997006289E+03  0.14484545825E+03  0.94189374038E+03  0.50400001928E-02 0.  1.
</event>
<event>
 5   0  0.5967046E-05  0.2080458E+04  0.7818609E-02  0.8569901E-01
        2   -1    0    0  501    0  0.00000000000E+00  0.00000000000E+00  0.25632947069E+04  0.25632947069E+04  0.25500000920E-02 0.  1.
       -2   -1    0    0    0  501  0.00000000000E+00  0.00000000000E+00 -0.42214290454E+03  0.42214290455E+03  0.25500000920E-02 0. -1.
    10030    2    1    2    0    0  0.00000000000E+00  0.00000000000E+00  0.21411518024E+04  0.29854376115E+04  0.20804582887E+04 0.  0.
        4    1    3    3  502    0 -0.20088283389E+03  0.94535236087E+03  0.51846802139E+03  0.10967477838E+04  0.12699999809E+01 0. -1.
       -4    1    3    3    0  502  0.20088283389E+03 -0.94535236087E+03  0.16226837810E+04  0.18886898277E+04  0.12699999809E+01 0.  1.
</event>
<event>
 5   0  0.2604390E-05  0.2093369E+04  0.7818609E-02  0.8564170E-01
        1   -1    0    0  501    0  0.00000000000E+00  0.00000000000E+00  0.17429492530E+04  0.17429492530E+04  0.50400001928E-02 0. -1.
       -1   -1    0    0    0  501  0.00000000000E+00  0.00000000000E+00 -0.62856044814E+03  0.62856044816E+03  0.50400001928E-02 0.  1.
    10030    2    1    2    0    0  0.00000000000E+00  0.00000000000E+00  0.11143888049E+04  0.23715097012E+04  0.20933694978E+04 0.  0.
        5    1    3    3  502    0  0.55739423006E+03 -0.89924614681E+02 -0.44124160384E+03  0.71658286819E+03  0.46999998093E+01 0.  1.
       -5    1    3    3    0  502 -0.55739423006E+03  0.89924614681E+02  0.15556304087E+04  0.16549268330E+04  0.46999998093E+01 0. -1.
</event>
<event>
 5   0  0.2789662E-05  0.2102951E+04  0.7818609E-02  0.8559944E-01
       -1   -1    0    0    0  501  0.00000000000E+00  0.00000000000E+00  0.71913285730E+03  0.71913285732E+03  0.50400001928E-02 0.  1.
        1   -1    0    0  501    0  0.00000000000E+00  0.00000000000E+00 -0.15374088630E+04  0.15374088630E+04  0.50400001928E-02 0. -1.
    10030    2    1    2    0    0  0.00000000000E+00  0.00000000000E+00 -0.81827600571E+03  0.22565417203E+04  0.21029514769E+04 0.  0.
        4    1    3    3  502    0  0.74393150726E+03  0.47320629490E+03 -0.10239052869E+04  0.13512001830E+04  0.12699999809E+01 0. -1.
       -4    1    3    3    0  502 -0.74393150726E+03 -0.47320629490E+03  0.20562928124E+03  0.90534153733E+03  0.12699999809E+01 0.  1.
</event>
<event>
 5   0  0.2017750E-05  0.2097143E+04  0.7818609E-02  0.8562503E-01
        3   -1    0    0  501    0  0.00000000000E+00  0.00000000000E+00  0.10719049739E+04  0.10719049787E+04  0.10100000352E+00 0. -1.
       -3   -1    0    0    0  501  0.00000000000E+00  0.00000000000E+00 -0.10257464021E+04  0.10257464071E+04  0.10100000352E+00 0.  1.
    10030    2    1    2    0    0  0.00000000000E+00  0.00000000000E+00  0.46158571855E+02  0.20976513858E+04  0.20971434673E+04 0.  0.
        4    1    3    3  502    0 -0.15446629956E+03  0.29868948709E+03  0.10165095521E+04  0.10706860090E+04  0.12699999809E+01 0. -1.
       -4    1    3    3    0  502  0.15446629956E+03 -0.29868948709E+03 -0.97035098024E+03  0.10269653768E+04  0.12699999809E+01 0.  1.
</event>
<event>
 5   0  0.5506332E-05  0.2109036E+04  0.7818609E-02  0.8557273E-01
       -2   -1    0    0    0  501  0.00000000000E+00  0.00000000000E+00  0.15153599822E+04  0.15153599822E+04  0.25500000920E-02 0.  1.
        2   -1    0    0  501    0  0.00000000000E+00  0.00000000000E+00 -0.73382472475E+03  0.73382472476E+03  0.25500000920E-02 0. -1.
    10030    2    1    2    0    0  0.00000000000E+00  0.00000000000E+00  0.78153525745E+03  0.22491847070E+04  0.21090363884E+04 0.  0.
        3    1    3    3  502    0 -0.36503588224E+03 -0.39723331108E+03  0.13570473626E+04  0.14603503187E+04  0.10100000352E+00 0.  1.
       -3    1    3    3    0  502  0.36503588224E+03  0.39723331108E+03 -0.57551210515E+03  0.78883438828E+03  0.10100000352E+00 0. -1.
</event>
<event>
 5   0  0.5954140E-05  0.2240023E+04  0.7818609E-02  0.8501952E-01
       -2   -1    0    0    0  501  0.00000000000E+00  0.00000000000E+00  0.77055918580E+03  0.77055918581E+03  0.25500000920E-02 0. -1.
        2   -1    0    0  501    0  0.00000000000E+00  0.00000000000E+00 -0.16279421746E+04  0.16279421746E+04  0.25500000920E-02 0.  1.
    10030    2    1    2    0    0  0.00000000000E+00  0.00000000000E+00 -0.85738298882E+03  0.23985013604E+04  0.22400230326E+04 0.  0.
        2    1    3    3  502    0  0.11640385311E+03  0.88114639072E+03  0.30103519583E+03  0.93839810743E+03  0.25500000920E-02 0. -1.
       -2    1    3    3    0  502 -0.11640385311E+03 -0.88114639072E+03 -0.11584181846E+04  0.14601032530E+04  0.25500000920E-02 0.  1.
</event>
<event>
 5   0  0.5866610E-05  0.2107754E+04  0.7818609E-02  0.8557835E-01
        2   -1    0    0  501    0  0.00000000000E+00  0.00000000000E+00  0.13386621665E+04  0.13386621665E+04  0.25500000920E-02 0. -1.
       -2   -1    0    0    0  501  0.00000000000E+00  0.00000000000E+00 -0.82967649231E+03  0.82967649231E+03  0.25500000920E-02 0.  1.
    10030    2    1    2    0    0  0.00000000000E+00  0.00000000000E+00  0.50898567417E+03  0.21683386588E+04  0.21077538098E+04 0.  0.
        5    1    3    3  502    0  0.76968348763E+01 -0.10164527128E+04  0.54069646531E+03  0.11513514303E+04  0.46999998093E+01 0. -1.
       -5    1    3    3    0  502 -0.76968348763E+01  0.10164527128E+04 -0.31710791139E+02  0.10169872284E+04  0.46999998093E+01 0.  1.
</event>
<event>
 5   0  0.2789662E-05  0.2093126E+04  0.7818609E-02  0.8564277E-01
        1   -1    0    0  501    0  0.00000000000E+00  0.00000000000E+00  0.83663962128E+03  0.83663962130E+03  0.50400001928E-02 0. -1.
       -1   -1    0    0    0  501  0.00000000000E+00  0.00000000000E+00 -0.13091587525E+04  0.13091587525E+04  0.50400001928E-02 0.  1.
    10030    2    1    2    0    0  0.00000000000E+00  0.00000000000E+00 -0.47251913120E+03  0.21457983738E+04  0.20931259713E+04 0.  0.
        4    1    3    3  502    0 -0.66834086947E+03 -0.19852721684E+03  0.56389420442E+03  0.89669998344E+03  0.12699999809E+01 0. -1.
       -4    1    3    3    0  502  0.66834086947E+03  0.19852721684E+03 -0.10364133356E+04  0.12490983904E+04  0.12699999809E+01 0.  1.
</event>
<event>
 5   0  0.2602060E-05  0.2016127E+04  0.7818609E-02  0.8599118E-01
        1   -1    0    0  501    0  0.00000000000E+00  0.00000000000E+00  0.19749116864E+04  0.19749116864E+04  0.50400001928E-02 0.  1.
       -1   -1    0    0    0  501  0.00000000000E+00  0.00000000000E+00 -0.51455054721E+03  0.51455054723E+03  0.50400001928E-02 0. -1.
    10030    2    1    2    0    0  0.00000000000E+00  0.00000000000E+00  0.14603611392E+04  0.24894622336E+04  0.20161268700E+04 0.  0.
        1    1    3    3  502    0 -0.34360028198E+03  0.93654659988E+03  0.55119701563E+03  0.11397363018E+04  0.50400001928E-02 0.  1.
       -1    1    3    3    0  502  0.34360028198E+03 -0.93654659988E+03  0.90916412354E+03  0.13497259318E+04  0.50400001928E-02 0. -1.
</event>
<event>
 5   0  0.5954140E-05  0.2087963E+04  0.7818609E-02  0.8566565E-01
       -2   -1    0    0    0  501  0.00000000000E+00  0.00000000000E+00  0.96012441203E+03  0.96012441204E+03  0.25500000920E-02 0. -1.
        2   -1    0    0  501    0  0.00000000000E+00  0.00000000000E+00 -0.11351621317E+04  0.11351621317E+04  0.25500000920E-02 0.  1.
    10030    2    1    2    0    0  0.00000000000E+00  0.00000000000E+00 -0.17503771962E+03  0.20952865437E+04  0.20879625229E+04 0.  0.
        2    1    3    3  502    0 -0.66816994622E+03  0.78784140665E+03 -0.23888467201E+03  0.10602881899E+04  0.25500000920E-02 0.  1.
       -2    1    3    3    0  502  0.66816994622E+03 -0.78784140665E+03  0.63846952388E+02  0.10349983538E+04  0.25500000920E-02 0. -1.
</event>
<event>
 5   0  0.2789662E-05  0.2099499E+04  0.7818609E-02  0.8561464E-01
        1   -1    0    0  501    0  0.00000000000E+00  0.00000000000E+00  0.14172413887E+04  0.14172413887E+04  0.50400001928E-02 0. -1.
       -1   -1    0    0    0  501  0.00000000000E+00  0.00000000000E+00 -0.77754885722E+03  0.77754885723E+03  0.50400001928E-02 0.  1.
    10030    2    1    2    0    0  0.00000000000E+00  0.00000000000E+00  0.63969253147E+03  0.21947902459E+04  0.20994993900E+04 0.  0.
        4    1    3    3  502    0 -0.42472598208E+03  0.50098097932E+02  0.13220401769E+04  0.13894940884E+04  0.12699999809E+01 0. -1.
       -4    1    3    3    0  502  0.42472598208E+03 -0.50098097932E+02 -0.68234764545E+03  0.80529615758E+03  0.12699999809E+01 0.  1.
</event>
<event>
 5   0  0.5967046E-05  0.2098931E+04  0.7818609E-02  0.8561715E-01
        2   -1    0    0  501    0  0.00000000000E+00  0.00000000000E+00  0.69866200652E+03  0.69866200652E+03  0.25500000920E-02 0.  1.
       -2   -1    0    0    0  501  0.00000000000E+00  0.00000000000E+00 -0.15764093859E+04  0.15764093859E+04  0.25500000920E-02 0. -1.
    10030    2    1    2    0    0  0.00000000000E+00  0.00000000000E+00 -0.87774737943E+03  0.22750713925E+04  0.20989305321E+04 0.  0.
        4    1    3    3  502    0 -0.21442455183E+03 -0.51341121986E+03 -0.14033833189E+04  0.15096540404E+04  0.12699999809E+01 0. -1.
       -4    1    3    3    0  502  0.21442455183E+03  0.51341121986E+03  0.52563593945E+03  0.76541735207E+03  0.12699999809E+01 0.  1.
</event>
<event>
 5   0  0.2604390E-05  0.2108974E+04  0.7818609E-02  0.8557301E-01
        1   -1    0    0  501    0  0.00000000000E+00  0.00000000000E+00  0.14142566520E+04  0.14142566520E+04  0.50400001928E-02 0.  1.
       -1   -1    0    0    0  501  0.00000000000E+00  0.00000000000E+00 -0.78623836342E+03  0.78623836344E+03  0.50400001928E-02 0. -1.
    10030    2    1    2    0    0  0.00000000000E+00  0.00000000000E+00  0.62801828854E+03  0.22004950154E+04  0.21089740022E+04 0.  0.
        5    1    3    3  502    0 -0.48082867084E+02  0.43094775514E+03  0.13169145172E+04  0.13864753389E+04  0.46999998093E+01 0.  1.
       -5    1    3    3    0  502  0.48082867084E+02 -0.43094775514E+03 -0.68889622870E+03  0.81401967647E+03  0.46999998093E+01 0. -1.
</event>
<event>
 5   0  0.5866610E-05  0.2098664E+04  0.7818609E-02  0.8561832E-01
       -2   -1    0    0    0  501  0.00000000000E+00  0.00000000000E+00  0.52696573063E+03  0.52696573064E+03  0.25500000920E-02 0.  1.
        2   -1    0    0  501    0  0.00000000000E+00  0.00000000000E+00 -0.20895049627E+04  0.20895049627E+04  0.25500000920E-02 0. -1.
    10030    2    1    2    0    0  0.00000000000E+00  0.00000000000E+00 -0.15625392321E+04  0.26164706933E+04  0.20986638695E+04 0.  0.
        5    1    3    3  502    0  0.10174197985E+04  0.25327329874E+03 -0.72859599048E+03  0.12767790011E+04  0.46999998093E+01 0.  1.
       -5    1    3    3    0  502 -0.10174197985E+04 -0.25327329874E+03 -0.83394324157E+03  0.13396916923E+04  0.46999998093E+01 0. -1.
</event>
<event>
 5   0  0.5462851E-05  0.2103805E+04  0.7818609E-02  0.8559569E-01
       -2   -1    0    0    0  501  0.00000000000E+00  0.00000000000E+00  0.96945166172E+03  0.96945166172E+03  0.25500000920E-02 0.  1.
        2   -1    0    0  501    0  0.00000000000E+00  0.00000000000E+00 -0.11413656288E+04  0.11413656288E+04  0.25500000920E-02 0. -1.
    10030    2    1    2    0    0  0.00000000000E+00  0.00000000000E+00 -0.17191396712E+03  0.21108172906E+04  0.21038049392E+04 0.  0.
        1    1    3    3  502    0  0.82241455116E+03  0.39468009654E+03 -0.61149743501E+03  0.10982109022E+04  0.50400001928E-02 0. -1.
       -1    1    3    3    0  502 -0.82241455116E+03 -0.39468009654E+03  0.43958346789E+03  0.10126063884E+04  0.50400001928E-02 0.  1.
</event>
<event>
 5   0  0.2732159E-05  0.2095999E+04  0.7818609E-02  0.8563008E-01
        1   -1    0    0  501    0  0.00000000000E+00  0.00000000000E+00  0.10587161316E+04  0.10587161316E+04  0.50400001928E-02 0. -1.
       -1   -1    0    0    0  501  0.00000000000E+00  0.00000000000E+00 -0.10373917044E+04  0.10373917044E+04  0.50400001928E-02 0.  1.
    10030    2    1    2    0    0  0.00000000000E+00  0.00000000000E+00  0.21324427156E+02  0.20961078361E+04  0.20959993629E+04 0.  0.
        3    1    3    3  502    0 -0.14302298027E+03 -0.32231280926E+03  0.99760852151E+03  0.10580944628E+04  0.10100000352E+00 0. -1.
       -3    1    3    3    0  502  0.14302298027E+03  0.32231280926E+03 -0.97628409435E+03  0.10380133732E+04  0.10100000352E+00 0.  1.
</event>
<event>
 5   0  0.2789662E-05  0.2109722E+04  0.7818609E-02  0.8556973E-01
       -1   -1    0    0    0  501  0.00000000000E+00  0.00000000000E+00  0.91706131895E+03  0.91706131896E+03  0.50400001928E-02 0.  1.
        1   -1    0    0  501    0  0.00000000000E+00  0.00000000000E+00 -0.12133669201E+04  0.12133669201E+04  0.50400001928E-02 0. -1.
    10030    2    1    2    0    0  0.00000000000E+00  0.00000000000E+00 -0.29630560110E+03  0.21304282390E+04  0.21097221316E+04 0.  0.
        4    1    3    3  502    0  0.35143199268E+03 -0.99455328873E+03 -0.13859600573E+03  0.10638849352E+04  0.12699999809E+01 0.  1.
       -4    1    3    3    0  502 -0.35143199268E+03  0.99455328873E+03 -0.15770959537E+03  0.10665433038E+04  0.12699999809E+01 0. -1.
</event>
<event>
 5   0  0.2789662E-05  0.2095404E+04  0.7818609E-02  0.8563271E-01
        1   -1    0    0  501    0  0.00000000000E+00  0.00000000000E+00  0.14702419348E+04  0.14702419348E+04  0.50400001928E-02 0.  1.
       -1   -1    0    0    0  501  0.00000000000E+00  0.00000000000E+00 -0.74659791745E+03  0.74659791747E+03  0.50400001928E-02 0. -1.
    10030    2    1    2    0    0  0.00000000000E+00  0.00000000000E+00  0.72364401739E+03  0.22168398523E+04  0.20954040820E+04 0.  0.
        4    1    3    3  502    0  0.76516281567E+03  0.49712870780E+03 -0.18286153865E+03  0.93061863393E+03  0.12699999809E+01 0. -1.
       -4    1    3    3    0  502 -0.76516281567E+03 -0.49712870780E+03  0.90650555604E+03  0.12862212184E+04  0.12699999809E+01 0.  1.
</event>
<event>
 5   0  0.2789662E-05  0.2234616E+04  0.7818609E-02  0.8504157E-01
        1   -1    0    0  501    0  0.00000000000E+00  0.00000000000E+00  0.14456394215E+04  0.14456394215E+04  0.50400001928E-02 0. -1.
       -1   -1    0    0    0  501  0.00000000000E+00  0.00000000000E+00 -0.86354679043E+03  0.86354679045E+03  0.50400001928E-02 0.  1.
    10030    2    1    2    0    0  0.00000000000E+00  0.00000000000E+00  0.58209263110E+03  0.23091862120E+04  0.22346161036E+04 0.  0.
        4    1    3    3  502    0  0.37846211631E+03  0.60660385417E+03  0.11782860743E+04  0.13782458036E+04  0.12699999809E+01 0. -1.
       -4    1    3    3    0  502 -0.37846211631E+03 -0.60660385417E+03 -0.59619344319E+03  0.93094040839E+03  0.12699999809E+01 0.  1.
</event>
<event>
 5   0  0.2732159E-05  0.2087451E+04  0.7818609E-02  0.8566791E-01
        1   -1    0    0  501    0  0.00000000000E+00  0.00000000000E+00  0.52795961104E+03  0.52795961106E+03  0.50400001928E-02 0. -1.
       -1   -1    0    0    0  501  0.00000000000E+00  0.00000000000E+00 -0.20633456464E+04  0.20633456465E+04  0.50400001928E-02 0.  1.
    10030    2    1    2    0    0  0.00000000000E+00  0.00000000000E+00 -0.15353860354E+04  0.25913052575E+04  0.20874512353E+04 0.  0.
        3    1    3    3  502    0 -0.94042573607E+03 -0.11244419532E+03 -0.22329916532E+03  0.97309135726E+03  0.10100000352E+00 0. -1.
       -3    1    3    3    0  502  0.94042573607E+03  0.11244419532E+03 -0.13120868701E+04  0.16182139003E+04  0.10100000352E+00 0.  1.
</event>
<event>
 5   0  0.5866610E-05  0.2076311E+04  0.7818609E-02  0.8571751E-01
       -2   -1    0    0    0  501  0.00000000000E+00  0.00000000000E+00  0.52455340847E+03  0.52455340848E+03  0.25500000920E-02 0.  1.
        2   -1    0    0  501    0  0.00000000000E+00  0.00000000000E+00 -0.20546363733E+04  0.20546363733E+04  0.25500000920E-02 0. -1.
    10030    2    1    2    0    0  0.00000000000E+00  0.00000000000E+00 -0.15300829648E+04  0.25791897818E+04  0.20763106827E+04 0.  0.
        5    1    3    3  502    0  0.93248921754E+03 -0.37193852575E+03 -0.10933909976E+04  0.14843855198E+04  0.46999998093E+01 0. -1.
       -5    1    3    3    0  502 -0.93248921754E+03  0.37193852575E+03 -0.43669196718E+03  0.10948042619E+04  0.46999998093E+01 0.  1.
</event>
<event>
 5   0  0.5954140E-05  0.2117387E+04  0.7818609E-02  0.8553623E-01
       -2   -1    0    0    0  501  0.00000000000E+00  0.00000000000E+00  0.77720545753E+03  0.77720545754E+03  0.25500000920E-02 0.  1.
        2   -1    0    0  501    0  0.00000000000E+00  0.00000000000E+00 -0.14421305274E+04  0.14421305274E+04  0.25500000920E-02 0. -1.
    10030    2    1    2    0    0  0.00000000000E+00  0.00000000000E+00 -0.66492506985E+03  0.22193359849E+04  0.21173868011E+04 0.  0.
        2    1    3    3  502    0  0.73291010100E+03  0.75774297858E+03 -0.23030122494E+03  0.10790599112E+04  0.25500000920E-02 0. -1.
       -2    1    3    3    0  502 -0.73291010100E+03 -0.75774297858E+03 -0.43462384492E+03  0.11402760737E+04  0.25500000920E-02 0.  1.
</event>
<event>
 5   0  0.2699285E-05  0.2107636E+04  0.7818609E-02  0.8557887E-01
        1   -1    0    0  501    0  0.00000000000E+00  0.00000000000E+00  0.15153713323E+04  0.15153713323E+04  0.50400001928E-02 0.  1.
       -1   -1    0    0    0  501  0.00000000000E+00  0.00000000000E+00 -0.73284483117E+03  0.73284483119E+03  0.50400001928E-02 0. -1.
    10030    2    1    2    0    0  0.00000000000E+00  0.00000000000E+00  0.78252650111E+03  0.22482161635E+04  0.21076356879E+04 0.  0.
        2    1    3    3  502    0 -0.78452479487E+03  0.24471758719E+03 -0.31240847108E+03  0.87918422646E+03  0.25500000920E-02 0. -1.
       -2    1    3    3    0  502  0.78452479487E+03 -0.24471758719E+03  0.10949349722E+04  0.13690319370E+04  0.25500000920E-02 0.  1.
</event>
<event>
 5   0  0.2602060E-05  0.2096977E+04  0.7818609E-02  0.8562576E-01
       -1   -1    0    0    0  501  0.00000000000E+00  0.00000000000E+00  0.12889234956E+04  0.12889234956E+04  0.50400001928E-02 0. -1.
        1   -1    0    0  501    0  0.00000000000E+00  0.00000000000E+00 -0.85290385705E+03  0.85290385706E+03  0.50400001928E-02 0.  1.
    10030    2    1    2    0    0  0.00000000000E+00  0.00000000000E+00  0.43601963851E+03  0.21418273526E+04  0.20969767007E+04 0.  0.
        1    1    3    3  502    0 -0.50638807895E+00 -0.92440318379E+03  0.72337133509E+03  0.11737919710E+04  0.50400001928E-02 0.  1.
       -1    1    3    3    0  502  0.50638807895E+00  0.92440318379E+03 -0.28735169657E+03  0.96803538168E+03  0.50400001928E-02 0. -1.
</event>
<event>
 5   0  0.2732159E-05  0.2098349E+04  0.7818609E-02  0.8561971E-01
       -1   -1    0    0    0  501  0.00000000000E+00  0.00000000000E+00  0.53762191189E+03  0.53762191191E+03  0.50400001928E-02 0.  1.
        1   -1    0    0  501    0  0.00000000000E+00  0.00000000000E+00 -0.20474746708E+04  0.20474746708E+04  0.50400001928E-02 0. -1.
    10030    2    1    2    0    0  0.00000000000E+00  0.00000000000E+00 -0.15098527589E+04  0.25850965827E+04  0.20983491102E+04 0.  0.
        3    1    3    3  502    0  0.28860245321E+03 -0.61346481381E+03  0.23152202661E+03  0.71640275878E+03  0.10100000352E+00 0.  1.
       -3    1    3    3    0  502 -0.28860245321E+03  0.61346481381E+03 -0.17413747855E+04  0.18686938240E+04  0.10100000352E+00 0. -1.
</event>
<event>
 5   0  0.2602060E-05  0.2106963E+04  0.7818609E-02  0.8558182E-01
        1   -1    0    0  501    0  0.00000000000E+00  0.00000000000E+00  0.19979287017E+04  0.19979287017E+04  0.50400001928E-02 0. -1.
       -1   -1    0    0    0  501  0.00000000000E+00  0.00000000000E+00 -0.55548672043E+03  0.55548672046E+03  0.50400001928E-02 0.  1.
    10030    2    1    2    0    0  0.00000000000E+00  0.00000000000E+00  0.14424419813E+04  0.25534154222E+04  0.21069626121E+04 0.  0.
        1    1    3    3  502    0  0.37144996927E+03  0.77269259643E+03  0.14631475609E+04  0.16958271473E+04  0.50400001928E-02 0. -1.
       -1    1    3    3    0  502 -0.37144996927E+03 -0.77269259643E+03 -0.20705579656E+02  0.85758827493E+03  0.50400001928E-02 0.  1.
</event>
<event>
 5   0  0.2789662E-05  0.2085835E+04  0.7818609E-02  0.8567509E-01
       -1   -1    0    0    0  501  0.00000000000E+00  0.00000000000E+00  0.95211363876E+03  0.95211363878E+03  0.50400001928E-02 0.  1.
        1   -1    0    0  501    0  0.00000000000E+00  0.00000000000E+00 -0.11423808913E+04  0.11423808913E+04  0.50400001928E-02 0. -1.
    10030    2    1    2    0    0  0.00000000000E+00  0.00000000000E+00 -0.19026725254E+03  0.20944945301E+04  0.20858345354E+04 0.  0.
        4    1    3    3  502    0  0.53878364537E+03 -0.39462301908E+03  0.70922875045E+03  0.97417769276E+03  0.12699999809E+01 0.  1.
       -4    1    3    3    0  502 -0.53878364537E+03  0.39462301908E+03 -0.89949600300E+03  0.11203168373E+04  0.12699999809E+01 0. -1.
</event>
<event>
 5   0  0.2789662E-05  0.2058631E+04  0.7818609E-02  0.8579689E-01
       -1   -1    0    0    0  501  0.00000000000E+00  0.00000000000E+00  0.11545966363E+04  0.11545966363E+04  0.50400001928E-02 0. -1.
        1   -1    0    0  501    0  0.00000000000E+00  0.00000000000E+00 -0.91762776888E+03  0.91762776889E+03  0.50400001928E-02 0.  1.
    10030    2    1    2    0    0  0.00000000000E+00  0.00000000000E+00  0.23696886739E+03  0.20722244052E+04  0.20586305500E+04 0.  0.
        4    1    3    3  502    0  0.16408496523E+03 -0.58970733076E+03 -0.71451235246E+03  0.94085499759E+03  0.12699999809E+01 0.  1.
       -4    1    3    3    0  502 -0.16408496523E+03  0.58970733076E+03  0.95148121986E+03  0.11313694076E+04  0.12699999809E+01 0. -1.
</event>
<event>
 5   0  0.2732159E-05  0.2126536E+04  0.7818609E-02  0.8549643E-01
       -1   -1    0    0    0  501  0.00000000000E+00  0.00000000000E+00  0.54391906556E+03  0.54391906558E+03  0.50400001928E-02 0.  1.
        1   -1    0    0  501    0  0.00000000000E+00  0.00000000000E+00 -0.20785052487E+04  0.20785052487E+04  0.50400001928E-02 0. -1.
    10030    2    1    2    0    0  0.00000000000E+00  0.00000000000E+00 -0.15345861832E+04  0.26224243143E+04  0.21265358052E+04 0.  0.
        3    1    3    3  502    0  0.39377539142E+03 -0.80896348315E+03 -0.68543169716E+02  0.90231876423E+03  0.10100000352E+00 0.  1.
       -3    1    3    3    0  502 -0.39377539142E+03  0.80896348315E+03 -0.14660430135E+04  0.17201055501E+04  0.10100000352E+00 0. -1.
</event>
<event>
 5   0  0.5954140E-05  0.2101998E+04  0.7818609E-02  0.8560364E-01
        2   -1    0    0  501    0  0.00000000000E+00  0.00000000000E+00  0.49448415503E+03  0.49448415504E+03  0.25500000920E-02 0. -1.
       -2   -1    0    0    0  501  0.00000000000E+00  0.00000000000E+00 -0.22338407389E+04  0.22338407389E+04  0.25500000920E-02 0.  1.
    10030    2    1    2    0    0  0.00000000000E+00  0.00000000000E+00 -0.17393565838E+04  0.27283248939E+04  0.21019979546E+04 0.  0.
        2    1    3    3  502    0  0.15295811983E+03 -0.29604799454E+01 -0.22193109847E+04  0.22245777572E+04  0.25500000920E-02 0.  1.
       -2    1    3    3    0  502 -0.15295811983E+03  0.29604799454E+01  0.47995440086E+03  0.50374713674E+03  0.25500000920E-02 0. -1.
</event>
<event>
 5   0  0.2017750E-05  0.2087851E+04  0.7818609E-02  0.8566614E-01
        3   -1    0    0  501    0  0.00000000000E+00  0.00000000000E+00  0.69495743450E+03  0.69495744184E+03  0.10100000352E+00 0. -1.
       -3   -1    0    0    0  501  0.00000000000E+00  0.00000000000E+00 -0.15681256976E+04  0.15681257009E+04  0.10100000352E+00 0.  1.
    10030    2    1    2    0    0  0.00000000000E+00  0.00000000000E+00 -0.87316826314E+03  0.22630831427E+04  0.20878511669E+04 0.  0.
        2    1    3    3  502    0  0.59806113207E+03  0.59781373530E+03  0.22693845361E+03  0.87553380377E+03  0.25500000920E-02 0. -1.
       -2    1    3    3    0  502 -0.59806113207E+03 -0.59781373530E+03 -0.11001067168E+04  0.13875493390E+04  0.25500000920E-02 0.  1.
</event>
<event>
 5   0  0.5462851E-05  0.2093378E+04  0.7818609E-02  0.8564166E-01
        2   -1    0    0  501    0  0.00000000000E+00  0.00000000000E+00  0.13571116138E+04  0.13571116138E+04  0.25500000920E-02 0.  1.
       -2   -1    0    0    0  501  0.00000000000E+00  0.00000000000E+00 -0.80727148443E+03  0.80727148444E+03  0.25500000920E-02 0. -1.
    10030    2    1    2    0    0  0.00000000000E+00  0.00000000000E+00  0.54984012938E+03  0.21643830983E+04  0.20933776602E+04 0.  0.
        1    1    3    3  502    0  0.85649349461E+03 -0.37266861323E+03  0.76326983269E+03  0.12062519799E+04  0.50400001928E-02 0.  1.
       -1    1    3    3    0  502 -0.85649349461E+03  0.37266861323E+03 -0.21342970331E+03  0.95813111831E+03  0.50400001928E-02 0. -1.
</event>
<event>
 5   0  0.2732159E-05  0.2096046E+04  0.7818609E-02  0.8562987E-01
        1   -1    0    0  501    0  0.00000000000E+00  0.00000000000E+00  0.12832360905E+04  0.12832360905E+04  0.50400001928E-02 0.  1.
       -1   -1    0    0    0  501  0.00000000000E+00  0.00000000000E+00 -0.85592397076E+03  0.85592397077E+03  0.50400001928E-02 0. -1.
    10030    2    1    2    0    0  0.00000000000E+00  0.00000000000E+00  0.42731211971E+03  0.21391600613E+04  0.20960463067E+04 0.  0.
        3    1    3    3  502    0  0.64420337380E+03  0.81853856985E+03  0.95741048946E+02  0.10460256860E+04  0.10100000352E+00 0.  1.
       -3    1    3    3    0  502 -0.64420337380E+03 -0.81853856985E+03  0.33157107077E+03  0.10931343752E+04  0.10100000352E+00 0. -1.
</event>
<event>
 5   0  0.5462851E-05  0.2105006E+04  0.7818609E-02  0.8559041E-01
       -2   -1    0    0    0  501  0.00000000000E+00  0.00000000000E+00  0.54529696160E+03  0.54529696161E+03  0.25500000920E-02 0.  1.
        2   -1    0    0  501    0  0.00000000000E+00  0.00000000000E+00 -0.20314853451E+04  0.20314853451E+04  0.25500000920E-02 0. -1.
    10030    2    1    2    0    0  0.00000000000E+00  0.00000000000E+00 -0.14861883835E+04  0.25767823067E+04  0.21050062102E+04 0.  0.
        1    1    3    3  502    0  0.53979587915E+03  0.35918620798E+02 -0.18482612790E+04  0.19258087895E+04  0.50400001928E-02 0. -1.
       -1    1    3    3    0  502 -0.53979587915E+03 -0.35918620798E+02  0.36207289545E+03  0.65097351721E+03  0.50400001928E-02 0.  1.
</event>
<event>
 5   0  0.2602060E-05  0.2097051E+04  0.7818609E-02  0.8562543E-01
       -1   -1    0    0    0  501  0.00000000000E+00  0.00000000000E+00  0.10354890600E+04  0.10354890600E+04  0.50400001928E-02 0.  1.
        1   -1    0    0  501    0  0.00000000000E+00  0.00000000000E+00 -0.10617264615E+04  0.10617264615E+04  0.50400001928E-02 0. -1.
    10030    2    1    2    0    0  0.00000000000E+00  0.00000000000E+00 -0.26237401504E+02  0.20972155215E+04  0.20970513924E+04 0.  0.
        1    1    3    3  502    0 -0.63772647607E+02 -0.74251032106E+03 -0.75075192146E+03  0.10578359868E+04  0.50400001928E-02 0. -1.
       -1    1    3    3    0  502  0.63772647607E+02  0.74251032106E+03  0.72451451996E+03  0.10393795347E+04  0.50400001928E-02 0.  1.
</event>
<event>
 5   0  0.5866610E-05  0.2095701E+04  0.7818609E-02  0.8563139E-01
       -2   -1    0    0    0  501  0.00000000000E+00  0.00000000000E+00  0.13028149779E+04  0.13028149779E+04  0.25500000920E-02 0.  1.
        2   -1    0    0  501    0  0.00000000000E+00  0.00000000000E+00 -0.84278330891E+03  0.84278330891E+03  0.25500000920E-02 0. -1.
    10030    2    1    2    0    0  0.00000000000E+00  0.00000000000E+00  0.46003166901E+03  0.21455982868E+04  0.20957010455E+04 0.  0.
        5    1    3    3  502    0  0.87361490935E+03 -0.20921281316E+03  0.78229963850E+03  0.11912127541E+04  0.46999998093E+01 0.  1.
       -5    1    3    3    0  502 -0.87361490935E+03  0.20921281316E+03 -0.32226796948E+03  0.95438553278E+03  0.46999998093E+01 0. -1.
</event>
<event>
 5   0  0.2699285E-05  0.2092884E+04  0.7818609E-02  0.8564385E-01
       -1   -1    0    0    0  501  0.00000000000E+00  0.00000000000E+00  0.61655146638E+03  0.61655146640E+03  0.50400001928E-02 0.  1.
        1   -1    0    0  501    0  0.00000000000E+00  0.00000000000E+00 -0.17760734695E+04  0.17760734695E+04  0.50400001928E-02 0. -1.
    10030    2    1    2    0    0  0.00000000000E+00  0.00000000000E+00 -0.11595220031E+04  0.23926249359E+04  0.20928838496E+04 0.  0.
        2    1    3    3  502    0  0.13606614254E+03  0.80813709578E+03 -0.13236806402E+04  0.15568333238E+04  0.25500000920E-02 0. -1.
       -2    1    3    3    0  502 -0.13606614254E+03 -0.80813709578E+03  0.16415863712E+03  0.83579161211E+03  0.25500000920E-02 0.  1.
</event>
<event>
 5   0  0.5506332E-05  0.1940523E+04  0.7818609E-02  0.8634944E-01
        2   -1    0    0  501    0  0.00000000000E+00  0.00000000000E+00  0.87984666472E+03  0.87984666473E+03  0.25500000920E-02 0. -1.
       -2   -1    0    0    0  501  0.00000000000E+00  0.00000000000E+00 -0.10699674115E+04  0.10699674116E+04  0.25500000920E-02 0.  1.
    10030    2    1    2    0    0  0.00000000000E+00  0.00000000000E+00 -0.19012074682E+03  0.19498140763E+04  0.19405228764E+04 0.  0.
        3    1    3    3  502    0 -0.91936412513E+03 -0.76611864396E+02 -0.39701124417E+03  0.10043493966E+04  0.10100000352E+00 0.  1.
       -3    1    3    3    0  502  0.91936412513E+03  0.76611864396E+02  0.20689049735E+03  0.94546467963E+03  0.10100000352E+00 0. -1.
</event>
<event>
 5   0  0.5954140E-05  0.2095612E+04  0.7818609E-02  0.8563179E-01
        2   -1    0    0  501    0  0.00000000000E+00  0.00000000000E+00  0.18221615978E+04  0.18221615978E+04  0.25500000920E-02 0. -1.
       -2   -1    0    0    0  501  0.00000000000E+00  0.00000000000E+00 -0.60252486784E+03  0.60252486785E+03  0.25500000920E-02 0.  1.
    10030    2    1    2    0    0  0.00000000000E+00  0.00000000000E+00  0.12196367300E+04  0.24246864657E+04  0.20956122503E+04 0.  0.
        2    1    3    3  502    0  0.43531266895E+03  0.92389251940E+03  0.88072941951E+03  0.13486136650E+04  0.25500000920E-02 0. -1.
       -2    1    3    3    0  502 -0.43531266895E+03 -0.92389251940E+03  0.33890731046E+03  0.10760728006E+04  0.25500000920E-02 0.  1.
</event>
<event>
 5   0  0.2699285E-05  0.2106796E+04  0.7818609E-02  0.8558256E-01
       -1   -1    0    0    0  501  0.00000000000E+00  0.00000000000E+00  0.76647833553E+03  0.76647833555E+03  0.50400001928E-02 0.  1.
        1   -1    0    0  501    0  0.00000000000E+00  0.00000000000E+00 -0.14477213425E+04  0.14477213426E+04  0.50400001928E-02 0. -1.
    10030    2    1    2    0    0  0.00000000000E+00  0.00000000000E+00 -0.68124300701E+03  0.22141996781E+04  0.21067957139E+04 0.  0.
        2    1    3    3  502    0 -0.10477923442E+04  0.28595643685E+02 -0.23059171374E+03  0.10732469641E+04  0.25500000920E-02 0.  1.
       -2    1    3    3    0  502  0.10477923442E+04 -0.28595643685E+02 -0.45065129328E+03  0.11409527140E+04  0.25500000920E-02 0. -1.
</event>
<event>
 5   0  0.5866610E-05  0.2117373E+04  0.7818609E-02  0.8553629E-01
       -2   -1    0    0    0  501  0.00000000000E+00  0.00000000000E+00  0.12177263185E+04  0.12177263185E+04  0.25500000920E-02 0. -1.
        2   -1    0    0  501    0  0.00000000000E+00  0.00000000000E+00 -0.92041825664E+03  0.92041825664E+03  0.25500000920E-02 0.  1.
    10030    2    1    2    0    0  0.00000000000E+00  0.00000000000E+00  0.29730806186E+03  0.21381445751E+04  0.21173734060E+04 0.  0.
        5    1    3    3  502    0 -0.16002630918E+03  0.87389154009E+03 -0.43275500092E+03  0.98822761766E+03  0.46999998093E+01 0.  1.
       -5    1    3    3    0  502  0.16002630918E+03 -0.87389154009E+03  0.73006306278E+03  0.11499169575E+04  0.46999998093E+01 0. -1.
</event>
<event>
 5   0  0.5866610E-05  0.2100969E+04  0.7818609E-02  0.8560817E-01
        2   -1    0    0  501    0  0.00000000000E+00  0.00000000000E+00  0.16246861488E+04  0.16246861488E+04  0.25500000920E-02 0. -1.
       -2   -1    0    0    0  501  0.00000000000E+00  0.00000000000E+00 -0.67921890550E+03  0.67921890551E+03  0.25500000920E-02 0.  1.
    10030    2    1    2    0    0  0.00000000000E+00  0.00000000000E+00  0.94546724326E+03  0.23039050543E+04  0.21009688696E+04 0.  0.
        5    1    3    3  502    0 -0.23596606063E+03 -0.21496871429E+03 -0.62473716726E+03  0.70157690102E+03  0.46999998093E+01 0.  1.
       -5    1    3    3    0  502  0.23596606063E+03  0.21496871429E+03  0.15702044105E+04  0.16023281533E+04  0.46999998093E+01 0. -1.
</event>
<event>
 5   0  0.5506332E-05  0.2097966E+04  0.7818609E-02  0.8562140E-01
        2   -1    0    0  501    0  0.00000000000E+00  0.00000000000E+00  0.18012013645E+04  0.18012013645E+04  0.25500000920E-02 0.  1.
       -2   -1    0    0    0  501  0.00000000000E+00  0.00000000000E+00 -0.61090636404E+03  0.61090636404E+03  0.25500000920E-02 0. -1.
    10030    2    1    2    0    0  0.00000000000E+00  0.00000000000E+00  0.11902950005E+04  0.24121077286E+04  0.20979660402E+04 0.  0.
        3    1    3    3  502    0 -0.52474154253E+03 -0.19820761686E+02 -0.44891107953E+03  0.69084565322E+03  0.10100000352E+00 0. -1.
       -3    1    3    3    0  502  0.52474154253E+03  0.19820761686E+02  0.16392060800E+04  0.17212620753E+04  0.10100000352E+00 0.  1.
</event>
<event>
 5   0  0.5462851E-05  0.2088393E+04  0.7818609E-02  0.8566373E-01
       -2   -1    0    0    0  501  0.00000000000E+00  0.00000000000E+00  0.90285869376E+03  0.90285869376E+03  0.25500000920E-02 0. -1.
        2   -1    0    0  501    0  0.00000000000E+00  0.00000000000E+00 -0.12076605679E+04  0.12076605679E+04  0.25500000920E-02 0.  1.
    10030    2    1    2    0    0  0.00000000000E+00  0.00000000000E+00 -0.30480187412E+03  0.21105192616E+04  0.20883934905E+04 0.  0.
        1    1    3    3  502    0  0.11837354604E+03  0.10356892511E+04 -0.91075897142E+02  0.10464030487E+04  0.50400001928E-02 0.  1.
       -1    1    3    3    0  502 -0.11837354604E+03 -0.10356892511E+04 -0.21372597698E+03  0.10641162129E+04  0.50400001928E-02 0. -1.
</event>
<event>
 5   0  0.2604390E-05  0.2071357E+04  0.7818609E-02  0.8573967E-01
       -1   -1    0    0    0  501  0.00000000000E+00  0.00000000000E+00  0.84438730171E+03  0.84438730172E+03  0.50400001928E-02 0. -1.
        1   -1    0    0  501    0  0.00000000000E+00  0.00000000000E+00 -0.12703055182E+04  0.12703055182E+04  0.50400001928E-02 0.  1.
    10030    2    1    2    0    0  0.00000000000E+00  0.00000000000E+00 -0.42591821651E+03  0.21146928200E+04  0.20713568972E+04 0.  0.
        5    1    3    3  502    0  0.89230583670E+03 -0.46117444297E+03  0.44742566571E+02  0.10054429672E+04  0.46999998093E+01 0. -1.
       -5    1    3    3    0  502 -0.89230583670E+03  0.46117444297E+03 -0.47066078308E+03  0.11092498527E+04  0.46999998093E+01 0.  1.
</event>
<event>
 5   0  0.2602060E-05  0.2066857E+04  0.7818609E-02  0.8575985E-01
       -1   -1    0    0    0  501  0.00000000000E+00  0.00000000000E+00  0.11564996823E+04  0.11564996823E+04  0.50400001928E-02 0.  1.
        1   -1    0    0  501    0  0.00000000000E+00  0.00000000000E+00 -0.92345417112E+03  0.92345417113E+03  0.50400001928E-02 0. -1.
    10030    2    1    2    0    0  0.00000000000E+00  0.00000000000E+00  0.23304551120E+03  0.20799538535E+04  0.20668569912E+04 0.  0.
        1    1    3    3  502    0  0.38880960935E+03  0.19124233838E+02 -0.84684985809E+03  0.93203719390E+03  0.50400001928E-02 0. -1.
       -1    1    3    3    0  502 -0.38880960935E+03 -0.19124233838E+02  0.10798953693E+04  0.11479166596E+04  0.50400001928E-02 0.  1.
</event>
<event>
 5   0  0.5954140E-05  0.2108601E+04  0.7818609E-02  0.8557464E-01
        2   -1    0    0  501    0  0.00000000000E+00  0.00000000000E+00  0.88772611112E+03  0.88772611112E+03  0.25500000920E-02 0.  1.
       -2   -1    0    0    0  501  0.00000000000E+00  0.00000000000E+00 -0.12521316450E+04  0.12521316450E+04  0.25500000920E-02 0. -1.
    10030    2    1    2    0    0  0.00000000000E+00  0.00000000000E+00 -0.36440553387E+03  0.21398577561E+04  0.21086013903E+04 0.  0.
        2    1    3    3  502    0  0.68534076723E+03  0.55632716733E+03  0.40284797149E+03  0.97029808434E+03  0.25500000920E-02 0.  1.
       -2    1    3    3    0  502 -0.68534076723E+03 -0.55632716733E+03 -0.76725350536E+03  0.11695596718E+04  0.25500000920E-02 0. -1.
</event>
<event>
 5   0  0.2699285E-05  0.2091502E+04  0.7818609E-02  0.8564996E-01
        1   -1    0    0  501    0  0.00000000000E+00  0.00000000000E+00  0.92088427344E+03  0.92088427345E+03  0.50400001928E-02 0. -1.
       -1   -1    0    0    0  501  0.00000000000E+00  0.00000000000E+00 -0.11875494238E+04  0.11875494238E+04  0.50400001928E-02 0.  1.
    10030    2    1    2    0    0  0.00000000000E+00  0.00000000000E+00 -0.26666515039E+03  0.21084336973E+04  0.20915024154E+04 0.  0.
        2    1    3    3  502    0  0.41306790199E+03 -0.60754012749E+03 -0.88357864884E+03  0.11491045761E+04  0.25500000920E-02 0.  1.
       -2    1    3    3    0  502 -0.41306790199E+03  0.60754012749E+03  0.61691349845E+03  0.95932912118E+03  0.25500000920E-02 0. -1.
</event>
<event>
 5   0  0.5506332E-05  0.2094459E+04  0.7818609E-02  0.8563688E-01
       -2   -1    0    0    0  501  0.00000000000E+00  0.00000000000E+00  0.54088940814E+03  0.54088940814E+03  0.25500000920E-02 0.  1.
        2   -1    0    0  501    0  0.00000000000E+00  0.00000000000E+00 -0.20275676807E+04  0.20275676807E+04  0.25500000920E-02 0. -1.
    10030    2    1    2    0    0  0.00000000000E+00  0.00000000000E+00 -0.14866782726E+04  0.25684570889E+04  0.20944592455E+04 0.  0.
        3    1    3    3  502    0  0.63086043625E+03 -0.51077001782E+03  0.68084563698E+02  0.81455903356E+03  0.10100000352E+00 0.  1.
       -3    1    3    3    0  502 -0.63086043625E+03  0.51077001782E+03 -0.15547628363E+04  0.17538980553E+04  0.10100000352E+00 0. -1.
</event>
<event>
 5   0  0.5866610E-05  0.2179979E+04  0.7818609E-02  0.8526808E-01
       -2   -1    0    0    0  501  0.00000000000E+00  0.00000000000E+00  0.59604997948E+03  0.59604997949E+03  0.25500000920E-02 0.  1.
        2   -1    0    0  501    0  0.00000000000E+00  0.00000000000E+00 -0.19932515217E+04  0.19932515217E+04  0.25500000920E-02 0. -1.
    10030    2    1    2    0    0  0.00000000000E+00  0.00000000000E+00 -0.13972015422E+04  0.25893015012E+04  0.21799793840E+04 0.  0.
        5    1    3    3  502    0 -0.26744569004E+03  0.10282486276E+04 -0.40952472515E+03  0.11386637027E+04  0.46999998093E+01 0.  1.
       -5    1    3    3    0  502  0.26744569004E+03 -0.10282486276E+04 -0.98767681707E+03  0.14506377985E+04  0.46999998093E+01 0. -1.
</event>
<event>
 5   0  0.2604390E-05  0.2105478E+04  0.7818609E-02  0.8558834E-01
       -1   -1    0    0    0  501  0.00000000000E+00  0.00000000000E+00  0.72482245962E+03  0.72482245964E+03  0.50400001928E-02 0. -1.
        1   -1    0    0  501    0  0.00000000000E+00  0.00000000000E+00 -0.15290079187E+04  0.15290079187E+04  0.50400001928E-02 0.  1.
    10030    2    1    2    0    0  0.00000000000E+00  0.00000000000E+00 -0.80418545912E+03  0.22538303784E+04  0.21054778844E+04 0.  0.
        5    1    3    3  502    0 -0.23610573549E+03  0.10032105270E+04 -0.63183033497E+03  0.12088874811E+04  0.46999998093E+01 0.  1.
       -5    1    3    3    0  502  0.23610573549E+03 -0.10032105270E+04 -0.17235512415E+03  0.10449428973E+04  0.46999998093E+01 0. -1.
</event>
<event>
 5   0  0.2604390E-05  0.2098713E+04  0.7818609E-02  0.8561810E-01
       -1   -1    0    0    0  501  0.00000000000E+00  0.00000000000E+00  0.10701891515E+04  0.10701891515E+04  0.50400001928E-02 0.  1.
        1   -1    0    0  501    0  0.00000000000E+00  0.00000000000E+00 -0.10289294943E+04  0.10289294943E+04  0.50400001928E-02 0. -1.
    10030    2    1    2    0    0  0.00000000000E+00  0.00000000000E+00  0.41259657211E+02  0.20991186459E+04  0.20987131129E+04 0.  0.
        5    1    3    3  502    0  0.36830862293E+03  0.19564565075E+03 -0.94246777225E+03  0.10306289604E+04  0.46999998093E+01 0. -1.
       -5    1    3    3    0  502 -0.36830862293E+03 -0.19564565075E+03  0.98372742946E+03  0.10684896854E+04  0.46999998093E+01 0.  1.
</event>
<event>
 5   0  0.5462851E-05  0.2100034E+04  0.7818609E-02  0.8561229E-01
        2   -1    0    0  501    0  0.00000000000E+00  0.00000000000E+00  0.72870472886E+03  0.72870472887E+03  0.25500000920E-02 0. -1.
       -2   -1    0    0    0  501  0.00000000000E+00  0.00000000000E+00 -0.15130070050E+04  0.15130070050E+04  0.25500000920E-02 0.  1.
    10030    2    1    2    0    0  0.00000000000E+00  0.00000000000E+00 -0.78430227611E+03  0.22417117338E+04  0.21000336753E+04 0.  0.
        1    1    3    3  502    0 -0.63431388222E+03  0.49424009740E+03 -0.11129135088E+04  0.13730272587E+04  0.50400001928E-02 0.  1.
       -1    1    3    3    0  502  0.63431388222E+03 -0.49424009740E+03  0.32861123270E+03  0.86868447513E+03  0.50400001928E-02 0. -1.
</event>
<event>
 5   0  0.5967046E-05  0.2098337E+04  0.7818609E-02  0.8561976E-01
        2   -1    0    0  501    0  0.00000000000E+00  0.00000000000E+00  0.94698684033E+03  0.94698684034E+03  0.25500000920E-02 0.  1.
       -2   -1    0    0    0  501  0.00000000000E+00  0.00000000000E+00 -0.11623760739E+04  0.11623760739E+04  0.25500000920E-02 0. -1.
    10030    2    1    2    0    0  0.00000000000E+00  0.00000000000E+00 -0.21538923357E+03  0.21093629142E+04  0.20983372899E+04 0.  0.
        4    1    3    3  502    0  0.22432648986E+02  0.52359015783E+03  0.80598345223E+03  0.96138484245E+03  0.12699999809E+01 0.  1.
       -4    1    3    3    0  502 -0.22432648986E+02 -0.52359015783E+03 -0.10213726858E+04  0.11479780718E+04  0.12699999809E+01 0. -1.
</event>
<event>
 5   0  0.2699285E-05  0.2170065E+04  0.7818609E-02  0.8530992E-01
       -1   -1    0    0    0  501  0.00000000000E+00  0.00000000000E+00  0.67345338761E+03  0.67345338762E+03  0.50400001928E-02 0. -1.
        1   -1    0    0  501    0  0.00000000000E+00  0.00000000000E+00 -0.17481464686E+04  0.17481464686E+04  0.50400001928E-02 0.  1.
    10030    2    1    2    0    0  0.00000000000E+00  0.00000000000E+00 -0.10746930810E+04  0.24215998562E+04  0.21700646639E+04 0.  0.
        2    1    3    3  502    0 -0.11383571568E+03 -0.10700989720E+04 -0.69207151191E+03  0.12794660440E+04  0.25500000920E-02 0. -1.
       -2    1    3    3    0  502  0.11383571568E+03  0.10700989720E+04 -0.38262156910E+03  0.11421338123E+04  0.25500000920E-02 0.  1.
</event>
<event>
 5   0  0.2789662E-05  0.2094637E+04  0.7818609E-02  0.8563609E-01
       -1   -1    0    0    0  501  0.00000000000E+00  0.00000000000E+00  0.10981405222E+04  0.10981405223E+04  0.50400001928E-02 0.  1.
        1   -1    0    0  501    0  0.00000000000E+00  0.00000000000E+00 -0.99884867305E+03  0.99884867307E+03  0.50400001928E-02 0. -1.
    10030    2    1    2    0    0  0.00000000000E+00  0.00000000000E+00  0.99291849192E+02  0.20969891953E+04  0.20946371557E+04 0.  0.
        4    1    3    3  502    0 -0.56062166097E+03 -0.73653118938E+03 -0.44090403531E+03  0.10252671949E+04  0.12699999809E+01 0. -1.
       -4    1    3    3    0  502  0.56062166097E+03  0.73653118938E+03  0.54019588450E+03  0.10717220004E+04  0.12699999809E+01 0.  1.
</event>
<event>
 5   0  0.5506332E-05  0.2093508E+04  0.7818609E-02  0.8564109E-01
        2   -1    0    0  501    0  0.00000000000E+00  0.00000000000E+00  0.89186567575E+03  0.89186567576E+03  0.25500000920E-02 0. -1.
       -2   -1    0    0    0  501  0.00000000000E+00  0.00000000000E+00 -0.12285412207E+04  0.12285412207E+04  0.25500000920E-02 0.  1.
    10030    2    1    2    0    0  0.00000000000E+00  0.00000000000E+00 -0.33667554493E+03  0.21204068964E+04  0.20935078180E+04 0.  0.
        3    1    3    3  502    0 -0.20927556271E+03  0.18725449667E+03 -0.11896757612E+04  0.12223702118E+04  0.10100000352E+00 0.  1.
       -3    1    3    3    0  502  0.20927556271E+03 -0.18725449667E+03  0.85300021632E+03  0.89803668461E+03  0.10100000352E+00 0. -1.
</event>
<event>
 5   0  0.2602060E-05  0.2103979E+04  0.7818609E-02  0.8559492E-01
       -1   -1    0    0    0  501  0.00000000000E+00  0.00000000000E+00  0.48294665653E+03  0.48294665655E+03  0.50400001928E-02 0.  1.
        1   -1    0    0  501    0  0.00000000000E+00  0.00000000000E+00 -0.22915206455E+04  0.22915206455E+04  0.50400001928E-02 0. -1.
    10030    2    1    2    0    0  0.00000000000E+00  0.00000000000E+00 -0.18085739890E+04  0.27744673021E+04  0.21039793099E+04 0.  0.
        1    1    3    3  502    0 -0.63789002498E+03  0.62104484156E+03 -0.16526124642E+03  0.90548973422E+03  0.50400001928E-02 0.  1.
       -1    1    3    3    0  502  0.63789002498E+03 -0.62104484156E+03 -0.16433127426E+04  0.18689775678E+04  0.50400001928E-02 0. -1.
</event>
<event>
 5   0  0.5866610E-05  0.2107280E+04  0.7818609E-02  0.8558043E-01
        2   -1    0    0  501    0  0.00000000000E+00  0.00000000000E+00  0.11562966723E+04  0.11562966723E+04  0.25500000920E-02 0.  1.
       -2   -1    0    0    0  501  0.00000000000E+00  0.00000000000E+00 -0.96009689629E+03  0.96009689630E+03  0.25500000920E-02 0. -1.
    10030    2    1    2    0    0  0.00000000000E+00  0.00000000000E+00  0.19619977601E+03  0.21163935686E+04  0.21072796172E+04 0.  0.
        5    1    3    3  502    0 -0.49463587789E+03  0.20675869012E+03  0.10090624825E+04  0.11426473608E+04  0.46999998093E+01 0.  1.
       -5    1    3    3    0  502  0.49463587789E+03 -0.20675869012E+03 -0.81286270647E+03  0.97374620779E+03  0.46999998093E+01 0. -1.
</event>
<event>
 5   0  0.2699285E-05  0.2128906E+04  0.7818609E-02  0.8548616E-01
        1   -1    0    0  501    0  0.00000000000E+00  0.00000000000E+00  0.21618813277E+04  0.21618813277E+04  0.50400001928E-02 0.  1.
       -1   -1    0    0    0  501  0.00000000000E+00  0.00000000000E+00 -0.52410847729E+03  0.52410847731E+03  0.50400001928E-02 0. -1.
    10030    2    1    2    0    0  0.00000000000E+00  0.00000000000E+00  0.16377728505E+04  0.26859898051E+04  0.21289061330E+04 0.  0.
        2    1    3    3  502    0 -0.10062841704E+03 -0.62694115911E+03  0.18967735679E+04  0.20002328022E+04  0.25500000920E-02 0.  1.
       -2    1    3    3    0  502  0.10062841704E+03  0.62694115911E+03 -0.25900071742E+03  0.68575700284E+03  0.25500000920E-02 0. -1.
</event>
<event>
 5   0  0.5462851E-05  0.2093568E+04  0.7818609E-02  0.8564082E-01
       -2   -1    0    0    0  501  0.00000000000E+00  0.00000000000E+00  0.64962021021E+03  0.64962021021E+03  0.25500000920E-02 0. -1.
        2   -1    0    0  501    0  0.00000000000E+00  0.00000000000E+00 -0.16867646002E+04  0.16867646002E+04  0.25500000920E-02 0.  1.
    10030    2    1    2    0    0  0.00000000000E+00  0.00000000000E+00 -0.10371443900E+04  0.23363848105E+04  0.20935676480E+04 0.  0.
        1    1    3    3  502    0 -0.77577541427E+01  0.37977198509E+03 -0.16071382699E+04  0.16514176824E+04  0.50400001928E-02 0.  1.
       -1    1    3    3    0  502  0.77577541427E+01 -0.37977198509E+03  0.56999387982E+03  0.68496712802E+03  0.50400001928E-02 0. -1.
</event>
<event>
 5   0  0.5954140E-05  0.2080253E+04  0.7818609E-02  0.8569992E-01
        2   -1    0    0  501    0  0.00000000000E+00  0.00000000000E+00  0.16876793718E+04  0.16876793718E+04  0.25500000920E-02 0.  1.
       -2   -1    0    0    0  501  0.00000000000E+00  0.00000000000E+00 -0.64103582391E+03  0.64103582392E+03  0.25500000920E-02 0. -1.
    10030    2    1    2    0    0  0.00000000000E+00  0.00000000000E+00  0.10466435478E+04  0.23287151957E+04  0.20802528083E+04 0.  0.
        2    1    3    3  502    0 -0.31456580024E+03 -0.66332926415E+01  0.16331293925E+04  0.16631618250E+04  0.25500000920E-02 0.  1.
       -2    1    3    3    0  502  0.31456580024E+03  0.66332926415E+01 -0.58648584468E+03  0.66555337072E+03  0.25500000920E-02 0. -1.
</event>
<event>
 5   0  0.2017750E-05  0.2096855E+04  0.7818609E-02  0.8562630E-01
        3   -1    0    0  501    0  0.00000000000E+00  0.00000000000E+00  0.64068017820E+03  0.64068018616E+03  0.10100000352E+00 0. -1.
       -3   -1    0    0    0  501  0.00000000000E+00  0.00000000000E+00 -0.17156775894E+04  0.17156775923E+04  0.10100000352E+00 0.  1.
    10030    2    1    2    0    0  0.00000000000E+00  0.00000000000E+00 -0.10749974112E+04  0.23563577785E+04  0.20968553947E+04 0.  0.
        5    1    3    3  502    0  0.27876190367E+03  0.63361167784E+03  0.34735383809E+03  0.77449902264E+03  0.46999998093E+01 0. -1.
       -5    1    3    3    0  502 -0.27876190367E+03 -0.63361167784E+03 -0.14223512493E+04  0.15818587559E+04  0.46999998093E+01 0.  1.
</event>
<event>
 5   0  0.2789662E-05  0.2133794E+04  0.7818609E-02  0.8546501E-01
       -1   -1    0    0    0  501  0.00000000000E+00  0.00000000000E+00  0.13522212029E+04  0.13522212029E+04  0.50400001928E-02 0.  1.
        1   -1    0    0  501    0  0.00000000000E+00  0.00000000000E+00 -0.84177745768E+03  0.84177745770E+03  0.50400001928E-02 0. -1.
    10030    2    1    2    0    0  0.00000000000E+00  0.00000000000E+00  0.51044374521E+03  0.21939986606E+04  0.21337941104E+04 0.  0.
        4    1    3    3  502    0  0.46564140047E+03  0.77713786304E+03  0.83459380102E+03  0.12317928388E+04  0.12699999809E+01 0.  1.
       -4    1    3    3    0  502 -0.46564140047E+03 -0.77713786304E+03 -0.32415005581E+03  0.96220582184E+03  0.12699999809E+01 0. -1.
</event>
<event>
 5   0  0.5967046E-05  0.2103040E+04  0.7818609E-02  0.8559905E-01
       -2   -1    0    0    0  501  0.00000000000E+00  0.00000000000E+00  0.10966582356E+04  0.10966582357E+04  0.25500000920E-02 0.  1.
        2   -1    0    0  501    0  0.00000000000E+00  0.00000000000E+00 -0.10082400481E+04  0.10082400481E+04  0.25500000920E-02 0. -1.
    10030    2    1    2    0    0  0.00000000000E+00  0.00000000000E+00  0.88418187537E+02  0.21048982838E+04  0.21030404202E+04 0.  0.
        4    1    3    3  502    0  0.39333170560E+01  0.84657062775E+03 -0.58003720056E+03  0.10262271024E+04  0.12699999809E+01 0. -1.
       -4    1    3    3    0  502 -0.39333170560E+01 -0.84657062775E+03  0.66845538809E+03  0.10786711814E+04  0.12699999809E+01 0.  1.
</event>
<event>
 5   0  0.5866610E-05  0.1981021E+04  0.7818609E-02  0.8615546E-01
        2   -1    0    0  501    0  0.00000000000E+00  0.00000000000E+00  0.10671928804E+04  0.10671928804E+04  0.25500000920E-02 0.  1.
       -2   -1    0    0    0  501  0.00000000000E+00  0.00000000000E+00 -0.91933766872E+03  0.91933766872E+03  0.25500000920E-02 0. -1.
    10030    2    1    2    0    0  0.00000000000E+00  0.00000000000E+00  0.14785521167E+03  0.19865305491E+04  0.19810205599E+04 0.  0.
        5    1    3    3  502    0 -0.45356365432E+03 -0.87384304686E+03 -0.34849290467E+02  0.98516913376E+03  0.46999998093E+01 0. -1.
       -5    1    3    3    0  502  0.45356365432E+03  0.87384304686E+03  0.18270450214E+03  0.10013614154E+04  0.46999998093E+01 0.  1.
</event>
<event>
 5   0  0.2602060E-05  0.2125101E+04  0.7818609E-02  0.8550266E-01
        1   -1    0    0  501    0  0.00000000000E+00  0.00000000000E+00  0.22497884803E+04  0.22497884804E+04  0.50400001928E-02 0. -1.
       -1   -1    0    0    0  501  0.00000000000E+00  0.00000000000E+00 -0.50183101796E+03  0.50183101798E+03  0.50400001928E-02 0.  1.
    10030    2    1    2    0    0  0.00000000000E+00  0.00000000000E+00  0.17479574624E+04  0.27516194983E+04  0.21251010737E+04 0.  0.
        1    1    3    3  502    0 -0.20191000912E+03 -0.65395811052E+03  0.19263599031E+04  0.20443315139E+04  0.50400001928E-02 0. -1.
       -1    1    3    3    0  502  0.20191000912E+03  0.65395811052E+03 -0.17840244075E+03  0.70728798448E+03  0.50400001928E-02 0.  1.
</event>
<event>
 5   0  0.5967046E-05  0.2075806E+04  0.7818609E-02  0.8571977E-01
        2   -1    0    0  501    0  0.00000000000E+00  0.00000000000E+00  0.14266974578E+04  0.14266974578E+04  0.25500000920E-02 0.  1.
       -2   -1    0    0    0  501  0.00000000000E+00  0.00000000000E+00 -0.75505997141E+03  0.75505997141E+03  0.25500000920E-02 0. -1.
    10030    2    1    2    0    0  0.00000000000E+00  0.00000000000E+00  0.67163748640E+03  0.21817574292E+04  0.20758055224E+04 0.  0.
        4    1    3    3  502    0  0.84689753702E+02 -0.79126464111E+03  0.10361376494E+04  0.13064665813E+04  0.12699999809E+01 0.  1.
       -4    1    3    3    0  502 -0.84689753702E+02  0.79126464111E+03 -0.36450016304E+03  0.87529084789E+03  0.12699999809E+01 0. -1.
</event>
<event>
 5   0  0.2732159E-05  0.2099253E+04  0.7818609E-02  0.8561573E-01
        1   -1    0    0  501    0  0.00000000000E+00  0.00000000000E+00  0.92605059770E+03  0.92605059771E+03  0.50400001928E-02 0. -1.
       -1   -1    0    0    0  501  0.00000000000E+00  0.00000000000E+00 -0.11896925880E+04  0.11896925880E+04  0.50400001928E-02 0.  1.
    10030    2    1    2    0    0  0.00000000000E+00  0.00000000000E+00 -0.26364199033E+03  0.21157431857E+04  0.20992527549E+04 0.  0.
        3    1    3    3  502    0  0.29335553551E+03 -0.83750534379E+03  0.43315620506E+03  0.98746998905E+03  0.10100000352E+00 0. -1.
       -3    1    3    3    0  502 -0.29335553551E+03  0.83750534379E+03 -0.69679819539E+03  0.11282731967E+04  0.10100000352E+00 0.  1.
</event>
<event>
 5   0  0.2699285E-05  0.2022202E+04  0.7818609E-02  0.8596310E-01
       -1   -1    0    0    0  501  0.00000000000E+00  0.00000000000E+00  0.79044217904E+03  0.79044217906E+03  0.50400001928E-02 0.  1.
        1   -1    0    0  501    0  0.00000000000E+00  0.00000000000E+00 -0.12933586845E+04  0.12933586845E+04  0.50400001928E-02 0. -1.
    10030    2    1    2    0    0  0.00000000000E+00  0.00000000000E+00 -0.50291650549E+03  0.20838008636E+04  0.20222020244E+04 0.  0.
        2    1    3    3  502    0  0.45274248951E+03  0.88100390705E+03 -0.46057236285E+03  0.10923692359E+04  0.25500000920E-02 0. -1.
       -2    1    3    3    0  502 -0.45274248951E+03 -0.88100390705E+03 -0.42344142644E+02  0.99143162773E+03  0.25500000920E-02 0.  1.
</event>
<event>
 5   0  0.2699285E-05  0.2086601E+04  0.7818609E-02  0.8567169E-01
        1   -1    0    0  501    0  0.00000000000E+00  0.00000000000E+00  0.87440322352E+03  0.87440322353E+03  0.50400001928E-02 0.  1.
       -1   -1    0    0    0  501  0.00000000000E+00  0.00000000000E+00 -0.12448211461E+04  0.12448211462E+04  0.50400001928E-02 0. -1.
    10030    2    1    2    0    0  0.00000000000E+00  0.00000000000E+00 -0.37041792262E+03  0.21192243697E+04  0.20866007025E+04 0.  0.
        2    1    3    3  502    0 -0.96835852046E+03  0.38149273234E+03 -0.25859301645E+03  0.10724389387E+04  0.25500000920E-02 0.  1.
       -2    1    3    3    0  502  0.96835852046E+03 -0.38149273234E+03 -0.11182490617E+03  0.10467854310E+04  0.25500000920E-02 0. -1.
</event>
<event>
 5   0  0.2602060E-05  0.2155990E+04  0.7818609E-02  0.8536972E-01
       -1   -1    0    0    0  501  0.00000000000E+00  0.00000000000E+00  0.79727043261E+03  0.79727043262E+03  0.50400001928E-02 0. -1.
        1   -1    0    0  501    0  0.00000000000E+00  0.00000000000E+00 -0.14575650931E+04  0.14575650931E+04  0.50400001928E-02 0.  1.
    10030    2    1    2    0    0  0.00000000000E+00  0.00000000000E+00 -0.66029466053E+03  0.22548355258E+04  0.21559903083E+04 0.  0.
        1    1    3    3  502    0  0.57757072516E+03  0.80290261923E+03 -0.77856198189E+03  0.12587292474E+04  0.50400001928E-02 0.  1.
       -1    1    3    3    0  502 -0.57757072516E+03 -0.80290261923E+03  0.11826732136E+03  0.99610627840E+03  0.50400001928E-02 0. -1.
</event>
<event>
 5   0  0.2604390E-05  0.2109307E+04  0.7818609E-02  0.8557155E-01
       -1   -1    0    0    0  501  0.00000000000E+00  0.00000000000E+00  0.87009197963E+03  0.87009197965E+03  0.50400001928E-02 0.  1.
        1   -1    0    0  501    0  0.00000000000E+00  0.00000000000E+00 -0.12783638988E+04  0.12783638988E+04  0.50400001928E-02 0. -1.
    10030    2    1    2    0    0  0.00000000000E+00  0.00000000000E+00 -0.40827191915E+03  0.21484558784E+04  0.21093071615E+04 0.  0.
        5    1    3    3  502    0  0.18766478470E+03  0.89321191435E+03 -0.74236226611E+03  0.11765072968E+04  0.46999998093E+01 0. -1.
       -5    1    3    3    0  502 -0.18766478470E+03 -0.89321191435E+03  0.33409034697E+03  0.97194858160E+03  0.46999998093E+01 0.  1.
</event>
<event>
 5   0  0.2699285E-05  0.2103705E+04  0.7818609E-02  0.8559613E-01
        1   -1    0    0  501    0  0.00000000000E+00  0.00000000000E+00  0.15638622041E+04  0.15638622041E+04  0.50400001928E-02 0. -1.
       -1   -1    0    0    0  501  0.00000000000E+00  0.00000000000E+00 -0.70747517386E+03  0.70747517388E+03  0.50400001928E-02 0.  1.
    10030    2    1    2    0    0  0.00000000000E+00  0.00000000000E+00  0.85638703022E+03  0.22713373780E+04  0.21037050029E+04 0.  0.
        2    1    3    3  502    0  0.10511156197E+04 -0.24088423372E+02  0.39457757038E+03  0.11229941038E+04  0.25500000920E-02 0. -1.
       -2    1    3    3    0  502 -0.10511156197E+04  0.24088423372E+02  0.46180945984E+03  0.11483432742E+04  0.25500000920E-02 0.  1.
</event>
<event>
 5   0  0.5967046E-05  0.2101427E+04  0.7818609E-02  0.8560615E-01
        2   -1    0    0  501    0  0.00000000000E+00  0.00000000000E+00  0.16729295351E+04  0.16729295351E+04  0.25500000920E-02 0.  1.
       -2   -1    0    0    0  501  0.00000000000E+00  0.00000000000E+00 -0.65991953043E+03  0.65991953044E+03  0.25500000920E-02 0. -1.
    10030    2    1    2    0    0  0.00000000000E+00  0.00000000000E+00  0.10130100047E+04  0.23328490656E+04  0.21014270135E+04 0.  0.
        4    1    3    3  502    0  0.71962373238E+03 -0.69940832970E+03  0.16081711782E+03  0.10163139703E+04  0.12699999809E+01 0. -1.
       -4    1    3    3    0  502 -0.71962373238E+03  0.69940832970E+03  0.85219288687E+03  0.13165350953E+04  0.12699999809E+01 0.  1.
</event>
<event>
 5   0  0.5967046E-05  0.2096853E+04  0.7818609E-02  0.8562631E-01
       -2   -1    0    0    0  501  0.00000000000E+00  0.00000000000E+00  0.68982859486E+03  0.68982859486E+03  0.25500000920E-02 0.  1.
        2   -1    0    0  501    0  0.00000000000E+00  0.00000000000E+00 -0.15934368604E+04  0.15934368604E+04  0.25500000920E-02 0. -1.
    10030    2    1    2    0    0  0.00000000000E+00  0.00000000000E+00 -0.90360826558E+03  0.22832654553E+04  0.20968531760E+04 0.  0.
        4    1    3    3  502    0 -0.29448744642E+03 -0.94944804684E+03 -0.81462594841E+03  0.12852204085E+04  0.12699999809E+01 0. -1.
       -4    1    3    3    0  502  0.29448744642E+03  0.94944804684E+03 -0.88982317173E+02  0.99804504679E+03  0.12699999809E+01 0.  1.
</event>
<event>
 5   0  0.5462851E-05  0.2118210E+04  0.7818609E-02  0.8553264E-01
        2   -1    0    0  501    0  0.00000000000E+00  0.00000000000E+00  0.84115751474E+03  0.84115751474E+03  0.25500000920E-02 0. -1.
       -2   -1    0    0    0  501  0.00000000000E+00  0.00000000000E+00 -0.13335239541E+04  0.13335239541E+04  0.25500000920E-02 0.  1.
    10030    2    1    2    0    0  0.00000000000E+00  0.00000000000E+00 -0.49236643935E+03  0.21746814688E+04  0.21182102776E+04 0.  0.
        1    1    3    3  502    0 -0.34661140551E+03 -0.98564939421E+03 -0.68184261179E+02  0.10470402515E+04  0.50400001928E-02 0.  1.
       -1    1    3    3    0  502  0.34661140551E+03  0.98564939421E+03 -0.42418217817E+03  0.11276412173E+04  0.50400001928E-02 0. -1.
</event>
<event>
 5   0  0.2789662E-05  0.2051836E+04  0.7818609E-02  0.8582762E-01
       -1   -1    0    0    0  501  0.00000000000E+00  0.00000000000E+00  0.66466578454E+03  0.66466578456E+03  0.50400001928E-02 0. -1.
        1   -1    0    0  501    0  0.00000000000E+00  0.00000000000E+00 -0.15835138987E+04  0.15835138987E+04  0.50400001928E-02 0.  1.
    10030    2    1    2    0    0  0.00000000000E+00  0.00000000000E+00 -0.91884811414E+03  0.22481796832E+04  0.20518357710E+04 0.  0.
        4    1    3    3  502    0 -0.21563268120E+03  0.41647340629E+03 -0.14591840659E+04  0.15326993516E+04  0.12699999809E+01 0.  1.
       -4    1    3    3    0  502  0.21563268120E+03 -0.41647340629E+03  0.54033595174E+03  0.71548033166E+03  0.12699999809E+01 0. -1.
</event>
<event>
 5   0  0.2789662E-05  0.2095390E+04  0.7818609E-02  0.8563277E-01
       -1   -1    0    0    0  501  0.00000000000E+00  0.00000000000E+00  0.44474995768E+03  0.44474995771E+03  0.50400001928E-02 0. -1.
        1   -1    0    0  501    0  0.00000000000E+00  0.00000000000E+00 -0.24680491469E+04  0.24680491469E+04  0.50400001928E-02 0.  1.
    10030    2    1    2    0    0  0.00000000000E+00  0.00000000000E+00 -0.20232991892E+04  0.29127991046E+04  0.20953899434E+04 0.  0.
        4    1    3    3  502    0  0.94427238418E+03 -0.44149941461E+03 -0.11580466842E+04  0.15580904352E+04  0.12699999809E+01 0. -1.
       -4    1    3    3    0  502 -0.94427238418E+03  0.44149941461E+03 -0.86525250501E+03  0.13547086694E+04  0.12699999809E+01 0.  1.
</event>
<event>
 5   0  0.5866610E-05  0.2093210E+04  0.7818609E-02  0.8564240E-01
        2   -1    0    0  501    0  0.00000000000E+00  0.00000000000E+00  0.25337163222E+04  0.25337163222E+04  0.25500000920E-02 0.  1.
       -2   -1    0    0    0  501  0.00000000000E+00  0.00000000000E+00 -0.43232214124E+03  0.43232214125E+03  0.25500000920E-02 0. -1.
    10030    2    1    2    0    0  0.00000000000E+00  0.00000000000E+00  0.21013941809E+04  0.29660384634E+04  0.20932096557E+04 0.  0.
        5    1    3    3  502    0  0.83075799992E+03  0.62613953109E+03  0.88820692822E+03  0.13678973661E+04  0.46999998093E+01 0.  1.
       -5    1    3    3    0  502 -0.83075799992E+03 -0.62613953109E+03  0.12131872527E+04  0.15981410973E+04  0.46999998093E+01 0. -1.
</event>
<event>
 5   0  0.2604390E-05  0.2114949E+04  0.7818609E-02  0.8554687E-01
        1   -1    0    0  501    0  0.00000000000E+00  0.00000000000E+00  0.11725118263E+04  0.11725118263E+04  0.50400001928E-02 0.  1.
       -1   -1    0    0    0  501  0.00000000000E+00  0.00000000000E+00 -0.95372339671E+03  0.95372339672E+03  0.50400001928E-02 0. -1.
    10030    2    1    2    0    0  0.00000000000E+00  0.00000000000E+00  0.21878842959E+03  0.21262352230E+04  0.21149486629E+04 0.  0.
        5    1    3    3  502    0  0.51459963510E+03  0.81533696042E+03  0.54604225242E+03  0.11080484533E+04  0.46999998093E+01 0.  1.
       -5    1    3    3    0  502 -0.51459963510E+03 -0.81533696042E+03 -0.32725382283E+03  0.10181867697E+04  0.46999998093E+01 0. -1.
</event>
<event>
 5   0  0.2017750E-05  0.2071619E+04  0.7818609E-02  0.8573850E-01
       -3   -1    0    0    0  501  0.00000000000E+00  0.00000000000E+00  0.12443881141E+04  0.12443881182E+04  0.10100000352E+00 0.  1.
        3   -1    0    0  501    0  0.00000000000E+00  0.00000000000E+00 -0.86219180757E+03  0.86219181349E+03  0.10100000352E+00 0. -1.
    10030    2    1    2    0    0  0.00000000000E+00  0.00000000000E+00  0.38219630649E+03  0.21065799316E+04  0.20716189301E+04 0.  0.
        4    1    3    3  502    0 -0.14426189244E+02  0.67256291496E+03  0.99201363911E+03  0.11985998759E+04  0.12699999809E+01 0.  1.
       -4    1    3    3    0  502  0.14426189244E+02 -0.67256291496E+03 -0.60981733262E+03  0.90798005572E+03  0.12699999809E+01 0. -1.
</event>
<event>
 5   0  0.5954140E-05  0.2097368E+04  0.7818609E-02  0.8562404E-01
       -2   -1    0    0    0  501  0.00000000000E+00  0.00000000000E+00  0.76651719919E+03  0.76651719919E+03  0.25500000920E-02 0.  1.
        2   -1    0    0  501    0  0.00000000000E+00  0.00000000000E+00 -0.14347202764E+04  0.14347202764E+04  0.25500000920E-02 0. -1.
    10030    2    1    2    0    0  0.00000000000E+00  0.00000000000E+00 -0.66820307724E+03  0.22012374756E+04  0.20973676530E+04 0.  0.
        2    1    3    3  502    0  0.31102658323E+03  0.45752795012E+03 -0.12691021155E+04  0.13844455714E+04  0.25500000920E-02 0. -1.
       -2    1    3    3    0  502 -0.31102658323E+03 -0.45752795012E+03  0.60089903825E+03  0.81679190422E+03  0.25500000920E-02 0.  1.
</event>
<event>
 5   0  0.2732159E-05  0.2107587E+04  0.7818609E-02  0.8557909E-01
        1   -1    0    0  501    0  0.00000000000E+00  0.00000000000E+00  0.22408974984E+04  0.22408974984E+04  0.50400001928E-02 0.  1.
       -1   -1    0    0    0  501  0.00000000000E+00  0.00000000000E+00 -0.49555177615E+03  0.49555177618E+03  0.50400001928E-02 0. -1.
    10030    2    1    2    0    0  0.00000000000E+00  0.00000000000E+00  0.17453457222E+04  0.27364492745E+04  0.21075869952E+04 0.  0.
        3    1    3    3  502    0  0.14459718695E+03 -0.85238436063E+03  0.90391200824E+02  0.86927442393E+03  0.10100000352E+00 0. -1.
       -3    1    3    3    0  502 -0.14459718695E+03  0.85238436063E+03  0.16549545214E+04  0.18671748506E+04  0.10100000352E+00 0.  1.
</event>
<event>
 5   0  0.5506332E-05  0.2117545E+04  0.7818609E-02  0.8553554E-01
        2   -1    0    0  501    0  0.00000000000E+00  0.00000000000E+00  0.12070173767E+04  0.12070173767E+04  0.25500000920E-02 0.  1.
       -2   -1    0    0    0  501  0.00000000000E+00  0.00000000000E+00 -0.92873488902E+03  0.92873488902E+03  0.25500000920E-02 0. -1.
    10030    2    1    2    0    0  0.00000000000E+00  0.00000000000E+00  0.27828248765E+03  0.21357522657E+04  0.21175449458E+04 0.  0.
        3    1    3    3  502    0 -0.87217890518E+03 -0.24336844332E+03 -0.41427959977E+03  0.99576696010E+03  0.10100000352E+00 0. -1.
       -3    1    3    3    0  502  0.87217890518E+03  0.24336844332E+03  0.69256208742E+03  0.11399853056E+04  0.10100000352E+00 0.  1.
</event>
<event>
 5   0  0.5967046E-05  0.2127382E+04  0.7818609E-02  0.8549276E-01
       -2   -1    0    0    0  501  0.00000000000E+00  0.00000000000E+00  0.11003361860E+04  0.11003361860E+04  0.25500000920E-02 0. -1.
        2   -1    0    0  501    0  0.00000000000E+00  0.00000000000E+00 -0.10282664793E+04  0.10282664793E+04  0.25500000920E-02 0.  1.
    10030    2    1    2    0    0  0.00000000000E+00  0.00000000000E+00  0.72069706681E+02  0.21286026652E+04  0.21273822562E+04 0.  0.
        4    1    3    3  502    0 -0.16819523171E+03 -0.27069776755E+02  0.10865966055E+04  0.10998709946E+04  0.12699999809E+01 0. -1.
       -4    1    3    3    0  502  0.16819523171E+03  0.27069776755E+02 -0.10145268988E+04  0.10287316706E+04  0.12699999809E+01 0.  1.
</event>
<event>
 5   0  0.5967046E-05  0.2117374E+04  0.7818609E-02  0.8553628E-01
        2   -1    0    0  501    0  0.00000000000E+00  0.00000000000E+00  0.15469676114E+04  0.15469676114E+04  0.25500000920E-02 0. -1.
       -2   -1    0    0    0  501  0.00000000000E+00  0.00000000000E+00 -0.72452627456E+03  0.72452627456E+03  0.25500000920E-02 0.  1.
    10030    2    1    2    0    0  0.00000000000E+00  0.00000000000E+00  0.82244133686E+03  0.22714938860E+04  0.21173744878E+04 0.  0.
        4    1    3    3  502    0  0.21965451699E+03 -0.20328499831E+03 -0.67819758933E+03  0.74130053315E+03  0.12699999809E+01 0.  1.
       -4    1    3    3    0  502 -0.21965451699E+03  0.20328499831E+03  0.15006389262E+04  0.15301933528E+04  0.12699999809E+01 0. -1.
</event>
<event>
 5   0  0.2699285E-05  0.2075815E+04  0.7818609E-02  0.8571973E-01
       -1   -1    0    0    0  501  0.00000000000E+00  0.00000000000E+00  0.10820833207E+04  0.10820833207E+04  0.50400001928E-02 0.  1.
        1   -1    0    0  501    0  0.00000000000E+00  0.00000000000E+00 -0.99553478315E+03  0.99553478316E+03  0.50400001928E-02 0. -1.
    10030    2    1    2    0    0  0.00000000000E+00  0.00000000000E+00  0.86548537519E+02  0.20776181038E+04  0.20758146199E+04 0.  0.
        2    1    3    3  502    0  0.88364278579E+03  0.30450301810E+03  0.49500321152E+03  0.10576269854E+04  0.25500000920E-02 0.  1.
       -2    1    3    3    0  502 -0.88364278579E+03 -0.30450301810E+03 -0.40845467400E+03  0.10199911184E+04  0.25500000920E-02 0. -1.
</event>
<event>
 5   0  0.5462851E-05  0.2103802E+04  0.7818609E-02  0.8559570E-01
       -2   -1    0    0    0  501  0.00000000000E+00  0.00000000000E+00  0.10120695350E+04  0.10120695350E+04  0.25500000920E-02 0.  1.
        2   -1    0    0  501    0  0.00000000000E+00  0.00000000000E+00 -0.10933003298E+04  0.10933003298E+04  0.25500000920E-02 0. -1.
    10030    2    1    2    0    0  0.00000000000E+00  0.00000000000E+00 -0.81230794855E+02  0.21053698648E+04  0.21038022306E+04 0.  0.
        1    1    3    3  502    0 -0.87738686466E+03  0.45429979807E+03  0.32062440680E+03  0.10387473355E+04  0.50400001928E-02 0.  1.
       -1    1    3    3    0  502  0.87738686466E+03 -0.45429979807E+03 -0.40185520166E+03  0.10666225293E+04  0.50400001928E-02 0. -1.
</event>
<event>
 5   0  0.2602060E-05  0.1874307E+04  0.7818609E-02  0.8667752E-01
        1   -1    0    0  501    0  0.00000000000E+00  0.00000000000E+00  0.10632487347E+04  0.10632487347E+04  0.50400001928E-02 0. -1.
       -1   -1    0    0    0  501  0.00000000000E+00  0.00000000000E+00 -0.82601249787E+03  0.82601249788E+03  0.50400001928E-02 0.  1.
    10030    2    1    2    0    0  0.00000000000E+00  0.00000000000E+00  0.23723623684E+03  0.18892612326E+04  0.18743070647E+04 0.  0.
        1    1    3    3  502    0 -0.78315969826E+03 -0.27086323463E+03 -0.32253889305E+03  0.88923413251E+03  0.50400001928E-02 0.  1.
       -1    1    3    3    0  502  0.78315969826E+03  0.27086323463E+03  0.55977512989E+03  0.10000271001E+04  0.50400001928E-02 0. -1.
</event>
<event>
 5   0  0.2604390E-05  0.2097437E+04  0.7818609E-02  0.8562373E-01
       -1   -1    0    0    0  501  0.00000000000E+00  0.00000000000E+00  0.11009262731E+04  0.11009262731E+04  0.50400001928E-02 0.  1.
        1   -1    0    0  501    0  0.00000000000E+00  0.00000000000E+00 -0.99898662748E+03  0.99898662749E+03  0.50400001928E-02 0. -1.
    10030    2    1    2    0    0  0.00000000000E+00  0.00000000000E+00  0.10193964558E+03  0.20999129006E+04  0.20974371263E+04 0.  0.
        5    1    3    3  502    0  0.70269610714E+03  0.38142340375E+03  0.73038922866E+03  0.10829386627E+04  0.46999998093E+01 0.  1.
       -5    1    3    3    0  502 -0.70269610714E+03 -0.38142340375E+03 -0.62844958308E+03  0.10169742378E+04  0.46999998093E+01 0. -1.
</event>
<event>
 5   0  0.5462851E-05  0.2084054E+04  0.7818609E-02  0.8568300E-01
       -2   -1    0    0    0  501  0.00000000000E+00  0.00000000000E+00  0.12830090071E+04  0.12830090071E+04  0.25500000920E-02 0. -1.
        2   -1    0    0  501    0  0.00000000000E+00  0.00000000000E+00 -0.84630770260E+03  0.84630770260E+03  0.25500000920E-02 0.  1.
    10030    2    1    2    0    0  0.00000000000E+00  0.00000000000E+00  0.43670130446E+03  0.21293167097E+04  0.20840541309E+04 0.  0.
        1    1    3    3  502    0 -0.59971284291E+03 -0.77305381289E+03 -0.14797884623E+03  0.98952788264E+03  0.50400001928E-02 0.  1.
       -1    1    3    3    0  502  0.59971284291E+03  0.77305381289E+03  0.58468015068E+03  0.11397888270E+04  0.50400001928E-02 0. -1.
</event>
<event>
 5   0  0.2604390E-05  0.2083423E+04  0.7818609E-02  0.8568581E-01
        1   -1    0    0  501    0  0.00000000000E+00  0.00000000000E+00  0.83992604760E+03  0.83992604762E+03  0.50400001928E-02 0. -1.
       -1   -1    0    0    0  501  0.00000000000E+00  0.00000000000E+00 -0.12919744451E+04  0.12919744451E+04  0.50400001928E-02 0.  1.
    10030    2    1    2    0    0  0.00000000000E+00  0.00000000000E+00 -0.45204839745E+03  0.21319004927E+04  0.20834231344E+04 0.  0.
        5    1    3    3  502    0  0.20091631930E+03 -0.93636015090E+03 -0.64544331832E+03  0.11548839191E+04  0.46999998093E+01 0.  1.
       -5    1    3    3    0  502 -0.20091631930E+03  0.93636015090E+03  0.19339492087E+03  0.97701657353E+03  0.46999998093E+01 0. -1.
</event>
<event>
 5   0  0.2604390E-05  0.2117245E+04  0.7818609E-02  0.8553685E-01
        1   -1    0    0  501    0  0.00000000000E+00  0.00000000000E+00  0.87856696862E+03  0.87856696864E+03  0.50400001928E-02 0.  1.
       -1   -1    0    0    0  501  0.00000000000E+00  0.00000000000E+00 -0.12755788098E+04  0.12755788098E+04  0.50400001928E-02 0. -1.
    10030    2    1    2    0    0  0.00000000000E+00  0.00000000000E+00 -0.39701184118E+03  0.21541457785E+04  0.21172448212E+04 0.  0.
        5    1    3    3  502    0 -0.18455685151E+03 -0.10305580532E+04 -0.35791524147E+03  0.11064522324E+04  0.46999998093E+01 0. -1.
       -5    1    3    3    0  502  0.18455685151E+03  0.10305580532E+04 -0.39096599719E+02  0.10476935461E+04  0.46999998093E+01 0.  1.
</event>
<event>
 5   0  0.2789662E-05  0.2089960E+04  0.7818609E-02  0.8565679E-01
        1   -1    0    0  501    0  0.00000000000E+00  0.00000000000E+00  0.15601386295E+04  0.15601386295E+04  0.50400001928E-02 0.  1.
       -1   -1    0    0    0  501  0.00000000000E+00  0.00000000000E+00 -0.69992673087E+03  0.69992673088E+03  0.50400001928E-02 0. -1.
    10030    2    1    2    0    0  0.00000000000E+00  0.00000000000E+00  0.86021189859E+03  0.22600653603E+04  0.20899595505E+04 0.  0.
        4    1    3    3  502    0  0.71089131372E+03 -0.65407734145E+03  0.86103416777E+03  0.12940498752E+04  0.12699999809E+01 0.  1.
       -4    1    3    3    0  502 -0.71089131372E+03  0.65407734145E+03 -0.82226918371E+00  0.96601548515E+03  0.12699999809E+01 0. -1.
</event>
<event>
 5   0  0.5866610E-05  0.2100138E+04  0.7818609E-02  0.8561183E-01
       -2   -1    0    0    0  501  0.00000000000E+00  0.00000000000E+00  0.13985778522E+04  0.13985778522E+04  0.25500000920E-02 0. -1.
        2   -1    0    0  501    0  0.00000000000E+00  0.00000000000E+00 -0.78840446097E+03  0.78840446097E+03  0.25500000920E-02 0.  1.
    10030    2    1    2    0    0  0.00000000000E+00  0.00000000000E+00  0.61017339121E+03  0.21869823131E+04  0.21001381075E+04 0.  0.
        5    1    3    3  502    0 -0.56524339020E+03  0.35619556309E+03  0.11486763901E+04  0.13288547357E+04  0.46999998093E+01 0.  1.
       -5    1    3    3    0  502  0.56524339020E+03 -0.35619556309E+03 -0.53850299892E+03  0.85812757745E+03  0.46999998093E+01 0. -1.
</event>
<event>
 5   0  0.5462851E-05  0.2056473E+04  0.7818609E-02  0.8580663E-01
        2   -1    0    0  501    0  0.00000000000E+00  0.00000000000E+00  0.12082351427E+04  0.12082351427E+04  0.25500000920E-02 0.  1.
       -2   -1    0    0    0  501  0.00000000000E+00  0.00000000000E+00 -0.87505381895E+03  0.87505381896E+03  0.25500000920E-02 0. -1.
    10030    2    1    2    0    0  0.00000000000E+00  0.00000000000E+00  0.33318132370E+03  0.20832889616E+04  0.20564734628E+04 0.  0.
        1    1    3    3  502    0 -0.88522373064E+03  0.43177966380E+02 -0.36153765432E+03  0.95718068596E+03  0.50400001928E-02 0. -1.
       -1    1    3    3    0  502  0.88522373064E+03 -0.43177966380E+02  0.69471897802E+03  0.11261082757E+04  0.50400001928E-02 0.  1.
</event>
<event>
 5   0  0.2699285E-05  0.2098804E+04  0.7818609E-02  0.8561770E-01
       -1   -1    0    0    0  501  0.00000000000E+00  0.00000000000E+00  0.49366937285E+03  0.49366937288E+03  0.50400001928E-02 0. -1.
        1   -1    0    0  501    0  0.00000000000E+00  0.00000000000E+00 -0.22307331567E+04  0.22307331567E+04  0.50400001928E-02 0.  1.
    10030    2    1    2    0    0  0.00000000000E+00  0.00000000000E+00 -0.17370637838E+04  0.27244025296E+04  0.20988040771E+04 0.  0.
        2    1    3    3  502    0  0.10099262288E+03 -0.81896908559E+03 -0.26948742102E+02  0.82561256515E+03  0.25500000920E-02 0. -1.
       -2    1    3    3    0  502 -0.10099262288E+03  0.81896908559E+03 -0.17101150417E+04  0.18987899644E+04  0.25500000920E-02 0.  1.
</event>
<event>
 5   0  0.2604390E-05  0.2099505E+04  0.7818609E-02  0.8561461E-01
        1   -1    0    0  501    0  0.00000000000E+00  0.00000000000E+00  0.85629765360E+03  0.85629765361E+03  0.50400001928E-02 0. -1.
       -1   -1    0    0    0  501  0.00000000000E+00  0.00000000000E+00 -0.12869129311E+04  0.12869129311E+04  0.50400001928E-02 0.  1.
    10030    2    1    2    0    0  0.00000000000E+00  0.00000000000E+00 -0.43061527749E+03  0.21432105847E+04  0.20995052020E+04 0.  0.
        5    1    3    3  502    0  0.44287418253E+03 -0.35175176277E+03  0.68746148723E+03  0.89022032699E+03  0.46999998093E+01 0. -1.
       -5    1    3    3    0  502 -0.44287418253E+03  0.35175176277E+03 -0.11180767647E+04  0.12529902577E+04  0.46999998093E+01 0.  1.
</event>
<event>
 5   0  0.5506332E-05  0.2083762E+04  0.7818609E-02  0.8568430E-01
       -2   -1    0    0    0  501  0.00000000000E+00  0.00000000000E+00  0.63735816581E+03  0.63735816582E+03  0.25500000920E-02 0.  1.
        2   -1    0    0  501    0  0.00000000000E+00  0.00000000000E+00 -0.17031493979E+04  0.17031493979E+04  0.25500000920E-02 0. -1.
    10030    2    1    2    0    0  0.00000000000E+00  0.00000000000E+00 -0.10657912321E+04  0.23405075637E+04  0.20837621518E+04 0.  0.
        3    1    3    3  502    0 -0.62758822110E+03  0.38010516101E+03 -0.13637458525E+04  0.15485960316E+04  0.10100000352E+00 0. -1.
       -3    1    3    3    0  502  0.62758822110E+03 -0.38010516101E+03  0.29795462041E+03  0.79191153212E+03  0.10100000352E+00 0.  1.
</event>
<event>
 5   0  0.5462851E-05  0.2111295E+04  0.7818609E-02  0.8556284E-01
        2   -1    0    0  501    0  0.00000000000E+00  0.00000000000E+00  0.16002966682E+04  0.16002966682E+04  0.25500000920E-02 0.  1.
       -2   -1    0    0    0  501  0.00000000000E+00  0.00000000000E+00 -0.69636590832E+03  0.69636590832E+03  0.25500000920E-02 0. -1.
    10030    2    1    2    0    0  0.00000000000E+00  0.00000000000E+00  0.90393075991E+03  0.22966625766E+04  0.21112953777E+04 0.  0.
        1    1    3    3  502    0  0.10223499738E+04 -0.45107751741E+01  0.16586787151E+03  0.10357277474E+04  0.50400001928E-02 0.  1.
       -1    1    3    3    0  502 -0.10223499738E+04  0.45107751741E+01  0.73806288840E+03  0.12609348291E+04  0.50400001928E-02 0. -1.
</event>
<event>
 5   0  0.2017750E-05  0.2104410E+04  0.7818609E-02  0.8559303E-01
       -3   -1    0    0    0  501  0.00000000000E+00  0.00000000000E+00  0.69324987951E+03  0.69324988687E+03  0.10100000352E+00 0.  1.
        3   -1    0    0  501    0  0.00000000000E+00  0.00000000000E+00 -0.15970227201E+04  0.15970227233E+04  0.10100000352E+00 0. -1.
    10030    2    1    2    0    0  0.00000000000E+00  0.00000000000E+00 -0.90377284063E+03  0.22902726102E+04  0.21044104356E+04 0.  0.
        1    1    3    3  502    0  0.54970866199E+03 -0.61607650357E+03 -0.11617232225E+04  0.14252475985E+04  0.50400001928E-02 0. -1.
       -1    1    3    3    0  502 -0.54970866199E+03  0.61607650357E+03  0.25795038187E+03  0.86502501169E+03  0.50400001928E-02 0.  1.
</event>
<event>
 5   0  0.2699285E-05  0.2105255E+04  0.7818609E-02  0.8558932E-01
       -1   -1    0    0    0  501  0.00000000000E+00  0.00000000000E+00  0.54317541120E+03  0.54317541122E+03  0.50400001928E-02 0. -1.
        1   -1    0    0  501    0  0.00000000000E+00  0.00000000000E+00 -0.20399021983E+04  0.20399021983E+04  0.50400001928E-02 0.  1.
    10030    2    1    2    0    0  0.00000000000E+00  0.00000000000E+00 -0.14967267871E+04  0.25830776095E+04  0.21052550586E+04 0.  0.
        2    1    3    3  502    0 -0.60302869489E+03  0.18696932306E+03  0.28507726838E+03  0.69272662975E+03  0.25500000920E-02 0. -1.
       -2    1    3    3    0  502  0.60302869489E+03 -0.18696932306E+03 -0.17818040555E+04  0.18903509798E+04  0.25500000920E-02 0.  1.
</event>
<event>
 5   0  0.2604390E-05  0.2119884E+04  0.7818609E-02  0.8552535E-01
       -1   -1    0    0    0  501  0.00000000000E+00  0.00000000000E+00  0.57563510806E+03  0.57563510808E+03  0.50400001928E-02 0. -1.
        1   -1    0    0  501    0  0.00000000000E+00  0.00000000000E+00 -0.19517175769E+04  0.19517175769E+04  0.50400001928E-02 0.  1.
    10030    2    1    2    0    0  0.00000000000E+00  0.00000000000E+00 -0.13760824689E+04  0.25273526850E+04  0.21198841085E+04 0.  0.
        5    1    3    3  502    0 -0.63308946927E+02 -0.78001080042E+03 -0.15403108649E+04  0.17277165630E+04  0.46999998093E+01 0.  1.
       -5    1    3    3    0  502  0.63308946927E+02  0.78001080042E+03  0.16422839606E+03  0.79963612200E+03  0.46999998093E+01 0. -1.
</event>
<event>
 5   0  0.2699285E-05  0.2123343E+04  0.7818609E-02  0.8551030E-01
        1   -1    0    0  501    0  0.00000000000E+00  0.00000000000E+00  0.68019986609E+03  0.68019986611E+03  0.50400001928E-02 0.  1.
       -1   -1    0    0    0  501  0.00000000000E+00  0.00000000000E+00 -0.16570806113E+04  0.16570806113E+04  0.50400001928E-02 0. -1.
    10030    2    1    2    0    0  0.00000000000E+00  0.00000000000E+00 -0.97688074521E+03  0.23372804774E+04  0.21233426572E+04 0.  0.
        2    1    3    3  502    0 -0.79412924711E+02  0.84313752386E+03 -0.11932321157E+04  0.14632122808E+04  0.25500000920E-02 0. -1.
       -2    1    3    3    0  502  0.79412924711E+02 -0.84313752386E+03  0.21635137052E+03  0.87406819659E+03  0.25500000920E-02 0.  1.
</event>
<event>
 5   0  0.2604390E-05  0.2096075E+04  0.7818609E-02  0.8562974E-01
        1   -1    0    0  501    0  0.00000000000E+00  0.00000000000E+00  0.17513272562E+04  0.17513272562E+04  0.50400001928E-02 0. -1.
       -1   -1    0    0    0  501  0.00000000000E+00  0.00000000000E+00 -0.62717159183E+03  0.62717159185E+03  0.50400001928E-02 0.  1.
    10030    2    1    2    0    0  0.00000000000E+00  0.00000000000E+00  0.11241556644E+04  0.23784988481E+04  0.20960750971E+04 0.  0.
        5    1    3    3  502    0  0.47291663443E+03  0.84244943503E+03  0.10115931684E+03  0.97140439112E+03  0.46999998093E+01 0.  1.
       -5    1    3    3    0  502 -0.47291663443E+03 -0.84244943503E+03  0.10229963476E+04  0.14070944570E+04  0.46999998093E+01 0. -1.
</event>
<event>
 5   0  0.2699285E-05  0.2096649E+04  0.7818609E-02  0.8562721E-01
       -1   -1    0    0    0  501  0.00000000000E+00  0.00000000000E+00  0.50654048178E+03  0.50654048181E+03  0.50400001928E-02 0. -1.
        1   -1    0    0  501    0  0.00000000000E+00  0.00000000000E+00 -0.21695875711E+04  0.21695875711E+04  0.50400001928E-02 0.  1.
    10030    2    1    2    0    0  0.00000000000E+00  0.00000000000E+00 -0.16630470893E+04  0.26761280529E+04  0.20966486912E+04 0.  0.
        2    1    3    3  502    0  0.70957734021E+03 -0.14963177894E+03  0.13473701608E+03  0.73759320396E+03  0.25500000920E-02 0. -1.
       -2    1    3    3    0  502 -0.70957734021E+03  0.14963177894E+03 -0.17977841054E+04  0.19385348490E+04  0.25500000920E-02 0.  1.
</event>
<event>
 5   0  0.5506332E-05  0.2071162E+04  0.7818609E-02  0.8574054E-01
        2   -1    0    0  501    0  0.00000000000E+00  0.00000000000E+00  0.10743695050E+04  0.10743695050E+04  0.25500000920E-02 0.  1.
       -2   -1    0    0    0  501  0.00000000000E+00  0.00000000000E+00 -0.99819334346E+03  0.99819334346E+03  0.25500000920E-02 0. -1.
    10030    2    1    2    0    0  0.00000000000E+00  0.00000000000E+00  0.76176161518E+02  0.20725628484E+04  0.20711624642E+04 0.  0.
        3    1    3    3  502    0  0.37851159317E+03 -0.19030669002E+03  0.98368245464E+03  0.10710363412E+04  0.10100000352E+00 0.  1.
       -3    1    3    3    0  502 -0.37851159317E+03  0.19030669002E+03 -0.90750629312E+03  0.10015265072E+04  0.10100000352E+00 0. -1.
</event>
<event>
 5   0  0.5954140E-05  0.2091119E+04  0.7818609E-02  0.8565166E-01
       -2   -1    0    0    0  501  0.00000000000E+00  0.00000000000E+00  0.14606554516E+04  0.14606554516E+04  0.25500000920E-02 0. -1.
        2   -1    0    0  501    0  0.00000000000E+00  0.00000000000E+00 -0.74842739880E+03  0.74842739880E+03  0.25500000920E-02 0.  1.
    10030    2    1    2    0    0  0.00000000000E+00  0.00000000000E+00  0.71222805280E+03  0.22090828504E+04  0.20911188969E+04 0.  0.
        2    1    3    3  502    0  0.43168025230E+03 -0.94043718365E+03  0.19791789523E+03  0.10535375788E+04  0.25500000920E-02 0. -1.
       -2    1    3    3    0  502 -0.43168025230E+03  0.94043718365E+03  0.51431015758E+03  0.11555452716E+04  0.25500000920E-02 0.  1.
</event>
<event>
 5   0  0.5462851E-05  0.2095129E+04  0.7818609E-02  0.8563392E-01
        2   -1    0    0  501    0  0.00000000000E+00  0.00000000000E+00  0.26902234169E+04  0.26902234169E+04  0.25500000920E-02 0.  1.
       -2   -1    0    0    0  501  0.00000000000E+00  0.00000000000E+00 -0.40791849646E+03  0.40791849647E+03  0.25500000920E-02 0. -1.
    10030    2    1    2    0    0  0.00000000000E+00  0.00000000000E+00  0.22823049204E+04  0.30981419133E+04  0.20951294865E+04 0.  0.
        1    1    3    3  502    0 -0.73495187425E+03  0.71998229631E+03  0.14326663874E+04  0.17638202125E+04  0.50400001928E-02 0. -1.
       -1    1    3    3    0  502  0.73495187425E+03 -0.71998229631E+03  0.84963853297E+03  0.13343217008E+04  0.50400001928E-02 0.  1.
</event>
<event>
 5   0  0.2699285E-05  0.2166302E+04  0.7818609E-02  0.8532586E-01
        1   -1    0    0  501    0  0.00000000000E+00  0.00000000000E+00  0.15350072385E+04  0.15350072385E+04  0.50400001928E-02 0.  1.
       -1   -1    0    0    0  501  0.00000000000E+00  0.00000000000E+00 -0.76430646586E+03  0.76430646588E+03  0.50400001928E-02 0. -1.
    10030    2    1    2    0    0  0.00000000000E+00  0.00000000000E+00  0.77070077259E+03  0.22993137043E+04  0.21663018788E+04 0.  0.
        2    1    3    3  502    0  0.42166830634E+03  0.12078875692E+03 -0.66582291720E+03  0.79731690152E+03  0.25500000920E-02 0. -1.
       -2    1    3    3    0  502 -0.42166830634E+03 -0.12078875692E+03  0.14365236898E+04  0.15019968028E+04  0.25500000920E-02 0.  1.
</event>
<event>
 5   0  0.5967046E-05  0.1989191E+04  0.7818609E-02  0.8611691E-01
        2   -1    0    0  501    0  0.00000000000E+00  0.00000000000E+00  0.21737758927E+04  0.21737758927E+04  0.25500000920E-02 0.  1.
       -2   -1    0    0    0  501  0.00000000000E+00  0.00000000000E+00 -0.45506997466E+03  0.45506997467E+03  0.25500000920E-02 0. -1.
    10030    2    1    2    0    0  0.00000000000E+00  0.00000000000E+00  0.17187059180E+04  0.26288458674E+04  0.19891909314E+04 0.  0.
        4    1    3    3  502    0 -0.35041027251E+03  0.22225378857E+03 -0.33520941101E+03  0.53343328332E+03  0.12699999809E+01 0. -1.
       -4    1    3    3    0  502  0.35041027251E+03 -0.22225378857E+03  0.20539153291E+04  0.20954125841E+04  0.12699999809E+01 0.  1.
</event>
<event>
 5   0  0.2602060E-05  0.2144071E+04  0.7818609E-02  0.8542074E-01
       -1   -1    0    0    0  501  0.00000000000E+00  0.00000000000E+00  0.13023466765E+04  0.13023466766E+04  0.50400001928E-02 0. -1.
        1   -1    0    0  501    0  0.00000000000E+00  0.00000000000E+00 -0.88245340768E+03  0.88245340769E+03  0.50400001928E-02 0.  1.
    10030    2    1    2    0    0  0.00000000000E+00  0.00000000000E+00  0.41989326887E+03  0.21848000842E+04  0.21440711394E+04 0.  0.
        1    1    3    3  502    0  0.11478406683E+03 -0.86617200382E+03  0.84289901657E+03  0.12140461583E+04  0.50400001928E-02 0. -1.
       -1    1    3    3    0  502 -0.11478406683E+03  0.86617200382E+03 -0.42300574770E+03  0.97075392599E+03  0.50400001928E-02 0.  1.
</event>
<event>
 5   0  0.2789662E-05  0.2095935E+04  0.7818609E-02  0.8563036E-01
        1   -1    0    0  501    0  0.00000000000E+00  0.00000000000E+00  0.15212326170E+04  0.15212326170E+04  0.50400001928E-02 0. -1.
       -1   -1    0    0    0  501  0.00000000000E+00  0.00000000000E+00 -0.72193830843E+03  0.72193830845E+03  0.50400001928E-02 0.  1.
    10030    2    1    2    0    0  0.00000000000E+00  0.00000000000E+00  0.79929430853E+03  0.22431709254E+04  0.20959352111E+04 0.  0.
        4    1    3    3  502    0  0.44952626126E+02 -0.86127076178E+03 -0.23751146285E+03  0.89455093292E+03  0.12699999809E+01 0.  1.
       -4    1    3    3    0  502 -0.44952626126E+02  0.86127076178E+03  0.10368057714E+04  0.13486199925E+04  0.12699999809E+01 0. -1.
</event>
<event>
 5   0  0.5506332E-05  0.2151353E+04  0.7818609E-02  0.8538953E-01
       -2   -1    0    0    0  501  0.00000000000E+00  0.00000000000E+00  0.91052877653E+03  0.91052877654E+03  0.25500000920E-02 0.  1.
        2   -1    0    0  501    0  0.00000000000E+00  0.00000000000E+00 -0.12707780165E+04  0.12707780165E+04  0.25500000920E-02 0. -1.
    10030    2    1    2    0    0  0.00000000000E+00  0.00000000000E+00 -0.36024923996E+03  0.21813067930E+04  0.21513530186E+04 0.  0.
        3    1    3    3  502    0 -0.10333430284E+04  0.23834939883E+03 -0.36283260661E+03  0.11208281585E+04  0.10100000352E+00 0. -1.
       -3    1    3    3    0  502  0.10333430284E+04 -0.23834939883E+03  0.25833666544E+01  0.10604786345E+04  0.10100000352E+00 0.  1.
</event>
<event>
 5   0  0.2604390E-05  0.2091506E+04  0.7818609E-02  0.8564994E-01
        1   -1    0    0  501    0  0.00000000000E+00  0.00000000000E+00  0.18308446746E+04  0.18308446746E+04  0.50400001928E-02 0.  1.
       -1   -1    0    0    0  501  0.00000000000E+00  0.00000000000E+00 -0.59731959416E+03  0.59731959418E+03  0.50400001928E-02 0. -1.
    10030    2    1    2    0    0  0.00000000000E+00  0.00000000000E+00  0.12335250805E+04  0.24281642688E+04  0.20915060584E+04 0.  0.
        5    1    3    3  502    0 -0.71377395685E+03 -0.38922230783E+03  0.13803648530E+04  0.16019976541E+04  0.46999998093E+01 0.  1.
       -5    1    3    3    0  502  0.71377395685E+03  0.38922230783E+03 -0.14683977257E+03  0.82616661467E+03  0.46999998093E+01 0. -1.
</event>
<event>
 5   0  0.5506332E-05  0.2097315E+04  0.7818609E-02  0.8562427E-01
       -2   -1    0    0    0  501  0.00000000000E+00  0.00000000000E+00  0.79872876780E+03  0.79872876781E+03  0.25500000920E-02 0. -1.
        2   -1    0    0  501    0  0.00000000000E+00  0.00000000000E+00 -0.13767907260E+04  0.13767907260E+04  0.25500000920E-02 0.  1.
    10030    2    1    2    0    0  0.00000000000E+00  0.00000000000E+00 -0.57806195821E+03  0.21755194938E+04  0.20973148167E+04 0.  0.
        3    1    3    3  502    0  0.88370520743E+03 -0.52882751343E+03 -0.83949625651E+02  0.10332671399E+04  0.10100000352E+00 0. -1.
       -3    1    3    3    0  502 -0.88370520743E+03  0.52882751343E+03 -0.49411233256E+03  0.11422523539E+04  0.10100000352E+00 0.  1.
</event>
<event>
 5   0  0.2602060E-05  0.2090793E+04  0.7818609E-02  0.8565310E-01
        1   -1    0    0  501    0  0.00000000000E+00  0.00000000000E+00  0.10641388602E+04  0.10641388602E+04  0.50400001928E-02 0.  1.
       -1   -1    0    0    0  501  0.00000000000E+00  0.00000000000E+00 -0.10269839691E+04  0.10269839691E+04  0.50400001928E-02 0. -1.
    10030    2    1    2    0    0  0.00000000000E+00  0.00000000000E+00  0.37154891173E+02  0.20911228293E+04  0.20907927208E+04 0.  0.
        1    1    3    3  502    0  0.44234668631E+03  0.52003200695E+03 -0.77322278032E+03  0.10314927761E+04  0.50400001928E-02 0. -1.
       -1    1    3    3    0  502 -0.44234668631E+03 -0.52003200695E+03  0.81037767149E+03  0.10596300532E+04  0.50400001928E-02 0.  1.
</event>
<event>
 5   0  0.2604390E-05  0.2080122E+04  0.7818609E-02  0.8570051E-01
        1   -1    0    0  501    0  0.00000000000E+00  0.00000000000E+00  0.22591749250E+04  0.22591749250E+04  0.50400001928E-02 0. -1.
       -1   -1    0    0    0  501  0.00000000000E+00  0.00000000000E+00 -0.47881512425E+03  0.47881512428E+03  0.50400001928E-02 0.  1.
    10030    2    1    2    0    0  0.00000000000E+00  0.00000000000E+00  0.17803598007E+04  0.27379900493E+04  0.20801222295E+04 0.  0.
        5    1    3    3  502    0 -0.25469522551E+03  0.45333732839E+03 -0.29542305409E+03  0.59806459692E+03  0.46999998093E+01 0.  1.
       -5    1    3    3    0  502  0.25469522551E+03 -0.45333732839E+03  0.20757828548E+04  0.21399254523E+04  0.46999998093E+01 0. -1.
</event>
<event>
 5   0  0.5866610E-05  0.2099878E+04  0.7818609E-02  0.8561297E-01
        2   -1    0    0  501    0  0.00000000000E+00  0.00000000000E+00  0.22533455549E+04  0.22533455549E+04  0.25500000920E-02 0. -1.
       -2   -1    0    0    0  501  0.00000000000E+00  0.00000000000E+00 -0.48921545260E+03  0.48921545261E+03  0.25500000920E-02 0.  1.
    10030    2    1    2    0    0  0.00000000000E+00  0.00000000000E+00  0.17641301023E+04  0.27425610075E+04  0.20998775826E+04 0.  0.
        5    1    3    3  502    0 -0.10293872345E+04  0.16604867034E+03  0.10427639366E+04  0.14746487571E+04  0.46999998093E+01 0. -1.
       -5    1    3    3    0  502  0.10293872345E+04 -0.16604867034E+03  0.72136616572E+03  0.12679122504E+04  0.46999998093E+01 0.  1.
</event>
<event>
 5   0  0.2602060E-05  0.2108438E+04  0.7818609E-02  0.8557535E-01
       -1   -1    0    0    0  501  0.00000000000E+00  0.00000000000E+00  0.11592235074E+04  0.11592235074E+04  0.50400001928E-02 0. -1.
        1   -1    0    0  501    0  0.00000000000E+00  0.00000000000E+00 -0.95872623802E+03  0.95872623803E+03  0.50400001928E-02 0.  1.
    10030    2    1    2    0    0  0.00000000000E+00  0.00000000000E+00  0.20049726938E+03  0.21179497454E+04  0.21084382773E+04 0.  0.
        1    1    3    3  502    0 -0.62591949225E+03 -0.12391107207E+03  0.94322971090E+03  0.11387762959E+04  0.50400001928E-02 0. -1.
       -1    1    3    3    0  502  0.62591949225E+03  0.12391107207E+03 -0.74273244152E+03  0.97917344954E+03  0.50400001928E-02 0.  1.
</event>
<event>
 5   0  0.5866610E-05  0.2097562E+04  0.7818609E-02  0.8562318E-01
       -2   -1    0    0    0  501  0.00000000000E+00  0.00000000000E+00  0.79307052540E+03  0.79307052540E+03  0.25500000920E-02 0. -1.
        2   -1    0    0  501    0  0.00000000000E+00  0.00000000000E+00 -0.13869398874E+04  0.13869398874E+04  0.25500000920E-02 0.  1.
    10030    2    1    2    0    0  0.00000000000E+00  0.00000000000E+00 -0.59386936195E+03  0.21800104128E+04  0.20975615797E+04 0.  0.
        5    1    3    3  502    0 -0.18527269099E+03  0.28462173164E+02 -0.13693781300E+04  0.13821557865E+04  0.46999998093E+01 0.  1.
       -5    1    3    3    0  502  0.18527269099E+03 -0.28462173164E+02  0.77550876803E+03  0.79785462624E+03  0.46999998093E+01 0. -1.
</event>
<event>
 5   0  0.2699285E-05  0.2109880E+04  0.7818609E-02  0.8556904E-01
        1   -1    0    0  501    0  0.00000000000E+00  0.00000000000E+00  0.11916798741E+04  0.11916798741E+04  0.50400001928E-02 0. -1.
       -1   -1    0    0    0  501  0.00000000000E+00  0.00000000000E+00 -0.93389019653E+03  0.93389019655E+03  0.50400001928E-02 0.  1.
    10030    2    1    2    0    0  0.00000000000E+00  0.00000000000E+00  0.25778967757E+03  0.21255700707E+04  0.21098797614E+04 0.  0.
        2    1    3    3  502    0 -0.97513158368E+03  0.28654082635E+02 -0.27558247059E+03  0.10137299246E+04  0.25500000920E-02 0.  1.
       -2    1    3    3    0  502  0.97513158368E+03 -0.28654082635E+02  0.53337214817E+03  0.11118401461E+04  0.25500000920E-02 0. -1.
</event>
<event>
 5   0  0.2732159E-05  0.2120897E+04  0.7818609E-02  0.8552094E-01
        1   -1    0    0  501    0  0.00000000000E+00  0.00000000000E+00  0.25257566814E+04  0.25257566814E+04  0.50400001928E-02 0.  1.
       -1   -1    0    0    0  501  0.00000000000E+00  0.00000000000E+00 -0.44523321220E+03  0.44523321223E+03  0.50400001928E-02 0. -1.
    10030    2    1    2    0    0  0.00000000000E+00  0.00000000000E+00  0.20805234692E+04  0.29709898936E+04  0.21208967542E+04 0.  0.
        3    1    3    3  502    0 -0.90731375216E+02  0.97814310519E+03  0.48071501038E+03  0.10936558179E+04  0.10100000352E+00 0. -1.
       -3    1    3    3    0  502  0.90731375216E+02 -0.97814310519E+03  0.15998084588E+04  0.18773340757E+04  0.10100000352E+00 0.  1.
</event>
<event>
 5   0  0.2604390E-05  0.2110530E+04  0.7818609E-02  0.8556619E-01
        1   -1    0    0  501    0  0.00000000000E+00  0.00000000000E+00  0.97002317161E+03  0.97002317162E+03  0.50400001928E-02 0.  1.
       -1   -1    0    0    0  501  0.00000000000E+00  0.00000000000E+00 -0.11479974526E+04  0.11479974526E+04  0.50400001928E-02 0. -1.
    10030    2    1    2    0    0  0.00000000000E+00  0.00000000000E+00 -0.17797428101E+03  0.21180206243E+04  0.21105299145E+04 0.  0.
        5    1    3    3  502    0 -0.12172064015E+03 -0.62782075529E+01  0.96292522635E+03  0.97061960194E+03  0.46999998093E+01 0.  1.
       -5    1    3    3    0  502  0.12172064015E+03  0.62782075529E+01 -0.11408995074E+04  0.11474010223E+04  0.46999998093E+01 0. -1.
</event>
<event>
 5   0  0.5954140E-05  0.2086245E+04  0.7818609E-02  0.8567327E-01
       -2   -1    0    0    0  501  0.00000000000E+00  0.00000000000E+00  0.91723842420E+03  0.91723842421E+03  0.25500000920E-02 0.  1.
        2   -1    0    0  501    0  0.00000000000E+00  0.00000000000E+00 -0.11862837831E+04  0.11862837831E+04  0.25500000920E-02 0. -1.
    10030    2    1    2    0    0  0.00000000000E+00  0.00000000000E+00 -0.26904535893E+03  0.21035222073E+04  0.20862454965E+04 0.  0.
        2    1    3    3  502    0  0.83403778787E+03  0.21298888765E+03  0.45952679357E+03  0.97578080114E+03  0.25500000920E-02 0.  1.
       -2    1    3    3    0  502 -0.83403778787E+03 -0.21298888765E+03 -0.72857215250E+03  0.11277414062E+04  0.25500000920E-02 0. -1.
</event>
<event>
 5   0  0.5462851E-05  0.2097497E+04  0.7818609E-02  0.8562347E-01
        2   -1    0    0  501    0  0.00000000000E+00  0.00000000000E+00  0.21958843445E+04  0.21958843445E+04  0.25500000920E-02 0. -1.
       -2   -1    0    0    0  501  0.00000000000E+00  0.00000000000E+00 -0.50087929325E+03  0.50087929325E+03  0.25500000920E-02 0.  1.
    10030    2    1    2    0    0  0.00000000000E+00  0.00000000000E+00  0.16950050512E+04  0.26967636377E+04  0.20974966017E+04 0.  0.
        1    1    3    3  502    0  0.70061634550E+02  0.61850770866E+03  0.19326965852E+04  0.20304621417E+04  0.50400001928E-02 0. -1.
       -1    1    3    3    0  502 -0.70061634550E+02 -0.61850770866E+03 -0.23769153396E+03  0.66630149606E+03  0.50400001928E-02 0.  1.
</event>
<event>
 5   0  0.2602060E-05  0.2110700E+04  0.7818609E-02  0.8556544E-01
       -1   -1    0    0    0  501  0.00000000000E+00  0.00000000000E+00  0.22040924098E+04  0.22040924098E+04  0.50400001928E-02 0.  1.
        1   -1    0    0  501    0  0.00000000000E+00  0.00000000000E+00 -0.50531626292E+03  0.50531626295E+03  0.50400001928E-02 0. -1.
    10030    2    1    2    0    0  0.00000000000E+00  0.00000000000E+00  0.16987761469E+04  0.27094086728E+04  0.21107001111E+04 0.  0.
        1    1    3    3  502    0  0.21955636143E+03  0.51899931181E+03 -0.29601580613E+03  0.63654586559E+03  0.50400001928E-02 0. -1.
       -1    1    3    3    0  502 -0.21955636143E+03 -0.51899931181E+03  0.19947919530E+04  0.20728628072E+04  0.50400001928E-02 0.  1.
</event>
<event>
 5   0  0.2732159E-05  0.2109340E+04  0.7818609E-02  0.8557140E-01
       -1   -1    0    0    0  501  0.00000000000E+00  0.00000000000E+00  0.70476006078E+03  0.70476006079E+03  0.50400001928E-02 0.  1.
        1   -1    0    0  501    0  0.00000000000E+00  0.00000000000E+00 -0.15783086345E+04  0.15783086345E+04  0.50400001928E-02 0. -1.
    10030    2    1    2    0    0  0.00000000000E+00  0.00000000000E+00 -0.87354857371E+03  0.22830686953E+04  0.21093400761E+04 0.  0.
        3    1    3    3  502    0 -0.10249437951E+04 -0.46206428496E+02 -0.70119870715E+03  0.12427085154E+04  0.10100000352E+00 0.  1.
       -3    1    3    3    0  502  0.10249437951E+04  0.46206428496E+02 -0.17234986656E+03  0.10403601799E+04  0.10100000352E+00 0. -1.
</event>
<event>
 5   0  0.2732159E-05  0.2125313E+04  0.7818609E-02  0.8550174E-01
       -1   -1    0    0    0  501  0.00000000000E+00  0.00000000000E+00  0.14512406826E+04  0.14512406826E+04  0.50400001928E-02 0.  1.
        1   -1    0    0  501    0  0.00000000000E+00  0.00000000000E+00 -0.77811957456E+03  0.77811957457E+03  0.50400001928E-02 0. -1.
    10030    2    1    2    0    0  0.00000000000E+00  0.00000000000E+00  0.67312110807E+03  0.22293602572E+04  0.21253129488E+04 0.  0.
        3    1    3    3  502    0  0.10940223281E+03  0.22899354215E+03  0.14189857409E+04  0.14415017981E+04  0.10100000352E+00 0.  1.
       -3    1    3    3    0  502 -0.10940223281E+03 -0.22899354215E+03 -0.74586463282E+03  0.78785845910E+03  0.10100000352E+00 0. -1.
</event>
<event>
 5   0  0.2789662E-05  0.2120895E+04  0.7818609E-02  0.8552094E-01
       -1   -1    0    0    0  501  0.00000000000E+00  0.00000000000E+00  0.62365221339E+03  0.62365221341E+03  0.50400001928E-02 0. -1.
        1   -1    0    0  501    0  0.00000000000E+00  0.00000000000E+00 -0.18031670300E+04  0.18031670300E+04  0.50400001928E-02 0.  1.
    10030    2    1    2    0    0  0.00000000000E+00  0.00000000000E+00 -0.11795148166E+04  0.24268192434E+04  0.21208951972E+04 0.  0.
        4    1    3    3  502    0  0.92325466838E+03  0.30195972643E+03 -0.10299180740E+03  0.97682536022E+03  0.12699999809E+01 0. -1.
       -4    1    3    3    0  502 -0.92325466838E+03 -0.30195972643E+03 -0.10765230092E+04  0.14499938832E+04  0.12699999809E+01 0.  1.
</event>
<event>
 5   0  0.5462851E-05  0.2104691E+04  0.7818609E-02  0.8559180E-01
        2   -1    0    0  501    0  0.00000000000E+00  0.00000000000E+00  0.16768245856E+04  0.16768245856E+04  0.25500000920E-02 0. -1.
       -2   -1    0    0    0  501  0.00000000000E+00  0.00000000000E+00 -0.66043321961E+03  0.66043321962E+03  0.25500000920E-02 0.  1.
    10030    2    1    2    0    0  0.00000000000E+00  0.00000000000E+00  0.10163913660E+04  0.23372578052E+04  0.21046906279E+04 0.  0.
        1    1    3    3  502    0  0.18181420377E+03 -0.87681235009E+03  0.11220662423E+04  0.14355796578E+04  0.50400001928E-02 0. -1.
       -1    1    3    3    0  502 -0.18181420377E+03  0.87681235009E+03 -0.10567487627E+03  0.90167814738E+03  0.50400001928E-02 0.  1.
</event>
<event>
 5   0  0.5506332E-05  0.2093270E+04  0.7818609E-02  0.8564214E-01
        2   -1    0    0  501    0  0.00000000000E+00  0.00000000000E+00  0.17332199251E+04  0.17332199251E+04  0.25500000920E-02 0. -1.
       -2   -1    0    0    0  501  0.00000000000E+00  0.00000000000E+00 -0.63202861323E+03  0.63202861323E+03  0.25500000920E-02 0.  1.
    10030    2    1    2    0    0  0.00000000000E+00  0.00000000000E+00  0.11011913119E+04  0.23652485383E+04  0.20932697730E+04 0.  0.
        3    1    3    3  502    0  0.40545524829E+03 -0.71974619658E+03  0.12767601902E+04  0.15207054742E+04  0.10100000352E+00 0. -1.
       -3    1    3    3    0  502 -0.40545524829E+03  0.71974619658E+03 -0.17556887835E+03  0.84454306409E+03  0.10100000352E+00 0.  1.
</event>
<event>
 5   0  0.2732159E-05  0.2097702E+04  0.7818609E-02  0.8562256E-01
        1   -1    0    0  501    0  0.00000000000E+00  0.00000000000E+00  0.68835358153E+03  0.68835358155E+03  0.50400001928E-02 0.  1.
       -1   -1    0    0    0  501  0.00000000000E+00  0.00000000000E+00 -0.15981444920E+04  0.15981444921E+04  0.50400001928E-02 0. -1.
    10030    2    1    2    0    0  0.00000000000E+00  0.00000000000E+00 -0.90979091051E+03  0.22864980736E+04  0.20977020617E+04 0.  0.
        3    1    3    3  502    0  0.64450536785E+03 -0.37382339105E+03  0.34975693011E+03  0.82308020098E+03  0.10100000352E+00 0.  1.
       -3    1    3    3    0  502 -0.64450536785E+03  0.37382339105E+03 -0.12595478406E+04  0.14634178726E+04  0.10100000352E+00 0. -1.
</event>
<event>
 5   0  0.5967046E-05  0.2096266E+04  0.7818609E-02  0.8562890E-01
        2   -1    0    0  501    0  0.00000000000E+00  0.00000000000E+00  0.95839795949E+03  0.95839795949E+03  0.25500000920E-02 0.  1.
       -2   -1    0    0    0  501  0.00000000000E+00  0.00000000000E+00 -0.11462698077E+04  0.11462698078E+04  0.25500000920E-02 0. -1.
    10030    2    1    2    0    0  0.00000000000E+00  0.00000000000E+00 -0.18787184826E+03  0.21046677672E+04  0.20962658656E+04 0.  0.
        4    1    3    3  502    0  0.99172034670E+03  0.23853607281E+03  0.14822017314E+03  0.10307179715E+04  0.12699999809E+01 0.  1.
       -4    1    3    3    0  502 -0.99172034670E+03 -0.23853607281E+03 -0.33609202139E+03  0.10739497958E+04  0.12699999809E+01 0. -1.
</event>
<event>
 5   0  0.2732159E-05  0.2224500E+04  0.7818609E-02  0.8508299E-01
        1   -1    0    0  501    0  0.00000000000E+00  0.00000000000E+00  0.22770168322E+04  0.22770168322E+04  0.50400001928E-02 0. -1.
       -1   -1    0    0    0  501  0.00000000000E+00  0.00000000000E+00 -0.54329844626E+03  0.54329844628E+03  0.50400001928E-02 0.  1.
    10030    2    1    2    0    0  0.00000000000E+00  0.00000000000E+00  0.17337183859E+04  0.28203152784E+04  0.22244996804E+04 0.  0.
        3    1    3    3  502    0 -0.99895402418E+03  0.30584042327E+03  0.13507237617E+04  0.17076012993E+04  0.10100000352E+00 0. -1.
       -3    1    3    3    0  502  0.99895402418E+03 -0.30584042327E+03  0.38299462425E+03  0.11127139791E+04  0.10100000352E+00 0.  1.
</event>
<event>
 5   0  0.2732159E-05  0.2088089E+04  0.7818609E-02  0.8566509E-01
       -1   -1    0    0    0  501  0.00000000000E+00  0.00000000000E+00  0.12546589764E+04  0.12546589764E+04  0.50400001928E-02 0.  1.
        1   -1    0    0  501    0  0.00000000000E+00  0.00000000000E+00 -0.86878464566E+03  0.86878464567E+03  0.50400001928E-02 0. -1.
    10030    2    1    2    0    0  0.00000000000E+00  0.00000000000E+00  0.38587433077E+03  0.21234436221E+04  0.20880885559E+04 0.  0.
        3    1    3    3  502    0  0.63587409853E+03  0.60394507173E+03 -0.38317324766E+03  0.95703044192E+03  0.10100000352E+00 0. -1.
       -3    1    3    3    0  502 -0.63587409853E+03 -0.60394507173E+03  0.76904757843E+03  0.11664131802E+04  0.10100000352E+00 0.  1.
</event>
<event>
 5   0  0.5866610E-05  0.2125987E+04  0.7818609E-02  0.8549881E-01
       -2   -1    0    0    0  501  0.00000000000E+00  0.00000000000E+00  0.11291663403E+04  0.11291663404E+04  0.25500000920E-02 0. -1.
        2   -1    0    0  501    0  0.00000000000E+00  0.00000000000E+00 -0.10006986750E+04  0.10006986750E+04  0.25500000920E-02 0.  1.
    10030    2    1    2    0    0  0.00000000000E+00  0.00000000000E+00  0.12846766540E+03  0.21298650153E+04  0.21259870748E+04 0.  0.
        5    1    3    3  502    0 -0.84041296715E+03  0.43675010918E+03 -0.41923171974E+03  0.10357711804E+04  0.46999998093E+01 0. -1.
       -5    1    3    3    0  502  0.84041296715E+03 -0.43675010918E+03  0.54769938514E+03  0.10940938350E+04  0.46999998093E+01 0.  1.
</event>
<event>
 5   0  0.2789662E-05  0.2103335E+04  0.7818609E-02  0.8559776E-01
       -1   -1    0    0    0  501  0.00000000000E+00  0.00000000000E+00  0.10765600647E+04  0.10765600647E+04  0.50400001928E-02 0. -1.
        1   -1    0    0  501    0  0.00000000000E+00  0.00000000000E+00 -0.10273501840E+04  0.10273501840E+04  0.50400001928E-02 0.  1.
    10030    2    1    2    0    0  0.00000000000E+00  0.00000000000E+00  0.49209880674E+02  0.21039102487E+04  0.21033346672E+04 0.  0.
        4    1    3    3  502    0 -0.21699077755E+03 -0.86615477073E+03  0.58035889264E+03  0.10649540561E+04  0.12699999809E+01 0. -1.
       -4    1    3    3    0  502  0.21699077755E+03  0.86615477073E+03 -0.53114901196E+03  0.10389561926E+04  0.12699999809E+01 0.  1.
</event>
<event>
 5   0  0.2732159E-05  0.2109586E+04  0.7818609E-02  0.8557033E-01
        1   -1    0    0  501    0  0.00000000000E+00  0.00000000000E+00  0.19026846970E+04  0.19026846970E+04  0.50400001928E-02 0. -1.
       -1   -1    0    0    0  501  0.00000000000E+00  0.00000000000E+00 -0.58474636058E+03  0.58474636060E+03  0.50400001928E-02 0.  1.
    10030    2    1    2    0    0  0.00000000000E+00  0.00000000000E+00  0.13179383364E+04  0.24874310576E+04  0.21095856958E+04 0.  0.
        3    1    3    3  502    0  0.71791940136E+03  0.75154367659E+03  0.87108352362E+03  0.13561020168E+04  0.10100000352E+00 0. -1.
       -3    1    3    3    0  502 -0.71791940136E+03 -0.75154367659E+03  0.44685481282E+03  0.11313290408E+04  0.10100000352E+00 0.  1.
</event>
<event>
 5   0  0.5954140E-05  0.2093572E+04  0.7818609E-02  0.8564080E-01
        2   -1    0    0  501    0  0.00000000000E+00  0.00000000000E+00  0.19060018256E+04  0.19060018257E+04  0.25500000920E-02 0. -1.
       -2   -1    0    0    0  501  0.00000000000E+00  0.00000000000E+00 -0.57490005271E+03  0.57490005271E+03  0.25500000920E-02 0.  1.
    10030    2    1    2    0    0  0.00000000000E+00  0.00000000000E+00  0.13311017729E+04  0.24809018784E+04  0.20935716372E+04 0.  0.
        2    1    3    3  502    0 -0.42544771997E+03  0.14607206380E+03  0.17856308996E+04  0.18414180731E+04  0.25500000920E-02 0. -1.
       -2    1    3    3    0  502  0.42544771997E+03 -0.14607206380E+03 -0.45452912665E+03  0.63948380529E+03  0.25500000920E-02 0.  1.
</event>
<event>
 5   0  0.2602060E-05  0.2014354E+04  0.7818609E-02  0.8599939E-01
        1   -1    0    0  501    0  0.00000000000E+00  0.00000000000E+00  0.18103543998E+04  0.18103543998E+04  0.50400001928E-02 0.  1.
       -1   -1    0    0    0  501  0.00000000000E+00  0.00000000000E+00 -0.56033551760E+03  0.56033551762E+03  0.50400001928E-02 0. -1.
    10030    2    1    2    0    0  0.00000000000E+00  0.00000000000E+00  0.12500188822E+04  0.23706899174E+04  0.20143543578E+04 0.  0.
        1    1    3    3  502    0 -0.59905831748E+03  0.59537390038E+03  0.12707661963E+04  0.15258399899E+04  0.50400001928E-02 0.  1.
       -1    1    3    3    0  502  0.59905831748E+03 -0.59537390038E+03 -0.20747314115E+02  0.84484992754E+03  0.50400001928E-02 0. -1.
</event>
<event>
 5   0  0.5462851E-05  0.2096749E+04  0.7818609E-02  0.8562677E-01
       -2   -1    0    0    0  501  0.00000000000E+00  0.00000000000E+00  0.79018599028E+03  0.79018599029E+03  0.25500000920E-02 0. -1.
        2   -1    0    0  501    0  0.00000000000E+00  0.00000000000E+00 -0.13909242546E+04  0.13909242546E+04  0.25500000920E-02 0.  1.
    10030    2    1    2    0    0  0.00000000000E+00  0.00000000000E+00 -0.60073826430E+03  0.21811102449E+04  0.20967487780E+04 0.  0.
        1    1    3    3  502    0 -0.10015241203E+04  0.65497533367E+02 -0.61545606724E+03  0.11773388047E+04  0.50400001928E-02 0.  1.
       -1    1    3    3    0  502  0.10015241203E+04 -0.65497533367E+02  0.14717802948E+02  0.10037714402E+04  0.50400001928E-02 0. -1.
</event>
<event>
 5   0  0.2699285E-05  0.2100334E+04  0.7818609E-02  0.8561096E-01
       -1   -1    0    0    0  501  0.00000000000E+00  0.00000000000E+00  0.56583973624E+03  0.56583973627E+03  0.50400001928E-02 0. -1.
        1   -1    0    0  501    0  0.00000000000E+00  0.00000000000E+00 -0.19490515229E+04  0.19490515229E+04  0.50400001928E-02 0.  1.
    10030    2    1    2    0    0  0.00000000000E+00  0.00000000000E+00 -0.13832117867E+04  0.25148912592E+04  0.21003340684E+04 0.  0.
        2    1    3    3  502    0  0.25857990830E+03  0.51403273960E+03 -0.17434982139E+04  0.18359954380E+04  0.25500000920E-02 0.  1.
       -2    1    3    3    0  502 -0.25857990830E+03 -0.51403273960E+03  0.36028642726E+03  0.67889582119E+03  0.25500000920E-02 0. -1.
</event>
<event>
 5   0  0.2789662E-05  0.1845592E+04  0.7818609E-02  0.8682423E-01
       -1   -1    0    0    0  501  0.00000000000E+00  0.00000000000E+00  0.71073384754E+03  0.71073384756E+03  0.50400001928E-02 0.  1.
        1   -1    0    0  501    0  0.00000000000E+00  0.00000000000E+00 -0.11981313091E+04  0.11981313091E+04  0.50400001928E-02 0. -1.
    10030    2    1    2    0    0  0.00000000000E+00  0.00000000000E+00 -0.48739746153E+03  0.19088651566E+04  0.18455920190E+04 0.  0.
        4    1    3    3  502    0 -0.78126312383E+03  0.79175461236E+02  0.25759276446E+03  0.82643600329E+03  0.12699999809E+01 0.  1.
       -4    1    3    3    0  502  0.78126312383E+03 -0.79175461236E+02 -0.74499022599E+03  0.10824291534E+04  0.12699999809E+01 0. -1.
</event>
<event>
 5   0  0.5506332E-05  0.2103695E+04  0.7818609E-02  0.8559617E-01
       -2   -1    0    0    0  501  0.00000000000E+00  0.00000000000E+00  0.75614053953E+03  0.75614053954E+03  0.25500000920E-02 0.  1.
        2   -1    0    0  501    0  0.00000000000E+00  0.00000000000E+00 -0.14631977939E+04  0.14631977939E+04  0.25500000920E-02 0. -1.
    10030    2    1    2    0    0  0.00000000000E+00  0.00000000000E+00 -0.70705725440E+03  0.22193383335E+04  0.21036950058E+04 0.  0.
        3    1    3    3  502    0 -0.77619174560E+03  0.15143816200E+03 -0.10851770641E+04  0.13427644669E+04  0.10100000352E+00 0. -1.
       -3    1    3    3    0  502  0.77619174560E+03 -0.15143816200E+03  0.37811980973E+03  0.87657386657E+03  0.10100000352E+00 0.  1.
</event>
<event>
 5   0  0.2732159E-05  0.2020343E+04  0.7818609E-02  0.8597168E-01
        1   -1    0    0  501    0  0.00000000000E+00  0.00000000000E+00  0.14487209895E+04  0.14487209895E+04  0.50400001928E-02 0.  1.
       -1   -1    0    0    0  501  0.00000000000E+00  0.00000000000E+00 -0.70437730954E+03  0.70437730956E+03  0.50400001928E-02 0. -1.
    10030    2    1    2    0    0  0.00000000000E+00  0.00000000000E+00  0.74434367997E+03  0.21530982991E+04  0.20203427362E+04 0.  0.
        3    1    3    3  502    0  0.31440248363E+03 -0.99265980553E+02  0.13897672783E+04  0.14283402097E+04  0.10100000352E+00 0.  1.
       -3    1    3    3    0  502 -0.31440248363E+03  0.99265980553E+02 -0.64542359834E+03  0.72475808937E+03  0.10100000352E+00 0. -1.
</event>
<event>
 5   0  0.5954140E-05  0.2096316E+04  0.7818609E-02  0.8562868E-01
       -2   -1    0    0    0  501  0.00000000000E+00  0.00000000000E+00  0.47047540888E+03  0.47047540889E+03  0.25500000920E-02 0. -1.
        2   -1    0    0  501    0  0.00000000000E+00  0.00000000000E+00 -0.23351592401E+04  0.23351592401E+04  0.25500000920E-02 0.  1.
    10030    2    1    2    0    0  0.00000000000E+00  0.00000000000E+00 -0.18646838313E+04  0.28056346490E+04  0.20963158143E+04 0.  0.
        2    1    3    3  502    0  0.18321659955E+03 -0.99659578012E+03 -0.12911222827E+04  0.16412703069E+04  0.25500000920E-02 0.  1.
       -2    1    3    3    0  502 -0.18321659955E+03  0.99659578012E+03 -0.57356154856E+03  0.11643643422E+04  0.25500000920E-02 0. -1.
</event>
<event>
 5   0  0.5506332E-05  0.2099177E+04  0.7818609E-02  0.8561606E-01
       -2   -1    0    0    0  501  0.00000000000E+00  0.00000000000E+00  0.16952420664E+04  0.16952420664E+04  0.25500000920E-02 0.  1.
        2   -1    0    0  501    0  0.00000000000E+00  0.00000000000E+00 -0.64984024172E+03  0.64984024172E+03  0.25500000920E-02 0. -1.
    10030    2    1    2    0    0  0.00000000000E+00  0.00000000000E+00  0.10454018247E+04  0.23450823082E+04  0.20991774715E+04 0.  0.
        3    1    3    3  502    0  0.80987426447E+01 -0.62569390354E+03  0.14640744337E+04  0.15921910715E+04  0.10100000352E+00 0.  1.
       -3    1    3    3    0  502 -0.80987426447E+01  0.62569390354E+03 -0.41867260897E+03  0.75289123667E+03  0.10100000352E+00 0. -1.
</event>
<event>
 5   0  0.5954140E-05  0.2103666E+04  0.7818609E-02  0.8559630E-01
       -2   -1    0    0    0  501  0.00000000000E+00  0.00000000000E+00  0.93588062301E+03  0.93588062301E+03  0.25500000920E-02 0. -1.
        2   -1    0    0  501    0  0.00000000000E+00  0.00000000000E+00 -0.11821510298E+04  0.11821510298E+04  0.25500000920E-02 0.  1.
    10030    2    1    2    0    0  0.00000000000E+00  0.00000000000E+00 -0.24627040682E+03  0.21180316528E+04  0.21036656030E+04 0.  0.
        2    1    3    3  502    0  0.68934816968E+02  0.89942638554E+03  0.42151409994E+03  0.99568768620E+03  0.25500000920E-02 0. -1.
       -2    1    3    3    0  502 -0.68934816968E+02 -0.89942638554E+03 -0.66778450676E+03  0.11223439666E+04  0.25500000920E-02 0.  1.
</event>
<event>
 5   0  0.5967046E-05  0.2099408E+04  0.7818609E-02  0.8561504E-01
        2   -1    0    0  501    0  0.00000000000E+00  0.00000000000E+00  0.13027982519E+04  0.13027982519E+04  0.25500000920E-02 0.  1.
       -2   -1    0    0    0  501  0.00000000000E+00  0.00000000000E+00 -0.84577839698E+03  0.84577839698E+03  0.25500000920E-02 0. -1.
    10030    2    1    2    0    0  0.00000000000E+00  0.00000000000E+00  0.45701985495E+03  0.21485766489E+04  0.20994081234E+04 0.  0.
        4    1    3    3  502    0 -0.90573196548E+03  0.46659063433E+03  0.48705226228E+03  0.11292823971E+04  0.12699999809E+01 0. -1.
       -4    1    3    3    0  502  0.90573196548E+03 -0.46659063433E+03 -0.30032407327E+02  0.10192942518E+04  0.12699999809E+01 0.  1.
</event>
<event>
 5   0  0.2604390E-05  0.2101234E+04  0.7818609E-02  0.8560700E-01
       -1   -1    0    0    0  501  0.00000000000E+00  0.00000000000E+00  0.11706085455E+04  0.11706085455E+04  0.50400001928E-02 0.  1.
        1   -1    0    0  501    0  0.00000000000E+00  0.00000000000E+00 -0.94292499754E+03  0.94292499756E+03  0.50400001928E-02 0. -1.
    10030    2    1    2    0    0  0.00000000000E+00  0.00000000000E+00  0.22768354797E+03  0.21135335431E+04  0.21012339802E+04 0.  0.
        5    1    3    3  502    0  0.59378604938E+03  0.56745749149E+03 -0.54511440980E+03  0.98577973546E+03  0.46999998093E+01 0.  1.
       -5    1    3    3    0  502 -0.59378604938E+03 -0.56745749149E+03  0.77279795777E+03  0.11277538076E+04  0.46999998093E+01 0. -1.
</event>
<event>
 5   0  0.2602060E-05  0.2111611E+04  0.7818609E-02  0.8556146E-01
        1   -1    0    0  501    0  0.00000000000E+00  0.00000000000E+00  0.14851504343E+04  0.14851504343E+04  0.50400001928E-02 0. -1.
       -1   -1    0    0    0  501  0.00000000000E+00  0.00000000000E+00 -0.75058082576E+03  0.75058082577E+03  0.50400001928E-02 0.  1.
    10030    2    1    2    0    0  0.00000000000E+00  0.00000000000E+00  0.73456960856E+03  0.22357312601E+04  0.21116111757E+04 0.  0.
        1    1    3    3  502    0 -0.39585200050E+03  0.95119024086E+03  0.12292962270E+03  0.10375805380E+04  0.50400001928E-02 0.  1.
       -1    1    3    3    0  502  0.39585200050E+03 -0.95119024086E+03  0.61163998586E+03  0.11981507221E+04  0.50400001928E-02 0. -1.
</event>
<event>
 5   0  0.5954140E-05  0.2102142E+04  0.7818609E-02  0.8560300E-01
        2   -1    0    0  501    0  0.00000000000E+00  0.00000000000E+00  0.19744377537E+04  0.19744377537E+04  0.25500000920E-02 0. -1.
       -2   -1    0    0    0  501  0.00000000000E+00  0.00000000000E+00 -0.55952667873E+03  0.55952667874E+03  0.25500000920E-02 0.  1.
    10030    2    1    2    0    0  0.00000000000E+00  0.00000000000E+00  0.14149110749E+04  0.25339644324E+04  0.21021423346E+04 0.  0.
        2    1    3    3  502    0  0.52512274551E+03 -0.43900294089E+03 -0.25406858459E+03  0.73008788899E+03  0.25500000920E-02 0.  1.
       -2    1    3    3    0  502 -0.52512274551E+03  0.43900294089E+03  0.16689796595E+04  0.18038765434E+04  0.25500000920E-02 0. -1.
</event>
<event>
 5   0  0.5954140E-05  0.2077608E+04  0.7818609E-02  0.8571172E-01
        2   -1    0    0  501    0  0.00000000000E+00  0.00000000000E+00  0.85956494302E+03  0.85956494302E+03  0.25500000920E-02 0. -1.
       -2   -1    0    0    0  501  0.00000000000E+00  0.00000000000E+00 -0.12554186258E+04  0.12554186258E+04  0.25500000920E-02 0.  1.
    10030    2    1    2    0    0  0.00000000000E+00  0.00000000000E+00 -0.39585368279E+03  0.21149835688E+04  0.20776080858E+04 0.  0.
        2    1    3    3  502    0  0.39972679886E+03 -0.12446809731E+02  0.77805792798E+03  0.87482031075E+03  0.25500000920E-02 0. -1.
       -2    1    3    3    0  502 -0.39972679886E+03  0.12446809731E+02 -0.11739116108E+04  0.12401632581E+04  0.25500000920E-02 0.  1.
</event>
<event>
 5   0  0.5506332E-05  0.2108074E+04  0.7818609E-02  0.8557695E-01
        2   -1    0    0  501    0  0.00000000000E+00  0.00000000000E+00  0.11094211970E+04  0.11094211970E+04  0.25500000920E-02 0.  1.
       -2   -1    0    0    0  501  0.00000000000E+00  0.00000000000E+00 -0.10014173625E+04  0.10014173625E+04  0.25500000920E-02 0. -1.
    10030    2    1    2    0    0  0.00000000000E+00  0.00000000000E+00  0.10800383451E+03  0.21108385595E+04  0.21080736695E+04 0.  0.
        3    1    3    3  502    0  0.74515903559E+03  0.68845343579E+03  0.34032015865E+03  0.10700691296E+04  0.10100000352E+00 0. -1.
       -3    1    3    3    0  502 -0.74515903559E+03 -0.68845343579E+03 -0.23231632414E+03  0.10407694299E+04  0.10100000352E+00 0.  1.
</event>
<event>
 5   0  0.2699285E-05  0.2082009E+04  0.7818609E-02  0.8569210E-01
       -1   -1    0    0    0  501  0.00000000000E+00  0.00000000000E+00  0.11762093675E+04  0.11762093675E+04  0.50400001928E-02 0. -1.
        1   -1    0    0  501    0  0.00000000000E+00  0.00000000000E+00 -0.92134128165E+03  0.92134128166E+03  0.50400001928E-02 0.  1.
    10030    2    1    2    0    0  0.00000000000E+00  0.00000000000E+00  0.25486808589E+03  0.20975506492E+04  0.20820088820E+04 0.  0.
        2    1    3    3  502    0 -0.10395404909E+04 -0.44996431727E+02  0.15962778815E+03  0.10526871053E+04  0.25500000920E-02 0. -1.
       -2    1    3    3    0  502  0.10395404909E+04  0.44996431727E+02  0.95240297743E+02  0.10448635439E+04  0.25500000920E-02 0.  1.
</event>
<event>
 5   0  0.2602060E-05  0.2106071E+04  0.7818609E-02  0.8558574E-01
        1   -1    0    0  501    0  0.00000000000E+00  0.00000000000E+00  0.86223682335E+03  0.86223682336E+03  0.50400001928E-02 0.  1.
       -1   -1    0    0    0  501  0.00000000000E+00  0.00000000000E+00 -0.12860553627E+04  0.12860553627E+04  0.50400001928E-02 0. -1.
    10030    2    1    2    0    0  0.00000000000E+00  0.00000000000E+00 -0.42381853934E+03  0.21482921861E+04  0.21060714998E+04 0.  0.
        1    1    3    3  502    0 -0.19272716605E+03  0.40375927323E+03  0.76046853474E+03  0.88231383510E+03  0.50400001928E-02 0.  1.
       -1    1    3    3    0  502  0.19272716605E+03 -0.40375927323E+03 -0.11842870741E+04  0.12659783510E+04  0.50400001928E-02 0. -1.
</event>
<event>
 5   0  0.5954140E-05  0.2101948E+04  0.7818609E-02  0.8560386E-01
       -2   -1    0    0    0  501  0.00000000000E+00  0.00000000000E+00  0.86937873083E+03  0.86937873084E+03  0.25500000920E-02 0. -1.
        2   -1    0    0  501    0  0.00000000000E+00  0.00000000000E+00 -0.12705008385E+04  0.12705008385E+04  0.25500000920E-02 0.  1.
    10030    2    1    2    0    0  0.00000000000E+00  0.00000000000E+00 -0.40112210770E+03  0.21398795694E+04  0.21019480550E+04 0.  0.
        2    1    3    3  502    0  0.24163067204E+03  0.58692668828E+03  0.65221757910E+03  0.91008575947E+03  0.25500000920E-02 0. -1.
       -2    1    3    3    0  502 -0.24163067204E+03 -0.58692668828E+03 -0.10533396868E+04  0.12297938099E+04  0.25500000920E-02 0.  1.
</event>
<event>
 5   0  0.5866610E-05  0.2100363E+04  0.7818609E-02  0.8561083E-01
       -2   -1    0    0    0  501  0.00000000000E+00  0.00000000000E+00  0.88746727514E+03  0.88746727514E+03  0.25500000920E-02 0.  1.
        2   -1    0    0  501    0  0.00000000000E+00  0.00000000000E+00 -0.12427288378E+04  0.12427288378E+04  0.25500000920E-02 0. -1.
    10030    2    1    2    0    0  0.00000000000E+00  0.00000000000E+00 -0.35526156263E+03  0.21301961129E+04  0.21003629928E+04 0.  0.
        5    1    3    3  502    0  0.55766967390E+03 -0.10327668120E+03  0.71877709899E+03  0.91560042928E+03  0.46999998093E+01 0.  1.
       -5    1    3    3    0  502 -0.55766967390E+03  0.10327668120E+03 -0.10740386616E+04  0.12145956836E+04  0.46999998093E+01 0. -1.
</event>
<event>
 5   0  0.2699285E-05  0.2116348E+04  0.7818609E-02  0.8554076E-01
        1   -1    0    0  501    0  0.00000000000E+00  0.00000000000E+00  0.80650791229E+03  0.80650791230E+03  0.50400001928E-02 0.  1.
       -1   -1    0    0    0  501  0.00000000000E+00  0.00000000000E+00 -0.13883706028E+04  0.13883706028E+04  0.50400001928E-02 0. -1.
    10030    2    1    2    0    0  0.00000000000E+00  0.00000000000E+00 -0.58186269055E+03  0.21948785151E+04  0.21163476807E+04 0.  0.
        2    1    3    3  502    0  0.37963765833E+03  0.95831040870E+03 -0.42786811611E+02  0.10316560969E+04  0.25500000920E-02 0. -1.
       -2    1    3    3    0  502 -0.37963765833E+03 -0.95831040870E+03 -0.53907587894E+03  0.11632224182E+04  0.25500000920E-02 0.  1.
</event>
<event>
 5   0  0.2604390E-05  0.2100684E+04  0.7818609E-02  0.8560942E-01
       -1   -1    0    0    0  501  0.00000000000E+00  0.00000000000E+00  0.16043675781E+04  0.16043675781E+04  0.50400001928E-02 0.  1.
        1   -1    0    0  501    0  0.00000000000E+00  0.00000000000E+00 -0.68763410417E+03  0.68763410419E+03  0.50400001928E-02 0. -1.
    10030    2    1    2    0    0  0.00000000000E+00  0.00000000000E+00  0.91673347392E+03  0.22920016823E+04  0.21006835672E+04 0.  0.
        5    1    3    3  502    0  0.51781997381E+03 -0.19354391980E+02  0.14551833064E+04  0.15446982433E+04  0.46999998093E+01 0.  1.
       -5    1    3    3    0  502 -0.51781997381E+03  0.19354391980E+02 -0.53844983248E+03  0.74730343895E+03  0.46999998093E+01 0. -1.
</event>
<event>
 5   0  0.5967046E-05  0.2116241E+04  0.7818609E-02  0.8554123E-01
        2   -1    0    0  501    0  0.00000000000E+00  0.00000000000E+00  0.16742171891E+04  0.16742171891E+04  0.25500000920E-02 0.  1.
       -2   -1    0    0    0  501  0.00000000000E+00  0.00000000000E+00 -0.66874164888E+03  0.66874164888E+03  0.25500000920E-02 0. -1.
    10030    2    1    2    0    0  0.00000000000E+00  0.00000000000E+00  0.10054755402E+04  0.23429588380E+04  0.21162407837E+04 0.  0.
        4    1    3    3  502    0  0.69300621295E+03 -0.54054930165E+03  0.11550689944E+04  0.14514259036E+04  0.12699999809E+01 0.  1.
       -4    1    3    3    0  502 -0.69300621295E+03  0.54054930165E+03 -0.14959345423E+03  0.89153293442E+03  0.12699999809E+01 0. -1.
</event>
<event>
 5   0  0.2732159E-05  0.2087525E+04  0.7818609E-02  0.8566759E-01
       -1   -1    0    0    0  501  0.00000000000E+00  0.00000000000E+00  0.55331375213E+03  0.55331375216E+03  0.50400001928E-02 0.  1.
        1   -1    0    0  501    0  0.00000000000E+00  0.00000000000E+00 -0.19689378894E+04  0.19689378894E+04  0.50400001928E-02 0. -1.
    10030    2    1    2    0    0  0.00000000000E+00  0.00000000000E+00 -0.14156241373E+04  0.25222516416E+04  0.20875252443E+04 0.  0.
        3    1    3    3  502    0  0.94210658705E+03  0.12305572670E+03 -0.12299281394E+04  0.15541656190E+04  0.10100000352E+00 0. -1.
       -3    1    3    3    0  502 -0.94210658705E+03 -0.12305572670E+03 -0.18569599795E+03  0.96808602257E+03  0.10100000352E+00 0.  1.
</event>
<event>
 5   0  0.2699285E-05  0.1962956E+04  0.7818609E-02  0.8624139E-01
       -1   -1    0    0    0  501  0.00000000000E+00  0.00000000000E+00  0.45536721727E+03  0.45536721730E+03  0.50400001928E-02 0.  1.
        1   -1    0    0  501    0  0.00000000000E+00  0.00000000000E+00 -0.21154324605E+04  0.21154324605E+04  0.50400001928E-02 0. -1.
    10030    2    1    2    0    0  0.00000000000E+00  0.00000000000E+00 -0.16600652432E+04  0.25707996778E+04  0.19629555195E+04 0.  0.
        2    1    3    3  502    0 -0.14841293818E+03 -0.76565728101E+03 -0.49668837427E+02  0.78148862155E+03  0.25500000920E-02 0.  1.
       -2    1    3    3    0  502  0.14841293818E+03  0.76565728101E+03 -0.16103964058E+04  0.17893110562E+04  0.25500000920E-02 0. -1.
</event>
<event>
 5   0  0.5954140E-05  0.2106227E+04  0.7818609E-02  0.8558505E-01
        2   -1    0    0  501    0  0.00000000000E+00  0.00000000000E+00  0.20051683299E+04  0.20051683299E+04  0.25500000920E-02 0.  1.
       -2   -1    0    0    0  501  0.00000000000E+00  0.00000000000E+00 -0.55309492304E+03  0.55309492305E+03  0.25500000920E-02 0. -1.
    10030    2    1    2    0    0  0.00000000000E+00  0.00000000000E+00  0.14520734068E+04  0.25582632529E+04  0.21062273601E+04 0.  0.
        2    1    3    3  502    0 -0.88100601173E+03  0.42156420414E+03  0.24759337727E+03  0.10075665990E+04  0.25500000920E-02 0. -1.
       -2    1    3    3    0  502  0.88100601173E+03 -0.42156420414E+03  0.12044800295E+04  0.15506966539E+04  0.25500000920E-02 0.  1.
</event>
<event>
 5   0  0.5866610E-05  0.1974647E+04  0.7818609E-02  0.8618567E-01
        2   -1    0    0  501    0  0.00000000000E+00  0.00000000000E+00  0.86324043724E+03  0.86324043724E+03  0.25500000920E-02 0. -1.
       -2   -1    0    0    0  501  0.00000000000E+00  0.00000000000E+00 -0.11292420202E+04  0.11292420202E+04  0.25500000920E-02 0.  1.
    10030    2    1    2    0    0  0.00000000000E+00  0.00000000000E+00 -0.26600158299E+03  0.19924824575E+04  0.19746466776E+04 0.  0.
        5    1    3    3  502    0 -0.39351346304E+03  0.70872739430E+03  0.43568356203E+03  0.92032039054E+03  0.46999998093E+01 0. -1.
       -5    1    3    3    0  502  0.39351346304E+03 -0.70872739430E+03 -0.70168514502E+03  0.10721620669E+04  0.46999998093E+01 0.  1.
</event>
<event>
 5   0  0.2789662E-05  0.2102004E+04  0.7818609E-02  0.8560361E-01
        1   -1    0    0  501    0  0.00000000000E+00  0.00000000000E+00  0.34389249281E+04  0.34389249281E+04  0.50400001928E-02 0. -1.
       -1   -1    0    0    0  501  0.00000000000E+00  0.00000000000E+00 -0.32120664079E+03  0.32120664083E+03  0.50400001928E-02 0.  1.
    10030    2    1    2    0    0  0.00000000000E+00  0.00000000000E+00  0.31177182873E+04  0.37601315689E+04  0.21020043046E+04 0.  0.
        4    1    3    3  502    0 -0.84261545748E+03 -0.44763157787E+03  0.23472227337E+04  0.25337385448E+04  0.12699999809E+01 0. -1.
       -4    1    3    3    0  502  0.84261545748E+03  0.44763157787E+03  0.77049555355E+03  0.12263930241E+04  0.12699999809E+01 0.  1.
</event>
<event>
 5   0  0.5866610E-05  0.2099600E+04  0.7818609E-02  0.8561419E-01
        2   -1    0    0  501    0  0.00000000000E+00  0.00000000000E+00  0.13336208830E+04  0.13336208830E+04  0.25500000920E-02 0. -1.
       -2   -1    0    0    0  501  0.00000000000E+00  0.00000000000E+00 -0.82638208145E+03  0.82638208145E+03  0.25500000920E-02 0.  1.
    10030    2    1    2    0    0  0.00000000000E+00  0.00000000000E+00  0.50723880153E+03  0.21600029644E+04  0.20996003440E+04 0.  0.
        5    1    3    3  502    0 -0.72220645618E+03  0.80460556800E+02  0.10330447160E+04  0.12630358434E+04  0.46999998093E+01 0. -1.
       -5    1    3    3    0  502  0.72220645618E+03 -0.80460556800E+02 -0.52580591444E+03  0.89696712103E+03  0.46999998093E+01 0.  1.
</event>
<event>
 5   0  0.2732159E-05  0.2121946E+04  0.7818609E-02  0.8551637E-01
       -1   -1    0    0    0  501  0.00000000000E+00  0.00000000000E+00  0.15663132715E+04  0.15663132716E+04  0.50400001928E-02 0.  1.
        1   -1    0    0  501    0  0.00000000000E+00  0.00000000000E+00 -0.71867080100E+03  0.71867080102E+03  0.50400001928E-02 0. -1.
    10030    2    1    2    0    0  0.00000000000E+00  0.00000000000E+00  0.84764247054E+03  0.22849840726E+04  0.21219459121E+04 0.  0.
        3    1    3    3  502    0  0.10224932797E+04  0.15200628407E+03  0.68105885682E+03  0.12379174424E+04  0.10100000352E+00 0.  1.
       -3    1    3    3    0  502 -0.10224932797E+04 -0.15200628407E+03  0.16658361372E+03  0.10470666302E+04  0.10100000352E+00 0. -1.
</event>
<event>
 5   0  0.5954140E-05  0.2100777E+04  0.7818609E-02  0.8560901E-01
       -2   -1    0    0    0  501  0.00000000000E+00  0.00000000000E+00  0.71711765526E+03  0.71711765527E+03  0.25500000920E-02 0. -1.
        2   -1    0    0  501    0  0.00000000000E+00  0.00000000000E+00 -0.15385426489E+04  0.15385426489E+04  0.25500000920E-02 0.  1.
    10030    2    1    2    0    0  0.00000000000E+00  0.00000000000E+00 -0.82142499364E+03  0.22556603042E+04  0.21007770914E+04 0.  0.
        2    1    3    3  502    0 -0.60179511874E+03 -0.19702777277E+03  0.48913114230E+03  0.80014160156E+03  0.25500000920E-02 0. -1.
       -2    1    3    3    0  502  0.60179511874E+03  0.19702777277E+03 -0.13105561359E+04  0.14555187026E+04  0.25500000920E-02 0.  1.
</event>
<event>
 5   0  0.5506332E-05  0.2097174E+04  0.7818609E-02  0.8562489E-01
        2   -1    0    0  501    0  0.00000000000E+00  0.00000000000E+00  0.93889335531E+03  0.93889335531E+03  0.25500000920E-02 0. -1.
       -2   -1    0    0    0  501  0.00000000000E+00  0.00000000000E+00 -0.11710962917E+04  0.11710962917E+04  0.25500000920E-02 0.  1.
    10030    2    1    2    0    0  0.00000000000E+00  0.00000000000E+00 -0.23220293643E+03  0.21099896471E+04  0.20971738380E+04 0.  0.
        3    1    3    3  502    0  0.12953240113E+03  0.55548199316E+03  0.76915936599E+03  0.95757246627E+03  0.10100000352E+00 0. -1.
       -3    1    3    3    0  502 -0.12953240113E+03 -0.55548199316E+03 -0.10013623024E+04  0.11524171808E+04  0.10100000352E+00 0.  1.
</event>
<event>
 5   0  0.5462851E-05  0.2100759E+04  0.7818609E-02  0.8560909E-01
       -2   -1    0    0    0  501  0.00000000000E+00  0.00000000000E+00  0.74339946333E+03  0.74339946334E+03  0.25500000920E-02 0. -1.
        2   -1    0    0  501    0  0.00000000000E+00  0.00000000000E+00 -0.14841241376E+04  0.14841241376E+04  0.25500000920E-02 0.  1.
    10030    2    1    2    0    0  0.00000000000E+00  0.00000000000E+00 -0.74072467431E+03  0.22275236010E+04  0.21007589937E+04 0.  0.
        1    1    3    3  502    0 -0.10071051877E+04  0.29796935438E+03 -0.38714431622E+03  0.11193423591E+04  0.50400001928E-02 0. -1.
       -1    1    3    3    0  502  0.10071051877E+04 -0.29796935438E+03 -0.35358035809E+03  0.11081812419E+04  0.50400001928E-02 0.  1.
</event>
<event>
 5   0  0.2602060E-05  0.2117866E+04  0.7818609E-02  0.8553414E-01
        1   -1    0    0  501    0  0.00000000000E+00  0.00000000000E+00  0.22305641292E+04  0.22305641292E+04  0.50400001928E-02 0. -1.
       -1   -1    0    0    0  501  0.00000000000E+00  0.00000000000E+00 -0.50271548658E+03  0.50271548661E+03  0.50400001928E-02 0.  1.
    10030    2    1    2    0    0  0.00000000000E+00  0.00000000000E+00  0.17278486426E+04  0.27332796158E+04  0.21178660313E+04 0.  0.
        1    1    3    3  502    0  0.84937765700E+03  0.30048395713E+03  0.15820332811E+04  0.18205939457E+04  0.50400001928E-02 0. -1.
       -1    1    3    3    0  502 -0.84937765700E+03 -0.30048395713E+03  0.14581536151E+03  0.91268567008E+03  0.50400001928E-02 0.  1.
</event>
<event>
 5   0  0.5506332E-05  0.2099643E+04  0.7818609E-02  0.8561401E-01
        2   -1    0    0  501    0  0.00000000000E+00  0.00000000000E+00  0.12281392962E+04  0.12281392962E+04  0.25500000920E-02 0. -1.
       -2   -1    0    0    0  501  0.00000000000E+00  0.00000000000E+00 -0.89739416216E+03  0.89739416216E+03  0.25500000920E-02 0.  1.
    10030    2    1    2    0    0  0.00000000000E+00  0.00000000000E+00  0.33074513404E+03  0.21255334584E+04  0.20996428598E+04 0.  0.
        3    1    3    3  502    0  0.69612109122E+03 -0.67973768069E+01  0.96087035064E+03  0.11865507233E+04  0.10100000352E+00 0. -1.
       -3    1    3    3    0  502 -0.69612109122E+03  0.67973768069E+01 -0.63012521660E+03  0.93898273508E+03  0.10100000352E+00 0.  1.
</event>
<event>
 5   0  0.2789662E-05  0.2094378E+04  0.7818609E-02  0.8563724E-01
       -1   -1    0    0    0  501  0.00000000000E+00  0.00000000000E+00  0.84078235600E+03  0.84078235601E+03  0.50400001928E-02 0.  1.
        1   -1    0    0  501    0  0.00000000000E+00  0.00000000000E+00 -0.13042668213E+04  0.13042668213E+04  0.50400001928E-02 0. -1.
    10030    2    1    2    0    0  0.00000000000E+00  0.00000000000E+00 -0.46348446532E+03  0.21450491773E+04  0.20943777414E+04 0.  0.
        4    1    3    3  502    0  0.29380929423E+03 -0.98584129638E+03 -0.31052582203E+02  0.10291612307E+04  0.12699999809E+01 0.  1.
       -4    1    3    3    0  502 -0.29380929423E+03  0.98584129638E+03 -0.43243188312E+03  0.11158879466E+04  0.12699999809E+01 0. -1.
</event>
<event>
 5   0  0.5866610E-05  0.2088592E+04  0.7818609E-02  0.8566286E-01
       -2   -1    0    0    0  501  0.00000000000E+00  0.00000000000E+00  0.99345130337E+03  0.99345130337E+03  0.25500000920E-02 0.  1.
        2   -1    0    0  501    0  0.00000000000E+00  0.00000000000E+00 -0.10977424114E+04  0.10977424114E+04  0.25500000920E-02 0. -1.
    10030    2    1    2    0    0  0.00000000000E+00  0.00000000000E+00 -0.10429110800E+03  0.20911937147E+04  0.20885915152E+04 0.  0.
        5    1    3    3  502    0  0.25774671642E+03  0.78890670787E+03  0.58246143082E+03  0.10139480124E+04  0.46999998093E+01 0.  1.
       -5    1    3    3    0  502 -0.25774671642E+03 -0.78890670787E+03 -0.68675253881E+03  0.10772457023E+04  0.46999998093E+01 0. -1.
</event>
<event>
 5   0  0.2789662E-05  0.2119388E+04  0.7818609E-02  0.8552750E-01
       -1   -1    0    0    0  501  0.00000000000E+00  0.00000000000E+00  0.66858640370E+03  0.66858640372E+03  0.50400001928E-02 0. -1.
        1   -1    0    0  501    0  0.00000000000E+00  0.00000000000E+00 -0.16795909558E+04  0.16795909558E+04  0.50400001928E-02 0.  1.
    10030    2    1    2    0    0  0.00000000000E+00  0.00000000000E+00 -0.10110045521E+04  0.23481773595E+04  0.21193882861E+04 0.  0.
        4    1    3    3  502    0 -0.29476491911E+03  0.73581571345E+03 -0.12847302213E+04  0.15095842063E+04  0.12699999809E+01 0.  1.
       -4    1    3    3    0  502  0.29476491911E+03 -0.73581571345E+03  0.27372566917E+03  0.83859315318E+03  0.12699999809E+01 0. -1.
</event>
<event>
 5   0  0.2604390E-05  0.2104250E+04  0.7818609E-02  0.8559373E-01
       -1   -1    0    0    0  501  0.00000000000E+00  0.00000000000E+00  0.21216573419E+04  0.21216573419E+04  0.50400001928E-02 0.  1.
        1   -1    0    0  501    0  0.00000000000E+00  0.00000000000E+00 -0.52174654370E+03  0.52174654372E+03  0.50400001928E-02 0. -1.
    10030    2    1    2    0    0  0.00000000000E+00  0.00000000000E+00  0.15999107982E+04  0.26434038856E+04  0.21042503511E+04 0.  0.
        5    1    3    3  502    0  0.60987496773E+03  0.10894458258E+03 -0.26829723905E+03  0.67514583375E+03  0.46999998093E+01 0. -1.
       -5    1    3    3    0  502 -0.60987496773E+03 -0.10894458258E+03  0.18682080372E+04  0.19682580519E+04  0.46999998093E+01 0.  1.
</event>
<event>
 5   0  0.5462851E-05  0.2100595E+04  0.7818609E-02  0.8560981E-01
        2   -1    0    0  501    0  0.00000000000E+00  0.00000000000E+00  0.12934446668E+04  0.12934446668E+04  0.25500000920E-02 0.  1.
       -2   -1    0    0    0  501  0.00000000000E+00  0.00000000000E+00 -0.85285807425E+03  0.85285807425E+03  0.25500000920E-02 0. -1.
    10030    2    1    2    0    0  0.00000000000E+00  0.00000000000E+00  0.44058659258E+03  0.21463027411E+04  0.21005948945E+04 0.  0.
        1    1    3    3  502    0  0.47907323841E+03 -0.49295744310E+03 -0.59109343753E+03  0.90659233417E+03  0.50400001928E-02 0. -1.
       -1    1    3    3    0  502 -0.47907323841E+03  0.49295744310E+03  0.10316800301E+04  0.12397104069E+04  0.50400001928E-02 0.  1.
</event>
<event>
 5   0  0.5967046E-05  0.2102067E+04  0.7818609E-02  0.8560334E-01
       -2   -1    0    0    0  501  0.00000000000E+00  0.00000000000E+00  0.14666936307E+04  0.14666936307E+04  0.25500000920E-02 0. -1.
        2   -1    0    0  501    0  0.00000000000E+00  0.00000000000E+00 -0.75317089212E+03  0.75317089213E+03  0.25500000920E-02 0.  1.
    10030    2    1    2    0    0  0.00000000000E+00  0.00000000000E+00  0.71352273860E+03  0.22198645229E+04  0.21020665549E+04 0.  0.
        4    1    3    3  502    0  0.70632184039E+03  0.41364434148E+03 -0.33948575680E+03  0.88614015563E+03  0.12699999809E+01 0.  1.
       -4    1    3    3    0  502 -0.70632184039E+03 -0.41364434148E+03  0.10530084954E+04  0.13337243672E+04  0.12699999809E+01 0. -1.
</event>
<event>
 5   0  0.5506332E-05  0.2117568E+04  0.7818609E-02  0.8553544E-01
        2   -1    0    0  501    0  0.00000000000E+00  0.00000000000E+00  0.11023751123E+04  0.11023751123E+04  0.25500000920E-02 0.  1.
       -2   -1    0    0    0  501  0.00000000000E+00  0.00000000000E+00 -0.10169167875E+04  0.10169167875E+04  0.25500000920E-02 0. -1.
    10030    2    1    2    0    0  0.00000000000E+00  0.00000000000E+00  0.85458324748E+02  0.21192918998E+04  0.21175681881E+04 0.  0.
        3    1    3    3  502    0 -0.70015932724E+03 -0.74911862858E+03 -0.22134532677E+03  0.10489974104E+04  0.10100000352E+00 0. -1.
       -3    1    3    3    0  502  0.70015932724E+03  0.74911862858E+03  0.30680365152E+03  0.10702944894E+04  0.10100000352E+00 0.  1.
</event>
<event>
 5   0  0.2789662E-05  0.2108980E+04  0.7818609E-02  0.8557298E-01
       -1   -1    0    0    0  501  0.00000000000E+00  0.00000000000E+00  0.36997077104E+03  0.36997077108E+03  0.50400001928E-02 0.  1.
        1   -1    0    0  501    0  0.00000000000E+00  0.00000000000E+00 -0.30055051492E+04  0.30055051492E+04  0.50400001928E-02 0. -1.
    10030    2    1    2    0    0  0.00000000000E+00  0.00000000000E+00 -0.26355343782E+04  0.33754759203E+04  0.21089799027E+04 0.  0.
        4    1    3    3  502    0  0.97601800959E+03 -0.35706729513E+03 -0.16033577794E+04  0.19107239439E+04  0.12699999809E+01 0.  1.
       -4    1    3    3    0  502 -0.97601800959E+03  0.35706729513E+03 -0.10321765988E+04  0.14647519764E+04  0.12699999809E+01 0. -1.
</event>
<event>
 5   0  0.2699285E-05  0.2107122E+04  0.7818609E-02  0.8558112E-01
        1   -1    0    0  501    0  0.00000000000E+00  0.00000000000E+00  0.14430859550E+04  0.14430859550E+04  0.50400001928E-02 0. -1.
       -1   -1    0    0    0  501  0.00000000000E+00  0.00000000000E+00 -0.76917873739E+03  0.76917873740E+03  0.50400001928E-02 0.  1.
    10030    2    1    2    0    0  0.00000000000E+00  0.00000000000E+00  0.67390721757E+03  0.22122646924E+04  0.21071222393E+04 0.  0.
        2    1    3    3  502    0  0.56266333209E+03  0.50356663081E+03  0.11083409520E+04  0.13411148507E+04  0.25500000920E-02 0. -1.
       -2    1    3    3    0  502 -0.56266333209E+03 -0.50356663081E+03 -0.43443373445E+03  0.87114984163E+03  0.25500000920E-02 0.  1.
</event>
<event>
 5   0  0.5866610E-05  0.2094235E+04  0.7818609E-02  0.8563787E-01
       -2   -1    0    0    0  501  0.00000000000E+00  0.00000000000E+00  0.61503267159E+03  0.61503267160E+03  0.25500000920E-02 0. -1.
        2   -1    0    0  501    0  0.00000000000E+00  0.00000000000E+00 -0.17827582674E+04  0.17827582674E+04  0.25500000920E-02 0.  1.
    10030    2    1    2    0    0  0.00000000000E+00  0.00000000000E+00 -0.11677255958E+04  0.23977909390E+04  0.20942345428E+04 0.  0.
        5    1    3    3  502    0  0.74624716902E+02  0.12788663939E+03  0.60297386528E+03  0.62090531735E+03  0.46999998093E+01 0. -1.
       -5    1    3    3    0  502 -0.74624716902E+02 -0.12788663939E+03 -0.17706994611E+04  0.17768856217E+04  0.46999998093E+01 0.  1.
</event>
<event>
 5   0  0.2602060E-05  0.2116873E+04  0.7818609E-02  0.8553847E-01
        1   -1    0    0  501    0  0.00000000000E+00  0.00000000000E+00  0.66315464348E+03  0.66315464349E+03  0.50400001928E-02 0. -1.
       -1   -1    0    0    0  501  0.00000000000E+00  0.00000000000E+00 -0.16893312231E+04  0.16893312231E+04  0.50400001928E-02 0.  1.
    10030    2    1    2    0    0  0.00000000000E+00  0.00000000000E+00 -0.10261765796E+04  0.23524858666E+04  0.21168730193E+04 0.  0.
        1    1    3    3  502    0  0.42331826857E+03  0.49025013803E+03  0.41718810103E+03  0.77044757512E+03  0.50400001928E-02 0. -1.
       -1    1    3    3    0  502 -0.42331826857E+03 -0.49025013803E+03 -0.14433646807E+04  0.15820382915E+04  0.50400001928E-02 0.  1.
</event>
<event>
 5   0  0.5506332E-05  0.2100191E+04  0.7818609E-02  0.8561159E-01
        2   -1    0    0  501    0  0.00000000000E+00  0.00000000000E+00  0.47193571035E+03  0.47193571035E+03  0.25500000920E-02 0.  1.
       -2   -1    0    0    0  501  0.00000000000E+00  0.00000000000E+00 -0.23365480606E+04  0.23365480606E+04  0.25500000920E-02 0. -1.
    10030    2    1    2    0    0  0.00000000000E+00  0.00000000000E+00 -0.18646123502E+04  0.28084837709E+04  0.21001909139E+04 0.  0.
        3    1    3    3  502    0 -0.60540726892E+03 -0.24403163745E+03 -0.20322971130E+04  0.21345493593E+04  0.10100000352E+00 0. -1.
       -3    1    3    3    0  502  0.60540726892E+03  0.24403163745E+03  0.16768476280E+03  0.67393441166E+03  0.10100000352E+00 0.  1.
</event>
<event>
 5   0  0.2699285E-05  0.2093044E+04  0.7818609E-02  0.8564314E-01
        1   -1    0    0  501    0  0.00000000000E+00  0.00000000000E+00  0.72782421591E+03  0.72782421592E+03  0.50400001928E-02 0. -1.
       -1   -1    0    0    0  501  0.00000000000E+00  0.00000000000E+00 -0.15047700675E+04  0.15047700675E+04  0.50400001928E-02 0.  1.
    10030    2    1    2    0    0  0.00000000000E+00  0.00000000000E+00 -0.77694585156E+03  0.22325942834E+04  0.20930438070E+04 0.  0.
        2    1    3    3  502    0  0.45006703945E+03 -0.48902120585E+03 -0.12507687536E+04  0.14163772643E+04  0.25500000920E-02 0.  1.
       -2    1    3    3    0  502 -0.45006703945E+03  0.48902120585E+03  0.47382290205E+03  0.81621701911E+03  0.25500000920E-02 0. -1.
</event>
<event>
 5   0  0.2789662E-05  0.2101186E+04  0.7818609E-02  0.8560721E-01
        1   -1    0    0  501    0  0.00000000000E+00  0.00000000000E+00  0.13934028051E+04  0.13934028051E+04  0.50400001928E-02 0. -1.
       -1   -1    0    0    0  501  0.00000000000E+00  0.00000000000E+00 -0.79212237052E+03  0.79212237053E+03  0.50400001928E-02 0.  1.
    10030    2    1    2    0    0  0.00000000000E+00  0.00000000000E+00  0.60128043460E+03  0.21855251757E+04  0.21011858872E+04 0.  0.
        4    1    3    3  502    0 -0.19917988920E+02  0.63060203402E+03 -0.57313110608E+03  0.85237112178E+03  0.12699999809E+01 0.  1.
       -4    1    3    3    0  502  0.19917988920E+02 -0.63060203402E+03  0.11744115407E+04  0.13331540539E+04  0.12699999809E+01 0. -1.
</event>
<event>
 5   0  0.2017750E-05  0.2106479E+04  0.7818609E-02  0.8558395E-01
        3   -1    0    0  501    0  0.00000000000E+00  0.00000000000E+00  0.79553569557E+03  0.79553570198E+03  0.10100000352E+00 0.  1.
       -3   -1    0    0    0  501  0.00000000000E+00  0.00000000000E+00 -0.13944226269E+04  0.13944226306E+04  0.10100000352E+00 0. -1.
    10030    2    1    2    0    0  0.00000000000E+00  0.00000000000E+00 -0.59888693135E+03  0.21899583326E+04  0.21064785643E+04 0.  0.
        3    1    3    3  502    0 -0.70418146387E+03  0.78143601420E+03 -0.24443930636E+03  0.10799372033E+04  0.10100000352E+00 0. -1.
       -3    1    3    3    0  502  0.70418146387E+03 -0.78143601420E+03 -0.35444762499E+03  0.11100211293E+04  0.10100000352E+00 0.  1.
</event>
<event>
 5   0  0.5967046E-05  0.2124574E+04  0.7818609E-02  0.8550495E-01
       -2   -1    0    0    0  501  0.00000000000E+00  0.00000000000E+00  0.11438053742E+04  0.11438053742E+04  0.25500000920E-02 0.  1.
        2   -1    0    0  501    0  0.00000000000E+00  0.00000000000E+00 -0.98657801842E+03  0.98657801842E+03  0.25500000920E-02 0. -1.
    10030    2    1    2    0    0  0.00000000000E+00  0.00000000000E+00  0.15722735576E+03  0.21303833926E+04  0.21245735944E+04 0.  0.
        4    1    3    3  502    0  0.72711207256E+03  0.43060116108E+03  0.72406816602E+03  0.11128277710E+04  0.12699999809E+01 0.  1.
       -4    1    3    3    0  502 -0.72711207256E+03 -0.43060116108E+03 -0.56684081025E+03  0.10175556216E+04  0.12699999809E+01 0. -1.
</event>
<event>
 5   0  0.2604390E-05  0.2129150E+04  0.7818609E-02  0.8548510E-01
        1   -1    0    0  501    0  0.00000000000E+00  0.00000000000E+00  0.14107857692E+04  0.14107857692E+04  0.50400001928E-02 0.  1.
       -1   -1    0    0    0  501  0.00000000000E+00  0.00000000000E+00 -0.80332539281E+03  0.80332539283E+03  0.50400001928E-02 0. -1.
    10030    2    1    2    0    0  0.00000000000E+00  0.00000000000E+00  0.60746037642E+03  0.22141111621E+04  0.21291500955E+04 0.  0.
        5    1    3    3  502    0 -0.24939626613E+03  0.28827140090E+03  0.13373751812E+04  0.13906449452E+04  0.46999998093E+01 0.  1.
       -5    1    3    3    0  502  0.24939626613E+03 -0.28827140090E+03 -0.72991480480E+03  0.82346621691E+03  0.46999998093E+01 0. -1.
</event>
<event>
 5   0  0.5954140E-05  0.2084302E+04  0.7818609E-02  0.8568190E-01
       -2   -1    0    0    0  501  0.00000000000E+00  0.00000000000E+00  0.52076045780E+03  0.52076045780E+03  0.25500000920E-02 0. -1.
        2   -1    0    0  501    0  0.00000000000E+00  0.00000000000E+00 -0.20855639241E+04  0.20855639241E+04  0.25500000920E-02 0.  1.
    10030    2    1    2    0    0  0.00000000000E+00  0.00000000000E+00 -0.15648034663E+04  0.26063243819E+04  0.20843024962E+04 0.  0.
        2    1    3    3  502    0  0.36353759630E+03  0.21984332340E+02  0.43859236906E+03  0.57009311608E+03  0.25500000920E-02 0. -1.
       -2    1    3    3    0  502 -0.36353759630E+03 -0.21984332340E+02 -0.20033958354E+04  0.20362312659E+04  0.25500000920E-02 0.  1.
</event>
<event>
 5   0  0.2789662E-05  0.2105001E+04  0.7818609E-02  0.8559044E-01
       -1   -1    0    0    0  501  0.00000000000E+00  0.00000000000E+00  0.58296185098E+03  0.58296185100E+03  0.50400001928E-02 0. -1.
        1   -1    0    0  501    0  0.00000000000E+00  0.00000000000E+00 -0.19002220108E+04  0.19002220108E+04  0.50400001928E-02 0.  1.
    10030    2    1    2    0    0  0.00000000000E+00  0.00000000000E+00 -0.13172601598E+04  0.24831838618E+04  0.21050006563E+04 0.  0.
        4    1    3    3  502    0  0.65237162377E+03 -0.30509891605E+03 -0.15640378955E+04  0.17218856628E+04  0.12699999809E+01 0.  1.
       -4    1    3    3    0  502 -0.65237162377E+03  0.30509891605E+03  0.24677773574E+03  0.76129819902E+03  0.12699999809E+01 0. -1.
</event>
<event>
 5   0  0.2602060E-05  0.2115169E+04  0.7818609E-02  0.8554591E-01
       -1   -1    0    0    0  501  0.00000000000E+00  0.00000000000E+00  0.41951320699E+03  0.41951320702E+03  0.50400001928E-02 0.  1.
        1   -1    0    0  501    0  0.00000000000E+00  0.00000000000E+00 -0.26661492976E+04  0.26661492977E+04  0.50400001928E-02 0. -1.
    10030    2    1    2    0    0  0.00000000000E+00  0.00000000000E+00 -0.22466360907E+04  0.30856625047E+04  0.21151688748E+04 0.  0.
        1    1    3    3  502    0  0.71837476651E+03  0.66272237786E+03 -0.53394241559E+03  0.11137134993E+04  0.50400001928E-02 0.  1.
       -1    1    3    3    0  502 -0.71837476651E+03 -0.66272237786E+03 -0.17126936751E+04  0.19719490054E+04  0.50400001928E-02 0. -1.
</event>
<event>
 5   0  0.5954140E-05  0.2116006E+04  0.7818609E-02  0.8554225E-01
       -2   -1    0    0    0  501  0.00000000000E+00  0.00000000000E+00  0.74669000136E+03  0.74669000136E+03  0.25500000920E-02 0. -1.
        2   -1    0    0  501    0  0.00000000000E+00  0.00000000000E+00 -0.14991099642E+04  0.14991099642E+04  0.25500000920E-02 0.  1.
    10030    2    1    2    0    0  0.00000000000E+00  0.00000000000E+00 -0.75241996287E+03  0.22457999656E+04  0.21160060692E+04 0.  0.
        2    1    3    3  502    0 -0.54549468339E+03 -0.27699180469E+03  0.53991780443E+03  0.81596577441E+03  0.25500000920E-02 0. -1.
       -2    1    3    3    0  502  0.54549468339E+03  0.27699180469E+03 -0.12923377673E+04  0.14298341912E+04  0.25500000920E-02 0.  1.
</event>
<event>
 5   0  0.5462851E-05  0.1961479E+04  0.7818609E-02  0.8624845E-01
       -2   -1    0    0    0  501  0.00000000000E+00  0.00000000000E+00  0.10593141189E+04  0.10593141189E+04  0.25500000920E-02 0.  1.
        2   -1    0    0  501    0  0.00000000000E+00  0.00000000000E+00 -0.90799338875E+03  0.90799338876E+03  0.25500000920E-02 0. -1.
    10030    2    1    2    0    0  0.00000000000E+00  0.00000000000E+00  0.15132073018E+03  0.19673075077E+04  0.19614792547E+04 0.  0.
        1    1    3    3  502    0  0.25584306259E+02  0.21672953443E+03 -0.88333129809E+03  0.90989033957E+03  0.50400001928E-02 0. -1.
       -1    1    3    3    0  502 -0.25584306259E+02 -0.21672953443E+03  0.10346520283E+04  0.10574171681E+04  0.50400001928E-02 0.  1.
</event>
<event>
 5   0  0.2699285E-05  0.2085289E+04  0.7818609E-02  0.8567751E-01
       -1   -1    0    0    0  501  0.00000000000E+00  0.00000000000E+00  0.94989368607E+03  0.94989368608E+03  0.50400001928E-02 0.  1.
        1   -1    0    0  501    0  0.00000000000E+00  0.00000000000E+00 -0.11444520253E+04  0.11444520253E+04  0.50400001928E-02 0. -1.
    10030    2    1    2    0    0  0.00000000000E+00  0.00000000000E+00 -0.19455833927E+03  0.20943457114E+04  0.20852891914E+04 0.  0.
        2    1    3    3  502    0  0.55845137248E+02  0.10062578000E+04 -0.36571192985E+03  0.10721094418E+04  0.25500000920E-02 0. -1.
       -2    1    3    3    0  502 -0.55845137248E+02 -0.10062578000E+04  0.17115359057E+03  0.10222362697E+04  0.25500000920E-02 0.  1.
</event>
<event>
 5   0  0.2602060E-05  0.2129581E+04  0.7818609E-02  0.8548323E-01
       -1   -1    0    0    0  501  0.00000000000E+00  0.00000000000E+00  0.82450265151E+03  0.82450265152E+03  0.50400001928E-02 0.  1.
        1   -1    0    0  501    0  0.00000000000E+00  0.00000000000E+00 -0.13751065289E+04  0.13751065289E+04  0.50400001928E-02 0. -1.
    10030    2    1    2    0    0  0.00000000000E+00  0.00000000000E+00 -0.55060387738E+03  0.21996091804E+04  0.21295811599E+04 0.  0.
        1    1    3    3  502    0 -0.60745935058E+03  0.13756935798E+03 -0.11673251177E+04  0.13230949026E+04  0.50400001928E-02 0. -1.
       -1    1    3    3    0  502  0.60745935058E+03 -0.13756935798E+03  0.61672124035E+03  0.87651427780E+03  0.50400001928E-02 0.  1.
</event>
<event>
 5   0  0.2602060E-05  0.2079909E+04  0.7818609E-02  0.8570145E-01
        1   -1    0    0  501    0  0.00000000000E+00  0.00000000000E+00  0.94214034841E+03  0.94214034842E+03  0.50400001928E-02 0.  1.
       -1   -1    0    0    0  501  0.00000000000E+00  0.00000000000E+00 -0.11479242058E+04  0.11479242058E+04  0.50400001928E-02 0. -1.
    10030    2    1    2    0    0  0.00000000000E+00  0.00000000000E+00 -0.20578385735E+03  0.20900645542E+04  0.20799093357E+04 0.  0.
        1    1    3    3  502    0  0.90818317026E+03 -0.19272491236E+03  0.36797478196E+03  0.99867161909E+03  0.50400001928E-02 0.  1.
       -1    1    3    3    0  502 -0.90818317026E+03  0.19272491236E+03 -0.57375863931E+03  0.10913929351E+04  0.50400001928E-02 0. -1.
</event>
<event>
 5   0  0.5967046E-05  0.2072228E+04  0.7818609E-02  0.8573577E-01
       -2   -1    0    0    0  501  0.00000000000E+00  0.00000000000E+00  0.63572962625E+03  0.63572962625E+03  0.25500000920E-02 0.  1.
        2   -1    0    0  501    0  0.00000000000E+00  0.00000000000E+00 -0.16886618366E+04  0.16886618366E+04  0.25500000920E-02 0. -1.
    10030    2    1    2    0    0  0.00000000000E+00  0.00000000000E+00 -0.10529322104E+04  0.23243914629E+04  0.20722281325E+04 0.  0.
        4    1    3    3  502    0 -0.10611074953E+03 -0.54038322400E+03 -0.15109068873E+04  0.16081401540E+04  0.12699999809E+01 0. -1.
       -4    1    3    3    0  502  0.10611074953E+03  0.54038322400E+03  0.45797467688E+03  0.71625130891E+03  0.12699999809E+01 0.  1.
</event>
<event>
 5   0  0.2732159E-05  0.2091634E+04  0.7818609E-02  0.8564937E-01
       -1   -1    0    0    0  501  0.00000000000E+00  0.00000000000E+00  0.14417267819E+04  0.14417267819E+04  0.50400001928E-02 0. -1.
        1   -1    0    0  501    0  0.00000000000E+00  0.00000000000E+00 -0.75862747301E+03  0.75862747303E+03  0.50400001928E-02 0.  1.
    10030    2    1    2    0    0  0.00000000000E+00  0.00000000000E+00  0.68309930885E+03  0.22003542549E+04  0.20916343326E+04 0.  0.
        3    1    3    3  502    0 -0.14622655826E+03  0.42392588644E+03  0.13354539620E+04  0.14087344173E+04  0.10100000352E+00 0. -1.
       -3    1    3    3    0  502  0.14622655826E+03 -0.42392588644E+03 -0.65235465319E+03  0.79161983760E+03  0.10100000352E+00 0.  1.
</event>
<event>
 5   0  0.2602060E-05  0.2111909E+04  0.7818609E-02  0.8556015E-01
       -1   -1    0    0    0  501  0.00000000000E+00  0.00000000000E+00  0.13761889969E+04  0.13761889969E+04  0.50400001928E-02 0. -1.
        1   -1    0    0  501    0  0.00000000000E+00  0.00000000000E+00 -0.81023783787E+03  0.81023783788E+03  0.50400001928E-02 0.  1.
    10030    2    1    2    0    0  0.00000000000E+00  0.00000000000E+00  0.56595115899E+03  0.21864268347E+04  0.21119094652E+04 0.  0.
        1    1    3    3  502    0 -0.40929861212E+03 -0.39218604195E+03 -0.63936061573E+03  0.85446898268E+03  0.50400001928E-02 0.  1.
       -1    1    3    3    0  502  0.40929861212E+03  0.39218604195E+03  0.12053117747E+04  0.13319578521E+04  0.50400001928E-02 0. -1.
</event>
<event>
 5   0  0.2602060E-05  0.2100084E+04  0.7818609E-02  0.8561206E-01
        1   -1    0    0  501    0  0.00000000000E+00  0.00000000000E+00  0.13650027063E+04  0.13650027063E+04  0.50400001928E-02 0.  1.
       -1   -1    0    0    0  501  0.00000000000E+00  0.00000000000E+00 -0.80775570346E+03  0.80775570348E+03  0.50400001928E-02 0. -1.
    10030    2    1    2    0    0  0.00000000000E+00  0.00000000000E+00  0.55724700284E+03  0.21727584098E+04  0.21000844948E+04 0.  0.
        1    1    3    3  502    0  0.48165842235E+03  0.26405031960E+03 -0.64725934946E+03  0.84891817779E+03  0.50400001928E-02 0. -1.
       -1    1    3    3    0  502 -0.48165842235E+03 -0.26405031960E+03  0.12045063523E+04  0.13238402320E+04  0.50400001928E-02 0.  1.
</event>
<event>
 5   0  0.5967046E-05  0.2017870E+04  0.7818609E-02  0.8598311E-01
       -2   -1    0    0    0  501  0.00000000000E+00  0.00000000000E+00  0.87808111476E+03  0.87808111476E+03  0.25500000920E-02 0.  1.
        2   -1    0    0  501    0  0.00000000000E+00  0.00000000000E+00 -0.11592889399E+04  0.11592889399E+04  0.25500000920E-02 0. -1.
    10030    2    1    2    0    0  0.00000000000E+00  0.00000000000E+00 -0.28120782512E+03  0.20373700546E+04  0.20178698914E+04 0.  0.
        4    1    3    3  502    0  0.49995218231E+03  0.31641746328E+03  0.68453040469E+03  0.90479593474E+03  0.12699999809E+01 0.  1.
       -4    1    3    3    0  502 -0.49995218231E+03 -0.31641746328E+03 -0.96573822981E+03  0.11325741199E+04  0.12699999809E+01 0. -1.
</event>
<event>
 5   0  0.5506332E-05  0.2116991E+04  0.7818609E-02  0.8553795E-01
       -2   -1    0    0    0  501  0.00000000000E+00  0.00000000000E+00  0.99333799712E+03  0.99333799713E+03  0.25500000920E-02 0.  1.
        2   -1    0    0  501    0  0.00000000000E+00  0.00000000000E+00 -0.11279268565E+04  0.11279268565E+04  0.25500000920E-02 0. -1.
    10030    2    1    2    0    0  0.00000000000E+00  0.00000000000E+00 -0.13458885936E+03  0.21212648536E+04  0.21169908876E+04 0.  0.
        3    1    3    3  502    0 -0.50269017252E+03 -0.93151227563E+03 -0.67550140448E+02  0.10606486510E+04  0.10100000352E+00 0.  1.
       -3    1    3    3    0  502  0.50269017252E+03  0.93151227563E+03 -0.67038718910E+02  0.10606162026E+04  0.10100000352E+00 0. -1.
</event>
<event>
 5   0  0.5866610E-05  0.2118314E+04  0.7818609E-02  0.8553219E-01
       -2   -1    0    0    0  501  0.00000000000E+00  0.00000000000E+00  0.57659375832E+03  0.57659375833E+03  0.25500000920E-02 0.  1.
        2   -1    0    0  501    0  0.00000000000E+00  0.00000000000E+00 -0.19455874458E+04  0.19455874458E+04  0.25500000920E-02 0. -1.
    10030    2    1    2    0    0  0.00000000000E+00  0.00000000000E+00 -0.13689936875E+04  0.25221812041E+04  0.21183140254E+04 0.  0.
        5    1    3    3  502    0  0.49448312668E+03  0.92410745485E+03 -0.50273823089E+03  0.11624353614E+04  0.46999998093E+01 0.  1.
       -5    1    3    3    0  502 -0.49448312668E+03 -0.92410745485E+03 -0.86625545658E+03  0.13597458427E+04  0.46999998093E+01 0. -1.
</event>
<event>
 5   0  0.5506332E-05  0.2103900E+04  0.7818609E-02  0.8559527E-01
       -2   -1    0    0    0  501  0.00000000000E+00  0.00000000000E+00  0.80747494864E+03  0.80747494864E+03  0.25500000920E-02 0. -1.
        2   -1    0    0  501    0  0.00000000000E+00  0.00000000000E+00 -0.13704437872E+04  0.13704437872E+04  0.25500000920E-02 0.  1.
    10030    2    1    2    0    0  0.00000000000E+00  0.00000000000E+00 -0.56296883855E+03  0.21779187358E+04  0.21039002131E+04 0.  0.
        3    1    3    3  502    0  0.54261027420E+03  0.89958591697E+03 -0.33740611975E+03  0.11034145330E+04  0.10100000352E+00 0. -1.
       -3    1    3    3    0  502 -0.54261027420E+03 -0.89958591697E+03 -0.22556271880E+03  0.10745042029E+04  0.10100000352E+00 0.  1.
</event>
<event>
 5   0  0.2604390E-05  0.2173712E+04  0.7818609E-02  0.8529450E-01
        1   -1    0    0  501    0  0.00000000000E+00  0.00000000000E+00  0.16496277362E+04  0.16496277362E+04  0.50400001928E-02 0. -1.
       -1   -1    0    0    0  501  0.00000000000E+00  0.00000000000E+00 -0.71607414041E+03  0.71607414043E+03  0.50400001928E-02 0.  1.
    10030    2    1    2    0    0  0.00000000000E+00  0.00000000000E+00  0.93355359582E+03  0.23657018767E+04  0.21737118146E+04 0.  0.
        5    1    3    3  502    0  0.93342078850E+03  0.29695848096E+03  0.97930091793E+03  0.13851032762E+04  0.46999998093E+01 0. -1.
       -5    1    3    3    0  502 -0.93342078850E+03 -0.29695848096E+03 -0.45747322109E+02  0.98059860050E+03  0.46999998093E+01 0.  1.
</event>
<event>
 5   0  0.5866610E-05  0.2117880E+04  0.7818609E-02  0.8553408E-01
        2   -1    0    0  501    0  0.00000000000E+00  0.00000000000E+00  0.10997103509E+04  0.10997103509E+04  0.25500000920E-02 0.  1.
       -2   -1    0    0    0  501  0.00000000000E+00  0.00000000000E+00 -0.10196813085E+04  0.10196813085E+04  0.25500000920E-02 0. -1.
    10030    2    1    2    0    0  0.00000000000E+00  0.00000000000E+00  0.80029042435E+02  0.21193916594E+04  0.21178801567E+04 0.  0.
        5    1    3    3  502    0  0.97750289593E+03 -0.40707660376E+03  0.29579871544E+02  0.10593018133E+04  0.46999998093E+01 0. -1.
       -5    1    3    3    0  502 -0.97750289593E+03  0.40707660376E+03  0.50449170891E+02  0.10600898461E+04  0.46999998093E+01 0.  1.
</event>
<event>
 5   0  0.5954140E-05  0.2107169E+04  0.7818609E-02  0.8558092E-01
        2   -1    0    0  501    0  0.00000000000E+00  0.00000000000E+00  0.20035293742E+04  0.20035293742E+04  0.25500000920E-02 0.  1.
       -2   -1    0    0    0  501  0.00000000000E+00  0.00000000000E+00 -0.55404250053E+03  0.55404250054E+03  0.25500000920E-02 0. -1.
    10030    2    1    2    0    0  0.00000000000E+00  0.00000000000E+00  0.14494868737E+04  0.25575718748E+04  0.21071691194E+04 0.  0.
        2    1    3    3  502    0  0.28344409623E+03 -0.54920625383E+03 -0.31091304173E+03  0.69183450656E+03  0.25500000920E-02 0. -1.
       -2    1    3    3    0  502 -0.28344409623E+03  0.54920625383E+03  0.17603999154E+04  0.18657373682E+04  0.25500000920E-02 0.  1.
</event>
<event>
 5   0  0.5866610E-05  0.2102735E+04  0.7818609E-02  0.8560039E-01
       -2   -1    0    0    0  501  0.00000000000E+00  0.00000000000E+00  0.71549763244E+03  0.71549763245E+03  0.25500000920E-02 0. -1.
        2   -1    0    0  501    0  0.00000000000E+00  0.00000000000E+00 -0.15449022076E+04  0.15449022076E+04  0.25500000920E-02 0.  1.
    10030    2    1    2    0    0  0.00000000000E+00  0.00000000000E+00 -0.82940457511E+03  0.22603998400E+04  0.21027352395E+04 0.  0.
        5    1    3    3  502    0 -0.71172830293E+03 -0.63532870889E+02 -0.12437335088E+04  0.14343949016E+04  0.46999998093E+01 0.  1.
       -5    1    3    3    0  502  0.71172830293E+03  0.63532870889E+02  0.41432893372E+03  0.82600493836E+03  0.46999998093E+01 0. -1.
</event>
<event>
 5   0  0.2602060E-05  0.2099876E+04  0.7818609E-02  0.8561298E-01
       -1   -1    0    0    0  501  0.00000000000E+00  0.00000000000E+00  0.11634875053E+04  0.11634875053E+04  0.50400001928E-02 0. -1.
        1   -1    0    0  501    0  0.00000000000E+00  0.00000000000E+00 -0.94747047351E+03  0.94747047353E+03  0.50400001928E-02 0.  1.
    10030    2    1    2    0    0  0.00000000000E+00  0.00000000000E+00  0.21601703178E+03  0.21109579788E+04  0.20998762417E+04 0.  0.
        1    1    3    3  502    0 -0.65653398910E+03  0.68945250869E+03 -0.33703357863E+03  0.10099372623E+04  0.50400001928E-02 0.  1.
       -1    1    3    3    0  502  0.65653398910E+03 -0.68945250869E+03  0.55305061040E+03  0.11010207166E+04  0.50400001928E-02 0. -1.
</event>
<event>
 5   0  0.5954140E-05  0.2104444E+04  0.7818609E-02  0.8559288E-01
        2   -1    0    0  501    0  0.00000000000E+00  0.00000000000E+00  0.98120813568E+03  0.98120813569E+03  0.25500000920E-02 0.  1.
       -2   -1    0    0    0  501  0.00000000000E+00  0.00000000000E+00 -0.11283750475E+04  0.11283750475E+04  0.25500000920E-02 0. -1.
    10030    2    1    2    0    0  0.00000000000E+00  0.00000000000E+00 -0.14716691178E+03  0.21095831832E+04  0.21044436573E+04 0.  0.
        2    1    3    3  502    0 -0.17574577578E+03  0.99375578996E+03 -0.37219285493E+03  0.10756229214E+04  0.25500000920E-02 0. -1.
       -2    1    3    3    0  502  0.17574577578E+03 -0.99375578996E+03  0.22502594315E+03  0.10339602617E+04  0.25500000920E-02 0.  1.
</event>
<event>
 5   0  0.2604390E-05  0.2076018E+04  0.7818609E-02  0.8571882E-01
       -1   -1    0    0    0  501  0.00000000000E+00  0.00000000000E+00  0.11265957661E+04  0.11265957661E+04  0.50400001928E-02 0.  1.
        1   -1    0    0  501    0  0.00000000000E+00  0.00000000000E+00 -0.95638829796E+03  0.95638829797E+03  0.50400001928E-02 0. -1.
    10030    2    1    2    0    0  0.00000000000E+00  0.00000000000E+00  0.17020746811E+03  0.20829840640E+04  0.20760183113E+04 0.  0.
        5    1    3    3  502    0 -0.26752158404E+03 -0.21792774932E+03 -0.89715020246E+03  0.96122883728E+03  0.46999998093E+01 0. -1.
       -5    1    3    3    0  502  0.26752158404E+03  0.21792774932E+03  0.10673576706E+04  0.11217552268E+04  0.46999998093E+01 0.  1.
</event>
<event>
 5   0  0.2732159E-05  0.2092494E+04  0.7818609E-02  0.8564557E-01
       -1   -1    0    0    0  501  0.00000000000E+00  0.00000000000E+00  0.97324681507E+03  0.97324681509E+03  0.50400001928E-02 0.  1.
        1   -1    0    0  501    0  0.00000000000E+00  0.00000000000E+00 -0.11247222953E+04  0.11247222953E+04  0.50400001928E-02 0. -1.
    10030    2    1    2    0    0  0.00000000000E+00  0.00000000000E+00 -0.15147548026E+03  0.20979691104E+04  0.20924936242E+04 0.  0.
        3    1    3    3  502    0 -0.97032652799E+02 -0.95849956458E+03  0.33336874738E+03  0.10194466553E+04  0.10100000352E+00 0.  1.
       -3    1    3    3    0  502  0.97032652799E+02  0.95849956458E+03 -0.48484422764E+03  0.10785224552E+04  0.10100000352E+00 0. -1.
</event>
<event>
 5   0  0.5967046E-05  0.2027890E+04  0.7818609E-02  0.8593691E-01
        2   -1    0    0  501    0  0.00000000000E+00  0.00000000000E+00  0.73311655497E+03  0.73311655497E+03  0.25500000920E-02 0.  1.
       -2   -1    0    0    0  501  0.00000000000E+00  0.00000000000E+00 -0.14023480351E+04  0.14023480351E+04  0.25500000920E-02 0. -1.
    10030    2    1    2    0    0  0.00000000000E+00  0.00000000000E+00 -0.66923148014E+03  0.21354645901E+04  0.20278900960E+04 0.  0.
        4    1    3    3  502    0 -0.14664253839E+03  0.34897021134E+03  0.65592011229E+03  0.75730908424E+03  0.12699999809E+01 0.  1.
       -4    1    3    3    0  502  0.14664253839E+03 -0.34897021134E+03 -0.13251515924E+04  0.13781555058E+04  0.12699999809E+01 0. -1.
</event>
<event>
 5   0  0.2604390E-05  0.2098555E+04  0.7818609E-02  0.8561880E-01
       -1   -1    0    0    0  501  0.00000000000E+00  0.00000000000E+00  0.87737664928E+03  0.87737664929E+03  0.50400001928E-02 0.  1.
        1   -1    0    0  501    0  0.00000000000E+00  0.00000000000E+00 -0.12548582000E+04  0.12548582000E+04  0.50400001928E-02 0. -1.
    10030    2    1    2    0    0  0.00000000000E+00  0.00000000000E+00 -0.37748155076E+03  0.21322348493E+04  0.20985550104E+04 0.  0.
        5    1    3    3  502    0  0.40278761332E+03  0.56632603126E+03  0.61000443945E+03  0.92471105827E+03  0.46999998093E+01 0.  1.
       -5    1    3    3    0  502 -0.40278761332E+03 -0.56632603126E+03 -0.98748599021E+03  0.12075237911E+04  0.46999998093E+01 0. -1.
</event>
<event>
 5   0  0.2602060E-05  0.2104108E+04  0.7818609E-02  0.8559436E-01
        1   -1    0    0  501    0  0.00000000000E+00  0.00000000000E+00  0.15983251202E+04  0.15983251202E+04  0.50400001928E-02 0. -1.
       -1   -1    0    0    0  501  0.00000000000E+00  0.00000000000E+00 -0.69248561088E+03  0.69248561090E+03  0.50400001928E-02 0.  1.
    10030    2    1    2    0    0  0.00000000000E+00  0.00000000000E+00  0.90583950933E+03  0.22908107311E+04  0.21041075517E+04 0.  0.
        1    1    3    3  502    0  0.39800665247E+03 -0.33479934443E+03  0.14485699914E+04  0.15391084811E+04  0.50400001928E-02 0. -1.
       -1    1    3    3    0  502 -0.39800665247E+03  0.33479934443E+03 -0.54273048212E+03  0.75170225002E+03  0.50400001928E-02 0.  1.
</event>
<event>
 5   0  0.2604390E-05  0.2101724E+04  0.7818609E-02  0.8560484E-01
       -1   -1    0    0    0  501  0.00000000000E+00  0.00000000000E+00  0.64241838035E+03  0.64241838037E+03  0.50400001928E-02 0. -1.
        1   -1    0    0  501    0  0.00000000000E+00  0.00000000000E+00 -0.17189899960E+04  0.17189899960E+04  0.50400001928E-02 0.  1.
    10030    2    1    2    0    0  0.00000000000E+00  0.00000000000E+00 -0.10765716157E+04  0.23614083764E+04  0.21017238345E+04 0.  0.
        5    1    3    3  502    0 -0.24150550830E+03  0.58180843123E+03  0.40674774729E+03  0.74986117456E+03  0.46999998093E+01 0. -1.
       -5    1    3    3    0  502  0.24150550830E+03 -0.58180843123E+03 -0.14833193630E+04  0.16115472019E+04  0.46999998093E+01 0.  1.
</event>
<event>
 5   0  0.5866610E-05  0.2101259E+04  0.7818609E-02  0.8560689E-01
        2   -1    0    0  501    0  0.00000000000E+00  0.00000000000E+00  0.87924149354E+03  0.87924149355E+03  0.25500000920E-02 0. -1.
       -2   -1    0    0    0  501  0.00000000000E+00  0.00000000000E+00 -0.12554250808E+04  0.12554250808E+04  0.25500000920E-02 0.  1.
    10030    2    1    2    0    0  0.00000000000E+00  0.00000000000E+00 -0.37618358725E+03  0.21346665744E+04  0.21012585020E+04 0.  0.
        5    1    3    3  502    0  0.53639702403E+03 -0.46056136720E+03 -0.97759715421E+03  0.12064645980E+04  0.46999998093E+01 0.  1.
       -5    1    3    3    0  502 -0.53639702403E+03  0.46056136720E+03  0.60141356696E+03  0.92820197633E+03  0.46999998093E+01 0. -1.
</event>
<event>
 5   0  0.2602060E-05  0.2070352E+04  0.7818609E-02  0.8574417E-01
        1   -1    0    0  501    0  0.00000000000E+00  0.00000000000E+00  0.12908855112E+04  0.12908855112E+04  0.50400001928E-02 0.  1.
       -1   -1    0    0    0  501  0.00000000000E+00  0.00000000000E+00 -0.83011988640E+03  0.83011988641E+03  0.50400001928E-02 0. -1.
    10030    2    1    2    0    0  0.00000000000E+00  0.00000000000E+00  0.46076562481E+03  0.21210053976E+04  0.20703523700E+04 0.  0.
        1    1    3    3  502    0  0.64508197243E+03  0.63402158228E+03  0.74616412073E+03  0.11725506441E+04  0.50400001928E-02 0.  1.
       -1    1    3    3    0  502 -0.64508197243E+03 -0.63402158228E+03 -0.28539849592E+03  0.94845475350E+03  0.50400001928E-02 0. -1.
</event>
<event>
 5   0  0.2017750E-05  0.2079954E+04  0.7818609E-02  0.8570126E-01
        3   -1    0    0  501    0  0.00000000000E+00  0.00000000000E+00  0.93563291376E+03  0.93563291921E+03  0.10100000352E+00 0. -1.
       -3   -1    0    0    0  501  0.00000000000E+00  0.00000000000E+00 -0.11559573677E+04  0.11559573721E+04  0.10100000352E+00 0.  1.
    10030    2    1    2    0    0  0.00000000000E+00  0.00000000000E+00 -0.22032445397E+03  0.20915902914E+04  0.20799536249E+04 0.  0.
        4    1    3    3  502    0 -0.22087807180E+03 -0.38316968188E+03 -0.10566741919E+04  0.11454990565E+04  0.12699999809E+01 0.  1.
       -4    1    3    3    0  502  0.22087807180E+03  0.38316968188E+03  0.83634973791E+03  0.94609123488E+03  0.12699999809E+01 0. -1.
</event>
<event>
 5   0  0.5866610E-05  0.2101947E+04  0.7818609E-02  0.8560386E-01
        2   -1    0    0  501    0  0.00000000000E+00  0.00000000000E+00  0.12294369789E+04  0.12294369789E+04  0.25500000920E-02 0. -1.
       -2   -1    0    0    0  501  0.00000000000E+00  0.00000000000E+00 -0.89841551083E+03  0.89841551084E+03  0.25500000920E-02 0.  1.
    10030    2    1    2    0    0  0.00000000000E+00  0.00000000000E+00  0.33102146807E+03  0.21278524897E+04  0.21019469560E+04 0.  0.
        5    1    3    3  502    0  0.10014280943E+04 -0.30121583723E+03  0.27136499943E+03  0.10803935679E+04  0.46999998093E+01 0.  1.
       -5    1    3    3    0  502 -0.10014280943E+04  0.30121583723E+03  0.59656468638E+02  0.10474589218E+04  0.46999998093E+01 0. -1.
</event>
<event>
 5   0  0.2604390E-05  0.2116560E+04  0.7818609E-02  0.8553984E-01
        1   -1    0    0  501    0  0.00000000000E+00  0.00000000000E+00  0.12757214109E+04  0.12757214109E+04  0.50400001928E-02 0.  1.
       -1   -1    0    0    0  501  0.00000000000E+00  0.00000000000E+00 -0.87790031573E+03  0.87790031575E+03  0.50400001928E-02 0. -1.
    10030    2    1    2    0    0  0.00000000000E+00  0.00000000000E+00  0.39782109519E+03  0.21536217267E+04  0.21165596892E+04 0.  0.
        5    1    3    3  502    0 -0.56653971555E+03 -0.81637144192E+03  0.56929633539E+03  0.11452292294E+04  0.46999998093E+01 0.  1.
       -5    1    3    3    0  502  0.56653971555E+03  0.81637144192E+03 -0.17147524020E+03  0.10083924972E+04  0.46999998093E+01 0. -1.
</event>
<event>
 5   0  0.5967046E-05  0.2108902E+04  0.7818609E-02  0.8557332E-01
       -2   -1    0    0    0  501  0.00000000000E+00  0.00000000000E+00  0.56828918527E+03  0.56828918528E+03  0.25500000920E-02 0.  1.
        2   -1    0    0  501    0  0.00000000000E+00  0.00000000000E+00 -0.19565154364E+04  0.19565154364E+04  0.25500000920E-02 0. -1.
    10030    2    1    2    0    0  0.00000000000E+00  0.00000000000E+00 -0.13882262511E+04  0.25248046217E+04  0.21089016699E+04 0.  0.
        4    1    3    3  502    0 -0.40473253133E+03 -0.26464081619E+03  0.42770922163E+03  0.64558498640E+03  0.12699999809E+01 0.  1.
       -4    1    3    3    0  502  0.40473253133E+03  0.26464081619E+03 -0.18159354727E+04  0.18792196353E+04  0.12699999809E+01 0. -1.
</event>
<event>
 5   0  0.2789662E-05  0.2139040E+04  0.7818609E-02  0.8544238E-01
       -1   -1    0    0    0  501  0.00000000000E+00  0.00000000000E+00  0.46971724589E+03  0.46971724592E+03  0.50400001928E-02 0.  1.
        1   -1    0    0  501    0  0.00000000000E+00  0.00000000000E+00 -0.24352371824E+04  0.24352371824E+04  0.50400001928E-02 0. -1.
    10030    2    1    2    0    0  0.00000000000E+00  0.00000000000E+00 -0.19655199365E+04  0.29049544283E+04  0.21390398804E+04 0.  0.
        4    1    3    3  502    0  0.10184144602E+04 -0.26130308849E+03 -0.71655167846E+03  0.12723581404E+04  0.12699999809E+01 0. -1.
       -4    1    3    3    0  502 -0.10184144602E+04  0.26130308849E+03 -0.12489682580E+04  0.16325962879E+04  0.12699999809E+01 0.  1.
</event>
<event>
 5   0  0.2699285E-05  0.2098323E+04  0.7818609E-02  0.8561982E-01
        1   -1    0    0  501    0  0.00000000000E+00  0.00000000000E+00  0.10423041691E+04  0.10423041691E+04  0.50400001928E-02 0.  1.
       -1   -1    0    0    0  501  0.00000000000E+00  0.00000000000E+00 -0.10560639895E+04  0.10560639895E+04  0.50400001928E-02 0. -1.
    10030    2    1    2    0    0  0.00000000000E+00  0.00000000000E+00 -0.13759820414E+02  0.20983681586E+04  0.20983230438E+04 0.  0.
        2    1    3    3  502    0 -0.80062645837E+03 -0.36510480679E+03 -0.57823767065E+03  0.10529306955E+04  0.25500000920E-02 0. -1.
       -2    1    3    3    0  502  0.80062645837E+03  0.36510480679E+03  0.56447785024E+03  0.10454374631E+04  0.25500000920E-02 0.  1.
</event>
<event>
 5   0  0.2732159E-05  0.2102815E+04  0.7818609E-02  0.8560004E-01
        1   -1    0    0  501    0  0.00000000000E+00  0.00000000000E+00  0.88167280574E+03  0.88167280575E+03  0.50400001928E-02 0. -1.
       -1   -1    0    0    0  501  0.00000000000E+00  0.00000000000E+00 -0.12538186236E+04  0.12538186237E+04  0.50400001928E-02 0.  1.
    10030    2    1    2    0    0  0.00000000000E+00  0.00000000000E+00 -0.37214581791E+03  0.21354914294E+04  0.21028150502E+04 0.  0.
        3    1    3    3  502    0  0.59549166410E+03  0.55232715827E+03  0.49197143741E+03  0.94958491837E+03  0.10100000352E+00 0. -1.
       -3    1    3    3    0  502 -0.59549166410E+03 -0.55232715827E+03 -0.86411725531E+03  0.11859065110E+04  0.10100000352E+00 0.  1.
</event>
<event>
 5   0  0.5506332E-05  0.2102732E+04  0.7818609E-02  0.8560041E-01
        2   -1    0    0  501    0  0.00000000000E+00  0.00000000000E+00  0.15091309368E+04  0.15091309368E+04  0.25500000920E-02 0.  1.
       -2   -1    0    0    0  501  0.00000000000E+00  0.00000000000E+00 -0.73245518889E+03  0.73245518890E+03  0.25500000920E-02 0. -1.
    10030    2    1    2    0    0  0.00000000000E+00  0.00000000000E+00  0.77667574790E+03  0.22415861257E+04  0.21027323038E+04 0.  0.
        3    1    3    3  502    0 -0.21204906149E+03 -0.69014969307E+03  0.12030699461E+04  0.14030854246E+04  0.10100000352E+00 0.  1.
       -3    1    3    3    0  502  0.21204906149E+03  0.69014969307E+03 -0.42639419818E+03  0.83850070111E+03  0.10100000352E+00 0. -1.
</event>
<event>
 5   0  0.2699285E-05  0.2097318E+04  0.7818609E-02  0.8562426E-01
        1   -1    0    0  501    0  0.00000000000E+00  0.00000000000E+00  0.10110538671E+04  0.10110538671E+04  0.50400001928E-02 0.  1.
       -1   -1    0    0    0  501  0.00000000000E+00  0.00000000000E+00 -0.10876624428E+04  0.10876624428E+04  0.50400001928E-02 0. -1.
    10030    2    1    2    0    0  0.00000000000E+00  0.00000000000E+00 -0.76608575665E+02  0.20987163099E+04  0.20973176382E+04 0.  0.
        2    1    3    3  502    0  0.10136137947E+04 -0.12940880105E+03  0.19749189454E+03  0.10407509842E+04  0.25500000920E-02 0.  1.
       -2    1    3    3    0  502 -0.10136137947E+04  0.12940880105E+03 -0.27410047021E+03  0.10579653257E+04  0.25500000920E-02 0. -1.
</event>
<event>
 5   0  0.2699285E-05  0.2101884E+04  0.7818609E-02  0.8560414E-01
       -1   -1    0    0    0  501  0.00000000000E+00  0.00000000000E+00  0.16392563820E+04  0.16392563820E+04  0.50400001928E-02 0. -1.
        1   -1    0    0  501    0  0.00000000000E+00  0.00000000000E+00 -0.67376829030E+03  0.67376829032E+03  0.50400001928E-02 0.  1.
    10030    2    1    2    0    0  0.00000000000E+00  0.00000000000E+00  0.96548809171E+03  0.23130246723E+04  0.21018838882E+04 0.  0.
        2    1    3    3  502    0  0.91329014871E+03  0.38411451180E+03  0.97057417706E+02  0.99552146950E+03  0.25500000920E-02 0.  1.
       -2    1    3    3    0  502 -0.91329014871E+03 -0.38411451180E+03  0.86843067400E+03  0.13175032028E+04  0.25500000920E-02 0. -1.
</event>
<event>
 5   0  0.5866610E-05  0.2110604E+04  0.7818609E-02  0.8556587E-01
        2   -1    0    0  501    0  0.00000000000E+00  0.00000000000E+00  0.10310677372E+04  0.10310677372E+04  0.25500000920E-02 0.  1.
       -2   -1    0    0    0  501  0.00000000000E+00  0.00000000000E+00 -0.10801058101E+04  0.10801058101E+04  0.25500000920E-02 0. -1.
    10030    2    1    2    0    0  0.00000000000E+00  0.00000000000E+00 -0.49038072890E+02  0.21111735474E+04  0.21106039455E+04 0.  0.
        5    1    3    3  502    0 -0.89286961134E+03  0.30987173017E+03 -0.49411728075E+03  0.10664945425E+04  0.46999998093E+01 0. -1.
       -5    1    3    3    0  502  0.89286961134E+03 -0.30987173017E+03  0.44507920786E+03  0.10446790049E+04  0.46999998093E+01 0.  1.
</event>
<event>
 5   0  0.5967046E-05  0.2101230E+04  0.7818609E-02  0.8560702E-01
       -2   -1    0    0    0  501  0.00000000000E+00  0.00000000000E+00  0.64246611454E+03  0.64246611454E+03  0.25500000920E-02 0.  1.
        2   -1    0    0  501    0  0.00000000000E+00  0.00000000000E+00 -0.17180542568E+04  0.17180542568E+04  0.25500000920E-02 0. -1.
    10030    2    1    2    0    0  0.00000000000E+00  0.00000000000E+00 -0.10755881423E+04  0.23605203714E+04  0.21012297761E+04 0.  0.
        4    1    3    3  502    0 -0.10153367087E+04 -0.26231720886E+03 -0.60947258944E+03  0.12129210198E+04  0.12699999809E+01 0. -1.
       -4    1    3    3    0  502  0.10153367087E+04  0.26231720886E+03 -0.46611555287E+03  0.11475993516E+04  0.12699999809E+01 0.  1.
</event>
<event>
 5   0  0.2699285E-05  0.2105920E+04  0.7818609E-02  0.8558640E-01
       -1   -1    0    0    0  501  0.00000000000E+00  0.00000000000E+00  0.20425406501E+04  0.20425406501E+04  0.50400001928E-02 0.  1.
        1   -1    0    0  501    0  0.00000000000E+00  0.00000000000E+00 -0.54281666939E+03  0.54281666941E+03  0.50400001928E-02 0. -1.
    10030    2    1    2    0    0  0.00000000000E+00  0.00000000000E+00  0.14997239807E+04  0.25853573195E+04  0.21059203335E+04 0.  0.
        2    1    3    3  502    0  0.54468173193E+03  0.89580038484E+03  0.62964769722E+03  0.12229442919E+04  0.25500000920E-02 0. -1.
       -2    1    3    3    0  502 -0.54468173193E+03 -0.89580038484E+03  0.87007628346E+03  0.13624130275E+04  0.25500000920E-02 0.  1.
</event>
<event>
 5   0  0.2732159E-05  0.2089537E+04  0.7818609E-02  0.8565867E-01
       -1   -1    0    0    0  501  0.00000000000E+00  0.00000000000E+00  0.13041958879E+04  0.13041958879E+04  0.50400001928E-02 0. -1.
        1   -1    0    0  501    0  0.00000000000E+00  0.00000000000E+00 -0.83694554421E+03  0.83694554423E+03  0.50400001928E-02 0.  1.
    10030    2    1    2    0    0  0.00000000000E+00  0.00000000000E+00  0.46725034367E+03  0.21411414321E+04  0.20895367306E+04 0.  0.
        3    1    3    3  502    0  0.23983930792E+03 -0.57265336604E+03  0.10946668898E+04  0.12584714463E+04  0.10100000352E+00 0. -1.
       -3    1    3    3    0  502 -0.23983930792E+03  0.57265336604E+03 -0.62741654617E+03  0.88266998582E+03  0.10100000352E+00 0.  1.
</event>
<event>
 5   0  0.2604390E-05  0.2090894E+04  0.7818609E-02  0.8565265E-01
        1   -1    0    0  501    0  0.00000000000E+00  0.00000000000E+00  0.83802180571E+03  0.83802180573E+03  0.50400001928E-02 0.  1.
       -1   -1    0    0    0  501  0.00000000000E+00  0.00000000000E+00 -0.13042139995E+04  0.13042139995E+04  0.50400001928E-02 0. -1.
    10030    2    1    2    0    0  0.00000000000E+00  0.00000000000E+00 -0.46619219381E+03  0.21422358053E+04  0.20908943263E+04 0.  0.
        5    1    3    3  502    0  0.88445700042E+03  0.55670299281E+03 -0.20493904315E+03  0.10649903799E+04  0.46999998093E+01 0. -1.
       -5    1    3    3    0  502 -0.88445700042E+03 -0.55670299281E+03 -0.26125315066E+03  0.10772454254E+04  0.46999998093E+01 0.  1.
</event>
<event>
 5   0  0.5954140E-05  0.2098396E+04  0.7818609E-02  0.8561950E-01
        2   -1    0    0  501    0  0.00000000000E+00  0.00000000000E+00  0.93179063104E+03  0.93179063104E+03  0.25500000920E-02 0. -1.
       -2   -1    0    0    0  501  0.00000000000E+00  0.00000000000E+00 -0.11813994341E+04  0.11813994341E+04  0.25500000920E-02 0.  1.
    10030    2    1    2    0    0  0.00000000000E+00  0.00000000000E+00 -0.24960880308E+03  0.21131900652E+04  0.20983964585E+04 0.  0.
        2    1    3    3  502    0 -0.76945377988E+03  0.43509621494E+03  0.44437849620E+03  0.98936347392E+03  0.25500000920E-02 0. -1.
       -2    1    3    3    0  502  0.76945377988E+03 -0.43509621494E+03 -0.69398729928E+03  0.11238265912E+04  0.25500000920E-02 0.  1.
</event>
<event>
 5   0  0.2602060E-05  0.2094521E+04  0.7818609E-02  0.8563661E-01
       -1   -1    0    0    0  501  0.00000000000E+00  0.00000000000E+00  0.97953680764E+03  0.97953680766E+03  0.50400001928E-02 0. -1.
        1   -1    0    0  501    0  0.00000000000E+00  0.00000000000E+00 -0.11196669710E+04  0.11196669711E+04  0.50400001928E-02 0.  1.
    10030    2    1    2    0    0  0.00000000000E+00  0.00000000000E+00 -0.14013016340E+03  0.20992037787E+04  0.20945214350E+04 0.  0.
        1    1    3    3  502    0 -0.32508729786E+03  0.49394989154E+03  0.79620898096E+03  0.99177466592E+03  0.50400001928E-02 0. -1.
       -1    1    3    3    0  502  0.32508729786E+03 -0.49394989154E+03 -0.93633914436E+03  0.11074291128E+04  0.50400001928E-02 0.  1.
</event>
<event>
 5   0  0.5866610E-05  0.2104962E+04  0.7818609E-02  0.8559061E-01
       -2   -1    0    0    0  501  0.00000000000E+00  0.00000000000E+00  0.49780180634E+03  0.49780180635E+03  0.25500000920E-02 0.  1.
        2   -1    0    0  501    0  0.00000000000E+00  0.00000000000E+00 -0.22252156376E+04  0.22252156376E+04  0.25500000920E-02 0. -1.
    10030    2    1    2    0    0  0.00000000000E+00  0.00000000000E+00 -0.17274138312E+04  0.27230174439E+04  0.21049621031E+04 0.  0.
        5    1    3    3  502    0  0.11969401533E+03  0.43079382022E+02 -0.22152203167E+04  0.22188748572E+04  0.46999998093E+01 0. -1.
       -5    1    3    3    0  502 -0.11969401533E+03 -0.43079382022E+02  0.48780648547E+03  0.50414258670E+03  0.46999998093E+01 0.  1.
</event>
<event>
 5   0  0.2732159E-05  0.2100834E+04  0.7818609E-02  0.8560876E-01
        1   -1    0    0  501    0  0.00000000000E+00  0.00000000000E+00  0.21883234330E+04  0.21883234330E+04  0.50400001928E-02 0.  1.
       -1   -1    0    0    0  501  0.00000000000E+00  0.00000000000E+00 -0.50421049430E+03  0.50421049433E+03  0.50400001928E-02 0. -1.
    10030    2    1    2    0    0  0.00000000000E+00  0.00000000000E+00  0.16841129387E+04  0.26925339273E+04  0.21008337772E+04 0.  0.
        3    1    3    3  502    0 -0.40027435920E+03 -0.20628767657E+03  0.20583427741E+04  0.21070237668E+04  0.10100000352E+00 0.  1.
       -3    1    3    3    0  502  0.40027435920E+03  0.20628767657E+03 -0.37422983540E+03  0.58551016050E+03  0.10100000352E+00 0. -1.
</event>
<event>
 5   0  0.5954140E-05  0.2098213E+04  0.7818609E-02  0.8562031E-01
        2   -1    0    0  501    0  0.00000000000E+00  0.00000000000E+00  0.13536271298E+04  0.13536271298E+04  0.25500000920E-02 0.  1.
       -2   -1    0    0    0  501  0.00000000000E+00  0.00000000000E+00 -0.81309287573E+03  0.81309287573E+03  0.25500000920E-02 0. -1.
    10030    2    1    2    0    0  0.00000000000E+00  0.00000000000E+00  0.54053425407E+03  0.21667200055E+04  0.20982131213E+04 0.  0.
        2    1    3    3  502    0  0.45742137735E+03 -0.68631778112E+03  0.93978617470E+03  0.12503857274E+04  0.25500000920E-02 0.  1.
       -2    1    3    3    0  502 -0.45742137735E+03  0.68631778112E+03 -0.39925192063E+03  0.91633427813E+03  0.25500000920E-02 0. -1.
</event>
<event>
 5   0  0.5866610E-05  0.2039064E+04  0.7818609E-02  0.8588572E-01
       -2   -1    0    0    0  501  0.00000000000E+00  0.00000000000E+00  0.15478958996E+04  0.15478958996E+04  0.25500000920E-02 0. -1.
        2   -1    0    0  501    0  0.00000000000E+00  0.00000000000E+00 -0.67152145126E+03  0.67152145126E+03  0.25500000920E-02 0.  1.
    10030    2    1    2    0    0  0.00000000000E+00  0.00000000000E+00  0.87637444831E+03  0.22194173508E+04  0.20390638057E+04 0.  0.
        5    1    3    3  502    0  0.39948915860E+02 -0.99732154613E+03  0.21201746425E+03  0.10204017235E+04  0.46999998093E+01 0.  1.
       -5    1    3    3    0  502 -0.39948915860E+02  0.99732154613E+03  0.66435698406E+03  0.11990156273E+04  0.46999998093E+01 0. -1.
</event>
<event>
 5   0  0.2602060E-05  0.2095773E+04  0.7818609E-02  0.8563108E-01
        1   -1    0    0  501    0  0.00000000000E+00  0.00000000000E+00  0.12770616755E+04  0.12770616755E+04  0.50400001928E-02 0. -1.
       -1   -1    0    0    0  501  0.00000000000E+00  0.00000000000E+00 -0.85983770562E+03  0.85983770563E+03  0.50400001928E-02 0.  1.
    10030    2    1    2    0    0  0.00000000000E+00  0.00000000000E+00  0.41722396989E+03  0.21368993812E+04  0.20957726795E+04 0.  0.
        1    1    3    3  502    0 -0.84047861308E+03 -0.47855576313E+03 -0.20259587757E+03  0.98816243964E+03  0.50400001928E-02 0.  1.
       -1    1    3    3    0  502  0.84047861308E+03  0.47855576313E+03  0.61981984746E+03  0.11487369415E+04  0.50400001928E-02 0. -1.
</event>
<event>
 5   0  0.2789662E-05  0.2092030E+04  0.7818609E-02  0.8564762E-01
        1   -1    0    0  501    0  0.00000000000E+00  0.00000000000E+00  0.16495577529E+04  0.16495577529E+04  0.50400001928E-02 0. -1.
       -1   -1    0    0    0  501  0.00000000000E+00  0.00000000000E+00 -0.66329755463E+03  0.66329755465E+03  0.50400001928E-02 0.  1.
    10030    2    1    2    0    0  0.00000000000E+00  0.00000000000E+00  0.98626019827E+03  0.23128553076E+04  0.20920302328E+04 0.  0.
        4    1    3    3  502    0  0.44219457938E+03 -0.94754962489E+03  0.46265859398E+03  0.11434338307E+04  0.12699999809E+01 0.  1.
       -4    1    3    3    0  502 -0.44219457938E+03  0.94754962489E+03  0.52360160428E+03  0.11694214769E+04  0.12699999809E+01 0. -1.
</event>
<event>
 5   0  0.5506332E-05  0.2101998E+04  0.7818609E-02  0.8560364E-01
        2   -1    0    0  501    0  0.00000000000E+00  0.00000000000E+00  0.10641822229E+04  0.10641822229E+04  0.25500000920E-02 0.  1.
       -2   -1    0    0    0  501  0.00000000000E+00  0.00000000000E+00 -0.10379795559E+04  0.10379795559E+04  0.25500000920E-02 0. -1.
    10030    2    1    2    0    0  0.00000000000E+00  0.00000000000E+00  0.26202667072E+02  0.21021617788E+04  0.21019984692E+04 0.  0.
        3    1    3    3  502    0  0.57661438427E+03 -0.85578792128E+03 -0.18626878003E+03  0.10485958149E+04  0.10100000352E+00 0. -1.
       -3    1    3    3    0  502 -0.57661438427E+03  0.85578792128E+03  0.21247144710E+03  0.10535659639E+04  0.10100000352E+00 0.  1.
</event>
<event>
 5   0  0.2604390E-05  0.1997615E+04  0.7818609E-02  0.8607736E-01
        1   -1    0    0  501    0  0.00000000000E+00  0.00000000000E+00  0.21248978309E+04  0.21248978309E+04  0.50400001928E-02 0. -1.
       -1   -1    0    0    0  501  0.00000000000E+00  0.00000000000E+00 -0.46948918067E+03  0.46948918070E+03  0.50400001928E-02 0.  1.
    10030    2    1    2    0    0  0.00000000000E+00  0.00000000000E+00  0.16554086503E+04  0.25943870116E+04  0.19976151198E+04 0.  0.
        5    1    3    3  502    0 -0.56438837724E+03 -0.80023490345E+03  0.10831451900E+04  0.14601834589E+04  0.46999998093E+01 0.  1.
       -5    1    3    3    0  502  0.56438837724E+03  0.80023490345E+03  0.57226346029E+03  0.11342035527E+04  0.46999998093E+01 0. -1.
</event>
<event>
 5   0  0.5462851E-05  0.2079196E+04  0.7818609E-02  0.8570463E-01
        2   -1    0    0  501    0  0.00000000000E+00  0.00000000000E+00  0.88084241415E+03  0.88084241416E+03  0.25500000920E-02 0.  1.
       -2   -1    0    0    0  501  0.00000000000E+00  0.00000000000E+00 -0.12269663572E+04  0.12269663572E+04  0.25500000920E-02 0. -1.
    10030    2    1    2    0    0  0.00000000000E+00  0.00000000000E+00 -0.34612394303E+03  0.21078087713E+04  0.20791960063E+04 0.  0.
        1    1    3    3  502    0  0.19923008419E+03  0.80162788821E+03 -0.81298889207E+03  0.11589869871E+04  0.50400001928E-02 0. -1.
       -1    1    3    3    0  502 -0.19923008419E+03 -0.80162788821E+03  0.46686494904E+03  0.94882178425E+03  0.50400001928E-02 0.  1.
</event>
<event>
 5   0  0.2602060E-05  0.2057323E+04  0.7818609E-02  0.8580280E-01
       -1   -1    0    0    0  501  0.00000000000E+00  0.00000000000E+00  0.19637634617E+04  0.19637634617E+04  0.50400001928E-02 0. -1.
        1   -1    0    0  501    0  0.00000000000E+00  0.00000000000E+00 -0.53883487622E+03  0.53883487624E+03  0.50400001928E-02 0.  1.
    10030    2    1    2    0    0  0.00000000000E+00  0.00000000000E+00  0.14249285855E+04  0.25025983379E+04  0.20573227669E+04 0.  0.
        1    1    3    3  502    0 -0.76597091572E+02 -0.53669644834E+03  0.17758771609E+04  0.18567848240E+04  0.50400001928E-02 0. -1.
       -1    1    3    3    0  502  0.76597091572E+02  0.53669644834E+03 -0.35094857544E+03  0.64581351390E+03  0.50400001928E-02 0.  1.
</event>
<event>
 5   0  0.5954140E-05  0.2095068E+04  0.7818609E-02  0.8563419E-01
       -2   -1    0    0    0  501  0.00000000000E+00  0.00000000000E+00  0.88228793572E+03  0.88228793572E+03  0.25500000920E-02 0.  1.
        2   -1    0    0  501    0  0.00000000000E+00  0.00000000000E+00 -0.12437293171E+04  0.12437293171E+04  0.25500000920E-02 0. -1.
    10030    2    1    2    0    0  0.00000000000E+00  0.00000000000E+00 -0.36144138135E+03  0.21260172528E+04  0.20950678956E+04 0.  0.
        2    1    3    3  502    0  0.23344741286E+03  0.81020987315E+03  0.45006439840E+03  0.95576968765E+03  0.25500000920E-02 0.  1.
       -2    1    3    3    0  502 -0.23344741286E+03 -0.81020987315E+03 -0.81150577975E+03  0.11702475651E+04  0.25500000920E-02 0. -1.
</event>
<event>
 5   0  0.2732159E-05  0.2107556E+04  0.7818609E-02  0.8557922E-01
       -1   -1    0    0    0  501  0.00000000000E+00  0.00000000000E+00  0.11623898246E+04  0.11623898247E+04  0.50400001928E-02 0. -1.
        1   -1    0    0  501    0  0.00000000000E+00  0.00000000000E+00 -0.95531456938E+03  0.95531456939E+03  0.50400001928E-02 0.  1.
    10030    2    1    2    0    0  0.00000000000E+00  0.00000000000E+00  0.20707525527E+03  0.21177043940E+04  0.21075558686E+04 0.  0.
        3    1    3    3  502    0  0.85550995963E+03 -0.61003504095E+03  0.18397233900E+03  0.10667173355E+04  0.10100000352E+00 0.  1.
       -3    1    3    3    0  502 -0.85550995963E+03  0.61003504095E+03  0.23102916270E+02  0.10509870585E+04  0.10100000352E+00 0. -1.
</event>
<event>
 5   0  0.5967046E-05  0.2102829E+04  0.7818609E-02  0.8559998E-01
       -2   -1    0    0    0  501  0.00000000000E+00  0.00000000000E+00  0.84305201804E+03  0.84305201804E+03  0.25500000920E-02 0.  1.
        2   -1    0    0  501    0  0.00000000000E+00  0.00000000000E+00 -0.13112737338E+04  0.13112737338E+04  0.25500000920E-02 0. -1.
    10030    2    1    2    0    0  0.00000000000E+00  0.00000000000E+00 -0.46822171572E+03  0.21543257518E+04  0.21028285403E+04 0.  0.
        4    1    3    3  502    0  0.20853690217E+03  0.88637068763E+03  0.30443328614E+03  0.96011555245E+03  0.12699999809E+01 0.  1.
       -4    1    3    3    0  502 -0.20853690217E+03 -0.88637068763E+03 -0.77265500186E+03  0.11942101994E+04  0.12699999809E+01 0. -1.
</event>
<event>
 5   0  0.5462851E-05  0.2064671E+04  0.7818609E-02  0.8576968E-01
       -2   -1    0    0    0  501  0.00000000000E+00  0.00000000000E+00  0.42623454049E+03  0.42623454050E+03  0.25500000920E-02 0. -1.
        2   -1    0    0  501    0  0.00000000000E+00  0.00000000000E+00 -0.25003049378E+04  0.25003049378E+04  0.25500000920E-02 0.  1.
    10030    2    1    2    0    0  0.00000000000E+00  0.00000000000E+00 -0.20740703973E+04  0.29265394783E+04  0.20646707498E+04 0.  0.
        1    1    3    3  502    0 -0.88004760167E+03  0.48574170337E+03 -0.70374908012E+03  0.12270662376E+04  0.50400001928E-02 0. -1.
       -1    1    3    3    0  502  0.88004760167E+03 -0.48574170337E+03 -0.13703213172E+04  0.16994732407E+04  0.50400001928E-02 0.  1.
</event>
<event>
 5   0  0.2732159E-05  0.2131584E+04  0.7818609E-02  0.8547457E-01
       -1   -1    0    0    0  501  0.00000000000E+00  0.00000000000E+00  0.54828665909E+03  0.54828665911E+03  0.50400001928E-02 0.  1.
        1   -1    0    0  501    0  0.00000000000E+00  0.00000000000E+00 -0.20717493251E+04  0.20717493251E+04  0.50400001928E-02 0. -1.
    10030    2    1    2    0    0  0.00000000000E+00  0.00000000000E+00 -0.15234626660E+04  0.26200359842E+04  0.21315839331E+04 0.  0.
        3    1    3    3  502    0  0.80603336237E+03  0.66517330521E+03 -0.50458567667E+03  0.11604964552E+04  0.10100000352E+00 0. -1.
       -3    1    3    3    0  502 -0.80603336237E+03 -0.66517330521E+03 -0.10188769894E+04  0.14595395290E+04  0.10100000352E+00 0.  1.
</event>
<event>
 5   0  0.2604390E-05  0.2098058E+04  0.7818609E-02  0.8562099E-01
       -1   -1    0    0    0  501  0.00000000000E+00  0.00000000000E+00  0.11375600860E+04  0.11375600860E+04  0.50400001928E-02 0.  1.
        1   -1    0    0  501    0  0.00000000000E+00  0.00000000000E+00 -0.96738767769E+03  0.96738767770E+03  0.50400001928E-02 0. -1.
    10030    2    1    2    0    0  0.00000000000E+00  0.00000000000E+00  0.17017240828E+03  0.21049477637E+04  0.20980577779E+04 0.  0.
        5    1    3    3  502    0 -0.57104102781E+03 -0.74149735170E+03  0.56049181051E+03  0.10909075752E+04  0.46999998093E+01 0.  1.
       -5    1    3    3    0  502  0.57104102781E+03  0.74149735170E+03 -0.39031940223E+03  0.10140401884E+04  0.46999998093E+01 0. -1.
</event>
<event>
 5   0  0.2732159E-05  0.2072006E+04  0.7818609E-02  0.8573676E-01
       -1   -1    0    0    0  501  0.00000000000E+00  0.00000000000E+00  0.86598115622E+03  0.86598115623E+03  0.50400001928E-02 0.  1.
        1   -1    0    0  501    0  0.00000000000E+00  0.00000000000E+00 -0.12394059307E+04  0.12394059307E+04  0.50400001928E-02 0. -1.
    10030    2    1    2    0    0  0.00000000000E+00  0.00000000000E+00 -0.37342477448E+03  0.21053870869E+04  0.20720059661E+04 0.  0.
        3    1    3    3  502    0  0.52959553368E+03 -0.10393458943E+03 -0.10852829769E+04  0.12120697085E+04  0.10100000352E+00 0. -1.
       -3    1    3    3    0  502 -0.52959553368E+03  0.10393458943E+03  0.71185820237E+03  0.89331737846E+03  0.10100000352E+00 0.  1.
</event>
<event>
 5   0  0.2017750E-05  0.2138993E+04  0.7818609E-02  0.8544258E-01
        3   -1    0    0  501    0  0.00000000000E+00  0.00000000000E+00  0.58251023470E+03  0.58251024345E+03  0.10100000352E+00 0.  1.
       -3   -1    0    0    0  501  0.00000000000E+00  0.00000000000E+00 -0.19636101930E+04  0.19636101956E+04  0.10100000352E+00 0. -1.
    10030    2    1    2    0    0  0.00000000000E+00  0.00000000000E+00 -0.13810999583E+04  0.25461204390E+04  0.21389932668E+04 0.  0.
        4    1    3    3  502    0 -0.58595399466E+03  0.40337756820E+03  0.26005518559E+03  0.75742052972E+03  0.12699999809E+01 0.  1.
       -4    1    3    3    0  502  0.58595399466E+03 -0.40337756820E+03 -0.16411551439E+04  0.17886999093E+04  0.12699999809E+01 0. -1.
</event>
<event>
 5   0  0.5954140E-05  0.2115098E+04  0.7818609E-02  0.8554622E-01
       -2   -1    0    0    0  501  0.00000000000E+00  0.00000000000E+00  0.63813069774E+03  0.63813069775E+03  0.25500000920E-02 0.  1.
        2   -1    0    0  501    0  0.00000000000E+00  0.00000000000E+00 -0.17526339766E+04  0.17526339766E+04  0.25500000920E-02 0. -1.
    10030    2    1    2    0    0  0.00000000000E+00  0.00000000000E+00 -0.11145032789E+04  0.23907646744E+04  0.21150976738E+04 0.  0.
        2    1    3    3  502    0  0.10211236062E+03  0.67028167342E+03 -0.14746372230E+04  0.16230401706E+04  0.25500000920E-02 0. -1.
       -2    1    3    3    0  502 -0.10211236062E+03 -0.67028167342E+03  0.36013394415E+03  0.76772450374E+03  0.25500000920E-02 0.  1.
</event>
<event>
 5   0  0.2732159E-05  0.2215687E+04  0.7818609E-02  0.8511927E-01
        1   -1    0    0  501    0  0.00000000000E+00  0.00000000000E+00  0.10691365434E+04  0.10691365434E+04  0.50400001928E-02 0. -1.
       -1   -1    0    0    0  501  0.00000000000E+00  0.00000000000E+00 -0.11479513672E+04  0.11479513672E+04  0.50400001928E-02 0.  1.
    10030    2    1    2    0    0  0.00000000000E+00  0.00000000000E+00 -0.78814823795E+02  0.22170879105E+04  0.22156865813E+04 0.  0.
        3    1    3    3  502    0  0.55945883164E+03 -0.79222176789E+03 -0.57519655702E+03  0.11275906186E+04  0.10100000352E+00 0.  1.
       -3    1    3    3    0  502 -0.55945883164E+03  0.79222176789E+03  0.49638173322E+03  0.10894972919E+04  0.10100000352E+00 0. -1.
</event>
<event>
 5   0  0.5462851E-05  0.2103213E+04  0.7818609E-02  0.8559830E-01
        2   -1    0    0  501    0  0.00000000000E+00  0.00000000000E+00  0.14990338236E+04  0.14990338236E+04  0.25500000920E-02 0.  1.
       -2   -1    0    0    0  501  0.00000000000E+00  0.00000000000E+00 -0.73772566854E+03  0.73772566854E+03  0.25500000920E-02 0. -1.
    10030    2    1    2    0    0  0.00000000000E+00  0.00000000000E+00  0.76130815506E+03  0.22367594921E+04  0.21032125234E+04 0.  0.
        1    1    3    3  502    0 -0.16911019802E+02  0.36701342291E+03 -0.66724955055E+03  0.76171306797E+03  0.50400001928E-02 0. -1.
       -1    1    3    3    0  502  0.16911019802E+02 -0.36701342291E+03  0.14285577056E+04  0.14750464242E+04  0.50400001928E-02 0.  1.
</event>
<event>
 5   0  0.5967046E-05  0.2098349E+04  0.7818609E-02  0.8561971E-01
       -2   -1    0    0    0  501  0.00000000000E+00  0.00000000000E+00  0.83096711895E+03  0.83096711896E+03  0.25500000920E-02 0. -1.
        2   -1    0    0  501    0  0.00000000000E+00  0.00000000000E+00 -0.13246824979E+04  0.13246824979E+04  0.25500000920E-02 0.  1.
    10030    2    1    2    0    0  0.00000000000E+00  0.00000000000E+00 -0.49371537899E+03  0.21556496169E+04  0.20983494455E+04 0.  0.
        4    1    3    3  502    0 -0.89362132177E+03 -0.24233277504E+03  0.26005546329E+03  0.96172485539E+03  0.12699999809E+01 0. -1.
       -4    1    3    3    0  502  0.89362132177E+03  0.24233277504E+03 -0.75377084228E+03  0.11939247615E+04  0.12699999809E+01 0.  1.
</event>
<event>
 5   0  0.2604390E-05  0.2110614E+04  0.7818609E-02  0.8556582E-01
        1   -1    0    0  501    0  0.00000000000E+00  0.00000000000E+00  0.29342913047E+04  0.29342913047E+04  0.50400001928E-02 0. -1.
       -1   -1    0    0    0  501  0.00000000000E+00  0.00000000000E+00 -0.37953707729E+03  0.37953707732E+03  0.50400001928E-02 0.  1.
    10030    2    1    2    0    0  0.00000000000E+00  0.00000000000E+00  0.25547542274E+04  0.33138283820E+04  0.21106135087E+04 0.  0.
        5    1    3    3  502    0 -0.27292423095E+03 -0.38014955409E+03  0.27624495067E+04  0.28018120362E+04  0.46999998093E+01 0. -1.
       -5    1    3    3    0  502  0.27292423095E+03  0.38014955409E+03 -0.20769527929E+03  0.51201634579E+03  0.46999998093E+01 0.  1.
</event>
<event>
 5   0  0.5506332E-05  0.2115582E+04  0.7818609E-02  0.8554410E-01
        2   -1    0    0  501    0  0.00000000000E+00  0.00000000000E+00  0.23917613000E+04  0.23917613000E+04  0.25500000920E-02 0. -1.
       -2   -1    0    0    0  501  0.00000000000E+00  0.00000000000E+00 -0.46782315452E+03  0.46782315453E+03  0.25500000920E-02 0.  1.
    10030    2    1    2    0    0  0.00000000000E+00  0.00000000000E+00  0.19239381455E+04  0.28595844545E+04  0.21155815430E+04 0.  0.
        3    1    3    3  502    0  0.42282563757E+03 -0.79512509148E+03  0.17120173160E+04  0.19344272360E+04  0.10100000352E+00 0. -1.
       -3    1    3    3    0  502 -0.42282563757E+03  0.79512509148E+03  0.21192082951E+03  0.92515721857E+03  0.10100000352E+00 0.  1.
</event>
<event>
 5   0  0.5506332E-05  0.2102338E+04  0.7818609E-02  0.8560214E-01
        2   -1    0    0  501    0  0.00000000000E+00  0.00000000000E+00  0.15750171956E+04  0.15750171957E+04  0.25500000920E-02 0. -1.
       -2   -1    0    0    0  501  0.00000000000E+00  0.00000000000E+00 -0.70155205779E+03  0.70155205779E+03  0.25500000920E-02 0.  1.
    10030    2    1    2    0    0  0.00000000000E+00  0.00000000000E+00  0.87346513786E+03  0.22765692534E+04  0.21023382741E+04 0.  0.
        3    1    3    3  502    0 -0.83942795111E+03  0.28339904322E+03 -0.17583609909E+03  0.90325668929E+03  0.10100000352E+00 0.  1.
       -3    1    3    3    0  502  0.83942795111E+03 -0.28339904322E+03  0.10493012369E+04  0.13733125642E+04  0.10100000352E+00 0. -1.
</event>
<event>
 5   0  0.2699285E-05  0.2102697E+04  0.7818609E-02  0.8560056E-01
       -1   -1    0    0    0  501  0.00000000000E+00  0.00000000000E+00  0.65434140755E+03  0.65434140757E+03  0.50400001928E-02 0.  1.
        1   -1    0    0  501    0  0.00000000000E+00  0.00000000000E+00 -0.16892303932E+04  0.16892303932E+04  0.50400001928E-02 0. -1.
    10030    2    1    2    0    0  0.00000000000E+00  0.00000000000E+00 -0.10348889857E+04  0.23435718008E+04  0.21026967382E+04 0.  0.
        2    1    3    3  502    0  0.23646442414E+03 -0.83152464037E+03  0.14941429832E+03  0.87731025526E+03  0.25500000920E-02 0.  1.
       -2    1    3    3    0  502 -0.23646442414E+03  0.83152464037E+03 -0.11843032840E+04  0.14662615455E+04  0.25500000920E-02 0. -1.
</event>
<event>
 5   0  0.2604390E-05  0.2104296E+04  0.7818609E-02  0.8559353E-01
        1   -1    0    0  501    0  0.00000000000E+00  0.00000000000E+00  0.11443700603E+04  0.11443700603E+04  0.50400001928E-02 0.  1.
       -1   -1    0    0    0  501  0.00000000000E+00  0.00000000000E+00 -0.96735755205E+03  0.96735755206E+03  0.50400001928E-02 0. -1.
    10030    2    1    2    0    0  0.00000000000E+00  0.00000000000E+00  0.17701250822E+03  0.21117276123E+04  0.21042956258E+04 0.  0.
        5    1    3    3  502    0  0.72877152547E+03 -0.72050105847E+03 -0.15058552996E+03  0.10358222837E+04  0.46999998093E+01 0.  1.
       -5    1    3    3    0  502 -0.72877152547E+03  0.72050105847E+03  0.32759803817E+03  0.10759053286E+04  0.46999998093E+01 0. -1.
</event>
<event>
 5   0  0.2602060E-05  0.2095736E+04  0.7818609E-02  0.8563124E-01
        1   -1    0    0  501    0  0.00000000000E+00  0.00000000000E+00  0.10845668391E+04  0.10845668391E+04  0.50400001928E-02 0. -1.
       -1   -1    0    0    0  501  0.00000000000E+00  0.00000000000E+00 -0.10124105878E+04  0.10124105878E+04  0.50400001928E-02 0.  1.
    10030    2    1    2    0    0  0.00000000000E+00  0.00000000000E+00  0.72156251255E+02  0.20969774269E+04  0.20957356237E+04 0.  0.
        1    1    3    3  502    0 -0.14045730403E+03 -0.95569378312E+03  0.44245679591E+03  0.10624720597E+04  0.50400001928E-02 0. -1.
       -1    1    3    3    0  502  0.14045730403E+03  0.95569378312E+03 -0.37030054466E+03  0.10345053672E+04  0.50400001928E-02 0.  1.
</event>
<event>
 5   0  0.5866610E-05  0.2113869E+04  0.7818609E-02  0.8555158E-01
        2   -1    0    0  501    0  0.00000000000E+00  0.00000000000E+00  0.13526879833E+04  0.13526879833E+04  0.25500000920E-02 0.  1.
       -2   -1    0    0    0  501  0.00000000000E+00  0.00000000000E+00 -0.82584506536E+03  0.82584506536E+03  0.25500000920E-02 0. -1.
    10030    2    1    2    0    0  0.00000000000E+00  0.00000000000E+00  0.52684291790E+03  0.21785330486E+04  0.21138691501E+04 0.  0.
        5    1    3    3  502    0  0.29005523472E+03 -0.88565961678E+02  0.13068719448E+04  0.13416081167E+04  0.46999998093E+01 0.  1.
       -5    1    3    3    0  502 -0.29005523472E+03  0.88565961678E+02 -0.78002902692E+03  0.83692493188E+03  0.46999998093E+01 0. -1.
</event>
<event>
 5   0  0.5506332E-05  0.2102292E+04  0.7818609E-02  0.8560234E-01
       -2   -1    0    0    0  501  0.00000000000E+00  0.00000000000E+00  0.81778831935E+03  0.81778831936E+03  0.25500000920E-02 0. -1.
        2   -1    0    0  501    0  0.00000000000E+00  0.00000000000E+00 -0.13510925299E+04  0.13510925299E+04  0.25500000920E-02 0.  1.
    10030    2    1    2    0    0  0.00000000000E+00  0.00000000000E+00 -0.53330421057E+03  0.21688808493E+04  0.21022917869E+04 0.  0.
        3    1    3    3  502    0  0.69425292609E+03  0.51316300355E+03  0.35199509584E+03  0.93232180673E+03  0.10100000352E+00 0. -1.
       -3    1    3    3    0  502 -0.69425292609E+03 -0.51316300355E+03 -0.88529930641E+03  0.12365590426E+04  0.10100000352E+00 0.  1.
</event>
<event>
 5   0  0.5967046E-05  0.2141680E+04  0.7818609E-02  0.8543102E-01
        2   -1    0    0  501    0  0.00000000000E+00  0.00000000000E+00  0.10717460113E+04  0.10717460113E+04  0.25500000920E-02 0. -1.
       -2   -1    0    0    0  501  0.00000000000E+00  0.00000000000E+00 -0.10699349579E+04  0.10699349579E+04  0.25500000920E-02 0.  1.
    10030    2    1    2    0    0  0.00000000000E+00  0.00000000000E+00  0.18110534008E+01  0.21416809693E+04  0.21416802036E+04 0.  0.
        4    1    3    3  502    0  0.13420255859E+03 -0.10240782579E+04  0.28366047873E+03  0.10710795886E+04  0.12699999809E+01 0. -1.
       -4    1    3    3    0  502 -0.13420255859E+03  0.10240782579E+04 -0.28184942533E+03  0.10706013807E+04  0.12699999809E+01 0.  1.
</event>
<event>
 5   0  0.5506332E-05  0.2086516E+04  0.7818609E-02  0.8567207E-01
       -2   -1    0    0    0  501  0.00000000000E+00  0.00000000000E+00  0.70779776929E+03  0.70779776929E+03  0.25500000920E-02 0. -1.
        2   -1    0    0  501    0  0.00000000000E+00  0.00000000000E+00 -0.15377094854E+04  0.15377094854E+04  0.25500000920E-02 0.  1.
    10030    2    1    2    0    0  0.00000000000E+00  0.00000000000E+00 -0.82991171612E+03  0.22455072547E+04  0.20865160853E+04 0.  0.
        3    1    3    3  502    0 -0.28781777353E+03 -0.84930420647E+03 -0.98871307634E+03  0.13348072008E+04  0.10100000352E+00 0.  1.
       -3    1    3    3    0  502  0.28781777353E+03  0.84930420647E+03  0.15880136022E+03  0.91070005386E+03  0.10100000352E+00 0. -1.
</event>
<event>
 5   0  0.2604390E-05  0.2090944E+04  0.7818609E-02  0.8565243E-01
       -1   -1    0    0    0  501  0.00000000000E+00  0.00000000000E+00  0.63236488354E+03  0.63236488356E+03  0.50400001928E-02 0.  1.
        1   -1    0    0  501    0  0.00000000000E+00  0.00000000000E+00 -0.17284514342E+04  0.17284514342E+04  0.50400001928E-02 0. -1.
    10030    2    1    2    0    0  0.00000000000E+00  0.00000000000E+00 -0.10960865506E+04  0.23608163177E+04  0.20909442746E+04 0.  0.
        5    1    3    3  502    0 -0.66267936376E+03 -0.80034448714E+03 -0.67822751194E+03  0.12408504685E+04  0.46999998093E+01 0. -1.
       -5    1    3    3    0  502  0.66267936376E+03  0.80034448714E+03 -0.41785903869E+03  0.11199658492E+04  0.46999998093E+01 0.  1.
</event>
<event>
 5   0  0.2789662E-05  0.1993058E+04  0.7818609E-02  0.8609873E-01
        1   -1    0    0  501    0  0.00000000000E+00  0.00000000000E+00  0.12355767974E+04  0.12355767974E+04  0.50400001928E-02 0. -1.
       -1   -1    0    0    0  501  0.00000000000E+00  0.00000000000E+00 -0.80373013665E+03  0.80373013667E+03  0.50400001928E-02 0.  1.
    10030    2    1    2    0    0  0.00000000000E+00  0.00000000000E+00  0.43184666078E+03  0.20393069341E+04  0.19930582613E+04 0.  0.
        4    1    3    3  502    0 -0.74698494257E+02 -0.99362307735E+03  0.20138047949E+03  0.10165738514E+04  0.12699999809E+01 0.  1.
       -4    1    3    3    0  502  0.74698494257E+02  0.99362307735E+03  0.23046618129E+03  0.10227330827E+04  0.12699999809E+01 0. -1.
</event>
<event>
 5   0  0.2604390E-05  0.2095186E+04  0.7818609E-02  0.8563367E-01
        1   -1    0    0  501    0  0.00000000000E+00  0.00000000000E+00  0.89508618928E+03  0.89508618930E+03  0.50400001928E-02 0.  1.
       -1   -1    0    0    0  501  0.00000000000E+00  0.00000000000E+00 -0.12260845359E+04  0.12260845359E+04  0.50400001928E-02 0. -1.
    10030    2    1    2    0    0  0.00000000000E+00  0.00000000000E+00 -0.33099834658E+03  0.21211707252E+04  0.20951862304E+04 0.  0.
        5    1    3    3  502    0  0.84533492173E+03 -0.29392706537E+03  0.38572093854E+03  0.97457015247E+03  0.46999998093E+01 0.  1.
       -5    1    3    3    0  502 -0.84533492173E+03  0.29392706537E+03 -0.71671928513E+03  0.11466005727E+04  0.46999998093E+01 0. -1.
</event>
<event>
 5   0  0.2789662E-05  0.2100584E+04  0.7818609E-02  0.8560986E-01
       -1   -1    0    0    0  501  0.00000000000E+00  0.00000000000E+00  0.93079980789E+03  0.93079980790E+03  0.50400001928E-02 0.  1.
        1   -1    0    0  501    0  0.00000000000E+00  0.00000000000E+00 -0.11851242836E+04  0.11851242836E+04  0.50400001928E-02 0. -1.
    10030    2    1    2    0    0  0.00000000000E+00  0.00000000000E+00 -0.25432447575E+03  0.21159240915E+04  0.21005841621E+04 0.  0.
        4    1    3    3  502    0 -0.22505005169E+02  0.59374531776E+03 -0.99955375597E+03  0.11628195482E+04  0.12699999809E+01 0. -1.
       -4    1    3    3    0  502  0.22505005169E+02 -0.59374531776E+03  0.74522928022E+03  0.95310454338E+03  0.12699999809E+01 0.  1.
</event>
<event>
 5   0  0.5506332E-05  0.2116849E+04  0.7818609E-02  0.8553857E-01
       -2   -1    0    0    0  501  0.00000000000E+00  0.00000000000E+00  0.15194576524E+04  0.15194576525E+04  0.25500000920E-02 0.  1.
        2   -1    0    0  501    0  0.00000000000E+00  0.00000000000E+00 -0.73727803889E+03  0.73727803890E+03  0.25500000920E-02 0. -1.
    10030    2    1    2    0    0  0.00000000000E+00  0.00000000000E+00  0.78217961356E+03  0.22567356913E+04  0.21168493174E+04 0.  0.
        3    1    3    3  502    0  0.51676039851E+03  0.80696853893E+03 -0.88082148986E+02  0.96228790258E+03  0.10100000352E+00 0. -1.
       -3    1    3    3    0  502 -0.51676039851E+03 -0.80696853893E+03  0.87026176254E+03  0.12944477888E+04  0.10100000352E+00 0.  1.
</event>
<event>
 5   0  0.2732159E-05  0.2109009E+04  0.7818609E-02  0.8557285E-01
        1   -1    0    0  501    0  0.00000000000E+00  0.00000000000E+00  0.11057928953E+04  0.11057928953E+04  0.50400001928E-02 0. -1.
       -1   -1    0    0    0  501  0.00000000000E+00  0.00000000000E+00 -0.10055944993E+04  0.10055944993E+04  0.50400001928E-02 0.  1.
    10030    2    1    2    0    0  0.00000000000E+00  0.00000000000E+00  0.10019839602E+03  0.21113873946E+04  0.21090085376E+04 0.  0.
        3    1    3    3  502    0 -0.76511683746E+02  0.47159484465E+03  0.99122523864E+03  0.11003559511E+04  0.10100000352E+00 0. -1.
       -3    1    3    3    0  502  0.76511683746E+02 -0.47159484465E+03 -0.89102684262E+03  0.10110314435E+04  0.10100000352E+00 0.  1.
</event>
<event>
 5   0  0.2017750E-05  0.2089898E+04  0.7818609E-02  0.8565707E-01
        4   -1    0    0  501    0  0.00000000000E+00  0.00000000000E+00  0.16635552338E+04  0.16635557186E+04  0.12699999809E+01 0. -1.
       -4   -1    0    0    0  501  0.00000000000E+00  0.00000000000E+00 -0.65637491584E+03  0.65637614448E+03  0.12699999809E+01 0.  1.
    10030    2    1    2    0    0  0.00000000000E+00  0.00000000000E+00  0.10071803180E+04  0.23199318631E+04  0.20898975230E+04 0.  0.
        4    1    3    3  502    0  0.87256175413E+03  0.26861987213E+03 -0.60687477014E+02  0.91498919843E+03  0.12699999809E+01 0.  1.
       -4    1    3    3    0  502 -0.87256175413E+03 -0.26861987213E+03  0.10678677950E+04  0.14049426647E+04  0.12699999809E+01 0. -1.
</event>
<event>
 5   0  0.5506332E-05  0.2106068E+04  0.7818609E-02  0.8558575E-01
       -2   -1    0    0    0  501  0.00000000000E+00  0.00000000000E+00  0.58391337143E+03  0.58391337143E+03  0.25500000920E-02 0.  1.
        2   -1    0    0  501    0  0.00000000000E+00  0.00000000000E+00 -0.18990501448E+04  0.18990501448E+04  0.25500000920E-02 0. -1.
    10030    2    1    2    0    0  0.00000000000E+00  0.00000000000E+00 -0.13151367733E+04  0.24829635162E+04  0.21060681590E+04 0.  0.
        3    1    3    3  502    0 -0.60368835587E+03 -0.23375350722E+03  0.32160510156E+03  0.72284865961E+03  0.10100000352E+00 0.  1.
       -3    1    3    3    0  502  0.60368835587E+03  0.23375350722E+03 -0.16367418749E+04  0.17601148566E+04  0.10100000352E+00 0. -1.
</event>
<event>
 5   0  0.2732159E-05  0.2136952E+04  0.7818609E-02  0.8545138E-01
       -1   -1    0    0    0  501  0.00000000000E+00  0.00000000000E+00  0.64018973638E+03  0.64018973640E+03  0.50400001928E-02 0.  1.
        1   -1    0    0  501    0  0.00000000000E+00  0.00000000000E+00 -0.17832859103E+04  0.17832859103E+04  0.50400001928E-02 0. -1.
    10030    2    1    2    0    0  0.00000000000E+00  0.00000000000E+00 -0.11430961739E+04  0.24234756467E+04  0.21369523503E+04 0.  0.
        3    1    3    3  502    0 -0.35650967542E+03  0.90299055697E+03 -0.65450542881E+02  0.97302357547E+03  0.10100000352E+00 0.  1.
       -3    1    3    3    0  502  0.35650967542E+03 -0.90299055697E+03 -0.10776456310E+04  0.14504520712E+04  0.10100000352E+00 0. -1.
</event>
<event>
 5   0  0.5967046E-05  0.2081264E+04  0.7818609E-02  0.8569542E-01
        2   -1    0    0  501    0  0.00000000000E+00  0.00000000000E+00  0.70105850945E+03  0.70105850945E+03  0.25500000920E-02 0. -1.
       -2   -1    0    0    0  501  0.00000000000E+00  0.00000000000E+00 -0.15446854414E+04  0.15446854414E+04  0.25500000920E-02 0.  1.
    10030    2    1    2    0    0  0.00000000000E+00  0.00000000000E+00 -0.84362693191E+03  0.22457439508E+04  0.20812639170E+04 0.  0.
        4    1    3    3  502    0  0.12048772330E+03 -0.31482290238E+03 -0.14841405929E+04  0.15219414127E+04  0.12699999809E+01 0.  1.
       -4    1    3    3    0  502 -0.12048772330E+03  0.31482290238E+03  0.64051366100E+03  0.72380253810E+03  0.12699999809E+01 0. -1.
</event>
<event>
 5   0  0.2017750E-05  0.2105251E+04  0.7818609E-02  0.8558934E-01
        4   -1    0    0  501    0  0.00000000000E+00  0.00000000000E+00  0.80199505517E+03  0.80199606073E+03  0.12699999809E+01 0.  1.
       -4   -1    0    0    0  501  0.00000000000E+00  0.00000000000E+00 -0.13815777436E+04  0.13815783273E+04  0.12699999809E+01 0. -1.
    10030    2    1    2    0    0  0.00000000000E+00  0.00000000000E+00 -0.57958268841E+03  0.21835743880E+04  0.21052508201E+04 0.  0.
        3    1    3    3  502    0  0.55802895306E+03  0.18703092177E+03  0.61539913658E+03  0.85152391961E+03  0.10100000352E+00 0.  1.
       -3    1    3    3    0  502 -0.55802895306E+03 -0.18703092177E+03 -0.11949818250E+04  0.13320504684E+04  0.10100000352E+00 0. -1.
</event>
<event>
 5   0  0.2699285E-05  0.2087878E+04  0.7818609E-02  0.8566602E-01
        1   -1    0    0  501    0  0.00000000000E+00  0.00000000000E+00  0.83340301207E+03  0.83340301208E+03  0.50400001928E-02 0. -1.
       -1   -1    0    0    0  501  0.00000000000E+00  0.00000000000E+00 -0.13076614781E+04  0.13076614781E+04  0.50400001928E-02 0.  1.
    10030    2    1    2    0    0  0.00000000000E+00  0.00000000000E+00 -0.47425846598E+03  0.21410644901E+04  0.20878783629E+04 0.  0.
        2    1    3    3  502    0 -0.78057331026E+03 -0.55502758083E+03  0.18873102922E+03  0.97620167464E+03  0.25500000920E-02 0. -1.
       -2    1    3    3    0  502  0.78057331026E+03  0.55502758083E+03 -0.66298949520E+03  0.11648628155E+04  0.25500000920E-02 0.  1.
</event>
<event>
 5   0  0.2789662E-05  0.2100716E+04  0.7818609E-02  0.8560928E-01
       -1   -1    0    0    0  501  0.00000000000E+00  0.00000000000E+00  0.99471748612E+03  0.99471748613E+03  0.50400001928E-02 0.  1.
        1   -1    0    0  501    0  0.00000000000E+00  0.00000000000E+00 -0.11091110105E+04  0.11091110105E+04  0.50400001928E-02 0. -1.
    10030    2    1    2    0    0  0.00000000000E+00  0.00000000000E+00 -0.11439352442E+03  0.21038284967E+04  0.21007161791E+04 0.  0.
        4    1    3    3  502    0  0.56877455693E+03  0.25581519878E+03  0.78922081540E+03  0.10058911576E+04  0.12699999809E+01 0.  1.
       -4    1    3    3    0  502 -0.56877455693E+03 -0.25581519878E+03 -0.90361433983E+03  0.10979373391E+04  0.12699999809E+01 0. -1.
</event>
<event>
 5   0  0.2732159E-05  0.2091499E+04  0.7818609E-02  0.8564997E-01
        1   -1    0    0  501    0  0.00000000000E+00  0.00000000000E+00  0.12243060743E+04  0.12243060743E+04  0.50400001928E-02 0.  1.
       -1   -1    0    0    0  501  0.00000000000E+00  0.00000000000E+00 -0.89323410515E+03  0.89323410516E+03  0.50400001928E-02 0. -1.
    10030    2    1    2    0    0  0.00000000000E+00  0.00000000000E+00  0.33107196915E+03  0.21175401795E+04  0.20914989273E+04 0.  0.
        3    1    3    3  502    0 -0.56711407470E+03  0.20898744928E+03  0.10295653707E+04  0.11938588654E+04  0.10100000352E+00 0.  1.
       -3    1    3    3    0  502  0.56711407470E+03 -0.20898744928E+03 -0.69849340160E+03  0.92368131407E+03  0.10100000352E+00 0. -1.
</event>
<event>
 5   0  0.2604390E-05  0.2108249E+04  0.7818609E-02  0.8557618E-01
       -1   -1    0    0    0  501  0.00000000000E+00  0.00000000000E+00  0.91438055754E+03  0.91438055755E+03  0.50400001928E-02 0. -1.
        1   -1    0    0  501    0  0.00000000000E+00  0.00000000000E+00 -0.12152253496E+04  0.12152253496E+04  0.50400001928E-02 0.  1.
    10030    2    1    2    0    0  0.00000000000E+00  0.00000000000E+00 -0.30084479205E+03  0.21296059071E+04  0.21082489727E+04 0.  0.
        5    1    3    3  502    0 -0.82087686729E+03 -0.39401303953E+03 -0.68690636159E+03  0.11405908759E+04  0.46999998093E+01 0.  1.
       -5    1    3    3    0  502  0.82087686729E+03  0.39401303953E+03  0.38606156954E+03  0.98901503126E+03  0.46999998093E+01 0. -1.
</event>
<event>
 5   0  0.5506332E-05  0.2077356E+04  0.7818609E-02  0.8571285E-01
       -2   -1    0    0    0  501  0.00000000000E+00  0.00000000000E+00  0.73642241244E+03  0.73642241245E+03  0.25500000920E-02 0. -1.
        2   -1    0    0  501    0  0.00000000000E+00  0.00000000000E+00 -0.14649901667E+04  0.14649901667E+04  0.25500000920E-02 0.  1.
    10030    2    1    2    0    0  0.00000000000E+00  0.00000000000E+00 -0.72856775422E+03  0.22014125791E+04  0.20773556198E+04 0.  0.
        3    1    3    3  502    0  0.69797932441E+03  0.76533625288E+03 -0.44593632158E+03  0.11277295467E+04  0.10100000352E+00 0. -1.
       -3    1    3    3    0  502 -0.69797932441E+03 -0.76533625288E+03 -0.28263143264E+03  0.10736830325E+04  0.10100000352E+00 0.  1.
</event>
<event>
 5   0  0.2602060E-05  0.2105333E+04  0.7818609E-02  0.8558898E-01
        1   -1    0    0  501    0  0.00000000000E+00  0.00000000000E+00  0.19079522620E+04  0.19079522620E+04  0.50400001928E-02 0. -1.
       -1   -1    0    0    0  501  0.00000000000E+00  0.00000000000E+00 -0.58078309472E+03  0.58078309474E+03  0.50400001928E-02 0.  1.
    10030    2    1    2    0    0  0.00000000000E+00  0.00000000000E+00  0.13271691672E+04  0.24887353567E+04  0.21053326762E+04 0.  0.
        1    1    3    3  502    0  0.49478840530E+03 -0.12870756557E+03 -0.42416577062E+03  0.66430249468E+03  0.50400001928E-02 0.  1.
       -1    1    3    3    0  502 -0.49478840530E+03  0.12870756557E+03  0.17513349379E+04  0.18244328620E+04  0.50400001928E-02 0. -1.
</event>
<event>
 5   0  0.5462851E-05  0.2121844E+04  0.7818609E-02  0.8551682E-01
       -2   -1    0    0    0  501  0.00000000000E+00  0.00000000000E+00  0.11070278419E+04  0.11070278419E+04  0.25500000920E-02 0. -1.
        2   -1    0    0  501    0  0.00000000000E+00  0.00000000000E+00 -0.10167359237E+04  0.10167359237E+04  0.25500000920E-02 0.  1.
    10030    2    1    2    0    0  0.00000000000E+00  0.00000000000E+00  0.90291918153E+02  0.21237637656E+04  0.21218435149E+04 0.  0.
        1    1    3    3  502    0 -0.69542153487E+03 -0.58471223193E+03 -0.50312296330E+03  0.10385722033E+04  0.50400001928E-02 0.  1.
       -1    1    3    3    0  502  0.69542153487E+03  0.58471223193E+03  0.59341488145E+03  0.10851915623E+04  0.50400001928E-02 0. -1.
</event>
<event>
 5   0  0.2732159E-05  0.2097107E+04  0.7818609E-02  0.8562519E-01
       -1   -1    0    0    0  501  0.00000000000E+00  0.00000000000E+00  0.59641430330E+03  0.59641430332E+03  0.50400001928E-02 0. -1.
        1   -1    0    0  501    0  0.00000000000E+00  0.00000000000E+00 -0.18434570174E+04  0.18434570174E+04  0.50400001928E-02 0.  1.
    10030    2    1    2    0    0  0.00000000000E+00  0.00000000000E+00 -0.12470427141E+04  0.24398713207E+04  0.20971067047E+04 0.  0.
        3    1    3    3  502    0 -0.89647807489E+03  0.43517186884E+03 -0.24398696098E+03  0.10259518222E+04  0.10100000352E+00 0. -1.
       -3    1    3    3    0  502  0.89647807489E+03 -0.43517186884E+03 -0.10030557531E+04  0.14139194985E+04  0.10100000352E+00 0.  1.
</event>
<event>
 5   0  0.2699285E-05  0.2082784E+04  0.7818609E-02  0.8568865E-01
       -1   -1    0    0    0  501  0.00000000000E+00  0.00000000000E+00  0.86222747280E+03  0.86222747282E+03  0.50400001928E-02 0. -1.
        1   -1    0    0  501    0  0.00000000000E+00  0.00000000000E+00 -0.12577856428E+04  0.12577856428E+04  0.50400001928E-02 0.  1.
    10030    2    1    2    0    0  0.00000000000E+00  0.00000000000E+00 -0.39555816998E+03  0.21200131156E+04  0.20827840369E+04 0.  0.
        2    1    3    3  502    0 -0.53333006513E+03 -0.71982135975E+03 -0.73822509092E+03  0.11608445345E+04  0.25500000920E-02 0.  1.
       -2    1    3    3    0  502  0.53333006513E+03  0.71982135975E+03  0.34266692094E+03  0.95916858114E+03  0.25500000920E-02 0. -1.
</event>
<event>
 5   0  0.2604390E-05  0.2115833E+04  0.7818609E-02  0.8554301E-01
        1   -1    0    0  501    0  0.00000000000E+00  0.00000000000E+00  0.12917343293E+04  0.12917343293E+04  0.50400001928E-02 0. -1.
       -1   -1    0    0    0  501  0.00000000000E+00  0.00000000000E+00 -0.86642221383E+03  0.86642221384E+03  0.50400001928E-02 0.  1.
    10030    2    1    2    0    0  0.00000000000E+00  0.00000000000E+00  0.42531211547E+03  0.21581565431E+04  0.21158329965E+04 0.  0.
        5    1    3    3  502    0 -0.46721222979E+03 -0.69786968275E+03  0.86884078055E+03  0.12083938736E+04  0.46999998093E+01 0. -1.
       -5    1    3    3    0  502  0.46721222979E+03  0.69786968275E+03 -0.44352866508E+03  0.94976266957E+03  0.46999998093E+01 0.  1.
</event>
<event>
 5   0  0.5866610E-05  0.2082256E+04  0.7818609E-02  0.8569100E-01
        2   -1    0    0  501    0  0.00000000000E+00  0.00000000000E+00  0.19654719600E+04  0.19654719600E+04  0.25500000920E-02 0. -1.
       -2   -1    0    0    0  501  0.00000000000E+00  0.00000000000E+00 -0.55149461530E+03  0.55149461530E+03  0.25500000920E-02 0.  1.
    10030    2    1    2    0    0  0.00000000000E+00  0.00000000000E+00  0.14139773447E+04  0.25169665753E+04  0.20822557023E+04 0.  0.
        5    1    3    3  502    0  0.86127406053E+03  0.27699103154E+03  0.84257719265E+02  0.90864651662E+03  0.46999998093E+01 0.  1.
       -5    1    3    3    0  502 -0.86127406053E+03 -0.27699103154E+03  0.13297196254E+04  0.16083200587E+04  0.46999998093E+01 0. -1.
</event>
<event>
 5   0  0.5866610E-05  0.2063729E+04  0.7818609E-02  0.8577391E-01
       -2   -1    0    0    0  501  0.00000000000E+00  0.00000000000E+00  0.62909239226E+03  0.62909239227E+03  0.25500000920E-02 0. -1.
        2   -1    0    0  501    0  0.00000000000E+00  0.00000000000E+00 -0.16925089068E+04  0.16925089068E+04  0.25500000920E-02 0.  1.
    10030    2    1    2    0    0  0.00000000000E+00  0.00000000000E+00 -0.10634165145E+04  0.23216012991E+04  0.20637291267E+04 0.  0.
        5    1    3    3  502    0 -0.16686958569E+03 -0.10178577464E+04 -0.56436172798E+03  0.11757576708E+04  0.46999998093E+01 0.  1.
       -5    1    3    3    0  502  0.16686958569E+03  0.10178577464E+04 -0.49905478654E+03  0.11458436283E+04  0.46999998093E+01 0. -1.
</event>
<event>
 5   0  0.5866610E-05  0.2197280E+04  0.7818609E-02  0.8519561E-01
       -2   -1    0    0    0  501  0.00000000000E+00  0.00000000000E+00  0.71119302645E+03  0.71119302646E+03  0.25500000920E-02 0.  1.
        2   -1    0    0  501    0  0.00000000000E+00  0.00000000000E+00 -0.16971613986E+04  0.16971613986E+04  0.25500000920E-02 0. -1.
    10030    2    1    2    0    0  0.00000000000E+00  0.00000000000E+00 -0.98596837211E+03  0.24083544250E+04  0.21972795466E+04 0.  0.
        5    1    3    3  502    0 -0.36748676030E+02 -0.10968877487E+04 -0.43846611661E+03  0.11818577849E+04  0.46999998093E+01 0.  1.
       -5    1    3    3    0  502  0.36748676030E+02  0.10968877487E+04 -0.54750225551E+03  0.12264966401E+04  0.46999998093E+01 0. -1.
</event>
<event>
 5   0  0.2789662E-05  0.2097242E+04  0.7818609E-02  0.8562459E-01
        1   -1    0    0  501    0  0.00000000000E+00  0.00000000000E+00  0.20754893772E+04  0.20754893772E+04  0.50400001928E-02 0.  1.
       -1   -1    0    0    0  501  0.00000000000E+00  0.00000000000E+00 -0.52980570437E+03  0.52980570439E+03  0.50400001928E-02 0. -1.
    10030    2    1    2    0    0  0.00000000000E+00  0.00000000000E+00  0.15456836728E+04  0.26052950816E+04  0.20972421047E+04 0.  0.
        4    1    3    3  502    0 -0.16926367615E+03  0.86610055380E+03  0.69215852516E+02  0.88519648016E+03  0.12699999809E+01 0. -1.
       -4    1    3    3    0  502  0.16926367615E+03 -0.86610055380E+03  0.14764678203E+04  0.17200986015E+04  0.12699999809E+01 0.  1.
</event>
<event>
 5   0  0.5954140E-05  0.2103340E+04  0.7818609E-02  0.8559773E-01
        2   -1    0    0  501    0  0.00000000000E+00  0.00000000000E+00  0.17161336207E+04  0.17161336207E+04  0.25500000920E-02 0. -1.
       -2   -1    0    0    0  501  0.00000000000E+00  0.00000000000E+00 -0.64447784310E+03  0.64447784311E+03  0.25500000920E-02 0.  1.
    10030    2    1    2    0    0  0.00000000000E+00  0.00000000000E+00  0.10716557776E+04  0.23606114638E+04  0.21033402904E+04 0.  0.
        2    1    3    3  502    0 -0.60345145839E+03  0.84449424785E+03  0.72591347590E+03  0.12665996099E+04  0.25500000920E-02 0.  1.
       -2    1    3    3    0  502  0.60345145839E+03 -0.84449424785E+03  0.34574230168E+03  0.10940118539E+04  0.25500000920E-02 0. -1.
</event>
<event>
 5   0  0.5506332E-05  0.2110984E+04  0.7818609E-02  0.8556420E-01
       -2   -1    0    0    0  501  0.00000000000E+00  0.00000000000E+00  0.58431546458E+03  0.58431546459E+03  0.25500000920E-02 0.  1.
        2   -1    0    0  501    0  0.00000000000E+00  0.00000000000E+00 -0.19066132577E+04  0.19066132577E+04  0.25500000920E-02 0. -1.
    10030    2    1    2    0    0  0.00000000000E+00  0.00000000000E+00 -0.13222977932E+04  0.24909287223E+04  0.21109842363E+04 0.  0.
        3    1    3    3  502    0 -0.82284971785E+03  0.34554461628E+03  0.38232755887E+01  0.89246701207E+03  0.10100000352E+00 0.  1.
       -3    1    3    3    0  502  0.82284971785E+03 -0.34554461628E+03 -0.13261210688E+04  0.15984617103E+04  0.10100000352E+00 0. -1.
</event>
<event>
 5   0  0.2732159E-05  0.2086148E+04  0.7818609E-02  0.8567370E-01
       -1   -1    0    0    0  501  0.00000000000E+00  0.00000000000E+00  0.79542778032E+03  0.79542778034E+03  0.50400001928E-02 0. -1.
        1   -1    0    0  501    0  0.00000000000E+00  0.00000000000E+00 -0.13678211148E+04  0.13678211148E+04  0.50400001928E-02 0.  1.
    10030    2    1    2    0    0  0.00000000000E+00  0.00000000000E+00 -0.57239333445E+03  0.21632488951E+04  0.20861475626E+04 0.  0.
        3    1    3    3  502    0 -0.35349903569E+03  0.98201248512E+02  0.72631153437E+03  0.81371586479E+03  0.10100000352E+00 0. -1.
       -3    1    3    3    0  502  0.35349903569E+03 -0.98201248512E+02 -0.12987048688E+04  0.13495330303E+04  0.10100000352E+00 0.  1.
</event>
<event>
 5   0  0.5506332E-05  0.2125589E+04  0.7818609E-02  0.8550054E-01
       -2   -1    0    0    0  501  0.00000000000E+00  0.00000000000E+00  0.88062093075E+03  0.88062093075E+03  0.25500000920E-02 0. -1.
        2   -1    0    0  501    0  0.00000000000E+00  0.00000000000E+00 -0.12826546508E+04  0.12826546508E+04  0.25500000920E-02 0.  1.
    10030    2    1    2    0    0  0.00000000000E+00  0.00000000000E+00 -0.40203372001E+03  0.21632755815E+04  0.21255893605E+04 0.  0.
        3    1    3    3  502    0 -0.61392738300E+03 -0.81700528744E+03 -0.49795694289E+03  0.11368225888E+04  0.10100000352E+00 0.  1.
       -3    1    3    3    0  502  0.61392738300E+03  0.81700528744E+03  0.95923222878E+02  0.10264529927E+04  0.10100000352E+00 0. -1.
</event>
<event>
 5   0  0.2602060E-05  0.2099706E+04  0.7818609E-02  0.8561373E-01
       -1   -1    0    0    0  501  0.00000000000E+00  0.00000000000E+00  0.93541681190E+03  0.93541681191E+03  0.50400001928E-02 0. -1.
        1   -1    0    0  501    0  0.00000000000E+00  0.00000000000E+00 -0.11782895190E+04  0.11782895190E+04  0.50400001928E-02 0.  1.
    10030    2    1    2    0    0  0.00000000000E+00  0.00000000000E+00 -0.24287270714E+03  0.21137063310E+04  0.20997064799E+04 0.  0.
        1    1    3    3  502    0  0.24293327039E+03  0.59723693736E+03  0.71263085184E+03  0.96101574608E+03  0.50400001928E-02 0. -1.
       -1    1    3    3    0  502 -0.24293327039E+03 -0.59723693736E+03 -0.95550355898E+03  0.11526905849E+04  0.50400001928E-02 0.  1.
</event>
<event>
 5   0  0.5866610E-05  0.2101487E+04  0.7818609E-02  0.8560589E-01
       -2   -1    0    0    0  501  0.00000000000E+00  0.00000000000E+00  0.45828199591E+03  0.45828199592E+03  0.25500000920E-02 0.  1.
        2   -1    0    0  501    0  0.00000000000E+00  0.00000000000E+00 -0.24091319412E+04  0.24091319412E+04  0.25500000920E-02 0. -1.
    10030    2    1    2    0    0  0.00000000000E+00  0.00000000000E+00 -0.19508499453E+04  0.28674139371E+04  0.21014868969E+04 0.  0.
        5    1    3    3  502    0 -0.44571212867E+02  0.68181026972E+03  0.11374950065E+03  0.69268526461E+03  0.46999998093E+01 0.  1.
       -5    1    3    3    0  502  0.44571212867E+02 -0.68181026972E+03 -0.20645994459E+04  0.21747286725E+04  0.46999998093E+01 0. -1.
</event>
<event>
 5   0  0.2732159E-05  0.2099676E+04  0.7818609E-02  0.8561386E-01
       -1   -1    0    0    0  501  0.00000000000E+00  0.00000000000E+00  0.77044429622E+03  0.77044429624E+03  0.50400001928E-02 0. -1.
        1   -1    0    0  501    0  0.00000000000E+00  0.00000000000E+00 -0.14305506892E+04  0.14305506892E+04  0.50400001928E-02 0.  1.
    10030    2    1    2    0    0  0.00000000000E+00  0.00000000000E+00 -0.66010639294E+03  0.22009949854E+04  0.20996758025E+04 0.  0.
        3    1    3    3  502    0  0.12810820283E+03 -0.74989638635E+03 -0.10884300002E+04  0.13279443428E+04  0.10100000352E+00 0.  1.
       -3    1    3    3    0  502 -0.12810820283E+03  0.74989638635E+03  0.42832360728E+03  0.87305064265E+03  0.10100000352E+00 0. -1.
</event>
<event>
 5   0  0.5954140E-05  0.2119089E+04  0.7818609E-02  0.8552881E-01
        2   -1    0    0  501    0  0.00000000000E+00  0.00000000000E+00  0.13355437793E+04  0.13355437793E+04  0.25500000920E-02 0. -1.
       -2   -1    0    0    0  501  0.00000000000E+00  0.00000000000E+00 -0.84058251746E+03  0.84058251746E+03  0.25500000920E-02 0.  1.
    10030    2    1    2    0    0  0.00000000000E+00  0.00000000000E+00  0.49496126181E+03  0.21761262967E+04  0.21190891932E+04 0.  0.
        2    1    3    3  502    0 -0.85047423884E+03 -0.76345178066E+02 -0.39669913986E+03  0.94154406414E+03  0.25500000920E-02 0.  1.
       -2    1    3    3    0  502  0.85047423884E+03  0.76345178066E+02  0.89166040167E+03  0.12345822326E+04  0.25500000920E-02 0. -1.
</event>
<event>
 5   0  0.2604390E-05  0.2100742E+04  0.7818609E-02  0.8560917E-01
        1   -1    0    0  501    0  0.00000000000E+00  0.00000000000E+00  0.11139085637E+04  0.11139085637E+04  0.50400001928E-02 0.  1.
       -1   -1    0    0    0  501  0.00000000000E+00  0.00000000000E+00 -0.99045776013E+03  0.99045776014E+03  0.50400001928E-02 0. -1.
    10030    2    1    2    0    0  0.00000000000E+00  0.00000000000E+00  0.12345080354E+03  0.21043663238E+04  0.21007421365E+04 0.  0.
        5    1    3    3  502    0 -0.21595045319E+02  0.10459417070E+04 -0.32228146982E+02  0.10466714594E+04  0.46999998093E+01 0.  1.
       -5    1    3    3    0  502  0.21595045319E+02 -0.10459417070E+04  0.15567895053E+03  0.10576948644E+04  0.46999998093E+01 0. -1.
</event>
<event>
 5   0  0.2699285E-05  0.2098458E+04  0.7818609E-02  0.8561923E-01
        1   -1    0    0  501    0  0.00000000000E+00  0.00000000000E+00  0.16691023262E+04  0.16691023262E+04  0.50400001928E-02 0.  1.
       -1   -1    0    0    0  501  0.00000000000E+00  0.00000000000E+00 -0.65956473898E+03  0.65956473900E+03  0.50400001928E-02 0. -1.
    10030    2    1    2    0    0  0.00000000000E+00  0.00000000000E+00  0.10095375872E+04  0.23286670652E+04  0.20984575670E+04 0.  0.
        2    1    3    3  502    0  0.86018026181E+03  0.21574342061E+03 -0.11748313411E+03  0.89457117836E+03  0.25500000920E-02 0. -1.
       -2    1    3    3    0  502 -0.86018026181E+03 -0.21574342061E+03  0.11270207213E+04  0.14340958868E+04  0.25500000920E-02 0.  1.
</event>
<event>
 5   0  0.2604390E-05  0.2099468E+04  0.7818609E-02  0.8561478E-01
       -1   -1    0    0    0  501  0.00000000000E+00  0.00000000000E+00  0.89023183177E+03  0.89023183178E+03  0.50400001928E-02 0.  1.
        1   -1    0    0  501    0  0.00000000000E+00  0.00000000000E+00 -0.12378135317E+04  0.12378135317E+04  0.50400001928E-02 0. -1.
    10030    2    1    2    0    0  0.00000000000E+00  0.00000000000E+00 -0.34758169990E+03  0.21280453635E+04  0.20994675589E+04 0.  0.
        5    1    3    3  502    0  0.43398602274E+03  0.34586567756E+03  0.72937775387E+03  0.91650473686E+03  0.46999998093E+01 0.  1.
       -5    1    3    3    0  502 -0.43398602274E+03 -0.34586567756E+03 -0.10769594538E+04  0.12115406266E+04  0.46999998093E+01 0. -1.
</event>
<event>
 5   0  0.5866610E-05  0.2100836E+04  0.7818609E-02  0.8560875E-01
       -2   -1    0    0    0  501  0.00000000000E+00  0.00000000000E+00  0.11394916631E+04  0.11394916631E+04  0.25500000920E-02 0.  1.
        2   -1    0    0  501    0  0.00000000000E+00  0.00000000000E+00 -0.96830742745E+03  0.96830742746E+03  0.25500000920E-02 0. -1.
    10030    2    1    2    0    0  0.00000000000E+00  0.00000000000E+00  0.17118423561E+03  0.21077990905E+04  0.21008362534E+04 0.  0.
        5    1    3    3  502    0 -0.64326191306E+03  0.50001249219E+03 -0.57959677691E+03  0.99987643984E+03  0.46999998093E+01 0. -1.
       -5    1    3    3    0  502  0.64326191306E+03 -0.50001249219E+03  0.75078101251E+03  0.11079226507E+04  0.46999998093E+01 0.  1.
</event>
<event>
 5   0  0.2604390E-05  0.2077507E+04  0.7818609E-02  0.8571217E-01
       -1   -1    0    0    0  501  0.00000000000E+00  0.00000000000E+00  0.15745218536E+04  0.15745218536E+04  0.50400001928E-02 0.  1.
        1   -1    0    0  501    0  0.00000000000E+00  0.00000000000E+00 -0.68529312154E+03  0.68529312155E+03  0.50400001928E-02 0. -1.
    10030    2    1    2    0    0  0.00000000000E+00  0.00000000000E+00  0.88922873209E+03  0.22598149752E+04  0.20775071562E+04 0.  0.
        5    1    3    3  502    0  0.93947898846E+03  0.72767853155E+02 -0.30860664104E+02  0.94280984339E+03  0.46999998093E+01 0. -1.
       -5    1    3    3    0  502 -0.93947898846E+03 -0.72767853155E+02  0.92008939619E+03  0.13170051318E+04  0.46999998093E+01 0.  1.
</event>
<event>
 5   0  0.5462851E-05  0.2103410E+04  0.7818609E-02  0.8559743E-01
        2   -1    0    0  501    0  0.00000000000E+00  0.00000000000E+00  0.10411278391E+04  0.10411278391E+04  0.25500000920E-02 0. -1.
       -2   -1    0    0    0  501  0.00000000000E+00  0.00000000000E+00 -0.10623891166E+04  0.10623891166E+04  0.25500000920E-02 0.  1.
    10030    2    1    2    0    0  0.00000000000E+00  0.00000000000E+00 -0.21261277429E+02  0.21035169557E+04  0.21034095039E+04 0.  0.
        1    1    3    3  502    0 -0.10226775517E+04 -0.10702864145E+03  0.21019364001E+03  0.10495264986E+04  0.50400001928E-02 0.  1.
       -1    1    3    3    0  502  0.10226775517E+04  0.10702864145E+03 -0.23145491744E+03  0.10539904571E+04  0.50400001928E-02 0. -1.
</event>
<event>
 5   0  0.5866610E-05  0.2090646E+04  0.7818609E-02  0.8565375E-01
        2   -1    0    0  501    0  0.00000000000E+00  0.00000000000E+00  0.19704890788E+04  0.19704890788E+04  0.25500000920E-02 0.  1.
       -2   -1    0    0    0  501  0.00000000000E+00  0.00000000000E+00 -0.55453265399E+03  0.55453265399E+03  0.25500000920E-02 0. -1.
    10030    2    1    2    0    0  0.00000000000E+00  0.00000000000E+00  0.14159564248E+04  0.25250217328E+04  0.20906463484E+04 0.  0.
        5    1    3    3  502    0 -0.57537879526E+03  0.68401877622E+03  0.13625588241E+04  0.16295800328E+04  0.46999998093E+01 0.  1.
       -5    1    3    3    0  502  0.57537879526E+03 -0.68401877622E+03  0.53397600698E+02  0.89544169995E+03  0.46999998093E+01 0. -1.
</event>
<event>
 5   0  0.5866610E-05  0.2114723E+04  0.7818609E-02  0.8554785E-01
        2   -1    0    0  501    0  0.00000000000E+00  0.00000000000E+00  0.10613120922E+04  0.10613120922E+04  0.25500000920E-02 0.  1.
       -2   -1    0    0    0  501  0.00000000000E+00  0.00000000000E+00 -0.10534253345E+04  0.10534253345E+04  0.25500000920E-02 0. -1.
    10030    2    1    2    0    0  0.00000000000E+00  0.00000000000E+00  0.78867577288E+01  0.21147374268E+04  0.21147227202E+04 0.  0.
        5    1    3    3  502    0 -0.53951491739E+03  0.90837866598E+03  0.45929488839E+02  0.10575252975E+04  0.46999998093E+01 0.  1.
       -5    1    3    3    0  502  0.53951491739E+03 -0.90837866598E+03 -0.38042731110E+02  0.10572121293E+04  0.46999998093E+01 0. -1.
</event>
<event>
 5   0  0.2604390E-05  0.2144593E+04  0.7818609E-02  0.8541850E-01
       -1   -1    0    0    0  501  0.00000000000E+00  0.00000000000E+00  0.54201275238E+03  0.54201275240E+03  0.50400001928E-02 0.  1.
        1   -1    0    0  501    0  0.00000000000E+00  0.00000000000E+00 -0.21213886791E+04  0.21213886791E+04  0.50400001928E-02 0. -1.
    10030    2    1    2    0    0  0.00000000000E+00  0.00000000000E+00 -0.15793759267E+04  0.26634014315E+04  0.21445929375E+04 0.  0.
        5    1    3    3  502    0  0.59701269719E+03  0.81104211636E+03 -0.33239320691E+03  0.10605285518E+04  0.46999998093E+01 0. -1.
       -5    1    3    3    0  502 -0.59701269719E+03 -0.81104211636E+03 -0.12469827198E+04  0.16028728797E+04  0.46999998093E+01 0.  1.
</event>
<event>
 5   0  0.2604390E-05  0.2125518E+04  0.7818609E-02  0.8550085E-01
        1   -1    0    0  501    0  0.00000000000E+00  0.00000000000E+00  0.14720626984E+04  0.14720626984E+04  0.50400001928E-02 0.  1.
       -1   -1    0    0    0  501  0.00000000000E+00  0.00000000000E+00 -0.76726113107E+03  0.76726113109E+03  0.50400001928E-02 0. -1.
    10030    2    1    2    0    0  0.00000000000E+00  0.00000000000E+00  0.70480156733E+03  0.22393238295E+04  0.21255178108E+04 0.  0.
        5    1    3    3  502    0  0.53019316013E+03  0.60818014956E+03 -0.37633291504E+03  0.89030131658E+03  0.46999998093E+01 0. -1.
       -5    1    3    3    0  502 -0.53019316013E+03 -0.60818014956E+03  0.10811344824E+04  0.13490225129E+04  0.46999998093E+01 0.  1.
</event>
<event>
 5   0  0.5866610E-05  0.2103924E+04  0.7818609E-02  0.8559517E-01
       -2   -1    0    0    0  501  0.00000000000E+00  0.00000000000E+00  0.13753918977E+04  0.13753918977E+04  0.25500000920E-02 0.  1.
        2   -1    0    0  501    0  0.00000000000E+00  0.00000000000E+00 -0.80458815922E+03  0.80458815922E+03  0.25500000920E-02 0. -1.
    10030    2    1    2    0    0  0.00000000000E+00  0.00000000000E+00  0.57080373853E+03  0.21799800570E+04  0.21039239865E+04 0.  0.
        5    1    3    3  502    0  0.94889065246E+03  0.68525803378E+01  0.75586573878E+03  0.12131758048E+04  0.46999998093E+01 0.  1.
       -5    1    3    3    0  502 -0.94889065246E+03 -0.68525803378E+01 -0.18506200025E+03  0.96680425222E+03  0.46999998093E+01 0. -1.
</event>
<event>
 5   0  0.2789662E-05  0.2089905E+04  0.7818609E-02  0.8565703E-01
        1   -1    0    0  501    0  0.00000000000E+00  0.00000000000E+00  0.13872648398E+04  0.13872648398E+04  0.50400001928E-02 0. -1.
       -1   -1    0    0    0  501  0.00000000000E+00  0.00000000000E+00 -0.78710686211E+03  0.78710686213E+03  0.50400001928E-02 0.  1.
    10030    2    1    2    0    0  0.00000000000E+00  0.00000000000E+00  0.60015797764E+03  0.21743717019E+04  0.20899049500E+04 0.  0.
        4    1    3    3  502    0  0.43267005764E+03  0.41758796969E+03  0.11892188590E+04  0.13326012902E+04  0.12699999809E+01 0. -1.
       -4    1    3    3    0  502 -0.43267005764E+03 -0.41758796969E+03 -0.58906088132E+03  0.84177041170E+03  0.12699999809E+01 0.  1.
</event>
<event>
 5   0  0.5462851E-05  0.2098575E+04  0.7818609E-02  0.8561871E-01
        2   -1    0    0  501    0  0.00000000000E+00  0.00000000000E+00  0.15051750676E+04  0.15051750676E+04  0.25500000920E-02 0. -1.
       -2   -1    0    0    0  501  0.00000000000E+00  0.00000000000E+00 -0.73147907399E+03  0.73147907400E+03  0.25500000920E-02 0.  1.
    10030    2    1    2    0    0  0.00000000000E+00  0.00000000000E+00  0.77369599363E+03  0.22366541416E+04  0.20985748161E+04 0.  0.
        1    1    3    3  502    0  0.41382685243E+02 -0.39169697435E+03  0.14233949003E+04  0.14768859430E+04  0.50400001928E-02 0. -1.
       -1    1    3    3    0  502 -0.41382685243E+02  0.39169697435E+03 -0.64969890665E+03  0.75976819865E+03  0.50400001928E-02 0.  1.
</event>
<event>
 5   0  0.2604390E-05  0.2046769E+04  0.7818609E-02  0.8585062E-01
        1   -1    0    0  501    0  0.00000000000E+00  0.00000000000E+00  0.13410291014E+04  0.13410291014E+04  0.50400001928E-02 0. -1.
       -1   -1    0    0    0  501  0.00000000000E+00  0.00000000000E+00 -0.78097917091E+03  0.78097917092E+03  0.50400001928E-02 0.  1.
    10030    2    1    2    0    0  0.00000000000E+00  0.00000000000E+00  0.56004993048E+03  0.21220082723E+04  0.20467689618E+04 0.  0.
        5    1    3    3  502    0 -0.19429741804E+03  0.16154668869E+03 -0.74811742004E+03  0.78965219144E+03  0.46999998093E+01 0.  1.
       -5    1    3    3    0  502  0.19429741804E+03 -0.16154668869E+03  0.13081673505E+04  0.13323560809E+04  0.46999998093E+01 0. -1.
</event>
<event>
 5   0  0.2602060E-05  0.2105950E+04  0.7818609E-02  0.8558627E-01
       -1   -1    0    0    0  501  0.00000000000E+00  0.00000000000E+00  0.52715938531E+03  0.52715938533E+03  0.50400001928E-02 0.  1.
        1   -1    0    0  501    0  0.00000000000E+00  0.00000000000E+00 -0.21032657179E+04  0.21032657179E+04  0.50400001928E-02 0. -1.
    10030    2    1    2    0    0  0.00000000000E+00  0.00000000000E+00 -0.15761063326E+04  0.26304251032E+04  0.21059499168E+04 0.  0.
        1    1    3    3  502    0 -0.56154708585E+03  0.29827095025E+03  0.26029298862E+03  0.68706122677E+03  0.50400001928E-02 0.  1.
       -1    1    3    3    0  502  0.56154708585E+03 -0.29827095025E+03 -0.18363993212E+04  0.19433638764E+04  0.50400001928E-02 0. -1.
</event>
<event>
 5   0  0.2602060E-05  0.2104921E+04  0.7818609E-02  0.8559079E-01
        1   -1    0    0  501    0  0.00000000000E+00  0.00000000000E+00  0.81064535861E+03  0.81064535863E+03  0.50400001928E-02 0.  1.
       -1   -1    0    0    0  501  0.00000000000E+00  0.00000000000E+00 -0.13664094845E+04  0.13664094845E+04  0.50400001928E-02 0. -1.
    10030    2    1    2    0    0  0.00000000000E+00  0.00000000000E+00 -0.55576412592E+03  0.21770548432E+04  0.21049213825E+04 0.  0.
        1    1    3    3  502    0  0.96757748489E+03  0.87602196580E+02  0.14070074521E+03  0.98167053222E+03  0.50400001928E-02 0.  1.
       -1    1    3    3    0  502 -0.96757748489E+03 -0.87602196580E+02 -0.69646487114E+03  0.11953843109E+04  0.50400001928E-02 0. -1.
</event>
<event>
 5   0  0.2789662E-05  0.2061038E+04  0.7818609E-02  0.8578603E-01
       -1   -1    0    0    0  501  0.00000000000E+00  0.00000000000E+00  0.13457183473E+04  0.13457183473E+04  0.50400001928E-02 0.  1.
        1   -1    0    0  501    0  0.00000000000E+00  0.00000000000E+00 -0.78914671487E+03  0.78914671489E+03  0.50400001928E-02 0. -1.
    10030    2    1    2    0    0  0.00000000000E+00  0.00000000000E+00  0.55657163244E+03  0.21348650622E+04  0.20610378094E+04 0.  0.
        4    1    3    3  502    0  0.64749356334E+03 -0.44641729428E+03  0.96804522941E+03  0.12472567876E+04  0.12699999809E+01 0.  1.
       -4    1    3    3    0  502 -0.64749356334E+03  0.44641729428E+03 -0.41147359697E+03  0.88760827458E+03  0.12699999809E+01 0. -1.
</event>
<event>
 5   0  0.5967046E-05  0.2100988E+04  0.7818609E-02  0.8560808E-01
        2   -1    0    0  501    0  0.00000000000E+00  0.00000000000E+00  0.10560296856E+04  0.10560296856E+04  0.25500000920E-02 0. -1.
       -2   -1    0    0    0  501  0.00000000000E+00  0.00000000000E+00 -0.10449874494E+04  0.10449874494E+04  0.25500000920E-02 0.  1.
    10030    2    1    2    0    0  0.00000000000E+00  0.00000000000E+00  0.11042236136E+02  0.21010171350E+04  0.21009881177E+04 0.  0.
        4    1    3    3  502    0  0.10039379143E+04  0.30128987993E+03  0.75301929835E+02  0.10508753119E+04  0.12699999809E+01 0.  1.
       -4    1    3    3    0  502 -0.10039379143E+04 -0.30128987993E+03 -0.64259693699E+02  0.10501418231E+04  0.12699999809E+01 0. -1.
</event>
<event>
 5   0  0.5506332E-05  0.2102119E+04  0.7818609E-02  0.8560311E-01
        2   -1    0    0  501    0  0.00000000000E+00  0.00000000000E+00  0.18344858188E+04  0.18344858188E+04  0.25500000920E-02 0. -1.
       -2   -1    0    0    0  501  0.00000000000E+00  0.00000000000E+00 -0.60219926524E+03  0.60219926525E+03  0.25500000920E-02 0.  1.
    10030    2    1    2    0    0  0.00000000000E+00  0.00000000000E+00  0.12322865535E+04  0.24366850840E+04  0.21021189426E+04 0.  0.
        3    1    3    3  502    0 -0.32610153511E+03  0.96322163344E+03  0.92411239881E+03  0.13740894666E+04  0.10100000352E+00 0. -1.
       -3    1    3    3    0  502  0.32610153511E+03 -0.96322163344E+03  0.30817415470E+03  0.10625956174E+04  0.10100000352E+00 0.  1.
</event>
<event>
 5   0  0.2602060E-05  0.2198330E+04  0.7818609E-02  0.8519123E-01
        1   -1    0    0  501    0  0.00000000000E+00  0.00000000000E+00  0.89594214234E+03  0.89594214236E+03  0.50400001928E-02 0. -1.
       -1   -1    0    0    0  501  0.00000000000E+00  0.00000000000E+00 -0.13484845494E+04  0.13484845494E+04  0.50400001928E-02 0.  1.
    10030    2    1    2    0    0  0.00000000000E+00  0.00000000000E+00 -0.45254240704E+03  0.22444266918E+04  0.21983303993E+04 0.  0.
        1    1    3    3  502    0  0.34148380717E+03  0.54884590277E+03 -0.11339125125E+04  0.13052205184E+04  0.50400001928E-02 0.  1.
       -1    1    3    3    0  502 -0.34148380717E+03 -0.54884590277E+03  0.68137010544E+03  0.93920617340E+03  0.50400001928E-02 0. -1.
</event>
<event>
 5   0  0.5866610E-05  0.2100049E+04  0.7818609E-02  0.8561222E-01
       -2   -1    0    0    0  501  0.00000000000E+00  0.00000000000E+00  0.74190671634E+03  0.74190671635E+03  0.25500000920E-02 0.  1.
        2   -1    0    0  501    0  0.00000000000E+00  0.00000000000E+00 -0.14861057864E+04  0.14861057864E+04  0.25500000920E-02 0. -1.
    10030    2    1    2    0    0  0.00000000000E+00  0.00000000000E+00 -0.74419907005E+03  0.22280125027E+04  0.21000493938E+04 0.  0.
        5    1    3    3  502    0 -0.97216074788E+03 -0.31259487934E+03 -0.63136199366E+03  0.12006049039E+04  0.46999998093E+01 0. -1.
       -5    1    3    3    0  502  0.97216074788E+03  0.31259487934E+03 -0.11283707639E+03  0.10274075988E+04  0.46999998093E+01 0.  1.
</event>
<event>
 5   0  0.5506332E-05  0.2088750E+04  0.7818609E-02  0.8566215E-01
       -2   -1    0    0    0  501  0.00000000000E+00  0.00000000000E+00  0.53408050494E+03  0.53408050494E+03  0.25500000920E-02 0.  1.
        2   -1    0    0  501    0  0.00000000000E+00  0.00000000000E+00 -0.20422381125E+04  0.20422381125E+04  0.25500000920E-02 0. -1.
    10030    2    1    2    0    0  0.00000000000E+00  0.00000000000E+00 -0.15081576076E+04  0.25763186175E+04  0.20887504038E+04 0.  0.
        3    1    3    3  502    0  0.25828461798E+03 -0.95411207773E+03 -0.11699440926E+04  0.15316037316E+04  0.10100000352E+00 0. -1.
       -3    1    3    3    0  502 -0.25828461798E+03  0.95411207773E+03 -0.33821351501E+03  0.10447148858E+04  0.10100000352E+00 0.  1.
</event>
<event>
 5   0  0.5967046E-05  0.2095886E+04  0.7818609E-02  0.8563058E-01
       -2   -1    0    0    0  501  0.00000000000E+00  0.00000000000E+00  0.11331846407E+04  0.11331846407E+04  0.25500000920E-02 0.  1.
        2   -1    0    0  501    0  0.00000000000E+00  0.00000000000E+00 -0.96911357853E+03  0.96911357853E+03  0.25500000920E-02 0. -1.
    10030    2    1    2    0    0  0.00000000000E+00  0.00000000000E+00  0.16407106212E+03  0.21022982192E+04  0.20958860868E+04 0.  0.
        4    1    3    3  502    0 -0.53399959335E+03  0.85874053490E+03 -0.19374586155E+03  0.10296261184E+04  0.12699999809E+01 0. -1.
       -4    1    3    3    0  502  0.53399959335E+03 -0.85874053490E+03  0.35781692368E+03  0.10726721008E+04  0.12699999809E+01 0.  1.
</event>
<event>
 5   0  0.5954140E-05  0.1977938E+04  0.7818609E-02  0.8617006E-01
       -2   -1    0    0    0  501  0.00000000000E+00  0.00000000000E+00  0.60222820961E+03  0.60222820961E+03  0.25500000920E-02 0. -1.
        2   -1    0    0  501    0  0.00000000000E+00  0.00000000000E+00 -0.16240676749E+04  0.16240676749E+04  0.25500000920E-02 0.  1.
    10030    2    1    2    0    0  0.00000000000E+00  0.00000000000E+00 -0.10218394652E+04  0.22262958845E+04  0.19779376817E+04 0.  0.
        2    1    3    3  502    0 -0.11359005567E+03 -0.98074203526E+03 -0.44624406769E+03  0.10834626936E+04  0.25500000920E-02 0.  1.
       -2    1    3    3    0  502  0.11359005567E+03  0.98074203526E+03 -0.57559539756E+03  0.11428331909E+04  0.25500000920E-02 0. -1.
</event>
<event>
 5   0  0.5954140E-05  0.2116530E+04  0.7818609E-02  0.8553997E-01
       -2   -1    0    0    0  501  0.00000000000E+00  0.00000000000E+00  0.69199400031E+03  0.69199400032E+03  0.25500000920E-02 0. -1.
        2   -1    0    0  501    0  0.00000000000E+00  0.00000000000E+00 -0.16184024529E+04  0.16184024529E+04  0.25500000920E-02 0.  1.
    10030    2    1    2    0    0  0.00000000000E+00  0.00000000000E+00 -0.92640845261E+03  0.23103964532E+04  0.21165299786E+04 0.  0.
        2    1    3    3  502    0  0.95813402211E+02 -0.11798014926E+03 -0.16064268430E+04  0.16136005471E+04  0.25500000920E-02 0.  1.
       -2    1    3    3    0  502 -0.95813402211E+02  0.11798014926E+03  0.68001839035E+03  0.69679590619E+03  0.25500000920E-02 0. -1.
</event>
<event>
 5   0  0.5954140E-05  0.2086083E+04  0.7818609E-02  0.8567399E-01
        2   -1    0    0  501    0  0.00000000000E+00  0.00000000000E+00  0.12367570496E+04  0.12367570496E+04  0.25500000920E-02 0.  1.
       -2   -1    0    0    0  501  0.00000000000E+00  0.00000000000E+00 -0.87966797603E+03  0.87966797603E+03  0.25500000920E-02 0. -1.
    10030    2    1    2    0    0  0.00000000000E+00  0.00000000000E+00  0.35708907358E+03  0.21164250256E+04  0.20860830000E+04 0.  0.
        2    1    3    3  502    0  0.40919567110E+03 -0.89974080500E+03 -0.15940853760E+03  0.10011921371E+04  0.25500000920E-02 0. -1.
       -2    1    3    3    0  502 -0.40919567110E+03  0.89974080500E+03  0.51649761118E+03  0.11152328886E+04  0.25500000920E-02 0.  1.
</event>
<event>
 5   0  0.5506332E-05  0.2115209E+04  0.7818609E-02  0.8554573E-01
       -2   -1    0    0    0  501  0.00000000000E+00  0.00000000000E+00  0.80471225702E+03  0.80471225702E+03  0.25500000920E-02 0.  1.
        2   -1    0    0  501    0  0.00000000000E+00  0.00000000000E+00 -0.13899720006E+04  0.13899720006E+04  0.25500000920E-02 0. -1.
    10030    2    1    2    0    0  0.00000000000E+00  0.00000000000E+00 -0.58525974357E+03  0.21946842576E+04  0.21152092150E+04 0.  0.
        3    1    3    3  502    0 -0.90984142816E+02  0.39988316249E+03  0.71885378887E+03  0.82760826353E+03  0.10100000352E+00 0.  1.
       -3    1    3    3    0  502  0.90984142816E+02 -0.39988316249E+03 -0.13041135324E+04  0.13670759941E+04  0.10100000352E+00 0. -1.
</event>
<event>
 5   0  0.5967046E-05  0.2087996E+04  0.7818609E-02  0.8566550E-01
       -2   -1    0    0    0  501  0.00000000000E+00  0.00000000000E+00  0.50300203818E+03  0.50300203819E+03  0.25500000920E-02 0.  1.
        2   -1    0    0  501    0  0.00000000000E+00  0.00000000000E+00 -0.21668528065E+04  0.21668528065E+04  0.25500000920E-02 0. -1.
    10030    2    1    2    0    0  0.00000000000E+00  0.00000000000E+00 -0.16638507683E+04  0.26698548447E+04  0.20879955729E+04 0.  0.
        4    1    3    3  502    0 -0.86964830391E+03  0.57371039554E+03 -0.91768179261E+03  0.13883707271E+04  0.12699999809E+01 0. -1.
       -4    1    3    3    0  502  0.86964830391E+03 -0.57371039554E+03 -0.74616897568E+03  0.12814841176E+04  0.12699999809E+01 0.  1.
</event>
<event>
 5   0  0.5462851E-05  0.2105325E+04  0.7818609E-02  0.8558901E-01
       -2   -1    0    0    0  501  0.00000000000E+00  0.00000000000E+00  0.74634041484E+03  0.74634041485E+03  0.25500000920E-02 0. -1.
        2   -1    0    0  501    0  0.00000000000E+00  0.00000000000E+00 -0.14847090868E+04  0.14847090868E+04  0.25500000920E-02 0.  1.
    10030    2    1    2    0    0  0.00000000000E+00  0.00000000000E+00 -0.73836867192E+03  0.22310495016E+04  0.21053250540E+04 0.  0.
        1    1    3    3  502    0  0.13830517485E+02 -0.68526345599E+03 -0.12158455221E+04  0.13957283479E+04  0.50400001928E-02 0.  1.
       -1    1    3    3    0  502 -0.13830517485E+02  0.68526345599E+03  0.47747685023E+03  0.83532115373E+03  0.50400001928E-02 0. -1.
</event>
<event>
 5   0  0.2602060E-05  0.1918548E+04  0.7818609E-02  0.8645679E-01
       -1   -1    0    0    0  501  0.00000000000E+00  0.00000000000E+00  0.94382754483E+03  0.94382754484E+03  0.50400001928E-02 0.  1.
        1   -1    0    0  501    0  0.00000000000E+00  0.00000000000E+00 -0.97497325197E+03  0.97497325199E+03  0.50400001928E-02 0. -1.
    10030    2    1    2    0    0  0.00000000000E+00  0.00000000000E+00 -0.31145707147E+02  0.19188007968E+04  0.19185480038E+04 0.  0.
        1    1    3    3  502    0 -0.60858187944E+03 -0.68286095300E+03 -0.30463623898E+03  0.96409243500E+03  0.50400001928E-02 0. -1.
       -1    1    3    3    0  502  0.60858187944E+03  0.68286095300E+03  0.27349053184E+03  0.95470836182E+03  0.50400001928E-02 0.  1.
</event>
<event>
 5   0  0.2732159E-05  0.2087764E+04  0.7818609E-02  0.8566653E-01
       -1   -1    0    0    0  501  0.00000000000E+00  0.00000000000E+00  0.61838884186E+03  0.61838884188E+03  0.50400001928E-02 0.  1.
        1   -1    0    0  501    0  0.00000000000E+00  0.00000000000E+00 -0.17621432927E+04  0.17621432927E+04  0.50400001928E-02 0. -1.
    10030    2    1    2    0    0  0.00000000000E+00  0.00000000000E+00 -0.11437544508E+04  0.23805321345E+04  0.20877641150E+04 0.  0.
        3    1    3    3  502    0 -0.29078319606E+03 -0.87889478945E+03 -0.11218878106E+04  0.14545250729E+04  0.10100000352E+00 0. -1.
       -3    1    3    3    0  502  0.29078319606E+03  0.87889478945E+03 -0.21866640223E+02  0.92600706163E+03  0.10100000352E+00 0.  1.
</event>
<event>
 5   0  0.2602060E-05  0.2105053E+04  0.7818609E-02  0.8559021E-01
        1   -1    0    0  501    0  0.00000000000E+00  0.00000000000E+00  0.14674550813E+04  0.14674550813E+04  0.50400001928E-02 0.  1.
       -1   -1    0    0    0  501  0.00000000000E+00  0.00000000000E+00 -0.75492065358E+03  0.75492065359E+03  0.50400001928E-02 0. -1.
    10030    2    1    2    0    0  0.00000000000E+00  0.00000000000E+00  0.71253442771E+03  0.22223757349E+04  0.21050531101E+04 0.  0.
        1    1    3    3  502    0 -0.81222981432E+03 -0.11664854245E+03 -0.33962715127E+03  0.88807136855E+03  0.50400001928E-02 0.  1.
       -1    1    3    3    0  502  0.81222981432E+03  0.11664854245E+03  0.10521615790E+04  0.13343043663E+04  0.50400001928E-02 0. -1.
</event>
<event>
 5   0  0.5967046E-05  0.2097625E+04  0.7818609E-02  0.8562290E-01
        2   -1    0    0  501    0  0.00000000000E+00  0.00000000000E+00  0.10341360988E+04  0.10341360988E+04  0.25500000920E-02 0. -1.
       -2   -1    0    0    0  501  0.00000000000E+00  0.00000000000E+00 -0.10636975266E+04  0.10636975266E+04  0.25500000920E-02 0.  1.
    10030    2    1    2    0    0  0.00000000000E+00  0.00000000000E+00 -0.29561427835E+02  0.20978336254E+04  0.20976253340E+04 0.  0.
        4    1    3    3  502    0  0.42192915209E+03  0.86281213380E+03 -0.43617443731E+03  0.10548548432E+04  0.12699999809E+01 0.  1.
       -4    1    3    3    0  502 -0.42192915209E+03 -0.86281213380E+03  0.40661300947E+03  0.10429787821E+04  0.12699999809E+01 0. -1.
</event>
<event>
 5   0  0.5954140E-05  0.2105561E+04  0.7818609E-02  0.8558798E-01
       -2   -1    0    0    0  501  0.00000000000E+00  0.00000000000E+00  0.46170119212E+03  0.46170119213E+03  0.25500000920E-02 0.  1.
        2   -1    0    0  501    0  0.00000000000E+00  0.00000000000E+00 -0.24005717223E+04  0.24005717223E+04  0.25500000920E-02 0. -1.
    10030    2    1    2    0    0  0.00000000000E+00  0.00000000000E+00 -0.19388705301E+04  0.28622729144E+04  0.21055610425E+04 0.  0.
        2    1    3    3  502    0 -0.23453458956E+03 -0.10228349007E+04 -0.85449572932E+03  0.13532777466E+04  0.25500000920E-02 0.  1.
       -2    1    3    3    0  502  0.23453458956E+03  0.10228349007E+04 -0.10843748008E+04  0.15089951678E+04  0.25500000920E-02 0. -1.
</event>
<event>
 5   0  0.5954140E-05  0.2105042E+04  0.7818609E-02  0.8559026E-01
        2   -1    0    0  501    0  0.00000000000E+00  0.00000000000E+00  0.96161647640E+03  0.96161647641E+03  0.25500000920E-02 0. -1.
       -2   -1    0    0    0  501  0.00000000000E+00  0.00000000000E+00 -0.11520186659E+04  0.11520186659E+04  0.25500000920E-02 0.  1.
    10030    2    1    2    0    0  0.00000000000E+00  0.00000000000E+00 -0.19040218948E+03  0.21136351423E+04  0.21050416910E+04 0.  0.
        2    1    3    3  502    0  0.64109417952E+02  0.91298248117E+03 -0.61708547485E+03  0.11038303818E+04  0.25500000920E-02 0.  1.
       -2    1    3    3    0  502 -0.64109417952E+02 -0.91298248117E+03  0.42668328537E+03  0.10098047605E+04  0.25500000920E-02 0. -1.
</event>
<event>
 5   0  0.5462851E-05  0.2083363E+04  0.7818609E-02  0.8568608E-01
        2   -1    0    0  501    0  0.00000000000E+00  0.00000000000E+00  0.14253085236E+04  0.14253085236E+04  0.25500000920E-02 0. -1.
       -2   -1    0    0    0  501  0.00000000000E+00  0.00000000000E+00 -0.76130904493E+03  0.76130904493E+03  0.25500000920E-02 0.  1.
    10030    2    1    2    0    0  0.00000000000E+00  0.00000000000E+00  0.66399947863E+03  0.21866175685E+04  0.20833629264E+04 0.  0.
        1    1    3    3  502    0 -0.17380745884E+03 -0.10268549034E+04  0.30948314878E+03  0.10864712812E+04  0.50400001928E-02 0.  1.
       -1    1    3    3    0  502  0.17380745884E+03  0.10268549034E+04  0.35451632985E+03  0.11001462873E+04  0.50400001928E-02 0. -1.
</event>
<event>
 5   0  0.5866610E-05  0.2103147E+04  0.7818609E-02  0.8559858E-01
        2   -1    0    0  501    0  0.00000000000E+00  0.00000000000E+00  0.20530541906E+04  0.20530541906E+04  0.25500000920E-02 0. -1.
       -2   -1    0    0    0  501  0.00000000000E+00  0.00000000000E+00 -0.53861573331E+03  0.53861573332E+03  0.25500000920E-02 0.  1.
    10030    2    1    2    0    0  0.00000000000E+00  0.00000000000E+00  0.15144384573E+04  0.25916699239E+04  0.21031474398E+04 0.  0.
        5    1    3    3  502    0  0.12716127704E+03  0.10122878756E+04  0.10711209657E+04  0.14792629742E+04  0.46999998093E+01 0. -1.
       -5    1    3    3    0  502 -0.12716127704E+03 -0.10122878756E+04  0.44331749157E+03  0.11124069498E+04  0.46999998093E+01 0.  1.
</event>
<event>
 5   0  0.2699285E-05  0.2100282E+04  0.7818609E-02  0.8561119E-01
        1   -1    0    0  501    0  0.00000000000E+00  0.00000000000E+00  0.13214881548E+04  0.13214881548E+04  0.50400001928E-02 0. -1.
       -1   -1    0    0    0  501  0.00000000000E+00  0.00000000000E+00 -0.83451100569E+03  0.83451100570E+03  0.50400001928E-02 0.  1.
    10030    2    1    2    0    0  0.00000000000E+00  0.00000000000E+00  0.48697714910E+03  0.21559991605E+04  0.21002822754E+04 0.  0.
        2    1    3    3  502    0 -0.12509818258E+03  0.53690338588E+03  0.11610013742E+04  0.12852388852E+04  0.25500000920E-02 0. -1.
       -2    1    3    3    0  502  0.12509818258E+03 -0.53690338588E+03 -0.67402422510E+03  0.87076027532E+03  0.25500000920E-02 0.  1.
</event>
<event>
 5   0  0.2732159E-05  0.2097520E+04  0.7818609E-02  0.8562337E-01
        1   -1    0    0  501    0  0.00000000000E+00  0.00000000000E+00  0.72895596529E+03  0.72895596531E+03  0.50400001928E-02 0.  1.
       -1   -1    0    0    0  501  0.00000000000E+00  0.00000000000E+00 -0.15088672934E+04  0.15088672935E+04  0.50400001928E-02 0. -1.
    10030    2    1    2    0    0  0.00000000000E+00  0.00000000000E+00 -0.77991132816E+03  0.22378232588E+04  0.20975202640E+04 0.  0.
        3    1    3    3  502    0  0.94632940070E+02 -0.30898291850E+03 -0.14544274024E+04  0.14898942635E+04  0.10100000352E+00 0. -1.
       -3    1    3    3    0  502 -0.94632940070E+02  0.30898291850E+03  0.67451607429E+03  0.74792899525E+03  0.10100000352E+00 0.  1.
</event>
<event>
 5   0  0.2602060E-05  0.2101501E+04  0.7818609E-02  0.8560583E-01
       -1   -1    0    0    0  501  0.00000000000E+00  0.00000000000E+00  0.89749553951E+03  0.89749553952E+03  0.50400001928E-02 0. -1.
        1   -1    0    0  501    0  0.00000000000E+00  0.00000000000E+00 -0.12301745831E+04  0.12301745831E+04  0.50400001928E-02 0.  1.
    10030    2    1    2    0    0  0.00000000000E+00  0.00000000000E+00 -0.33267904361E+03  0.21276701227E+04  0.21015006078E+04 0.  0.
        1    1    3    3  502    0 -0.34696173211E+03 -0.63671443195E+03 -0.93626208877E+03  0.11842189030E+04  0.50400001928E-02 0.  1.
       -1    1    3    3    0  502  0.34696173211E+03  0.63671443195E+03  0.60358304515E+03  0.94345121963E+03  0.50400001928E-02 0. -1.
</event>
<event>
 5   0  0.2699285E-05  0.2084324E+04  0.7818609E-02  0.8568180E-01
       -1   -1    0    0    0  501  0.00000000000E+00  0.00000000000E+00  0.14059712836E+04  0.14059712836E+04  0.50400001928E-02 0. -1.
        1   -1    0    0  501    0  0.00000000000E+00  0.00000000000E+00 -0.77249210382E+03  0.77249210383E+03  0.50400001928E-02 0.  1.
    10030    2    1    2    0    0  0.00000000000E+00  0.00000000000E+00  0.63347917982E+03  0.21784633875E+04  0.20843240773E+04 0.  0.
        2    1    3    3  502    0  0.24148604287E+03 -0.10038488253E+04  0.46482053879E+03  0.11322924119E+04  0.25500000920E-02 0. -1.
       -2    1    3    3    0  502 -0.24148604287E+03  0.10038488253E+04  0.16865864103E+03  0.10461709755E+04  0.25500000920E-02 0.  1.
</event>
<event>
 5   0  0.5506332E-05  0.2099108E+04  0.7818609E-02  0.8561637E-01
       -2   -1    0    0    0  501  0.00000000000E+00  0.00000000000E+00  0.76928644301E+03  0.76928644301E+03  0.25500000920E-02 0.  1.
        2   -1    0    0  501    0  0.00000000000E+00  0.00000000000E+00 -0.14319285262E+04  0.14319285262E+04  0.25500000920E-02 0. -1.
    10030    2    1    2    0    0  0.00000000000E+00  0.00000000000E+00 -0.66264208318E+03  0.22012149692E+04  0.20991076224E+04 0.  0.
        3    1    3    3  502    0  0.10112896123E+04 -0.92160462865E+02 -0.60948432694E+03  0.11843442852E+04  0.10100000352E+00 0. -1.
       -3    1    3    3    0  502 -0.10112896123E+04  0.92160462865E+02 -0.53157756245E+02  0.10168706840E+04  0.10100000352E+00 0.  1.
</event>
<event>
 5   0  0.2699285E-05  0.2098383E+04  0.7818609E-02  0.8561956E-01
       -1   -1    0    0    0  501  0.00000000000E+00  0.00000000000E+00  0.13441122202E+04  0.13441122202E+04  0.50400001928E-02 0.  1.
        1   -1    0    0  501    0  0.00000000000E+00  0.00000000000E+00 -0.81898121683E+03  0.81898121684E+03  0.50400001928E-02 0. -1.
    10030    2    1    2    0    0  0.00000000000E+00  0.00000000000E+00  0.52513100338E+03  0.21630934371E+04  0.20983828647E+04 0.  0.
        2    1    3    3  502    0 -0.48681507403E+02 -0.75112799773E+03 -0.49089162929E+03  0.89863104211E+03  0.25500000920E-02 0. -1.
       -2    1    3    3    0  502  0.48681507403E+02  0.75112799773E+03  0.10160226327E+04  0.12644623949E+04  0.25500000920E-02 0.  1.
</event>
<event>
 5   0  0.5866610E-05  0.2100263E+04  0.7818609E-02  0.8561127E-01
       -2   -1    0    0    0  501  0.00000000000E+00  0.00000000000E+00  0.61859116802E+03  0.61859116802E+03  0.25500000920E-02 0.  1.
        2   -1    0    0  501    0  0.00000000000E+00  0.00000000000E+00 -0.17827229215E+04  0.17827229215E+04  0.25500000920E-02 0. -1.
    10030    2    1    2    0    0  0.00000000000E+00  0.00000000000E+00 -0.11641317535E+04  0.24013140896E+04  0.21002634638E+04 0.  0.
        5    1    3    3  502    0  0.10375648693E+04  0.36885767045E+02 -0.40181977455E+03  0.11132756348E+04  0.46999998093E+01 0.  1.
       -5    1    3    3    0  502 -0.10375648693E+04 -0.36885767045E+02 -0.76231197896E+03  0.12880384548E+04  0.46999998093E+01 0. -1.
</event>
<event>
 5   0  0.5462851E-05  0.2097903E+04  0.7818609E-02  0.8562168E-01
        2   -1    0    0  501    0  0.00000000000E+00  0.00000000000E+00  0.10641040277E+04  0.10641040277E+04  0.25500000920E-02 0. -1.
       -2   -1    0    0    0  501  0.00000000000E+00  0.00000000000E+00 -0.10340143200E+04  0.10340143200E+04  0.25500000920E-02 0.  1.
    10030    2    1    2    0    0  0.00000000000E+00  0.00000000000E+00  0.30089707698E+02  0.20981183477E+04  0.20979025741E+04 0.  0.
        1    1    3    3  502    0 -0.14434967254E+03 -0.10083595851E+04 -0.23532649937E+03  0.10454685276E+04  0.50400001928E-02 0.  1.
       -1    1    3    3    0  502  0.14434967254E+03  0.10083595851E+04  0.26541620707E+03  0.10526498201E+04  0.50400001928E-02 0. -1.
</event>
<event>
 5   0  0.2604390E-05  0.2104416E+04  0.7818609E-02  0.8559301E-01
        1   -1    0    0  501    0  0.00000000000E+00  0.00000000000E+00  0.16150397798E+04  0.16150397799E+04  0.50400001928E-02 0.  1.
       -1   -1    0    0    0  501  0.00000000000E+00  0.00000000000E+00 -0.68551970677E+03  0.68551970679E+03  0.50400001928E-02 0. -1.
    10030    2    1    2    0    0  0.00000000000E+00  0.00000000000E+00  0.92952007308E+03  0.23005594866E+04  0.21044159250E+04 0.  0.
        5    1    3    3  502    0  0.41024182843E+03  0.84407441415E+03  0.98487731507E+03  0.13604283848E+04  0.46999998093E+01 0.  1.
       -5    1    3    3    0  502 -0.41024182843E+03 -0.84407441415E+03 -0.55357241989E+02  0.94013110184E+03  0.46999998093E+01 0. -1.
</event>
<event>
 5   0  0.2732159E-05  0.2101176E+04  0.7818609E-02  0.8560726E-01
       -1   -1    0    0    0  501  0.00000000000E+00  0.00000000000E+00  0.10230153328E+04  0.10230153328E+04  0.50400001928E-02 0. -1.
        1   -1    0    0  501    0  0.00000000000E+00  0.00000000000E+00 -0.10789035574E+04  0.10789035574E+04  0.50400001928E-02 0.  1.
    10030    2    1    2    0    0  0.00000000000E+00  0.00000000000E+00 -0.55888224594E+02  0.21019188902E+04  0.21011757488E+04 0.  0.
        3    1    3    3  502    0 -0.94159876999E+03 -0.32880824895E+03  0.30234195667E+03  0.10421774212E+04  0.10100000352E+00 0. -1.
       -3    1    3    3    0  502  0.94159876999E+03  0.32880824895E+03 -0.35823018126E+03  0.10597414690E+04  0.10100000352E+00 0.  1.
</event>
<event>
 5   0  0.2602060E-05  0.2093544E+04  0.7818609E-02  0.8564093E-01
        1   -1    0    0  501    0  0.00000000000E+00  0.00000000000E+00  0.91032719911E+03  0.91032719913E+03  0.50400001928E-02 0.  1.
       -1   -1    0    0    0  501  0.00000000000E+00  0.00000000000E+00 -0.12036679567E+04  0.12036679567E+04  0.50400001928E-02 0. -1.
    10030    2    1    2    0    0  0.00000000000E+00  0.00000000000E+00 -0.29334075755E+03  0.21139951558E+04  0.20935440570E+04 0.  0.
        1    1    3    3  502    0  0.44572404906E+02  0.51532142609E+03  0.77226836361E+03  0.92948442533E+03  0.50400001928E-02 0.  1.
       -1    1    3    3    0  502 -0.44572404906E+02 -0.51532142609E+03 -0.10656091212E+04  0.11845107305E+04  0.50400001928E-02 0. -1.
</event>
<event>
 5   0  0.2604390E-05  0.2116444E+04  0.7818609E-02  0.8554034E-01
       -1   -1    0    0    0  501  0.00000000000E+00  0.00000000000E+00  0.84032479401E+03  0.84032479402E+03  0.50400001928E-02 0. -1.
        1   -1    0    0  501    0  0.00000000000E+00  0.00000000000E+00 -0.13326204445E+04  0.13326204445E+04  0.50400001928E-02 0.  1.
    10030    2    1    2    0    0  0.00000000000E+00  0.00000000000E+00 -0.49229565045E+03  0.21729452385E+04  0.21164441883E+04 0.  0.
        5    1    3    3  502    0 -0.30064982837E+03  0.59615628577E+03 -0.10890518335E+04  0.12774383047E+04  0.46999998093E+01 0.  1.
       -5    1    3    3    0  502  0.30064982837E+03 -0.59615628577E+03  0.59675618306E+03  0.89550693374E+03  0.46999998093E+01 0. -1.
</event>
<event>
 5   0  0.5954140E-05  0.2160326E+04  0.7818609E-02  0.8535125E-01
        2   -1    0    0  501    0  0.00000000000E+00  0.00000000000E+00  0.11062612163E+04  0.11062612163E+04  0.25500000920E-02 0.  1.
       -2   -1    0    0    0  501  0.00000000000E+00  0.00000000000E+00 -0.10546809239E+04  0.10546809239E+04  0.25500000920E-02 0. -1.
    10030    2    1    2    0    0  0.00000000000E+00  0.00000000000E+00  0.51580292395E+02  0.21609421402E+04  0.21603264583E+04 0.  0.
        2    1    3    3  502    0 -0.28684162198E+03 -0.20552341701E+03  0.10469800199E+04  0.11048462124E+04  0.25500000920E-02 0.  1.
       -2    1    3    3    0  502  0.28684162198E+03  0.20552341701E+03 -0.99539972752E+03  0.10560959277E+04  0.25500000920E-02 0. -1.
</event>
<event>
 5   0  0.2699285E-05  0.2078998E+04  0.7818609E-02  0.8570552E-01
        1   -1    0    0  501    0  0.00000000000E+00  0.00000000000E+00  0.89986640056E+03  0.89986640058E+03  0.50400001928E-02 0. -1.
       -1   -1    0    0    0  501  0.00000000000E+00  0.00000000000E+00 -0.12007985322E+04  0.12007985322E+04  0.50400001928E-02 0.  1.
    10030    2    1    2    0    0  0.00000000000E+00  0.00000000000E+00 -0.30093213162E+03  0.21006649328E+04  0.20789980789E+04 0.  0.
        2    1    3    3  502    0 -0.53865825897E+03 -0.20729895042E+03  0.72308588597E+03  0.92519120905E+03  0.25500000920E-02 0. -1.
       -2    1    3    3    0  502  0.53865825897E+03  0.20729895042E+03 -0.10240180176E+04  0.11754737237E+04  0.25500000920E-02 0.  1.
</event>
<event>
 5   0  0.5866610E-05  0.2082641E+04  0.7818609E-02  0.8568929E-01
        2   -1    0    0  501    0  0.00000000000E+00  0.00000000000E+00  0.23403592921E+04  0.23403592921E+04  0.25500000920E-02 0.  1.
       -2   -1    0    0    0  501  0.00000000000E+00  0.00000000000E+00 -0.46332566317E+03  0.46332566318E+03  0.25500000920E-02 0. -1.
    10030    2    1    2    0    0  0.00000000000E+00  0.00000000000E+00  0.18770336289E+04  0.28036849553E+04  0.20826411319E+04 0.  0.
        5    1    3    3  502    0 -0.48279917811E+03 -0.39796993267E+03 -0.18204235391E+03  0.65164148296E+03  0.46999998093E+01 0. -1.
       -5    1    3    3    0  502  0.48279917811E+03  0.39796993267E+03  0.20590759828E+04  0.21520434723E+04  0.46999998093E+01 0.  1.
</event>
<event>
 5   0  0.2602060E-05  0.2090455E+04  0.7818609E-02  0.8565460E-01
       -1   -1    0    0    0  501  0.00000000000E+00  0.00000000000E+00  0.39332705949E+03  0.39332705953E+03  0.50400001928E-02 0. -1.
        1   -1    0    0  501    0  0.00000000000E+00  0.00000000000E+00 -0.27775874478E+04  0.27775874478E+04  0.50400001928E-02 0.  1.
    10030    2    1    2    0    0  0.00000000000E+00  0.00000000000E+00 -0.23842603883E+04  0.31709145073E+04  0.20904547863E+04 0.  0.
        1    1    3    3  502    0  0.77459245230E+03 -0.23922411836E+03 -0.19137594949E+03  0.83297442940E+03  0.50400001928E-02 0. -1.
       -1    1    3    3    0  502 -0.77459245230E+03  0.23922411836E+03 -0.21928844388E+04  0.23379400779E+04  0.50400001928E-02 0.  1.
</event>
<event>
 5   0  0.5506332E-05  0.2109189E+04  0.7818609E-02  0.8557206E-01
        2   -1    0    0  501    0  0.00000000000E+00  0.00000000000E+00  0.19153677233E+04  0.19153677233E+04  0.25500000920E-02 0.  1.
       -2   -1    0    0    0  501  0.00000000000E+00  0.00000000000E+00 -0.58065609397E+03  0.58065609398E+03  0.25500000920E-02 0. -1.
    10030    2    1    2    0    0  0.00000000000E+00  0.00000000000E+00  0.13347116293E+04  0.24960238172E+04  0.21091893615E+04 0.  0.
        3    1    3    3  502    0  0.85977993345E+03  0.59637450964E+03  0.82294464198E+03  0.13312107210E+04  0.10100000352E+00 0.  1.
       -3    1    3    3    0  502 -0.85977993345E+03 -0.59637450964E+03  0.51176698731E+03  0.11648130963E+04  0.10100000352E+00 0. -1.
</event>
<event>
 5   0  0.5866610E-05  0.2100908E+04  0.7818609E-02  0.8560844E-01
        2   -1    0    0  501    0  0.00000000000E+00  0.00000000000E+00  0.10406936815E+04  0.10406936815E+04  0.25500000920E-02 0.  1.
       -2   -1    0    0    0  501  0.00000000000E+00  0.00000000000E+00 -0.10603058032E+04  0.10603058032E+04  0.25500000920E-02 0. -1.
    10030    2    1    2    0    0  0.00000000000E+00  0.00000000000E+00 -0.19612121622E+02  0.21009994847E+04  0.21009079464E+04 0.  0.
        5    1    3    3  502    0 -0.87590108412E+03 -0.46862431900E+02  0.56817471043E+03  0.10451044868E+04  0.46999998093E+01 0.  1.
       -5    1    3    3    0  502  0.87590108412E+03  0.46862431900E+02 -0.58778683205E+03  0.10558949979E+04  0.46999998093E+01 0. -1.
</event>
<event>
 5   0  0.5866610E-05  0.2103862E+04  0.7818609E-02  0.8559544E-01
        2   -1    0    0  501    0  0.00000000000E+00  0.00000000000E+00  0.13659153397E+04  0.13659153397E+04  0.25500000920E-02 0.  1.
       -2   -1    0    0    0  501  0.00000000000E+00  0.00000000000E+00 -0.81012227958E+03  0.81012227958E+03  0.25500000920E-02 0. -1.
    10030    2    1    2    0    0  0.00000000000E+00  0.00000000000E+00  0.55579306010E+03  0.21760376193E+04  0.21038616387E+04 0.  0.
        5    1    3    3  502    0  0.54144638835E+03  0.89585432360E+03  0.38547035643E+03  0.11154947988E+04  0.46999998093E+01 0.  1.
       -5    1    3    3    0  502 -0.54144638835E+03 -0.89585432360E+03  0.17032270368E+03  0.10605428204E+04  0.46999998093E+01 0. -1.
</event>
<event>
 5   0  0.5506332E-05  0.2106863E+04  0.7818609E-02  0.8558226E-01
       -2   -1    0    0    0  501  0.00000000000E+00  0.00000000000E+00  0.13420564445E+04  0.13420564445E+04  0.25500000920E-02 0.  1.
        2   -1    0    0  501    0  0.00000000000E+00  0.00000000000E+00 -0.82687897697E+03  0.82687897698E+03  0.25500000920E-02 0. -1.
    10030    2    1    2    0    0  0.00000000000E+00  0.00000000000E+00  0.51517746750E+03  0.21689354215E+04  0.21068633177E+04 0.  0.
        3    1    3    3  502    0 -0.37681957061E+03 -0.75429451909E+03  0.90767171624E+03  0.12388789953E+04  0.10100000352E+00 0.  1.
       -3    1    3    3    0  502  0.37681957061E+03  0.75429451909E+03 -0.39249424874E+03  0.93005642615E+03  0.10100000352E+00 0. -1.
</event>
<event>
 5   0  0.2602060E-05  0.2102327E+04  0.7818609E-02  0.8560219E-01
        1   -1    0    0  501    0  0.00000000000E+00  0.00000000000E+00  0.11576282092E+04  0.11576282092E+04  0.50400001928E-02 0. -1.
       -1   -1    0    0    0  501  0.00000000000E+00  0.00000000000E+00 -0.95448991046E+03  0.95448991047E+03  0.50400001928E-02 0.  1.
    10030    2    1    2    0    0  0.00000000000E+00  0.00000000000E+00  0.20313829875E+03  0.21121181197E+04  0.21023267546E+04 0.  0.
        1    1    3    3  502    0  0.75744428215E+03 -0.34354394233E+03 -0.54423112943E+03  0.99394758571E+03  0.50400001928E-02 0.  1.
       -1    1    3    3    0  502 -0.75744428215E+03  0.34354394233E+03  0.74736942817E+03  0.11181705340E+04  0.50400001928E-02 0. -1.
</event>
<event>
 5   0  0.2789662E-05  0.2098747E+04  0.7818609E-02  0.8561795E-01
        1   -1    0    0  501    0  0.00000000000E+00  0.00000000000E+00  0.17723566852E+04  0.17723566852E+04  0.50400001928E-02 0. -1.
       -1   -1    0    0    0  501  0.00000000000E+00  0.00000000000E+00 -0.62131119672E+03  0.62131119674E+03  0.50400001928E-02 0.  1.
    10030    2    1    2    0    0  0.00000000000E+00  0.00000000000E+00  0.11510454885E+04  0.23936678819E+04  0.20987472960E+04 0.  0.
        4    1    3    3  502    0  0.32644351893E+03 -0.90328307000E+03  0.93393691210E+02  0.96499205699E+03  0.12699999809E+01 0.  1.
       -4    1    3    3    0  502 -0.32644351893E+03  0.90328307000E+03  0.10576517972E+04  0.14286758249E+04  0.12699999809E+01 0. -1.
</event>
<event>
 5   0  0.2604390E-05  0.2112462E+04  0.7818609E-02  0.8555774E-01
        1   -1    0    0  501    0  0.00000000000E+00  0.00000000000E+00  0.12763573005E+04  0.12763573005E+04  0.50400001928E-02 0. -1.
       -1   -1    0    0    0  501  0.00000000000E+00  0.00000000000E+00 -0.87406856123E+03  0.87406856124E+03  0.50400001928E-02 0.  1.
    10030    2    1    2    0    0  0.00000000000E+00  0.00000000000E+00  0.40228873925E+03  0.21504258617E+04  0.21124618711E+04 0.  0.
        5    1    3    3  502    0 -0.62374250341E+03  0.56725290217E+03 -0.44650561873E+03  0.95405446550E+03  0.46999998093E+01 0.  1.
       -5    1    3    3    0  502  0.62374250341E+03 -0.56725290217E+03  0.84879435797E+03  0.11963713962E+04  0.46999998093E+01 0. -1.
</event>
<event>
 5   0  0.5954140E-05  0.2098376E+04  0.7818609E-02  0.8561959E-01
        2   -1    0    0  501    0  0.00000000000E+00  0.00000000000E+00  0.19811655447E+04  0.19811655447E+04  0.25500000920E-02 0.  1.
       -2   -1    0    0    0  501  0.00000000000E+00  0.00000000000E+00 -0.55563024400E+03  0.55563024401E+03  0.25500000920E-02 0. -1.
    10030    2    1    2    0    0  0.00000000000E+00  0.00000000000E+00  0.14255353007E+04  0.25367957887E+04  0.20983760340E+04 0.  0.
        2    1    3    3  502    0  0.23801833952E+03  0.58447273175E+02  0.19460727719E+04  0.19614453975E+04  0.25500000920E-02 0.  1.
       -2    1    3    3    0  502 -0.23801833952E+03 -0.58447273175E+02 -0.52053747124E+03  0.57535039121E+03  0.25500000920E-02 0. -1.
</event>
<event>
 5   0  0.2732159E-05  0.2093663E+04  0.7818609E-02  0.8564040E-01
        1   -1    0    0  501    0  0.00000000000E+00  0.00000000000E+00  0.34876631237E+04  0.34876631237E+04  0.50400001928E-02 0.  1.
       -1   -1    0    0    0  501  0.00000000000E+00  0.00000000000E+00 -0.31420930434E+03  0.31420930438E+03  0.50400001928E-02 0. -1.
    10030    2    1    2    0    0  0.00000000000E+00  0.00000000000E+00  0.31734538194E+04  0.38018724281E+04  0.20936630139E+04 0.  0.
        3    1    3    3  502    0  0.57311932052E+02  0.37037433975E+03  0.33616604705E+04  0.33824876849E+04  0.10100000352E+00 0.  1.
       -3    1    3    3    0  502 -0.57311932052E+02 -0.37037433975E+03 -0.18820665115E+03  0.41938474321E+03  0.10100000352E+00 0. -1.
</event>
<event>
 5   0  0.2789662E-05  0.2092411E+04  0.7818609E-02  0.8564594E-01
       -1   -1    0    0    0  501  0.00000000000E+00  0.00000000000E+00  0.81862630202E+03  0.81862630203E+03  0.50400001928E-02 0. -1.
        1   -1    0    0  501    0  0.00000000000E+00  0.00000000000E+00 -0.13370515378E+04  0.13370515378E+04  0.50400001928E-02 0.  1.
    10030    2    1    2    0    0  0.00000000000E+00  0.00000000000E+00 -0.51842523579E+03  0.21556778399E+04  0.20924106251E+04 0.  0.
        4    1    3    3  502    0 -0.12499610723E+03 -0.10126634405E+04 -0.21068209433E+02  0.10205668782E+04  0.12699999809E+01 0. -1.
       -4    1    3    3    0  502  0.12499610723E+03  0.10126634405E+04 -0.49735702635E+03  0.11351109616E+04  0.12699999809E+01 0.  1.
</event>
<event>
 5   0  0.5967046E-05  0.2134043E+04  0.7818609E-02  0.8546394E-01
        2   -1    0    0  501    0  0.00000000000E+00  0.00000000000E+00  0.14920327538E+04  0.14920327538E+04  0.25500000920E-02 0.  1.
       -2   -1    0    0    0  501  0.00000000000E+00  0.00000000000E+00 -0.76307659017E+03  0.76307659017E+03  0.25500000920E-02 0. -1.
    10030    2    1    2    0    0  0.00000000000E+00  0.00000000000E+00  0.72895616359E+03  0.22551093439E+04  0.21340433605E+04 0.  0.
        4    1    3    3  502    0 -0.56198647067E+03 -0.59986332925E+03 -0.35446306600E+03  0.89515947465E+03  0.12699999809E+01 0. -1.
       -4    1    3    3    0  502  0.56198647067E+03  0.59986332925E+03  0.10834192296E+04  0.13599498693E+04  0.12699999809E+01 0.  1.
</event>
<event>
 5   0  0.2789662E-05  0.2083491E+04  0.7818609E-02  0.8568551E-01
       -1   -1    0    0    0  501  0.00000000000E+00  0.00000000000E+00  0.19590002531E+04  0.19590002531E+04  0.50400001928E-02 0. -1.
        1   -1    0    0  501    0  0.00000000000E+00  0.00000000000E+00 -0.55397297223E+03  0.55397297225E+03  0.50400001928E-02 0.  1.
    10030    2    1    2    0    0  0.00000000000E+00  0.00000000000E+00  0.14050272809E+04  0.25129732254E+04  0.20834905259E+04 0.  0.
        4    1    3    3  502    0  0.25263459702E+03 -0.83970270277E+03  0.13808584946E+04  0.16357556858E+04  0.12699999809E+01 0. -1.
       -4    1    3    3    0  502 -0.25263459702E+03  0.83970270277E+03  0.24168786332E+02  0.87721753961E+03  0.12699999809E+01 0.  1.
</event>
<event>
 5   0  0.2789662E-05  0.2087789E+04  0.7818609E-02  0.8566642E-01
       -1   -1    0    0    0  501  0.00000000000E+00  0.00000000000E+00  0.13629621015E+04  0.13629621015E+04  0.50400001928E-02 0.  1.
        1   -1    0    0  501    0  0.00000000000E+00  0.00000000000E+00 -0.79951986035E+03  0.79951986036E+03  0.50400001928E-02 0. -1.
    10030    2    1    2    0    0  0.00000000000E+00  0.00000000000E+00  0.56344224114E+03  0.21624819619E+04  0.20877885612E+04 0.  0.
        4    1    3    3  502    0  0.47676190989E+03 -0.63202149432E+03 -0.42303357950E+03  0.89761467807E+03  0.12699999809E+01 0. -1.
       -4    1    3    3    0  502 -0.47676190989E+03  0.63202149432E+03  0.98647582064E+03  0.12648672838E+04  0.12699999809E+01 0.  1.
</event>
<event>
 5   0  0.2602060E-05  0.2077756E+04  0.7818609E-02  0.8571106E-01
        1   -1    0    0  501    0  0.00000000000E+00  0.00000000000E+00  0.86041796239E+03  0.86041796240E+03  0.50400001928E-02 0. -1.
       -1   -1    0    0    0  501  0.00000000000E+00  0.00000000000E+00 -0.12543524894E+04  0.12543524894E+04  0.50400001928E-02 0.  1.
    10030    2    1    2    0    0  0.00000000000E+00  0.00000000000E+00 -0.39393452700E+03  0.21147704518E+04  0.20777559174E+04 0.  0.
        1    1    3    3  502    0  0.28566325171E+03 -0.18994505679E+03  0.80110617873E+03  0.87146642368E+03  0.50400001928E-02 0. -1.
       -1    1    3    3    0  502 -0.28566325171E+03  0.18994505679E+03 -0.11950407057E+04  0.12433040281E+04  0.50400001928E-02 0.  1.
</event>
<event>
 5   0  0.5462851E-05  0.2097244E+04  0.7818609E-02  0.8562459E-01
        2   -1    0    0  501    0  0.00000000000E+00  0.00000000000E+00  0.12302554208E+04  0.12302554208E+04  0.25500000920E-02 0. -1.
       -2   -1    0    0    0  501  0.00000000000E+00  0.00000000000E+00 -0.89380443053E+03  0.89380443053E+03  0.25500000920E-02 0.  1.
    10030    2    1    2    0    0  0.00000000000E+00  0.00000000000E+00  0.33645099029E+03  0.21240598513E+04  0.20972436633E+04 0.  0.
        1    1    3    3  502    0  0.10714322242E+03 -0.93103777773E+03 -0.30821137124E+03  0.98656234626E+03  0.50400001928E-02 0.  1.
       -1    1    3    3    0  502 -0.10714322242E+03  0.93103777773E+03  0.64466236153E+03  0.11374975051E+04  0.50400001928E-02 0. -1.
</event>
<event>
 5   0  0.2732159E-05  0.2107437E+04  0.7818609E-02  0.8557974E-01
        1   -1    0    0  501    0  0.00000000000E+00  0.00000000000E+00  0.13157991409E+04  0.13157991409E+04  0.50400001928E-02 0.  1.
       -1   -1    0    0    0  501  0.00000000000E+00  0.00000000000E+00 -0.84383925817E+03  0.84383925818E+03  0.50400001928E-02 0. -1.
    10030    2    1    2    0    0  0.00000000000E+00  0.00000000000E+00  0.47195988272E+03  0.21596383991E+04  0.21074372787E+04 0.  0.
        3    1    3    3  502    0 -0.11718251922E+03 -0.35223602525E+03 -0.77461210706E+03  0.85896791960E+03  0.10100000352E+00 0. -1.
       -3    1    3    3    0  502  0.11718251922E+03  0.35223602525E+03  0.12465719898E+04  0.13006704795E+04  0.10100000352E+00 0.  1.
</event>
<event>
 5   0  0.5954140E-05  0.2088591E+04  0.7818609E-02  0.8566286E-01
        2   -1    0    0  501    0  0.00000000000E+00  0.00000000000E+00  0.18928318404E+04  0.18928318404E+04  0.25500000920E-02 0. -1.
       -2   -1    0    0    0  501  0.00000000000E+00  0.00000000000E+00 -0.57614909804E+03  0.57614909805E+03  0.25500000920E-02 0.  1.
    10030    2    1    2    0    0  0.00000000000E+00  0.00000000000E+00  0.13166827423E+04  0.24689809384E+04  0.20885912550E+04 0.  0.
        2    1    3    3  502    0 -0.20748402098E+03 -0.50343479370E+03 -0.39505098177E+03  0.67272690497E+03  0.25500000920E-02 0.  1.
       -2    1    3    3    0  502  0.20748402098E+03  0.50343479370E+03  0.17117337241E+04  0.17962540334E+04  0.25500000920E-02 0. -1.
</event>
<event>
 5   0  0.5506332E-05  0.2115161E+04  0.7818609E-02  0.8554594E-01
        2   -1    0    0  501    0  0.00000000000E+00  0.00000000000E+00  0.14351392877E+04  0.14351392877E+04  0.25500000920E-02 0.  1.
       -2   -1    0    0    0  501  0.00000000000E+00  0.00000000000E+00 -0.77935073822E+03  0.77935073823E+03  0.25500000920E-02 0. -1.
    10030    2    1    2    0    0  0.00000000000E+00  0.00000000000E+00  0.65578854948E+03  0.22144900259E+04  0.21151613303E+04 0.  0.
        3    1    3    3  502    0 -0.90950538955E+03  0.28848782383E+03 -0.14965230008E+03  0.96582664037E+03  0.10100000352E+00 0. -1.
       -3    1    3    3    0  502  0.90950538955E+03 -0.28848782383E+03  0.80544084957E+03  0.12486633856E+04  0.10100000352E+00 0.  1.
</event>
<event>
 5   0  0.2604390E-05  0.2097844E+04  0.7818609E-02  0.8562194E-01
        1   -1    0    0  501    0  0.00000000000E+00  0.00000000000E+00  0.10688294984E+04  0.10688294984E+04  0.50400001928E-02 0.  1.
       -1   -1    0    0    0  501  0.00000000000E+00  0.00000000000E+00 -0.10293848851E+04  0.10293848851E+04  0.50400001928E-02 0. -1.
    10030    2    1    2    0    0  0.00000000000E+00  0.00000000000E+00  0.39444613323E+02  0.20982143836E+04  0.20978435885E+04 0.  0.
        5    1    3    3  502    0 -0.50667492664E+03 -0.83875634243E+03  0.39393166757E+03  0.10561420037E+04  0.46999998093E+01 0.  1.
       -5    1    3    3    0  502  0.50667492664E+03  0.83875634243E+03 -0.35448705425E+03  0.10420723799E+04  0.46999998093E+01 0. -1.
</event>
<event>
 5   0  0.5967046E-05  0.2087916E+04  0.7818609E-02  0.8566585E-01
       -2   -1    0    0    0  501  0.00000000000E+00  0.00000000000E+00  0.12597404121E+04  0.12597404121E+04  0.25500000920E-02 0. -1.
        2   -1    0    0  501    0  0.00000000000E+00  0.00000000000E+00 -0.86513690046E+03  0.86513690047E+03  0.25500000920E-02 0.  1.
    10030    2    1    2    0    0  0.00000000000E+00  0.00000000000E+00  0.39460351160E+03  0.21248773125E+04  0.20879156262E+04 0.  0.
        4    1    3    3  502    0 -0.30509095652E+03 -0.36157632656E+03  0.11443824303E+04  0.12383176859E+04  0.12699999809E+01 0. -1.
       -4    1    3    3    0  502  0.30509095652E+03  0.36157632656E+03 -0.74977891869E+03  0.88655962659E+03  0.12699999809E+01 0.  1.
</event>
<event>
 5   0  0.5967046E-05  0.2091478E+04  0.7818609E-02  0.8565007E-01
        2   -1    0    0  501    0  0.00000000000E+00  0.00000000000E+00  0.21607286679E+04  0.21607286679E+04  0.25500000920E-02 0. -1.
       -2   -1    0    0    0  501  0.00000000000E+00  0.00000000000E+00 -0.50611181086E+03  0.50611181087E+03  0.25500000920E-02 0.  1.
    10030    2    1    2    0    0  0.00000000000E+00  0.00000000000E+00  0.16546168571E+04  0.26668404788E+04  0.20914782322E+04 0.  0.
        4    1    3    3  502    0 -0.49431497408E+03  0.77761998789E+03  0.19677448183E+03  0.94221120179E+03  0.12699999809E+01 0.  1.
       -4    1    3    3    0  502  0.49431497408E+03 -0.77761998789E+03  0.14578423752E+04  0.17246292770E+04  0.12699999809E+01 0. -1.
</event>
<event>
 5   0  0.5954140E-05  0.2108810E+04  0.7818609E-02  0.8557372E-01
        2   -1    0    0  501    0  0.00000000000E+00  0.00000000000E+00  0.10366091929E+04  0.10366091929E+04  0.25500000920E-02 0. -1.
       -2   -1    0    0    0  501  0.00000000000E+00  0.00000000000E+00 -0.10725063740E+04  0.10725063740E+04  0.25500000920E-02 0.  1.
    10030    2    1    2    0    0  0.00000000000E+00  0.00000000000E+00 -0.35897181120E+02  0.21091155668E+04  0.21088100594E+04 0.  0.
        2    1    3    3  502    0  0.50724363119E+03 -0.47917459589E+03  0.77265031915E+03  0.10411017772E+04  0.25500000920E-02 0. -1.
       -2    1    3    3    0  502 -0.50724363119E+03  0.47917459589E+03 -0.80854750027E+03  0.10680137897E+04  0.25500000920E-02 0.  1.
</event>
<event>
 5   0  0.2604390E-05  0.2083713E+04  0.7818609E-02  0.8568452E-01
        1   -1    0    0  501    0  0.00000000000E+00  0.00000000000E+00  0.13661718901E+04  0.13661718901E+04  0.50400001928E-02 0.  1.
       -1   -1    0    0    0  501  0.00000000000E+00  0.00000000000E+00 -0.79453062333E+03  0.79453062334E+03  0.50400001928E-02 0. -1.
    10030    2    1    2    0    0  0.00000000000E+00  0.00000000000E+00  0.57164126674E+03  0.21607025134E+04  0.20837134193E+04 0.  0.
        5    1    3    3  502    0  0.38273842874E+03  0.64475453133E+03 -0.46426359040E+03  0.88190695761E+03  0.46999998093E+01 0. -1.
       -5    1    3    3    0  502 -0.38273842874E+03 -0.64475453133E+03  0.10359048571E+04  0.12787955558E+04  0.46999998093E+01 0.  1.
</event>
<event>
 5   0  0.5506332E-05  0.2103776E+04  0.7818609E-02  0.8559582E-01
       -2   -1    0    0    0  501  0.00000000000E+00  0.00000000000E+00  0.69601350453E+03  0.69601350454E+03  0.25500000920E-02 0. -1.
        2   -1    0    0  501    0  0.00000000000E+00  0.00000000000E+00 -0.15897222875E+04  0.15897222875E+04  0.25500000920E-02 0.  1.
    10030    2    1    2    0    0  0.00000000000E+00  0.00000000000E+00 -0.89370878301E+03  0.22857357921E+04  0.21037758251E+04 0.  0.
        3    1    3    3  502    0 -0.20526167977E+02 -0.10510488818E+04 -0.48667243407E+03  0.11584365083E+04  0.10100000352E+00 0.  1.
       -3    1    3    3    0  502  0.20526167977E+02  0.10510488818E+04 -0.40703634894E+03  0.11272992837E+04  0.10100000352E+00 0. -1.
</event>
<event>
 5   0  0.2017750E-05  0.2090779E+04  0.7818609E-02  0.8565316E-01
        3   -1    0    0  501    0  0.00000000000E+00  0.00000000000E+00  0.13044432631E+04  0.13044432670E+04  0.10100000352E+00 0. -1.
       -3   -1    0    0    0  501  0.00000000000E+00  0.00000000000E+00 -0.83778177143E+03  0.83778177751E+03  0.10100000352E+00 0.  1.
    10030    2    1    2    0    0  0.00000000000E+00  0.00000000000E+00  0.46666149167E+03  0.21422250445E+04  0.20907786094E+04 0.  0.
        5    1    3    3  502    0  0.70194202990E+03  0.82294068884E+02  0.10225582105E+04  0.12430375340E+04  0.46999998093E+01 0. -1.
       -5    1    3    3    0  502 -0.70194202990E+03 -0.82294068884E+02 -0.55589671880E+03  0.89918751053E+03  0.46999998093E+01 0.  1.
</event>
<event>
 5   0  0.2732159E-05  0.2096236E+04  0.7818609E-02  0.8562903E-01
       -1   -1    0    0    0  501  0.00000000000E+00  0.00000000000E+00  0.13881694869E+04  0.13881694869E+04  0.50400001928E-02 0. -1.
        1   -1    0    0  501    0  0.00000000000E+00  0.00000000000E+00 -0.79136654679E+03  0.79136654681E+03  0.50400001928E-02 0.  1.
    10030    2    1    2    0    0  0.00000000000E+00  0.00000000000E+00  0.59680294006E+03  0.21795360337E+04  0.20962355719E+04 0.  0.
        3    1    3    3  502    0  0.54649116659E+03  0.34440460900E+02 -0.63081973191E+03  0.83532765121E+03  0.10100000352E+00 0.  1.
       -3    1    3    3    0  502 -0.54649116659E+03 -0.34440460900E+02  0.12276226720E+04  0.13442083825E+04  0.10100000352E+00 0. -1.
</event>
<event>
 5   0  0.5967046E-05  0.2094819E+04  0.7818609E-02  0.8563529E-01
        2   -1    0    0  501    0  0.00000000000E+00  0.00000000000E+00  0.23370245743E+04  0.23370245743E+04  0.25500000920E-02 0. -1.
       -2   -1    0    0    0  501  0.00000000000E+00  0.00000000000E+00 -0.46942872396E+03  0.46942872396E+03  0.25500000920E-02 0.  1.
    10030    2    1    2    0    0  0.00000000000E+00  0.00000000000E+00  0.18675958503E+04  0.28064532982E+04  0.20948188120E+04 0.  0.
        4    1    3    3  502    0  0.85402028739E+03  0.14875367766E+02  0.17459471691E+04  0.19436833739E+04  0.12699999809E+01 0.  1.
       -4    1    3    3    0  502 -0.85402028739E+03 -0.14875367766E+02  0.12164868127E+03  0.86276992437E+03  0.12699999809E+01 0. -1.
</event>
<event>
 5   0  0.2789662E-05  0.2098834E+04  0.7818609E-02  0.8561757E-01
       -1   -1    0    0    0  501  0.00000000000E+00  0.00000000000E+00  0.57950038655E+03  0.57950038657E+03  0.50400001928E-02 0. -1.
        1   -1    0    0  501    0  0.00000000000E+00  0.00000000000E+00 -0.19003887716E+04  0.19003887716E+04  0.50400001928E-02 0.  1.
    10030    2    1    2    0    0  0.00000000000E+00  0.00000000000E+00 -0.13208883850E+04  0.24798891582E+04  0.20988339885E+04 0.  0.
        4    1    3    3  502    0  0.21084728803E+03 -0.15331506801E+03  0.54063041747E+03  0.60020409041E+03  0.12699999809E+01 0. -1.
       -4    1    3    3    0  502 -0.21084728803E+03  0.15331506801E+03 -0.18615188025E+04  0.18796850678E+04  0.12699999809E+01 0.  1.
</event>
<event>
 5   0  0.2732159E-05  0.2140902E+04  0.7818609E-02  0.8543437E-01
       -1   -1    0    0    0  501  0.00000000000E+00  0.00000000000E+00  0.10063722816E+04  0.10063722816E+04  0.50400001928E-02 0. -1.
        1   -1    0    0  501    0  0.00000000000E+00  0.00000000000E+00 -0.11386097791E+04  0.11386097791E+04  0.50400001928E-02 0.  1.
    10030    2    1    2    0    0  0.00000000000E+00  0.00000000000E+00 -0.13223749752E+03  0.21449820607E+04  0.21409019793E+04 0.  0.
        3    1    3    3  502    0  0.89366976938E+03 -0.45592649395E+03  0.30788972065E+03  0.10494335209E+04  0.10100000352E+00 0. -1.
       -3    1    3    3    0  502 -0.89366976938E+03  0.45592649395E+03 -0.44012721817E+03  0.10955485398E+04  0.10100000352E+00 0.  1.
</event>
<event>
 5   0  0.5954140E-05  0.2103182E+04  0.7818609E-02  0.8559843E-01
       -2   -1    0    0    0  501  0.00000000000E+00  0.00000000000E+00  0.68485724471E+03  0.68485724472E+03  0.25500000920E-02 0. -1.
        2   -1    0    0  501    0  0.00000000000E+00  0.00000000000E+00 -0.16147067280E+04  0.16147067280E+04  0.25500000920E-02 0.  1.
    10030    2    1    2    0    0  0.00000000000E+00  0.00000000000E+00 -0.92984948327E+03  0.22995639727E+04  0.21031819710E+04 0.  0.
        2    1    3    3  502    0 -0.45648141014E+03 -0.81241662641E+03 -0.99771035642E+03  0.13652186667E+04  0.25500000920E-02 0.  1.
       -2    1    3    3    0  502  0.45648141014E+03  0.81241662641E+03  0.67860873157E+02  0.93434530597E+03  0.25500000920E-02 0. -1.
</event>
<event>
 5   0  0.2732159E-05  0.2099475E+04  0.7818609E-02  0.8561475E-01
       -1   -1    0    0    0  501  0.00000000000E+00  0.00000000000E+00  0.85300883578E+03  0.85300883580E+03  0.50400001928E-02 0.  1.
        1   -1    0    0  501    0  0.00000000000E+00  0.00000000000E+00 -0.12918372093E+04  0.12918372093E+04  0.50400001928E-02 0. -1.
    10030    2    1    2    0    0  0.00000000000E+00  0.00000000000E+00 -0.43882837349E+03  0.21448460451E+04  0.20994747476E+04 0.  0.
        3    1    3    3  502    0  0.14762862760E+03 -0.15020367431E+03 -0.12700320763E+04  0.12873759515E+04  0.10100000352E+00 0. -1.
       -3    1    3    3    0  502 -0.14762862760E+03  0.15020367431E+03  0.83120370286E+03  0.85747009354E+03  0.10100000352E+00 0.  1.
</event>
<event>
 5   0  0.5462851E-05  0.2118878E+04  0.7818609E-02  0.8552973E-01
        2   -1    0    0  501    0  0.00000000000E+00  0.00000000000E+00  0.14017552583E+04  0.14017552583E+04  0.25500000920E-02 0.  1.
       -2   -1    0    0    0  501  0.00000000000E+00  0.00000000000E+00 -0.80071852718E+03  0.80071852719E+03  0.25500000920E-02 0. -1.
    10030    2    1    2    0    0  0.00000000000E+00  0.00000000000E+00  0.60103673113E+03  0.22024737855E+04  0.21188783881E+04 0.  0.
        1    1    3    3  502    0  0.10183603777E+04  0.29173584213E+03  0.31674666222E+03  0.11056654596E+04  0.50400001928E-02 0. -1.
       -1    1    3    3    0  502 -0.10183603777E+04 -0.29173584213E+03  0.28429006891E+03  0.10968083259E+04  0.50400001928E-02 0.  1.
</event>
<event>
 5   0  0.5462851E-05  0.2117114E+04  0.7818609E-02  0.8553742E-01
        2   -1    0    0  501    0  0.00000000000E+00  0.00000000000E+00  0.18391947545E+04  0.18391947545E+04  0.25500000920E-02 0. -1.
       -2   -1    0    0    0  501  0.00000000000E+00  0.00000000000E+00 -0.60925763352E+03  0.60925763353E+03  0.25500000920E-02 0.  1.
    10030    2    1    2    0    0  0.00000000000E+00  0.00000000000E+00  0.12299371210E+04  0.24484523880E+04  0.21171144926E+04 0.  0.
        1    1    3    3  502    0  0.63631590514E+02 -0.45265957710E+03  0.17191691961E+04  0.17789020200E+04  0.50400001928E-02 0. -1.
       -1    1    3    3    0  502 -0.63631590514E+02  0.45265957710E+03 -0.48923207506E+03  0.66955036804E+03  0.50400001928E-02 0.  1.
</event>
<event>
 5   0  0.5506332E-05  0.2091100E+04  0.7818609E-02  0.8565174E-01
       -2   -1    0    0    0  501  0.00000000000E+00  0.00000000000E+00  0.86638892102E+03  0.86638892103E+03  0.25500000920E-02 0.  1.
        2   -1    0    0  501    0  0.00000000000E+00  0.00000000000E+00 -0.12617598181E+04  0.12617598181E+04  0.25500000920E-02 0. -1.
    10030    2    1    2    0    0  0.00000000000E+00  0.00000000000E+00 -0.39537089707E+03  0.21281487391E+04  0.20910999282E+04 0.  0.
        3    1    3    3  502    0  0.13304204867E+03  0.88406635238E+03 -0.74941707805E+03  0.11665759595E+04  0.10100000352E+00 0. -1.
       -3    1    3    3    0  502 -0.13304204867E+03 -0.88406635238E+03  0.35404618098E+03  0.96157277966E+03  0.10100000352E+00 0.  1.
</event>
<event>
 5   0  0.5506332E-05  0.2108341E+04  0.7818609E-02  0.8557578E-01
       -2   -1    0    0    0  501  0.00000000000E+00  0.00000000000E+00  0.87975953259E+03  0.87975953259E+03  0.25500000920E-02 0. -1.
        2   -1    0    0  501    0  0.00000000000E+00  0.00000000000E+00 -0.12631577193E+04  0.12631577193E+04  0.25500000920E-02 0.  1.
    10030    2    1    2    0    0  0.00000000000E+00  0.00000000000E+00 -0.38339818675E+03  0.21429172519E+04  0.21083406222E+04 0.  0.
        3    1    3    3  502    0 -0.96198198916E+03  0.43175793369E+02  0.24428972496E+03  0.99345406362E+03  0.10100000352E+00 0. -1.
       -3    1    3    3    0  502  0.96198198916E+03 -0.43175793369E+02 -0.62768791172E+03  0.11494631883E+04  0.10100000352E+00 0.  1.
</event>
<event>
 5   0  0.5866610E-05  0.2095416E+04  0.7818609E-02  0.8563265E-01
        2   -1    0    0  501    0  0.00000000000E+00  0.00000000000E+00  0.11835298850E+04  0.11835298850E+04  0.25500000920E-02 0. -1.
       -2   -1    0    0    0  501  0.00000000000E+00  0.00000000000E+00 -0.92747327871E+03  0.92747327871E+03  0.25500000920E-02 0.  1.
    10030    2    1    2    0    0  0.00000000000E+00  0.00000000000E+00  0.25605660631E+03  0.21110031637E+04  0.20954162765E+04 0.  0.
        5    1    3    3  502    0  0.12225834218E+03 -0.54643013777E+03  0.10201305131E+04  0.11637101664E+04  0.46999998093E+01 0. -1.
       -5    1    3    3    0  502 -0.12225834218E+03  0.54643013777E+03 -0.76407390680E+03  0.94729299730E+03  0.46999998093E+01 0.  1.
</event>
<event>
 5   0  0.2732159E-05  0.2110964E+04  0.7818609E-02  0.8556429E-01
        1   -1    0    0  501    0  0.00000000000E+00  0.00000000000E+00  0.13661424634E+04  0.13661424634E+04  0.50400001928E-02 0. -1.
       -1   -1    0    0    0  501  0.00000000000E+00  0.00000000000E+00 -0.81546553780E+03  0.81546553781E+03  0.50400001928E-02 0.  1.
    10030    2    1    2    0    0  0.00000000000E+00  0.00000000000E+00  0.55067692557E+03  0.21816080012E+04  0.21109638544E+04 0.  0.
        3    1    3    3  502    0  0.47845377224E+03  0.50182270053E+02  0.12462492207E+04  0.13358792620E+04  0.10100000352E+00 0. -1.
       -3    1    3    3    0  502 -0.47845377224E+03 -0.50182270053E+02 -0.69557229510E+03  0.84572873920E+03  0.10100000352E+00 0.  1.
</event>
<event>
 5   0  0.2789662E-05  0.2101155E+04  0.7818609E-02  0.8560735E-01
        1   -1    0    0  501    0  0.00000000000E+00  0.00000000000E+00  0.18447747312E+04  0.18447747312E+04  0.50400001928E-02 0.  1.
       -1   -1    0    0    0  501  0.00000000000E+00  0.00000000000E+00 -0.59829136706E+03  0.59829136708E+03  0.50400001928E-02 0. -1.
    10030    2    1    2    0    0  0.00000000000E+00  0.00000000000E+00  0.12464833642E+04  0.24430660983E+04  0.21011547262E+04 0.  0.
        4    1    3    3  502    0  0.94266400504E+03 -0.19643522057E+03  0.13474618853E+03  0.97229644168E+03  0.12699999809E+01 0. -1.
       -4    1    3    3    0  502 -0.94266400504E+03  0.19643522057E+03  0.11117371756E+04  0.14707696566E+04  0.12699999809E+01 0.  1.
</event>
<event>
 5   0  0.5967046E-05  0.1985918E+04  0.7818609E-02  0.8613233E-01
        2   -1    0    0  501    0  0.00000000000E+00  0.00000000000E+00  0.86885748161E+03  0.86885748161E+03  0.25500000920E-02 0. -1.
       -2   -1    0    0    0  501  0.00000000000E+00  0.00000000000E+00 -0.11347862534E+04  0.11347862534E+04  0.25500000920E-02 0.  1.
    10030    2    1    2    0    0  0.00000000000E+00  0.00000000000E+00 -0.26592877177E+03  0.20036437350E+04  0.19859179502E+04 0.  0.
        4    1    3    3  502    0  0.33961009313E+03 -0.55065270950E+03  0.62702696138E+03  0.90095385289E+03  0.12699999809E+01 0. -1.
       -4    1    3    3    0  502 -0.33961009313E+03  0.55065270950E+03 -0.89295573315E+03  0.11026898821E+04  0.12699999809E+01 0.  1.
</event>
<event>
 5   0  0.2732159E-05  0.2115702E+04  0.7818609E-02  0.8554358E-01
       -1   -1    0    0    0  501  0.00000000000E+00  0.00000000000E+00  0.61431613742E+03  0.61431613744E+03  0.50400001928E-02 0. -1.
        1   -1    0    0  501    0  0.00000000000E+00  0.00000000000E+00 -0.18216163777E+04  0.18216163777E+04  0.50400001928E-02 0.  1.
    10030    2    1    2    0    0  0.00000000000E+00  0.00000000000E+00 -0.12073002403E+04  0.24359325151E+04  0.21157016208E+04 0.  0.
        3    1    3    3  502    0 -0.10795792527E+03  0.67311589641E+03  0.32767664173E+03  0.75638080050E+03  0.10100000352E+00 0. -1.
       -3    1    3    3    0  502  0.10795792527E+03 -0.67311589641E+03 -0.15349768820E+04  0.16795517146E+04  0.10100000352E+00 0.  1.
</event>
<event>
 5   0  0.2699285E-05  0.2112366E+04  0.7818609E-02  0.8555815E-01
       -1   -1    0    0    0  501  0.00000000000E+00  0.00000000000E+00  0.87851609783E+03  0.87851609785E+03  0.50400001928E-02 0. -1.
        1   -1    0    0  501    0  0.00000000000E+00  0.00000000000E+00 -0.12697807633E+04  0.12697807633E+04  0.50400001928E-02 0.  1.
    10030    2    1    2    0    0  0.00000000000E+00  0.00000000000E+00 -0.39126466548E+03  0.21482968612E+04  0.21123662952E+04 0.  0.
        2    1    3    3  502    0  0.72395285349E+03  0.63276005152E+03  0.24887164621E+03  0.99319188134E+03  0.25500000920E-02 0.  1.
       -2    1    3    3    0  502 -0.72395285349E+03 -0.63276005152E+03 -0.64013631168E+03  0.11551049798E+04  0.25500000920E-02 0. -1.
</event>
<event>
 5   0  0.2604390E-05  0.2099890E+04  0.7818609E-02  0.8561292E-01
       -1   -1    0    0    0  501  0.00000000000E+00  0.00000000000E+00  0.44852455159E+03  0.44852455162E+03  0.50400001928E-02 0.  1.
        1   -1    0    0  501    0  0.00000000000E+00  0.00000000000E+00 -0.24578013025E+04  0.24578013025E+04  0.50400001928E-02 0. -1.
    10030    2    1    2    0    0  0.00000000000E+00  0.00000000000E+00 -0.20092767509E+04  0.29063258541E+04  0.20998897372E+04 0.  0.
        5    1    3    3  502    0 -0.48248645139E+03  0.25868176759E+03  0.23533297518E+03  0.59591369498E+03  0.46999998093E+01 0.  1.
       -5    1    3    3    0  502  0.48248645139E+03 -0.25868176759E+03 -0.22446097261E+04  0.23104121591E+04  0.46999998093E+01 0. -1.
</event>
<event>
 5   0  0.2732159E-05  0.2083594E+04  0.7818609E-02  0.8568505E-01
       -1   -1    0    0    0  501  0.00000000000E+00  0.00000000000E+00  0.62703390519E+03  0.62703390521E+03  0.50400001928E-02 0. -1.
        1   -1    0    0  501    0  0.00000000000E+00  0.00000000000E+00 -0.17309123840E+04  0.17309123840E+04  0.50400001928E-02 0.  1.
    10030    2    1    2    0    0  0.00000000000E+00  0.00000000000E+00 -0.11038784788E+04  0.23579462892E+04  0.20835937720E+04 0.  0.
        3    1    3    3  502    0 -0.73698995895E+03 -0.42085568210E+03 -0.12357047137E+04  0.14990796691E+04  0.10100000352E+00 0.  1.
       -3    1    3    3    0  502  0.73698995895E+03  0.42085568210E+03  0.13182623485E+03  0.85886662011E+03  0.10100000352E+00 0. -1.
</event>
<event>
 5   0  0.2604390E-05  0.2004760E+04  0.7818609E-02  0.8604398E-01
        1   -1    0    0  501    0  0.00000000000E+00  0.00000000000E+00  0.14511949801E+04  0.14511949801E+04  0.50400001928E-02 0. -1.
       -1   -1    0    0    0  501  0.00000000000E+00  0.00000000000E+00 -0.69237130348E+03  0.69237130350E+03  0.50400001928E-02 0.  1.
    10030    2    1    2    0    0  0.00000000000E+00  0.00000000000E+00  0.75882367665E+03  0.21435662836E+04  0.20047600954E+04 0.  0.
        5    1    3    3  502    0 -0.56098139392E+03 -0.31014721800E+03 -0.44456254671E+03  0.78009574354E+03  0.46999998093E+01 0. -1.
       -5    1    3    3    0  502  0.56098139392E+03  0.31014721800E+03  0.12033862234E+04  0.13634705401E+04  0.46999998093E+01 0.  1.
</event>
<event>
 5   0  0.2699285E-05  0.2036085E+04  0.7818609E-02  0.8589933E-01
       -1   -1    0    0    0  501  0.00000000000E+00  0.00000000000E+00  0.74395643754E+03  0.74395643756E+03  0.50400001928E-02 0.  1.
        1   -1    0    0  501    0  0.00000000000E+00  0.00000000000E+00 -0.13931065723E+04  0.13931065723E+04  0.50400001928E-02 0. -1.
    10030    2    1    2    0    0  0.00000000000E+00  0.00000000000E+00 -0.64915013475E+03  0.21370630099E+04  0.20360850696E+04 0.  0.
        2    1    3    3  502    0 -0.61851858379E+03 -0.16666492066E+03 -0.11550608835E+04  0.13207982734E+04  0.25500000920E-02 0. -1.
       -2    1    3    3    0  502  0.61851858379E+03  0.16666492066E+03  0.50591074879E+03  0.81626473648E+03  0.25500000920E-02 0.  1.
</event>
<event>
 5   0  0.2699285E-05  0.2096781E+04  0.7818609E-02  0.8562663E-01
        1   -1    0    0  501    0  0.00000000000E+00  0.00000000000E+00  0.17395377520E+04  0.17395377520E+04  0.50400001928E-02 0. -1.
       -1   -1    0    0    0  501  0.00000000000E+00  0.00000000000E+00 -0.63184768392E+03  0.63184768394E+03  0.50400001928E-02 0.  1.
    10030    2    1    2    0    0  0.00000000000E+00  0.00000000000E+00  0.11076900681E+04  0.23713854359E+04  0.20967812472E+04 0.  0.
        2    1    3    3  502    0  0.49207678063E+03 -0.74864717415E+02 -0.48969807199E+03  0.69824672263E+03  0.25500000920E-02 0.  1.
       -2    1    3    3    0  502 -0.49207678063E+03  0.74864717415E+02  0.15973881400E+04  0.16731387133E+04  0.25500000920E-02 0. -1.
</event>
<event>
 5   0  0.5866610E-05  0.2094768E+04  0.7818609E-02  0.8563551E-01
       -2   -1    0    0    0  501  0.00000000000E+00  0.00000000000E+00  0.72659342231E+03  0.72659342231E+03  0.25500000920E-02 0.  1.
        2   -1    0    0  501    0  0.00000000000E+00  0.00000000000E+00 -0.15098041155E+04  0.15098041155E+04  0.25500000920E-02 0. -1.
    10030    2    1    2    0    0  0.00000000000E+00  0.00000000000E+00 -0.78321069323E+03  0.22363975379E+04  0.20947684734E+04 0.  0.
        5    1    3    3  502    0 -0.46483052258E+03 -0.56284886724E+03 -0.11934694991E+04  0.13990202992E+04  0.46999998093E+01 0. -1.
       -5    1    3    3    0  502  0.46483052258E+03  0.56284886724E+03  0.41025880591E+03  0.83737723870E+03  0.46999998093E+01 0.  1.
</event>
<event>
 5   0  0.2732159E-05  0.2092587E+04  0.7818609E-02  0.8564516E-01
       -1   -1    0    0    0  501  0.00000000000E+00  0.00000000000E+00  0.68692962206E+03  0.68692962208E+03  0.50400001928E-02 0.  1.
        1   -1    0    0  501    0  0.00000000000E+00  0.00000000000E+00 -0.15936561984E+04  0.15936561984E+04  0.50400001928E-02 0. -1.
    10030    2    1    2    0    0  0.00000000000E+00  0.00000000000E+00 -0.90672657634E+03  0.22805858205E+04  0.20925865813E+04 0.  0.
        3    1    3    3  502    0 -0.82642519685E+03 -0.61452759942E+03 -0.25209105055E+03  0.10602700997E+04  0.10100000352E+00 0.  1.
       -3    1    3    3    0  502  0.82642519685E+03  0.61452759942E+03 -0.65463552579E+03  0.12203157207E+04  0.10100000352E+00 0. -1.
</event>
<event>
 5   0  0.5866610E-05  0.1948639E+04  0.7818609E-02  0.8631017E-01
       -2   -1    0    0    0  501  0.00000000000E+00  0.00000000000E+00  0.90074439059E+03  0.90074439060E+03  0.25500000920E-02 0.  1.
        2   -1    0    0  501    0  0.00000000000E+00  0.00000000000E+00 -0.10539047579E+04  0.10539047579E+04  0.25500000920E-02 0. -1.
    10030    2    1    2    0    0  0.00000000000E+00  0.00000000000E+00 -0.15316036735E+03  0.19546491485E+04  0.19486393191E+04 0.  0.
        5    1    3    3  502    0 -0.29082458335E+03 -0.72109385753E+03 -0.66552077476E+03  0.10234721693E+04  0.46999998093E+01 0. -1.
       -5    1    3    3    0  502  0.29082458335E+03  0.72109385753E+03  0.51236040741E+03  0.93117697927E+03  0.46999998093E+01 0.  1.
</event>
<event>
 5   0  0.2732159E-05  0.2100485E+04  0.7818609E-02  0.8561030E-01
        1   -1    0    0  501    0  0.00000000000E+00  0.00000000000E+00  0.12943723172E+04  0.12943723172E+04  0.50400001928E-02 0.  1.
       -1   -1    0    0    0  501  0.00000000000E+00  0.00000000000E+00 -0.85215746872E+03  0.85215746874E+03  0.50400001928E-02 0. -1.
    10030    2    1    2    0    0  0.00000000000E+00  0.00000000000E+00  0.44221484850E+03  0.21465297860E+04  0.21004847416E+04 0.  0.
        3    1    3    3  502    0 -0.31871871012E+03  0.92925314749E+03 -0.15840387690E+03  0.99508031169E+03  0.10100000352E+00 0. -1.
       -3    1    3    3    0  502  0.31871871012E+03 -0.92925314749E+03  0.60061872541E+03  0.11514494743E+04  0.10100000352E+00 0.  1.
</event>
<event>
 5   0  0.5967046E-05  0.2092460E+04  0.7818609E-02  0.8564572E-01
       -2   -1    0    0    0  501  0.00000000000E+00  0.00000000000E+00  0.93650415277E+03  0.93650415277E+03  0.25500000920E-02 0.  1.
        2   -1    0    0  501    0  0.00000000000E+00  0.00000000000E+00 -0.11688118735E+04  0.11688118735E+04  0.25500000920E-02 0. -1.
    10030    2    1    2    0    0  0.00000000000E+00  0.00000000000E+00 -0.23230772076E+03  0.21053160263E+04  0.20924599622E+04 0.  0.
        4    1    3    3  502    0 -0.13790344418E+03 -0.21909238997E+03  0.90376886607E+03  0.94011627548E+03  0.12699999809E+01 0.  1.
       -4    1    3    3    0  502  0.13790344418E+03  0.21909238997E+03 -0.11360765868E+04  0.11651997508E+04  0.12699999809E+01 0. -1.
</event>
<event>
 5   0  0.2789662E-05  0.1972014E+04  0.7818609E-02  0.8619818E-01
       -1   -1    0    0    0  501  0.00000000000E+00  0.00000000000E+00  0.52582873405E+03  0.52582873407E+03  0.50400001928E-02 0. -1.
        1   -1    0    0  501    0  0.00000000000E+00  0.00000000000E+00 -0.18489094106E+04  0.18489094106E+04  0.50400001928E-02 0.  1.
    10030    2    1    2    0    0  0.00000000000E+00  0.00000000000E+00 -0.13230806766E+04  0.23747381447E+04  0.19720138892E+04 0.  0.
        4    1    3    3  502    0  0.77725048682E+03  0.60338197097E+03 -0.73789166901E+03  0.12299080658E+04  0.12699999809E+01 0. -1.
       -4    1    3    3    0  502 -0.77725048682E+03 -0.60338197097E+03 -0.58518900756E+03  0.11448300789E+04  0.12699999809E+01 0.  1.
</event>
<event>
 5   0  0.5967046E-05  0.2095129E+04  0.7818609E-02  0.8563392E-01
       -2   -1    0    0    0  501  0.00000000000E+00  0.00000000000E+00  0.74705661530E+03  0.74705661530E+03  0.25500000920E-02 0.  1.
        2   -1    0    0  501    0  0.00000000000E+00  0.00000000000E+00 -0.14689537656E+04  0.14689537656E+04  0.25500000920E-02 0. -1.
    10030    2    1    2    0    0  0.00000000000E+00  0.00000000000E+00 -0.72189715034E+03  0.22160103809E+04  0.20951292353E+04 0.  0.
        4    1    3    3  502    0 -0.49744175211E+03  0.46892095018E+03 -0.12005055168E+04  0.13815029001E+04  0.12699999809E+01 0. -1.
       -4    1    3    3    0  502  0.49744175211E+03 -0.46892095018E+03  0.47860836644E+03  0.83450748084E+03  0.12699999809E+01 0.  1.
</event>
<event>
 5   0  0.5954140E-05  0.2097991E+04  0.7818609E-02  0.8562129E-01
        2   -1    0    0  501    0  0.00000000000E+00  0.00000000000E+00  0.21428457667E+04  0.21428457667E+04  0.25500000920E-02 0. -1.
       -2   -1    0    0    0  501  0.00000000000E+00  0.00000000000E+00 -0.51351897806E+03  0.51351897807E+03  0.25500000920E-02 0.  1.
    10030    2    1    2    0    0  0.00000000000E+00  0.00000000000E+00  0.16293267887E+04  0.26563647448E+04  0.20979913901E+04 0.  0.
        2    1    3    3  502    0 -0.46988396524E+03 -0.28952436447E+03 -0.31481936821E+03  0.63539478517E+03  0.25500000920E-02 0.  1.
       -2    1    3    3    0  502  0.46988396524E+03  0.28952436447E+03  0.19441461569E+04  0.20209699596E+04  0.25500000920E-02 0. -1.
</event>
<event>
 5   0  0.2602060E-05  0.2115142E+04  0.7818609E-02  0.8554602E-01
        1   -1    0    0  501    0  0.00000000000E+00  0.00000000000E+00  0.13480238807E+04  0.13480238807E+04  0.50400001928E-02 0.  1.
       -1   -1    0    0    0  501  0.00000000000E+00  0.00000000000E+00 -0.82970106462E+03  0.82970106464E+03  0.50400001928E-02 0. -1.
    10030    2    1    2    0    0  0.00000000000E+00  0.00000000000E+00  0.51832281606E+03  0.21777249453E+04  0.21151424056E+04 0.  0.
        1    1    3    3  502    0  0.71480876325E+03 -0.49865380310E+03 -0.35760354365E+03  0.94206553796E+03  0.50400001928E-02 0. -1.
       -1    1    3    3    0  502 -0.71480876325E+03  0.49865380310E+03  0.87592635971E+03  0.12356594074E+04  0.50400001928E-02 0.  1.
</event>
<event>
 5   0  0.2602060E-05  0.2095808E+04  0.7818609E-02  0.8563092E-01
       -1   -1    0    0    0  501  0.00000000000E+00  0.00000000000E+00  0.10526872931E+04  0.10526872931E+04  0.50400001928E-02 0. -1.
        1   -1    0    0  501    0  0.00000000000E+00  0.00000000000E+00 -0.10431419609E+04  0.10431419609E+04  0.50400001928E-02 0.  1.
    10030    2    1    2    0    0  0.00000000000E+00  0.00000000000E+00  0.95453321847E+01  0.20958292540E+04  0.20958075170E+04 0.  0.
        1    1    3    3  502    0  0.32386884734E+03  0.97449495416E+03 -0.20396579454E+03  0.10469639398E+04  0.50400001928E-02 0.  1.
       -1    1    3    3    0  502 -0.32386884734E+03 -0.97449495416E+03  0.21351112672E+03  0.10488653141E+04  0.50400001928E-02 0. -1.
</event>
<event>
 5   0  0.5866610E-05  0.2102793E+04  0.7818609E-02  0.8560014E-01
        2   -1    0    0  501    0  0.00000000000E+00  0.00000000000E+00  0.66290001675E+03  0.66290001675E+03  0.25500000920E-02 0. -1.
       -2   -1    0    0    0  501  0.00000000000E+00  0.00000000000E+00 -0.16675736772E+04  0.16675736772E+04  0.25500000920E-02 0.  1.
    10030    2    1    2    0    0  0.00000000000E+00  0.00000000000E+00 -0.10046736605E+04  0.23304736940E+04  0.21027930175E+04 0.  0.
        5    1    3    3  502    0  0.68793582570E+03  0.34876427154E+02 -0.13826594658E+04  0.15447463720E+04  0.46999998093E+01 0.  1.
       -5    1    3    3    0  502 -0.68793582570E+03 -0.34876427154E+02  0.37798580533E+03  0.78572732197E+03  0.46999998093E+01 0. -1.
</event>
<event>
 5   0  0.5506332E-05  0.2098589E+04  0.7818609E-02  0.8561865E-01
        2   -1    0    0  501    0  0.00000000000E+00  0.00000000000E+00  0.22359651286E+04  0.22359651286E+04  0.25500000920E-02 0. -1.
       -2   -1    0    0    0  501  0.00000000000E+00  0.00000000000E+00 -0.49241311821E+03  0.49241311821E+03  0.25500000920E-02 0.  1.
    10030    2    1    2    0    0  0.00000000000E+00  0.00000000000E+00  0.17435520104E+04  0.27283782469E+04  0.20985886316E+04 0.  0.
        3    1    3    3  502    0  0.68471997772E+02 -0.10407559196E+04  0.72264777429E+03  0.12688897172E+04  0.10100000352E+00 0.  1.
       -3    1    3    3    0  502 -0.68471997772E+02  0.10407559196E+04  0.10209042361E+04  0.14594885296E+04  0.10100000352E+00 0. -1.
</event>
<event>
 5   0  0.5866610E-05  0.2121106E+04  0.7818609E-02  0.8552002E-01
       -2   -1    0    0    0  501  0.00000000000E+00  0.00000000000E+00  0.67153775272E+03  0.67153775272E+03  0.25500000920E-02 0. -1.
        2   -1    0    0  501    0  0.00000000000E+00  0.00000000000E+00 -0.16749216543E+04  0.16749216543E+04  0.25500000920E-02 0.  1.
    10030    2    1    2    0    0  0.00000000000E+00  0.00000000000E+00 -0.10033839015E+04  0.23464594070E+04  0.21211064317E+04 0.  0.
        5    1    3    3  502    0  0.63071731833E+03  0.80021759604E+03 -0.17615089930E+03  0.10340230974E+04  0.46999998093E+01 0. -1.
       -5    1    3    3    0  502 -0.63071731833E+03 -0.80021759604E+03 -0.82723300225E+03  0.13124363096E+04  0.46999998093E+01 0.  1.
</event>
<event>
 5   0  0.2699285E-05  0.2054198E+04  0.7818609E-02  0.8581692E-01
       -1   -1    0    0    0  501  0.00000000000E+00  0.00000000000E+00  0.99056172685E+03  0.99056172687E+03  0.50400001928E-02 0.  1.
        1   -1    0    0  501    0  0.00000000000E+00  0.00000000000E+00 -0.10649836647E+04  0.10649836647E+04  0.50400001928E-02 0. -1.
    10030    2    1    2    0    0  0.00000000000E+00  0.00000000000E+00 -0.74421937859E+02  0.20555453916E+04  0.20541977101E+04 0.  0.
        2    1    3    3  502    0  0.65104497008E+03 -0.52357009245E+03 -0.63505323540E+03  0.10494178417E+04  0.25500000920E-02 0. -1.
       -2    1    3    3    0  502 -0.65104497008E+03  0.52357009245E+03  0.56063129754E+03  0.10061275498E+04  0.25500000920E-02 0.  1.
</event>
<event>
 5   0  0.5967046E-05  0.2108954E+04  0.7818609E-02  0.8557309E-01
        2   -1    0    0  501    0  0.00000000000E+00  0.00000000000E+00  0.20328481939E+04  0.20328481939E+04  0.25500000920E-02 0. -1.
       -2   -1    0    0    0  501  0.00000000000E+00  0.00000000000E+00 -0.54697721589E+03  0.54697721590E+03  0.25500000920E-02 0.  1.
    10030    2    1    2    0    0  0.00000000000E+00  0.00000000000E+00  0.14858709780E+04  0.25798254098E+04  0.21089539070E+04 0.  0.
        4    1    3    3  502    0 -0.58662680158E+03 -0.56784150767E+03  0.15592763647E+04  0.17600907297E+04  0.12699999809E+01 0. -1.
       -4    1    3    3    0  502  0.58662680158E+03  0.56784150767E+03 -0.73405386693E+02  0.81973468016E+03  0.12699999809E+01 0.  1.
</event>
<event>
 5   0  0.2732159E-05  0.2084836E+04  0.7818609E-02  0.8567953E-01
        1   -1    0    0  501    0  0.00000000000E+00  0.00000000000E+00  0.13668899179E+04  0.13668899179E+04  0.50400001928E-02 0.  1.
       -1   -1    0    0    0  501  0.00000000000E+00  0.00000000000E+00 -0.79496946515E+03  0.79496946517E+03  0.50400001928E-02 0. -1.
    10030    2    1    2    0    0  0.00000000000E+00  0.00000000000E+00  0.57192045272E+03  0.21618593830E+04  0.20848364415E+04 0.  0.
        3    1    3    3  502    0  0.26870752949E+03 -0.10051957036E+04  0.22026672921E+03  0.10635504600E+04  0.10100000352E+00 0. -1.
       -3    1    3    3    0  502 -0.26870752949E+03  0.10051957036E+04  0.35165372351E+03  0.10983089230E+04  0.10100000352E+00 0.  1.
</event>
<event>
 5   0  0.5506332E-05  0.2097238E+04  0.7818609E-02  0.8562461E-01
       -2   -1    0    0    0  501  0.00000000000E+00  0.00000000000E+00  0.69050529556E+03  0.69050529557E+03  0.25500000920E-02 0. -1.
        2   -1    0    0  501    0  0.00000000000E+00  0.00000000000E+00 -0.15924598434E+04  0.15924598434E+04  0.25500000920E-02 0.  1.
    10030    2    1    2    0    0  0.00000000000E+00  0.00000000000E+00 -0.90195454784E+03  0.22829651390E+04  0.20972381408E+04 0.  0.
        3    1    3    3  502    0 -0.35450752751E+03  0.16031755143E+03  0.60902586383E+03  0.72269621375E+03  0.10100000352E+00 0. -1.
       -3    1    3    3    0  502  0.35450752751E+03 -0.16031755143E+03 -0.15109804117E+04  0.15602689252E+04  0.10100000352E+00 0.  1.
</event>
<event>
 5   0  0.2602060E-05  0.2107887E+04  0.7818609E-02  0.8557777E-01
       -1   -1    0    0    0  501  0.00000000000E+00  0.00000000000E+00  0.37637680859E+03  0.37637680862E+03  0.50400001928E-02 0. -1.
        1   -1    0    0  501    0  0.00000000000E+00  0.00000000000E+00 -0.29512892668E+04  0.29512892668E+04  0.50400001928E-02 0.  1.
    10030    2    1    2    0    0  0.00000000000E+00  0.00000000000E+00 -0.25749124582E+04  0.33276660754E+04  0.21078869377E+04 0.  0.
        1    1    3    3  502    0  0.44040215242E+02 -0.51895400277E+03  0.15902954749E+03  0.54455779725E+03  0.50400001928E-02 0. -1.
       -1    1    3    3    0  502 -0.44040215242E+02  0.51895400277E+03 -0.27339420057E+04  0.27831082781E+04  0.50400001928E-02 0.  1.
</event>
<event>
 5   0  0.5866610E-05  0.2099493E+04  0.7818609E-02  0.8561467E-01
       -2   -1    0    0    0  501  0.00000000000E+00  0.00000000000E+00  0.39588028347E+03  0.39588028347E+03  0.25500000920E-02 0. -1.
        2   -1    0    0  501    0  0.00000000000E+00  0.00000000000E+00 -0.27835883188E+04  0.27835883188E+04  0.25500000920E-02 0.  1.
    10030    2    1    2    0    0  0.00000000000E+00  0.00000000000E+00 -0.23877080353E+04  0.31794686022E+04  0.20994930176E+04 0.  0.
        5    1    3    3  502    0 -0.22073636121E+03  0.15128742246E+03  0.34334095954E+03  0.43533611135E+03  0.46999998093E+01 0. -1.
       -5    1    3    3    0  502  0.22073636121E+03 -0.15128742246E+03 -0.27310489948E+04  0.27441324909E+04  0.46999998093E+01 0.  1.
</event>
<event>
 5   0  0.2789662E-05  0.2110348E+04  0.7818609E-02  0.8556699E-01
        1   -1    0    0  501    0  0.00000000000E+00  0.00000000000E+00  0.97396466227E+03  0.97396466228E+03  0.50400001928E-02 0.  1.
       -1   -1    0    0    0  501  0.00000000000E+00  0.00000000000E+00 -0.11431549379E+04  0.11431549379E+04  0.50400001928E-02 0. -1.
    10030    2    1    2    0    0  0.00000000000E+00  0.00000000000E+00 -0.16919027560E+03  0.21171196002E+04  0.21103483248E+04 0.  0.
        4    1    3    3  502    0 -0.79076657346E+03 -0.62724151221E+03  0.22403985260E+03  0.10338951382E+04  0.12699999809E+01 0.  1.
       -4    1    3    3    0  502  0.79076657346E+03  0.62724151221E+03 -0.39323012821E+03  0.10832244620E+04  0.12699999809E+01 0. -1.
</event>
<event>
 5   0  0.5954140E-05  0.2093872E+04  0.7818609E-02  0.8563947E-01
       -2   -1    0    0    0  501  0.00000000000E+00  0.00000000000E+00  0.48152356705E+03  0.48152356705E+03  0.25500000920E-02 0.  1.
        2   -1    0    0  501    0  0.00000000000E+00  0.00000000000E+00 -0.22762652519E+04  0.22762652519E+04  0.25500000920E-02 0. -1.
    10030    2    1    2    0    0  0.00000000000E+00  0.00000000000E+00 -0.17947416849E+04  0.27577888190E+04  0.20938723587E+04 0.  0.
        2    1    3    3  502    0  0.88323259911E+03 -0.30379275178E+03 -0.15202871813E+04  0.17842822013E+04  0.25500000920E-02 0. -1.
       -2    1    3    3    0  502 -0.88323259911E+03  0.30379275178E+03 -0.27445450357E+03  0.97350661770E+03  0.25500000920E-02 0.  1.
</event>
<event>
 5   0  0.5506332E-05  0.2103266E+04  0.7818609E-02  0.8559806E-01
       -2   -1    0    0    0  501  0.00000000000E+00  0.00000000000E+00  0.10906708817E+04  0.10906708817E+04  0.25500000920E-02 0.  1.
        2   -1    0    0  501    0  0.00000000000E+00  0.00000000000E+00 -0.10139923128E+04  0.10139923128E+04  0.25500000920E-02 0. -1.
    10030    2    1    2    0    0  0.00000000000E+00  0.00000000000E+00  0.76678568846E+02  0.21046631945E+04  0.21032659269E+04 0.  0.
        3    1    3    3  502    0 -0.10153745361E+04  0.25301957317E+03 -0.66264972301E+02  0.10485205814E+04  0.10100000352E+00 0. -1.
       -3    1    3    3    0  502  0.10153745361E+04 -0.25301957317E+03  0.14294354115E+03  0.10561426131E+04  0.10100000352E+00 0.  1.
</event>
<event>
 5   0  0.2604390E-05  0.2094317E+04  0.7818609E-02  0.8563751E-01
        1   -1    0    0  501    0  0.00000000000E+00  0.00000000000E+00  0.22608225545E+04  0.22608225545E+04  0.50400001928E-02 0. -1.
       -1   -1    0    0    0  501  0.00000000000E+00  0.00000000000E+00 -0.48501871416E+03  0.48501871419E+03  0.50400001928E-02 0.  1.
    10030    2    1    2    0    0  0.00000000000E+00  0.00000000000E+00  0.17758038404E+04  0.27458412687E+04  0.20943173097E+04 0.  0.
        5    1    3    3  502    0 -0.34203080131E+03 -0.84595928149E+03  0.15614086351E+04  0.18084941777E+04  0.46999998093E+01 0. -1.
       -5    1    3    3    0  502  0.34203080131E+03  0.84595928149E+03  0.21439520523E+03  0.93734709100E+03  0.46999998093E+01 0.  1.
</event>
<event>
 5   0  0.2017750E-05  0.2102211E+04  0.7818609E-02  0.8560270E-01
       -4   -1    0    0    0  501  0.00000000000E+00  0.00000000000E+00  0.62241020966E+03  0.62241150535E+03  0.12699999809E+01 0.  1.
        4   -1    0    0  501    0  0.00000000000E+00  0.00000000000E+00 -0.17750687232E+04  0.17750691775E+04  0.12699999809E+01 0. -1.
    10030    2    1    2    0    0  0.00000000000E+00  0.00000000000E+00 -0.11526585135E+04  0.23974806829E+04  0.21022112111E+04 0.  0.
        5    1    3    3  502    0  0.21075770140E+03 -0.77463488199E+03  0.19743748113E+03  0.82672949509E+03  0.46999998093E+01 0.  1.
       -5    1    3    3    0  502 -0.21075770140E+03  0.77463488199E+03 -0.13500959947E+04  0.15707511878E+04  0.46999998093E+01 0. -1.
</event>
<event>
 5   0  0.5462851E-05  0.2104044E+04  0.7818609E-02  0.8559464E-01
        2   -1    0    0  501    0  0.00000000000E+00  0.00000000000E+00  0.11355820326E+04  0.11355820326E+04  0.25500000920E-02 0. -1.
       -2   -1    0    0    0  501  0.00000000000E+00  0.00000000000E+00 -0.97461050460E+03  0.97461050460E+03  0.25500000920E-02 0.  1.
    10030    2    1    2    0    0  0.00000000000E+00  0.00000000000E+00  0.16097152803E+03  0.21101925372E+04  0.21040438948E+04 0.  0.
        1    1    3    3  502    0  0.16538822209E+03  0.76010185651E+03  0.79082248725E+03  0.11092827875E+04  0.50400001928E-02 0. -1.
       -1    1    3    3    0  502 -0.16538822209E+03 -0.76010185651E+03 -0.62985095922E+03  0.10009097497E+04  0.50400001928E-02 0.  1.
</event>
<event>
 5   0  0.5954140E-05  0.2104414E+04  0.7818609E-02  0.8559302E-01
        2   -1    0    0  501    0  0.00000000000E+00  0.00000000000E+00  0.10859300765E+04  0.10859300765E+04  0.25500000920E-02 0. -1.
       -2   -1    0    0    0  501  0.00000000000E+00  0.00000000000E+00 -0.10195308526E+04  0.10195308526E+04  0.25500000920E-02 0.  1.
    10030    2    1    2    0    0  0.00000000000E+00  0.00000000000E+00  0.66399223908E+02  0.21054609292E+04  0.21044136635E+04 0.  0.
        2    1    3    3  502    0 -0.60452481507E+03 -0.65694896782E+03 -0.52395005018E+03  0.10351598202E+04  0.25500000920E-02 0.  1.
       -2    1    3    3    0  502  0.60452481507E+03  0.65694896782E+03  0.59034927409E+03  0.10703011089E+04  0.25500000920E-02 0. -1.
</event>
<event>
 5   0  0.2699285E-05  0.2096105E+04  0.7818609E-02  0.8562961E-01
       -1   -1    0    0    0  501  0.00000000000E+00  0.00000000000E+00  0.13954307527E+04  0.13954307527E+04  0.50400001928E-02 0. -1.
        1   -1    0    0  501    0  0.00000000000E+00  0.00000000000E+00 -0.78715040757E+03  0.78715040759E+03  0.50400001928E-02 0.  1.
    10030    2    1    2    0    0  0.00000000000E+00  0.00000000000E+00  0.60828034511E+03  0.21825811603E+04  0.20961048502E+04 0.  0.
        2    1    3    3  502    0  0.64696336618E+03  0.75709279674E+03 -0.35926334109E+02  0.99651482756E+03  0.25500000920E-02 0.  1.
       -2    1    3    3    0  502 -0.64696336618E+03 -0.75709279674E+03  0.64420667922E+03  0.11860663327E+04  0.25500000920E-02 0. -1.
</event>
<event>
 5   0  0.5967046E-05  0.2096450E+04  0.7818609E-02  0.8562809E-01
       -2   -1    0    0    0  501  0.00000000000E+00  0.00000000000E+00  0.45214442393E+03  0.45214442394E+03  0.25500000920E-02 0.  1.
        2   -1    0    0  501    0  0.00000000000E+00  0.00000000000E+00 -0.24301420819E+04  0.24301420819E+04  0.25500000920E-02 0. -1.
    10030    2    1    2    0    0  0.00000000000E+00  0.00000000000E+00 -0.19779976580E+04  0.28822865059E+04  0.20964495622E+04 0.  0.
        4    1    3    3  502    0  0.24553097836E+03  0.62984059568E+02 -0.23873698394E+04  0.24007892069E+04  0.12699999809E+01 0. -1.
       -4    1    3    3    0  502 -0.24553097836E+03 -0.62984059568E+02  0.40937218140E+03  0.48149729895E+03  0.12699999809E+01 0.  1.
</event>
<event>
 5   0  0.5866610E-05  0.2096311E+04  0.7818609E-02  0.8562870E-01
        2   -1    0    0  501    0  0.00000000000E+00  0.00000000000E+00  0.72222664978E+03  0.72222664978E+03  0.25500000920E-02 0.  1.
       -2   -1    0    0    0  501  0.00000000000E+00  0.00000000000E+00 -0.15211703481E+04  0.15211703481E+04  0.25500000920E-02 0. -1.
    10030    2    1    2    0    0  0.00000000000E+00  0.00000000000E+00 -0.79894369832E+03  0.22433969979E+04  0.20963108207E+04 0.  0.
        5    1    3    3  502    0  0.30085473960E+03  0.28844189877E+03  0.62972100270E+03  0.75517079826E+03  0.46999998093E+01 0.  1.
       -5    1    3    3    0  502 -0.30085473960E+03 -0.28844189877E+03 -0.14286647010E+04  0.14882261996E+04  0.46999998093E+01 0. -1.
</event>
<event>
 5   0  0.5967046E-05  0.2060381E+04  0.7818609E-02  0.8578900E-01
        2   -1    0    0  501    0  0.00000000000E+00  0.00000000000E+00  0.17618791865E+04  0.17618791865E+04  0.25500000920E-02 0. -1.
       -2   -1    0    0    0  501  0.00000000000E+00  0.00000000000E+00 -0.60236364578E+03  0.60236364578E+03  0.25500000920E-02 0.  1.
    10030    2    1    2    0    0  0.00000000000E+00  0.00000000000E+00  0.11595155407E+04  0.23642428323E+04  0.20603805185E+04 0.  0.
        4    1    3    3  502    0  0.67304098364E+02  0.79078620800E+03  0.13334492752E+04  0.15517606938E+04  0.12699999809E+01 0. -1.
       -4    1    3    3    0  502 -0.67304098364E+02 -0.79078620800E+03 -0.17393373450E+03  0.81248213846E+03  0.12699999809E+01 0.  1.
</event>
<event>
 5   0  0.5954140E-05  0.2077353E+04  0.7818609E-02  0.8571286E-01
        2   -1    0    0  501    0  0.00000000000E+00  0.00000000000E+00  0.15681874823E+04  0.15681874823E+04  0.25500000920E-02 0.  1.
       -2   -1    0    0    0  501  0.00000000000E+00  0.00000000000E+00 -0.68795937466E+03  0.68795937466E+03  0.25500000920E-02 0. -1.
    10030    2    1    2    0    0  0.00000000000E+00  0.00000000000E+00  0.88022810764E+03  0.22561468570E+04  0.20773533928E+04 0.  0.
        2    1    3    3  502    0 -0.24770314776E+03  0.42687242745E+03  0.14327066630E+04  0.15153300963E+04  0.25500000920E-02 0.  1.
       -2    1    3    3    0  502  0.24770314776E+03 -0.42687242745E+03 -0.55247855533E+03  0.74081676063E+03  0.25500000920E-02 0. -1.
</event>
<event>
 5   0  0.2017750E-05  0.2088477E+04  0.7818609E-02  0.8566337E-01
        4   -1    0    0  501    0  0.00000000000E+00  0.00000000000E+00  0.70452964191E+03  0.70453078657E+03  0.12699999809E+01 0.  1.
       -4   -1    0    0    0  501  0.00000000000E+00  0.00000000000E+00 -0.15477443082E+04  0.15477448292E+04  0.12699999809E+01 0. -1.
    10030    2    1    2    0    0  0.00000000000E+00  0.00000000000E+00 -0.84321466627E+03  0.22522756158E+04  0.20884765922E+04 0.  0.
        2    1    3    3  502    0  0.80074123210E+03  0.51373123558E+03  0.42653066397E+02  0.95232640795E+03  0.25500000920E-02 0.  1.
       -2    1    3    3    0  502 -0.80074123210E+03 -0.51373123558E+03 -0.88586773267E+03  0.12999492079E+04  0.25500000920E-02 0. -1.
</event>
<event>
 5   0  0.2602060E-05  0.2104515E+04  0.7818609E-02  0.8559257E-01
        1   -1    0    0  501    0  0.00000000000E+00  0.00000000000E+00  0.15358149098E+04  0.15358149098E+04  0.50400001928E-02 0.  1.
       -1   -1    0    0    0  501  0.00000000000E+00  0.00000000000E+00 -0.72094995949E+03  0.72094995951E+03  0.50400001928E-02 0. -1.
    10030    2    1    2    0    0  0.00000000000E+00  0.00000000000E+00  0.81486495030E+03  0.22567648693E+04  0.21045148581E+04 0.  0.
        1    1    3    3  502    0  0.16673328838E+03 -0.82076171648E+02 -0.70321266588E+03  0.72735448090E+03  0.50400001928E-02 0. -1.
       -1    1    3    3    0  502 -0.16673328838E+03  0.82076171648E+02  0.15180776162E+04  0.15294103884E+04  0.50400001928E-02 0.  1.
</event>
<event>
 5   0  0.5506332E-05  0.2108213E+04  0.7818609E-02  0.8557634E-01
        2   -1    0    0  501    0  0.00000000000E+00  0.00000000000E+00  0.11981120303E+04  0.11981120303E+04  0.25500000920E-02 0. -1.
       -2   -1    0    0    0  501  0.00000000000E+00  0.00000000000E+00 -0.92740978037E+03  0.92740978037E+03  0.25500000920E-02 0.  1.
    10030    2    1    2    0    0  0.00000000000E+00  0.00000000000E+00  0.27070224998E+03  0.21255218107E+04  0.21082132861E+04 0.  0.
        3    1    3    3  502    0  0.10452805641E+04 -0.63144055674E+02  0.13770125917E+02  0.10472765900E+04  0.10100000352E+00 0. -1.
       -3    1    3    3    0  502 -0.10452805641E+04  0.63144055674E+02  0.25693212406E+03  0.10782452207E+04  0.10100000352E+00 0.  1.
</event>
<event>
 5   0  0.2602060E-05  0.2106768E+04  0.7818609E-02  0.8558268E-01
       -1   -1    0    0    0  501  0.00000000000E+00  0.00000000000E+00  0.11535602617E+04  0.11535602617E+04  0.50400001928E-02 0. -1.
        1   -1    0    0  501    0  0.00000000000E+00  0.00000000000E+00 -0.96190747667E+03  0.96190747668E+03  0.50400001928E-02 0.  1.
    10030    2    1    2    0    0  0.00000000000E+00  0.00000000000E+00  0.19165278504E+03  0.21154677384E+04  0.21067683694E+04 0.  0.
        1    1    3    3  502    0  0.12171769524E+03 -0.81040273877E+03 -0.56876035958E+03  0.99752500870E+03  0.50400001928E-02 0.  1.
       -1    1    3    3    0  502 -0.12171769524E+03  0.81040273877E+03  0.76041314462E+03  0.11179427297E+04  0.50400001928E-02 0. -1.
</event>
<event>
 5   0  0.5954140E-05  0.2103482E+04  0.7818609E-02  0.8559711E-01
        2   -1    0    0  501    0  0.00000000000E+00  0.00000000000E+00  0.30609447221E+04  0.30609447221E+04  0.25500000920E-02 0. -1.
       -2   -1    0    0    0  501  0.00000000000E+00  0.00000000000E+00 -0.36137824845E+03  0.36137824845E+03  0.25500000920E-02 0.  1.
    10030    2    1    2    0    0  0.00000000000E+00  0.00000000000E+00  0.26995664737E+04  0.34223229706E+04  0.21034817254E+04 0.  0.
        2    1    3    3  502    0  0.50084463626E+03  0.81106646659E+03  0.62676549638E+03  0.11408370394E+04  0.25500000920E-02 0.  1.
       -2    1    3    3    0  502 -0.50084463626E+03 -0.81106646659E+03  0.20728009773E+04  0.22814859312E+04  0.25500000920E-02 0. -1.
</event>
<event>
 5   0  0.5866610E-05  0.2163250E+04  0.7818609E-02  0.8533882E-01
       -2   -1    0    0    0  501  0.00000000000E+00  0.00000000000E+00  0.66252035248E+03  0.66252035248E+03  0.25500000920E-02 0.  1.
        2   -1    0    0  501    0  0.00000000000E+00  0.00000000000E+00 -0.17658512059E+04  0.17658512059E+04  0.25500000920E-02 0. -1.
    10030    2    1    2    0    0  0.00000000000E+00  0.00000000000E+00 -0.11033308534E+04  0.24283715584E+04  0.21632497436E+04 0.  0.
        5    1    3    3  502    0 -0.41537923337E+03  0.40627242225E+03 -0.15757754574E+04  0.16794902711E+04  0.46999998093E+01 0. -1.
       -5    1    3    3    0  502  0.41537923337E+03 -0.40627242225E+03  0.47244460399E+03  0.74888128727E+03  0.46999998093E+01 0.  1.
</event>
<event>
 5   0  0.2732159E-05  0.2098266E+04  0.7818609E-02  0.8562008E-01
        1   -1    0    0  501    0  0.00000000000E+00  0.00000000000E+00  0.20843040805E+04  0.20843040805E+04  0.50400001928E-02 0.  1.
       -1   -1    0    0    0  501  0.00000000000E+00  0.00000000000E+00 -0.52808037914E+03  0.52808037917E+03  0.50400001928E-02 0. -1.
    10030    2    1    2    0    0  0.00000000000E+00  0.00000000000E+00  0.15562237013E+04  0.26123844597E+04  0.20982660357E+04 0.  0.
        3    1    3    3  502    0  0.42931000869E+03  0.43223576928E+03  0.18415265359E+04  0.19396790550E+04  0.10100000352E+00 0.  1.
       -3    1    3    3    0  502 -0.42931000869E+03 -0.43223576928E+03 -0.28530283458E+03  0.67270540463E+03  0.10100000352E+00 0. -1.
</event>
<event>
 5   0  0.2602060E-05  0.2103744E+04  0.7818609E-02  0.8559596E-01
       -1   -1    0    0    0  501  0.00000000000E+00  0.00000000000E+00  0.10581684931E+04  0.10581684931E+04  0.50400001928E-02 0. -1.
        1   -1    0    0  501    0  0.00000000000E+00  0.00000000000E+00 -0.10456134282E+04  0.10456134282E+04  0.50400001928E-02 0.  1.
    10030    2    1    2    0    0  0.00000000000E+00  0.00000000000E+00  0.12555064857E+02  0.21037819213E+04  0.21037444576E+04 0.  0.
        1    1    3    3  502    0 -0.50242540280E+03 -0.62991913933E+03 -0.66990444183E+03  0.10478556049E+04  0.50400001928E-02 0.  1.
       -1    1    3    3    0  502  0.50242540280E+03  0.62991913933E+03  0.68245950668E+03  0.10559263164E+04  0.50400001928E-02 0. -1.
</event>
<event>
 5   0  0.2604390E-05  0.2092584E+04  0.7818609E-02  0.8564517E-01
        1   -1    0    0  501    0  0.00000000000E+00  0.00000000000E+00  0.66625137056E+03  0.66625137058E+03  0.50400001928E-02 0. -1.
       -1   -1    0    0    0  501  0.00000000000E+00  0.00000000000E+00 -0.16431137517E+04  0.16431137517E+04  0.50400001928E-02 0.  1.
    10030    2    1    2    0    0  0.00000000000E+00  0.00000000000E+00 -0.97686238117E+03  0.23093651223E+04  0.20925838469E+04 0.  0.
        5    1    3    3  502    0  0.56615141093E+03 -0.36984641561E+03 -0.13695057593E+04  0.15273774602E+04  0.46999998093E+01 0.  1.
       -5    1    3    3    0  502 -0.56615141093E+03  0.36984641561E+03  0.39264337816E+03  0.78198766208E+03  0.46999998093E+01 0. -1.
</event>
<event>
 5   0  0.2017750E-05  0.2149064E+04  0.7818609E-02  0.8539933E-01
        3   -1    0    0  501    0  0.00000000000E+00  0.00000000000E+00  0.72046283976E+03  0.72046284684E+03  0.10100000352E+00 0.  1.
       -3   -1    0    0    0  501  0.00000000000E+00  0.00000000000E+00 -0.16026079695E+04  0.16026079727E+04  0.10100000352E+00 0. -1.
    10030    2    1    2    0    0  0.00000000000E+00  0.00000000000E+00 -0.88214512979E+03  0.23230708196E+04  0.21490644482E+04 0.  0.
        5    1    3    3  502    0  0.13935219590E+03 -0.36456389376E+03  0.64112290070E+03  0.75059078794E+03  0.46999998093E+01 0.  1.
       -5    1    3    3    0  502 -0.13935219590E+03  0.36456389376E+03 -0.15232680305E+04  0.15724800316E+04  0.46999998093E+01 0. -1.
</event>
<event>
 5   0  0.2732159E-05  0.2097476E+04  0.7818609E-02  0.8562356E-01
        1   -1    0    0  501    0  0.00000000000E+00  0.00000000000E+00  0.14924187190E+04  0.14924187190E+04  0.50400001928E-02 0. -1.
       -1   -1    0    0    0  501  0.00000000000E+00  0.00000000000E+00 -0.73695904427E+03  0.73695904428E+03  0.50400001928E-02 0.  1.
    10030    2    1    2    0    0  0.00000000000E+00  0.00000000000E+00  0.75545967477E+03  0.22293777633E+04  0.20974760765E+04 0.  0.
        3    1    3    3  502    0 -0.85701042662E+03  0.34540557969E+03 -0.14952968830E+03  0.93601870905E+03  0.10100000352E+00 0. -1.
       -3    1    3    3    0  502  0.85701042662E+03 -0.34540557969E+03  0.90498936307E+03  0.12933590543E+04  0.10100000352E+00 0.  1.
</event>
<event>
 5   0  0.5866610E-05  0.2105038E+04  0.7818609E-02  0.8559027E-01
       -2   -1    0    0    0  501  0.00000000000E+00  0.00000000000E+00  0.63578831490E+03  0.63578831490E+03  0.25500000920E-02 0.  1.
        2   -1    0    0  501    0  0.00000000000E+00  0.00000000000E+00 -0.17423981465E+04  0.17423981465E+04  0.25500000920E-02 0. -1.
    10030    2    1    2    0    0  0.00000000000E+00  0.00000000000E+00 -0.11066098316E+04  0.23781864614E+04  0.21050381293E+04 0.  0.
        5    1    3    3  502    0  0.40521694816E+03 -0.79666397029E+03  0.74601490866E+02  0.89691790542E+03  0.46999998093E+01 0.  1.
       -5    1    3    3    0  502 -0.40521694816E+03  0.79666397029E+03 -0.11812113225E+04  0.14812685560E+04  0.46999998093E+01 0. -1.
</event>
<event>
 5   0  0.2017750E-05  0.2065719E+04  0.7818609E-02  0.8576497E-01
        3   -1    0    0  501    0  0.00000000000E+00  0.00000000000E+00  0.91897057158E+03  0.91897057713E+03  0.10100000352E+00 0. -1.
       -3   -1    0    0    0  501  0.00000000000E+00  0.00000000000E+00 -0.11608627114E+04  0.11608627158E+04  0.10100000352E+00 0.  1.
    10030    2    1    2    0    0  0.00000000000E+00  0.00000000000E+00 -0.24189213986E+03  0.20798332930E+04  0.20657189352E+04 0.  0.
        5    1    3    3  502    0  0.88139486110E+03  0.52648038564E+03 -0.73117574735E+01  0.10267005646E+04  0.46999998093E+01 0.  1.
       -5    1    3    3    0  502 -0.88139486110E+03 -0.52648038564E+03 -0.23458038239E+03  0.10531327283E+04  0.46999998093E+01 0. -1.
</event>
<event>
 5   0  0.5866610E-05  0.2103262E+04  0.7818609E-02  0.8559808E-01
        2   -1    0    0  501    0  0.00000000000E+00  0.00000000000E+00  0.17193553351E+04  0.17193553351E+04  0.25500000920E-02 0. -1.
       -2   -1    0    0    0  501  0.00000000000E+00  0.00000000000E+00 -0.64322222220E+03  0.64322222221E+03  0.25500000920E-02 0.  1.
    10030    2    1    2    0    0  0.00000000000E+00  0.00000000000E+00  0.10761331129E+04  0.23625775573E+04  0.21032618091E+04 0.  0.
        5    1    3    3  502    0 -0.90689071332E+03  0.35007778627E+03  0.87487404129E+02  0.97605397300E+03  0.46999998093E+01 0.  1.
       -5    1    3    3    0  502  0.90689071332E+03 -0.35007778627E+03  0.98864570872E+03  0.13865235843E+04  0.46999998093E+01 0. -1.
</event>
<event>
 5   0  0.2602060E-05  0.2109199E+04  0.7818609E-02  0.8557202E-01
        1   -1    0    0  501    0  0.00000000000E+00  0.00000000000E+00  0.15308519480E+04  0.15308519480E+04  0.50400001928E-02 0. -1.
       -1   -1    0    0    0  501  0.00000000000E+00  0.00000000000E+00 -0.72651070275E+03  0.72651070277E+03  0.50400001928E-02 0.  1.
    10030    2    1    2    0    0  0.00000000000E+00  0.00000000000E+00  0.80434124527E+03  0.22573626508E+04  0.21091992078E+04 0.  0.
        1    1    3    3  502    0 -0.53260177038E+03 -0.72049153446E+02  0.13732825339E+04  0.14747069690E+04  0.50400001928E-02 0. -1.
       -1    1    3    3    0  502  0.53260177038E+03  0.72049153446E+02 -0.56894128866E+03  0.78265568182E+03  0.50400001928E-02 0.  1.
</event>
<event>
 5   0  0.2604390E-05  0.2101950E+04  0.7818609E-02  0.8560385E-01
       -1   -1    0    0    0  501  0.00000000000E+00  0.00000000000E+00  0.71480227846E+03  0.71480227847E+03  0.50400001928E-02 0. -1.
        1   -1    0    0  501    0  0.00000000000E+00  0.00000000000E+00 -0.15452495884E+04  0.15452495884E+04  0.50400001928E-02 0.  1.
    10030    2    1    2    0    0  0.00000000000E+00  0.00000000000E+00 -0.83044730993E+03  0.22600518669E+04  0.21019495014E+04 0.  0.
        5    1    3    3  502    0 -0.54746237572E+03  0.35733322869E+03 -0.12999931703E+04  0.14551310669E+04  0.46999998093E+01 0.  1.
       -5    1    3    3    0  502  0.54746237572E+03 -0.35733322869E+03  0.46954586037E+03  0.80492079992E+03  0.46999998093E+01 0. -1.
</event>
<event>
 5   0  0.5506332E-05  0.2077365E+04  0.7818609E-02  0.8571280E-01
       -2   -1    0    0    0  501  0.00000000000E+00  0.00000000000E+00  0.13245236619E+04  0.13245236619E+04  0.25500000920E-02 0.  1.
        2   -1    0    0  501    0  0.00000000000E+00  0.00000000000E+00 -0.81452752164E+03  0.81452752165E+03  0.25500000920E-02 0. -1.
    10030    2    1    2    0    0  0.00000000000E+00  0.00000000000E+00  0.50999614027E+03  0.21390511836E+04  0.20773646533E+04 0.  0.
        3    1    3    3  502    0 -0.47636940041E+03 -0.84268157165E+03 -0.13277585367E+03  0.97707188803E+03  0.10100000352E+00 0. -1.
       -3    1    3    3    0  502  0.47636940041E+03  0.84268157165E+03  0.64277199393E+03  0.11619792955E+04  0.10100000352E+00 0.  1.
</event>
<event>
 5   0  0.5866610E-05  0.2024395E+04  0.7818609E-02  0.8595300E-01
        2   -1    0    0  501    0  0.00000000000E+00  0.00000000000E+00  0.19198502149E+04  0.19198502149E+04  0.25500000920E-02 0.  1.
       -2   -1    0    0    0  501  0.00000000000E+00  0.00000000000E+00 -0.53365793317E+03  0.53365793317E+03  0.25500000920E-02 0. -1.
    10030    2    1    2    0    0  0.00000000000E+00  0.00000000000E+00  0.13861922817E+04  0.24535081481E+04  0.20243945245E+04 0.  0.
        5    1    3    3  502    0  0.36138656718E+02  0.10098796667E+04  0.76333052234E+03  0.12664353596E+04  0.46999998093E+01 0. -1.
       -5    1    3    3    0  502 -0.36138656718E+02 -0.10098796667E+04  0.62286175938E+03  0.11870727884E+04  0.46999998093E+01 0.  1.
</event>
<event>
 5   0  0.5967046E-05  0.2108443E+04  0.7818609E-02  0.8557533E-01
       -2   -1    0    0    0  501  0.00000000000E+00  0.00000000000E+00  0.58683000770E+03  0.58683000771E+03  0.25500000920E-02 0. -1.
        2   -1    0    0  501    0  0.00000000000E+00  0.00000000000E+00 -0.18938748374E+04  0.18938748374E+04  0.25500000920E-02 0.  1.
    10030    2    1    2    0    0  0.00000000000E+00  0.00000000000E+00 -0.13070448297E+04  0.24807048452E+04  0.21084426342E+04 0.  0.
        4    1    3    3  502    0 -0.61003471450E+03  0.79787354163E+03 -0.10304553418E+04  0.14389525238E+04  0.12699999809E+01 0. -1.
       -4    1    3    3    0  502  0.61003471450E+03 -0.79787354163E+03 -0.27658948789E+03  0.10417523214E+04  0.12699999809E+01 0.  1.
</event>
<event>
 5   0  0.2732159E-05  0.2060449E+04  0.7818609E-02  0.8578869E-01
       -1   -1    0    0    0  501  0.00000000000E+00  0.00000000000E+00  0.93615362932E+03  0.93615362933E+03  0.50400001928E-02 0.  1.
        1   -1    0    0  501    0  0.00000000000E+00  0.00000000000E+00 -0.11337477723E+04  0.11337477723E+04  0.50400001928E-02 0. -1.
    10030    2    1    2    0    0  0.00000000000E+00  0.00000000000E+00 -0.19759414299E+03  0.20699014017E+04  0.20604485840E+04 0.  0.
        3    1    3    3  502    0 -0.16052227764E+03 -0.10170928908E+04 -0.13236791529E+03  0.10381553956E+04  0.10100000352E+00 0. -1.
       -3    1    3    3    0  502  0.16052227764E+03  0.10170928908E+04 -0.65226227695E+02  0.10317460061E+04  0.10100000352E+00 0.  1.
</event>
<event>
 5   0  0.2789662E-05  0.2099066E+04  0.7818609E-02  0.8561655E-01
       -1   -1    0    0    0  501  0.00000000000E+00  0.00000000000E+00  0.14785031776E+04  0.14785031776E+04  0.50400001928E-02 0.  1.
        1   -1    0    0  501    0  0.00000000000E+00  0.00000000000E+00 -0.74502334456E+03  0.74502334458E+03  0.50400001928E-02 0. -1.
    10030    2    1    2    0    0  0.00000000000E+00  0.00000000000E+00  0.73347983302E+03  0.22235265222E+04  0.20990658707E+04 0.  0.
        4    1    3    3  502    0  0.47481730695E+03 -0.49405711190E+03 -0.47536423012E+03  0.83397641991E+03  0.12699999809E+01 0. -1.
       -4    1    3    3    0  502 -0.47481730695E+03  0.49405711190E+03  0.12088440631E+04  0.13895501023E+04  0.12699999809E+01 0.  1.
</event>
<event>
 5   0  0.2789662E-05  0.2099007E+04  0.7818609E-02  0.8561681E-01
       -1   -1    0    0    0  501  0.00000000000E+00  0.00000000000E+00  0.14241291439E+04  0.14241291439E+04  0.50400001928E-02 0. -1.
        1   -1    0    0  501    0  0.00000000000E+00  0.00000000000E+00 -0.77342560220E+03  0.77342560221E+03  0.50400001928E-02 0.  1.
    10030    2    1    2    0    0  0.00000000000E+00  0.00000000000E+00  0.65070354166E+03  0.21975547461E+04  0.20990073280E+04 0.  0.
        4    1    3    3  502    0  0.56039262406E+03  0.16140797076E+03 -0.58817628412E+03  0.82827856439E+03  0.12699999809E+01 0.  1.
       -4    1    3    3    0  502 -0.56039262406E+03 -0.16140797076E+03  0.12388798258E+04  0.13692761817E+04  0.12699999809E+01 0. -1.
</event>
<event>
 5   0  0.2789662E-05  0.2102923E+04  0.7818609E-02  0.8559957E-01
       -1   -1    0    0    0  501  0.00000000000E+00  0.00000000000E+00  0.60878676577E+03  0.60878676579E+03  0.50400001928E-02 0.  1.
        1   -1    0    0  501    0  0.00000000000E+00  0.00000000000E+00 -0.18160244471E+04  0.18160244471E+04  0.50400001928E-02 0. -1.
    10030    2    1    2    0    0  0.00000000000E+00  0.00000000000E+00 -0.12072376813E+04  0.24248112129E+04  0.21029233459E+04 0.  0.
        4    1    3    3  502    0 -0.70658867749E+03  0.41772238792E+03 -0.13613254588E+04  0.15896440388E+04  0.12699999809E+01 0. -1.
       -4    1    3    3    0  502  0.70658867749E+03 -0.41772238792E+03  0.15408777749E+03  0.83516717404E+03  0.12699999809E+01 0.  1.
</event>
<event>
 5   0  0.2602060E-05  0.2100392E+04  0.7818609E-02  0.8561071E-01
       -1   -1    0    0    0  501  0.00000000000E+00  0.00000000000E+00  0.63887646257E+03  0.63887646259E+03  0.50400001928E-02 0.  1.
        1   -1    0    0  501    0  0.00000000000E+00  0.00000000000E+00 -0.17263294462E+04  0.17263294462E+04  0.50400001928E-02 0. -1.
    10030    2    1    2    0    0  0.00000000000E+00  0.00000000000E+00 -0.10874529837E+04  0.23652059088E+04  0.21003916300E+04 0.  0.
        1    1    3    3  502    0 -0.39568076260E+03 -0.61788397938E+03 -0.13898359777E+04  0.15716195222E+04  0.50400001928E-02 0. -1.
       -1    1    3    3    0  502  0.39568076260E+03  0.61788397938E+03  0.30238299401E+03  0.79358638658E+03  0.50400001928E-02 0.  1.
</event>
<event>
 5   0  0.2604390E-05  0.2112353E+04  0.7818609E-02  0.8555821E-01
       -1   -1    0    0    0  501  0.00000000000E+00  0.00000000000E+00  0.98831225256E+03  0.98831225258E+03  0.50400001928E-02 0.  1.
        1   -1    0    0  501    0  0.00000000000E+00  0.00000000000E+00 -0.11287006178E+04  0.11287006178E+04  0.50400001928E-02 0. -1.
    10030    2    1    2    0    0  0.00000000000E+00  0.00000000000E+00 -0.14038836525E+03  0.21170128704E+04  0.21123528589E+04 0.  0.
        5    1    3    3  502    0  0.33657444160E+03 -0.10007865566E+04 -0.95358805504E+02  0.10601752112E+04  0.46999998093E+01 0.  1.
       -5    1    3    3    0  502 -0.33657444160E+03  0.10007865566E+04 -0.45029559743E+02  0.10568376592E+04  0.46999998093E+01 0. -1.
</event>
<event>
 5   0  0.5967046E-05  0.2140824E+04  0.7818609E-02  0.8543470E-01
       -2   -1    0    0    0  501  0.00000000000E+00  0.00000000000E+00  0.77166589190E+03  0.77166589191E+03  0.25500000920E-02 0. -1.
        2   -1    0    0  501    0  0.00000000000E+00  0.00000000000E+00 -0.14848154884E+04  0.14848154884E+04  0.25500000920E-02 0.  1.
    10030    2    1    2    0    0  0.00000000000E+00  0.00000000000E+00 -0.71314959650E+03  0.22564813803E+04  0.21408236435E+04 0.  0.
        4    1    3    3  502    0  0.96757708830E+03 -0.43932408467E+03 -0.49224865008E+03  0.11711197290E+04  0.12699999809E+01 0.  1.
       -4    1    3    3    0  502 -0.96757708830E+03  0.43932408467E+03 -0.22090094641E+03  0.10853616513E+04  0.12699999809E+01 0. -1.
</event>
<event>
 5   0  0.2604390E-05  0.2171542E+04  0.7818609E-02  0.8530367E-01
       -1   -1    0    0    0  501  0.00000000000E+00  0.00000000000E+00  0.13428675517E+04  0.13428675517E+04  0.50400001928E-02 0. -1.
        1   -1    0    0  501    0  0.00000000000E+00  0.00000000000E+00 -0.87789672032E+03  0.87789672033E+03  0.50400001928E-02 0.  1.
    10030    2    1    2    0    0  0.00000000000E+00  0.00000000000E+00  0.46497083134E+03  0.22207642720E+04  0.21715423270E+04 0.  0.
        5    1    3    3  502    0  0.60998763542E+03  0.87973870229E+03  0.47126301710E+02  0.10715727124E+04  0.46999998093E+01 0.  1.
       -5    1    3    3    0  502 -0.60998763542E+03 -0.87973870229E+03  0.41784452963E+03  0.11491915596E+04  0.46999998093E+01 0. -1.
</event>
<event>
 5   0  0.5967046E-05  0.2078156E+04  0.7818609E-02  0.8570927E-01
        2   -1    0    0  501    0  0.00000000000E+00  0.00000000000E+00  0.10202872615E+04  0.10202872615E+04  0.25500000920E-02 0. -1.
       -2   -1    0    0    0  501  0.00000000000E+00  0.00000000000E+00 -0.10582147955E+04  0.10582147955E+04  0.25500000920E-02 0.  1.
    10030    2    1    2    0    0  0.00000000000E+00  0.00000000000E+00 -0.37927534076E+02  0.20785020570E+04  0.20781559862E+04 0.  0.
        4    1    3    3  502    0 -0.29392933893E+03 -0.60723547853E+03  0.77145391250E+03  0.10248278561E+04  0.12699999809E+01 0. -1.
       -4    1    3    3    0  502  0.29392933893E+03  0.60723547853E+03 -0.80938144657E+03  0.10536742009E+04  0.12699999809E+01 0.  1.
</event>
<event>
 5   0  0.2602060E-05  0.2121896E+04  0.7818609E-02  0.8551659E-01
        1   -1    0    0  501    0  0.00000000000E+00  0.00000000000E+00  0.12137332831E+04  0.12137332831E+04  0.50400001928E-02 0. -1.
       -1   -1    0    0    0  501  0.00000000000E+00  0.00000000000E+00 -0.92739541309E+03  0.92739541310E+03  0.50400001928E-02 0.  1.
    10030    2    1    2    0    0  0.00000000000E+00  0.00000000000E+00  0.28633787004E+03  0.21411286962E+04  0.21218960196E+04 0.  0.
        1    1    3    3  502    0 -0.62983072616E+03  0.82080832865E+03 -0.93902300939E+02  0.10388602881E+04  0.50400001928E-02 0.  1.
       -1    1    3    3    0  502  0.62983072616E+03 -0.82080832865E+03  0.38024017098E+03  0.11022684082E+04  0.50400001928E-02 0. -1.
</event>
<event>
 5   0  0.5462851E-05  0.2105182E+04  0.7818609E-02  0.8558964E-01
        2   -1    0    0  501    0  0.00000000000E+00  0.00000000000E+00  0.18163616262E+04  0.18163616262E+04  0.25500000920E-02 0.  1.
       -2   -1    0    0    0  501  0.00000000000E+00  0.00000000000E+00 -0.60998167699E+03  0.60998167700E+03  0.25500000920E-02 0. -1.
    10030    2    1    2    0    0  0.00000000000E+00  0.00000000000E+00  0.12063799492E+04  0.24263433032E+04  0.21051815226E+04 0.  0.
        1    1    3    3  502    0 -0.10297181736E+04  0.55550236477E+02  0.35994303484E+03  0.10922290668E+04  0.50400001928E-02 0. -1.
       -1    1    3    3    0  502  0.10297181736E+04 -0.55550236477E+02  0.84643691439E+03  0.13341142365E+04  0.50400001928E-02 0.  1.
</event>
<event>
 5   0  0.2732159E-05  0.2102988E+04  0.7818609E-02  0.8559928E-01
        1   -1    0    0  501    0  0.00000000000E+00  0.00000000000E+00  0.14748868261E+04  0.14748868261E+04  0.50400001928E-02 0. -1.
       -1   -1    0    0    0  501  0.00000000000E+00  0.00000000000E+00 -0.74964396450E+03  0.74964396452E+03  0.50400001928E-02 0.  1.
    10030    2    1    2    0    0  0.00000000000E+00  0.00000000000E+00  0.72524286159E+03  0.22245307906E+04  0.21029883571E+04 0.  0.
        3    1    3    3  502    0  0.10157352610E+04 -0.26415890800E+03  0.29454388581E+03  0.10900707133E+04  0.10100000352E+00 0. -1.
       -3    1    3    3    0  502 -0.10157352610E+04  0.26415890800E+03  0.43069897578E+03  0.11344600773E+04  0.10100000352E+00 0.  1.
</event>
<event>
 5   0  0.5954140E-05  0.2102408E+04  0.7818609E-02  0.8560183E-01
        2   -1    0    0  501    0  0.00000000000E+00  0.00000000000E+00  0.19441793413E+04  0.19441793413E+04  0.25500000920E-02 0. -1.
       -2   -1    0    0    0  501  0.00000000000E+00  0.00000000000E+00 -0.56837867579E+03  0.56837867580E+03  0.25500000920E-02 0.  1.
    10030    2    1    2    0    0  0.00000000000E+00  0.00000000000E+00  0.13758006655E+04  0.25125580171E+04  0.21024082187E+04 0.  0.
        2    1    3    3  502    0 -0.22073558465E+03  0.31304681346E+02 -0.53979993671E+03  0.58402752768E+03  0.25500000920E-02 0.  1.
       -2    1    3    3    0  502  0.22073558465E+03 -0.31304681346E+02  0.19156006022E+04  0.19285304894E+04  0.25500000920E-02 0. -1.
</event>
<event>
 5   0  0.2602060E-05  0.2100224E+04  0.7818609E-02  0.8561145E-01
       -1   -1    0    0    0  501  0.00000000000E+00  0.00000000000E+00  0.78098998522E+03  0.78098998524E+03  0.50400001928E-02 0.  1.
        1   -1    0    0  501    0  0.00000000000E+00  0.00000000000E+00 -0.14119710918E+04  0.14119710918E+04  0.50400001928E-02 0. -1.
    10030    2    1    2    0    0  0.00000000000E+00  0.00000000000E+00 -0.63098110654E+03  0.21929610770E+04  0.21002240663E+04 0.  0.
        1    1    3    3  502    0 -0.10328691030E+04 -0.18636125986E+03 -0.27952883783E+03  0.10861332673E+04  0.50400001928E-02 0. -1.
       -1    1    3    3    0  502  0.10328691030E+04  0.18636125986E+03 -0.35145226872E+03  0.11068278097E+04  0.50400001928E-02 0.  1.
</event>
<event>
 5   0  0.2604390E-05  0.2103452E+04  0.7818609E-02  0.8559724E-01
       -1   -1    0    0    0  501  0.00000000000E+00  0.00000000000E+00  0.13704086351E+04  0.13704086351E+04  0.50400001928E-02 0.  1.
        1   -1    0    0  501    0  0.00000000000E+00  0.00000000000E+00 -0.80715179778E+03  0.80715179780E+03  0.50400001928E-02 0. -1.
    10030    2    1    2    0    0  0.00000000000E+00  0.00000000000E+00  0.56325683733E+03  0.21775604329E+04  0.21034522039E+04 0.  0.
        5    1    3    3  502    0 -0.84303803285E+03 -0.60989903522E+03  0.44004169040E+03  0.11297560521E+04  0.46999998093E+01 0. -1.
       -5    1    3    3    0  502  0.84303803285E+03  0.60989903522E+03  0.12321514693E+03  0.10478043808E+04  0.46999998093E+01 0.  1.
</event>
<event>
 5   0  0.2602060E-05  0.2099590E+04  0.7818609E-02  0.8561424E-01
       -1   -1    0    0    0  501  0.00000000000E+00  0.00000000000E+00  0.62563718189E+03  0.62563718191E+03  0.50400001928E-02 0. -1.
        1   -1    0    0  501    0  0.00000000000E+00  0.00000000000E+00 -0.17615145877E+04  0.17615145877E+04  0.50400001928E-02 0.  1.
    10030    2    1    2    0    0  0.00000000000E+00  0.00000000000E+00 -0.11358774058E+04  0.23871517696E+04  0.20995895052E+04 0.  0.
        1    1    3    3  502    0 -0.98295653107E+03 -0.63974962751E+02 -0.15521602272E+03  0.99719022838E+03  0.50400001928E-02 0. -1.
       -1    1    3    3    0  502  0.98295653107E+03  0.63974962751E+02 -0.98066138309E+03  0.13899615413E+04  0.50400001928E-02 0.  1.
</event>
<event>
 5   0  0.5866610E-05  0.2129475E+04  0.7818609E-02  0.8548369E-01
        2   -1    0    0  501    0  0.00000000000E+00  0.00000000000E+00  0.26068697892E+04  0.26068697892E+04  0.25500000920E-02 0.  1.
       -2   -1    0    0    0  501  0.00000000000E+00  0.00000000000E+00 -0.43487636437E+03  0.43487636438E+03  0.25500000920E-02 0. -1.
    10030    2    1    2    0    0  0.00000000000E+00  0.00000000000E+00  0.21719934248E+04  0.30417461535E+04  0.21294751056E+04 0.  0.
        5    1    3    3  502    0  0.95382432427E+03 -0.12584444349E+02  0.41039925045E+03  0.10384550277E+04  0.46999998093E+01 0.  1.
       -5    1    3    3    0  502 -0.95382432427E+03  0.12584444349E+02  0.17615941743E+04  0.20032911258E+04  0.46999998093E+01 0. -1.
</event>
<event>
 5   0  0.5506332E-05  0.2099476E+04  0.7818609E-02  0.8561474E-01
       -2   -1    0    0    0  501  0.00000000000E+00  0.00000000000E+00  0.11785022801E+04  0.11785022801E+04  0.25500000920E-02 0.  1.
        2   -1    0    0  501    0  0.00000000000E+00  0.00000000000E+00 -0.93504261252E+03  0.93504261253E+03  0.25500000920E-02 0. -1.
    10030    2    1    2    0    0  0.00000000000E+00  0.00000000000E+00  0.24345966760E+03  0.21135448926E+04  0.20994759831E+04 0.  0.
        3    1    3    3  502    0 -0.99142733544E+03  0.18242904399E+03  0.41650823327E+03  0.10907280303E+04  0.10100000352E+00 0.  1.
       -3    1    3    3    0  502  0.99142733544E+03 -0.18242904399E+03 -0.17304856568E+03  0.10228168623E+04  0.10100000352E+00 0. -1.
</event>
<event>
 5   0  0.5462851E-05  0.2103526E+04  0.7818609E-02  0.8559692E-01
       -2   -1    0    0    0  501  0.00000000000E+00  0.00000000000E+00  0.10817494285E+04  0.10817494285E+04  0.25500000920E-02 0. -1.
        2   -1    0    0  501    0  0.00000000000E+00  0.00000000000E+00 -0.10226077351E+04  0.10226077351E+04  0.25500000920E-02 0.  1.
    10030    2    1    2    0    0  0.00000000000E+00  0.00000000000E+00  0.59141693349E+02  0.21043571636E+04  0.21035259286E+04 0.  0.
        1    1    3    3  502    0 -0.40240464865E+03  0.66908488715E+03 -0.67540702509E+03  0.10323656024E+04  0.50400001928E-02 0.  1.
       -1    1    3    3    0  502  0.40240464865E+03 -0.66908488715E+03  0.73454871844E+03  0.10719915612E+04  0.50400001928E-02 0. -1.
</event>
<event>
 5   0  0.2699285E-05  0.2097405E+04  0.7818609E-02  0.8562388E-01
       -1   -1    0    0    0  501  0.00000000000E+00  0.00000000000E+00  0.11755715200E+04  0.11755715200E+04  0.50400001928E-02 0.  1.
        1   -1    0    0  501    0  0.00000000000E+00  0.00000000000E+00 -0.93552502409E+03  0.93552502410E+03  0.50400001928E-02 0. -1.
    10030    2    1    2    0    0  0.00000000000E+00  0.00000000000E+00  0.24004649589E+03  0.21110965441E+04  0.20974046577E+04 0.  0.
        2    1    3    3  502    0  0.24159855525E+03  0.27225492257E+03 -0.86990305063E+03  0.94298670312E+03  0.25500000920E-02 0. -1.
       -2    1    3    3    0  502 -0.24159855525E+03 -0.27225492257E+03  0.11099495465E+04  0.11681098410E+04  0.25500000920E-02 0.  1.
</event>
<event>
 5   0  0.2602060E-05  0.2202162E+04  0.7818609E-02  0.8517529E-01
       -1   -1    0    0    0  501  0.00000000000E+00  0.00000000000E+00  0.73968356893E+03  0.73968356895E+03  0.50400001928E-02 0.  1.
        1   -1    0    0  501    0  0.00000000000E+00  0.00000000000E+00 -0.16390514054E+04  0.16390514054E+04  0.50400001928E-02 0. -1.
    10030    2    1    2    0    0  0.00000000000E+00  0.00000000000E+00 -0.89936783649E+03  0.23787349744E+04  0.22021620224E+04 0.  0.
        1    1    3    3  502    0  0.38886939231E+03  0.82177305693E+03  0.22128978051E+03  0.93568131773E+03  0.50400001928E-02 0.  1.
       -1    1    3    3    0  502 -0.38886939231E+03 -0.82177305693E+03 -0.11206576170E+04  0.14430536566E+04  0.50400001928E-02 0. -1.
</event>
<event>
 5   0  0.5866610E-05  0.2107532E+04  0.7818609E-02  0.8557933E-01
       -2   -1    0    0    0  501  0.00000000000E+00  0.00000000000E+00  0.86373624350E+03  0.86373624350E+03  0.25500000920E-02 0. -1.
        2   -1    0    0  501    0  0.00000000000E+00  0.00000000000E+00 -0.12856038285E+04  0.12856038285E+04  0.25500000920E-02 0.  1.
    10030    2    1    2    0    0  0.00000000000E+00  0.00000000000E+00 -0.42186758500E+03  0.21493400720E+04  0.21075318469E+04 0.  0.
        5    1    3    3  502    0  0.89507189201E+03  0.55167627271E+03 -0.28232336454E+03  0.10886822190E+04  0.46999998093E+01 0. -1.
       -5    1    3    3    0  502 -0.89507189201E+03 -0.55167627271E+03 -0.13954422046E+03  0.10606578530E+04  0.46999998093E+01 0.  1.
</event>
<event>
 5   0  0.2604390E-05  0.2139381E+04  0.7818609E-02  0.8544092E-01
        1   -1    0    0  501    0  0.00000000000E+00  0.00000000000E+00  0.18937734796E+04  0.18937734796E+04  0.50400001928E-02 0. -1.
       -1   -1    0    0    0  501  0.00000000000E+00  0.00000000000E+00 -0.60421029419E+03  0.60421029421E+03  0.50400001928E-02 0.  1.
    10030    2    1    2    0    0  0.00000000000E+00  0.00000000000E+00  0.12895631854E+04  0.24979837739E+04  0.21393806873E+04 0.  0.
        5    1    3    3  502    0 -0.57244862387E+03 -0.48725865084E+03  0.15333219745E+04  0.17076934114E+04  0.46999998093E+01 0. -1.
       -5    1    3    3    0  502  0.57244862387E+03  0.48725865084E+03 -0.24375878906E+03  0.79029036248E+03  0.46999998093E+01 0.  1.
</event>
<event>
 5   0  0.2789662E-05  0.2103593E+04  0.7818609E-02  0.8559662E-01
       -1   -1    0    0    0  501  0.00000000000E+00  0.00000000000E+00  0.59301300324E+03  0.59301300327E+03  0.50400001928E-02 0. -1.
        1   -1    0    0  501    0  0.00000000000E+00  0.00000000000E+00 -0.18655171001E+04  0.18655171001E+04  0.50400001928E-02 0.  1.
    10030    2    1    2    0    0  0.00000000000E+00  0.00000000000E+00 -0.12725040968E+04  0.24585301034E+04  0.21035930197E+04 0.  0.
        4    1    3    3  502    0  0.36009697816E+03  0.94176056790E+03 -0.98626927152E+03  0.14104295409E+04  0.12699999809E+01 0.  1.
       -4    1    3    3    0  502 -0.36009697816E+03 -0.94176056790E+03 -0.28623482532E+03  0.10481005625E+04  0.12699999809E+01 0. -1.
</event>
<event>
 5   0  0.5866610E-05  0.2109089E+04  0.7818609E-02  0.8557250E-01
        2   -1    0    0  501    0  0.00000000000E+00  0.00000000000E+00  0.16117955451E+04  0.16117955451E+04  0.25500000920E-02 0. -1.
       -2   -1    0    0    0  501  0.00000000000E+00  0.00000000000E+00 -0.68995374597E+03  0.68995374598E+03  0.25500000920E-02 0.  1.
    10030    2    1    2    0    0  0.00000000000E+00  0.00000000000E+00  0.92184179916E+03  0.23017492911E+04  0.21090892576E+04 0.  0.
        5    1    3    3  502    0  0.42919552736E+03 -0.84871585758E+03 -0.36229366897E+02  0.95176786278E+03  0.46999998093E+01 0.  1.
       -5    1    3    3    0  502 -0.42919552736E+03  0.84871585758E+03  0.95807116606E+03  0.13499814283E+04  0.46999998093E+01 0. -1.
</event>
<event>
 5   0  0.2017750E-05  0.2122056E+04  0.7818609E-02  0.8551589E-01
       -3   -1    0    0    0  501  0.00000000000E+00  0.00000000000E+00  0.10754030195E+04  0.10754030242E+04  0.10100000352E+00 0.  1.
        3   -1    0    0  501    0  0.00000000000E+00  0.00000000000E+00 -0.10468446733E+04  0.10468446781E+04  0.10100000352E+00 0. -1.
    10030    2    1    2    0    0  0.00000000000E+00  0.00000000000E+00  0.28558346199E+02  0.21222477024E+04  0.21220555438E+04 0.  0.
        1    1    3    3  502    0  0.68367432657E+03 -0.58407761571E+03  0.57755542886E+03  0.10687036630E+04  0.50400001928E-02 0.  1.
       -1    1    3    3    0  502 -0.68367432657E+03  0.58407761571E+03 -0.54899708266E+03  0.10535440393E+04  0.50400001928E-02 0. -1.
</event>
<event>
 5   0  0.5866610E-05  0.2083443E+04  0.7818609E-02  0.8568572E-01
        2   -1    0    0  501    0  0.00000000000E+00  0.00000000000E+00  0.17952507819E+04  0.17952507819E+04  0.25500000920E-02 0. -1.
       -2   -1    0    0    0  501  0.00000000000E+00  0.00000000000E+00 -0.60447450164E+03  0.60447450165E+03  0.25500000920E-02 0.  1.
    10030    2    1    2    0    0  0.00000000000E+00  0.00000000000E+00  0.11907762802E+04  0.23997252835E+04  0.20834426526E+04 0.  0.
        5    1    3    3  502    0 -0.73636002403E+03  0.39635934291E+03  0.13108400697E+04  0.15548796069E+04  0.46999998093E+01 0. -1.
       -5    1    3    3    0  502  0.73636002403E+03 -0.39635934291E+03 -0.12006378948E+03  0.84484567659E+03  0.46999998093E+01 0.  1.
</event>
<event>
 5   0  0.5967046E-05  0.2101140E+04  0.7818609E-02  0.8560741E-01
        2   -1    0    0  501    0  0.00000000000E+00  0.00000000000E+00  0.21595120578E+04  0.21595120578E+04  0.25500000920E-02 0. -1.
       -2   -1    0    0    0  501  0.00000000000E+00  0.00000000000E+00 -0.51108638309E+03  0.51108638309E+03  0.25500000920E-02 0.  1.
    10030    2    1    2    0    0  0.00000000000E+00  0.00000000000E+00  0.16484256747E+04  0.26705984409E+04  0.21011398876E+04 0.  0.
        4    1    3    3  502    0 -0.24075914694E+03  0.90999738138E+03  0.23126241093E+03  0.96930083904E+03  0.12699999809E+01 0.  1.
       -4    1    3    3    0  502  0.24075914694E+03 -0.90999738138E+03  0.14171632638E+04  0.17012976018E+04  0.12699999809E+01 0. -1.
</event>
<event>
 5   0  0.5462851E-05  0.2203783E+04  0.7818609E-02  0.8516855E-01
        2   -1    0    0  501    0  0.00000000000E+00  0.00000000000E+00  0.16206964044E+04  0.16206964044E+04  0.25500000920E-02 0.  1.
       -2   -1    0    0    0  501  0.00000000000E+00  0.00000000000E+00 -0.74916251614E+03  0.74916251615E+03  0.25500000920E-02 0. -1.
    10030    2    1    2    0    0  0.00000000000E+00  0.00000000000E+00  0.87153388826E+03  0.23698589206E+04  0.22037831075E+04 0.  0.
        1    1    3    3  502    0  0.10464055333E+03 -0.39539406106E+03 -0.66450962307E+03  0.78029427020E+03  0.50400001928E-02 0. -1.
       -1    1    3    3    0  502 -0.10464055333E+03  0.39539406106E+03  0.15360435113E+04  0.15895646504E+04  0.50400001928E-02 0.  1.
</event>
<event>
 5   0  0.5462851E-05  0.2102790E+04  0.7818609E-02  0.8560015E-01
        2   -1    0    0  501    0  0.00000000000E+00  0.00000000000E+00  0.93909228511E+03  0.93909228512E+03  0.25500000920E-02 0.  1.
       -2   -1    0    0    0  501  0.00000000000E+00  0.00000000000E+00 -0.11771275705E+04  0.11771275705E+04  0.25500000920E-02 0. -1.
    10030    2    1    2    0    0  0.00000000000E+00  0.00000000000E+00 -0.23803528539E+03  0.21162198556E+04  0.21027899753E+04 0.  0.
        1    1    3    3  502    0  0.31260133677E+02 -0.60436994159E+03  0.74623568913E+03  0.96078505713E+03  0.50400001928E-02 0.  1.
       -1    1    3    3    0  502 -0.31260133677E+02  0.60436994159E+03 -0.98427097452E+03  0.11554347985E+04  0.50400001928E-02 0. -1.
</event>
<event>
 5   0  0.2699285E-05  0.2097964E+04  0.7818609E-02  0.8562141E-01
       -1   -1    0    0    0  501  0.00000000000E+00  0.00000000000E+00  0.65523595838E+03  0.65523595840E+03  0.50400001928E-02 0. -1.
        1   -1    0    0  501    0  0.00000000000E+00  0.00000000000E+00 -0.16793395586E+04  0.16793395586E+04  0.50400001928E-02 0.  1.
    10030    2    1    2    0    0  0.00000000000E+00  0.00000000000E+00 -0.10241036002E+04  0.23345755170E+04  0.20979644088E+04 0.  0.
        2    1    3    3  502    0 -0.19617492785E+03  0.10062772252E+04 -0.75909227350E+03  0.12756565118E+04  0.25500000920E-02 0.  1.
       -2    1    3    3    0  502  0.19617492785E+03 -0.10062772252E+04 -0.26501132671E+03  0.10589190052E+04  0.25500000920E-02 0. -1.
</event>
<event>
 5   0  0.5462851E-05  0.2115609E+04  0.7818609E-02  0.8554399E-01
        2   -1    0    0  501    0  0.00000000000E+00  0.00000000000E+00  0.23031047768E+04  0.23031047768E+04  0.25500000920E-02 0.  1.
       -2   -1    0    0    0  501  0.00000000000E+00  0.00000000000E+00 -0.48584411610E+03  0.48584411611E+03  0.25500000920E-02 0. -1.
    10030    2    1    2    0    0  0.00000000000E+00  0.00000000000E+00  0.18172606607E+04  0.27889488929E+04  0.21156085693E+04 0.  0.
        1    1    3    3  502    0 -0.32805858466E+03  0.61253523969E+03 -0.14279276276E+03  0.70937411001E+03  0.50400001928E-02 0. -1.
       -1    1    3    3    0  502  0.32805858466E+03 -0.61253523969E+03  0.19600534234E+04  0.20795747829E+04  0.50400001928E-02 0.  1.
</event>
<event>
 5   0  0.2604390E-05  0.2086788E+04  0.7818609E-02  0.8567086E-01
       -1   -1    0    0    0  501  0.00000000000E+00  0.00000000000E+00  0.87727784672E+03  0.87727784674E+03  0.50400001928E-02 0. -1.
        1   -1    0    0  501    0  0.00000000000E+00  0.00000000000E+00 -0.12409649843E+04  0.12409649843E+04  0.50400001928E-02 0.  1.
    10030    2    1    2    0    0  0.00000000000E+00  0.00000000000E+00 -0.36368713756E+03  0.21182428310E+04  0.20867880480E+04 0.  0.
        5    1    3    3  502    0  0.87862135897E+03  0.35341879093E+03 -0.62635837072E+03  0.11354414264E+04  0.46999998093E+01 0.  1.
       -5    1    3    3    0  502 -0.87862135897E+03 -0.35341879093E+03  0.26267123317E+03  0.98280140463E+03  0.46999998093E+01 0. -1.
</event>
<event>
 5   0  0.2732159E-05  0.2098470E+04  0.7818609E-02  0.8561918E-01
       -1   -1    0    0    0  501  0.00000000000E+00  0.00000000000E+00  0.12263957390E+04  0.12263957390E+04  0.50400001928E-02 0. -1.
        1   -1    0    0  501    0  0.00000000000E+00  0.00000000000E+00 -0.89766609030E+03  0.89766609031E+03  0.50400001928E-02 0.  1.
    10030    2    1    2    0    0  0.00000000000E+00  0.00000000000E+00  0.32872964868E+03  0.21240618293E+04  0.20984697931E+04 0.  0.
        3    1    3    3  502    0 -0.44363255724E+03 -0.10350796219E+03 -0.79234479872E+03  0.91396610131E+03  0.10100000352E+00 0.  1.
       -3    1    3    3    0  502  0.44363255724E+03  0.10350796219E+03  0.11210744474E+04  0.12100957280E+04  0.10100000352E+00 0. -1.
</event>
<event>
 5   0  0.5967046E-05  0.2107151E+04  0.7818609E-02  0.8558100E-01
       -2   -1    0    0    0  501  0.00000000000E+00  0.00000000000E+00  0.15695655320E+04  0.15695655320E+04  0.25500000920E-02 0. -1.
        2   -1    0    0  501    0  0.00000000000E+00  0.00000000000E+00 -0.70721561041E+03  0.70721561041E+03  0.25500000920E-02 0.  1.
    10030    2    1    2    0    0  0.00000000000E+00  0.00000000000E+00  0.86234992162E+03  0.22767811424E+04  0.21071509161E+04 0.  0.
        4    1    3    3  502    0 -0.91151239309E+03  0.36737903139E+02  0.10006878808E+04  0.13540983583E+04  0.12699999809E+01 0. -1.
       -4    1    3    3    0  502  0.91151239309E+03 -0.36737903139E+02 -0.13833795919E+03  0.92268278413E+03  0.12699999809E+01 0.  1.
</event>
<event>
 5   0  0.2602060E-05  0.2090402E+04  0.7818609E-02  0.8565483E-01
       -1   -1    0    0    0  501  0.00000000000E+00  0.00000000000E+00  0.54682265928E+03  0.54682265930E+03  0.50400001928E-02 0. -1.
        1   -1    0    0  501    0  0.00000000000E+00  0.00000000000E+00 -0.19978045306E+04  0.19978045306E+04  0.50400001928E-02 0.  1.
    10030    2    1    2    0    0  0.00000000000E+00  0.00000000000E+00 -0.14509818713E+04  0.25446271899E+04  0.20904016707E+04 0.  0.
        1    1    3    3  502    0  0.78303456470E+03 -0.22005599991E+03 -0.15245356492E+04  0.17279400216E+04  0.50400001928E-02 0.  1.
       -1    1    3    3    0  502 -0.78303456470E+03  0.22005599991E+03  0.73553777860E+02  0.81668716830E+03  0.50400001928E-02 0. -1.
</event>
<event>
 5   0  0.5506332E-05  0.2079551E+04  0.7818609E-02  0.8570305E-01
        2   -1    0    0  501    0  0.00000000000E+00  0.00000000000E+00  0.91916440163E+03  0.91916440164E+03  0.25500000920E-02 0. -1.
       -2   -1    0    0    0  501  0.00000000000E+00  0.00000000000E+00 -0.11762124108E+04  0.11762124108E+04  0.25500000920E-02 0.  1.
    10030    2    1    2    0    0  0.00000000000E+00  0.00000000000E+00 -0.25704800915E+03  0.20953768124E+04  0.20795505060E+04 0.  0.
        3    1    3    3  502    0  0.63200960183E+03  0.83443617515E+02  0.69914907046E+03  0.94615453655E+03  0.10100000352E+00 0. -1.
       -3    1    3    3    0  502 -0.63200960183E+03 -0.83443617515E+02 -0.95619707961E+03  0.11492222759E+04  0.10100000352E+00 0.  1.
</event>
<event>
 5   0  0.5506332E-05  0.2107076E+04  0.7818609E-02  0.8558133E-01
        2   -1    0    0  501    0  0.00000000000E+00  0.00000000000E+00  0.10335090106E+04  0.10335090106E+04  0.25500000920E-02 0. -1.
       -2   -1    0    0    0  501  0.00000000000E+00  0.00000000000E+00 -0.10739548999E+04  0.10739548999E+04  0.25500000920E-02 0.  1.
    10030    2    1    2    0    0  0.00000000000E+00  0.00000000000E+00 -0.40445889271E+02  0.21074639105E+04  0.21070757614E+04 0.  0.
        3    1    3    3  502    0  0.54534163239E+03  0.86069984417E+03 -0.28811615358E+03  0.10588732908E+04  0.10100000352E+00 0.  1.
       -3    1    3    3    0  502 -0.54534163239E+03 -0.86069984417E+03  0.24767026431E+03  0.10485906197E+04  0.10100000352E+00 0. -1.
</event>
<event>
 5   0  0.5506332E-05  0.2167282E+04  0.7818609E-02  0.8532171E-01
       -2   -1    0    0    0  501  0.00000000000E+00  0.00000000000E+00  0.57668088988E+03  0.57668088989E+03  0.25500000920E-02 0. -1.
        2   -1    0    0  501    0  0.00000000000E+00  0.00000000000E+00 -0.20362692406E+04  0.20362692406E+04  0.25500000920E-02 0.  1.
    10030    2    1    2    0    0  0.00000000000E+00  0.00000000000E+00 -0.14595883507E+04  0.26129501305E+04  0.21672817608E+04 0.  0.
        3    1    3    3  502    0  0.45620822952E+03 -0.73095378596E+03  0.62499722003E+02  0.86390138982E+03  0.10100000352E+00 0. -1.
       -3    1    3    3    0  502 -0.45620822952E+03  0.73095378596E+03 -0.15220880727E+04  0.17490487406E+04  0.10100000352E+00 0.  1.
</event>
<event>
 5   0  0.2699285E-05  0.2099888E+04  0.7818609E-02  0.8561293E-01
        1   -1    0    0  501    0  0.00000000000E+00  0.00000000000E+00  0.23750667597E+04  0.23750667598E+04  0.50400001928E-02 0.  1.
       -1   -1    0    0    0  501  0.00000000000E+00  0.00000000000E+00 -0.46414812487E+03  0.46414812489E+03  0.50400001928E-02 0. -1.
    10030    2    1    2    0    0  0.00000000000E+00  0.00000000000E+00  0.19109186349E+04  0.28392148846E+04  0.20998883618E+04 0.  0.
        2    1    3    3  502    0  0.83635827748E+03  0.62346583557E+03  0.79446556218E+03  0.13112514427E+04  0.25500000920E-02 0. -1.
       -2    1    3    3    0  502 -0.83635827748E+03 -0.62346583557E+03  0.11164530727E+04  0.15279634420E+04  0.25500000920E-02 0.  1.
</event>
<event>
 5   0  0.5866610E-05  0.2111659E+04  0.7818609E-02  0.8556125E-01
        2   -1    0    0  501    0  0.00000000000E+00  0.00000000000E+00  0.13681285413E+04  0.13681285413E+04  0.25500000920E-02 0.  1.
       -2   -1    0    0    0  501  0.00000000000E+00  0.00000000000E+00 -0.81481787912E+03  0.81481787912E+03  0.25500000920E-02 0. -1.
    10030    2    1    2    0    0  0.00000000000E+00  0.00000000000E+00  0.55331066219E+03  0.21829464204E+04  0.21116586811E+04 0.  0.
        5    1    3    3  502    0  0.59929623537E+03 -0.12911629704E+03  0.11652832998E+04  0.13167134292E+04  0.46999998093E+01 0.  1.
       -5    1    3    3    0  502 -0.59929623537E+03  0.12911629704E+03 -0.61197263760E+03  0.86623299122E+03  0.46999998093E+01 0. -1.
</event>
<event>
 5   0  0.5866610E-05  0.2089173E+04  0.7818609E-02  0.8566028E-01
       -2   -1    0    0    0  501  0.00000000000E+00  0.00000000000E+00  0.10485207603E+04  0.10485207603E+04  0.25500000920E-02 0. -1.
        2   -1    0    0  501    0  0.00000000000E+00  0.00000000000E+00 -0.10406671153E+04  0.10406671153E+04  0.25500000920E-02 0.  1.
    10030    2    1    2    0    0  0.00000000000E+00  0.00000000000E+00  0.78536449876E+01  0.20891878757E+04  0.20891731140E+04 0.  0.
        5    1    3    3  502    0  0.29531454828E+03  0.54586298159E+03 -0.83629450808E+03  0.10414353899E+04  0.46999998093E+01 0.  1.
       -5    1    3    3    0  502 -0.29531454828E+03 -0.54586298159E+03  0.84414815307E+03  0.10477524858E+04  0.46999998093E+01 0. -1.
</event>
<event>
 5   0  0.5967046E-05  0.2095838E+04  0.7818609E-02  0.8563079E-01
        2   -1    0    0  501    0  0.00000000000E+00  0.00000000000E+00  0.10291531378E+04  0.10291531378E+04  0.25500000920E-02 0.  1.
       -2   -1    0    0    0  501  0.00000000000E+00  0.00000000000E+00 -0.10670272598E+04  0.10670272598E+04  0.25500000920E-02 0. -1.
    10030    2    1    2    0    0  0.00000000000E+00  0.00000000000E+00 -0.37874122035E+02  0.20961803976E+04  0.20958382118E+04 0.  0.
        4    1    3    3  502    0  0.10284150121E+04  0.20103114902E+03 -0.27987278726E+02  0.10482537196E+04  0.12699999809E+01 0.  1.
       -4    1    3    3    0  502 -0.10284150121E+04 -0.20103114902E+03 -0.98868433090E+01  0.10479266780E+04  0.12699999809E+01 0. -1.
</event>
<event>
 5   0  0.5967046E-05  0.2109035E+04  0.7818609E-02  0.8557274E-01
       -2   -1    0    0    0  501  0.00000000000E+00  0.00000000000E+00  0.92760994889E+03  0.92760994889E+03  0.25500000920E-02 0. -1.
        2   -1    0    0  501    0  0.00000000000E+00  0.00000000000E+00 -0.11987874019E+04  0.11987874019E+04  0.25500000920E-02 0.  1.
    10030    2    1    2    0    0  0.00000000000E+00  0.00000000000E+00 -0.27117745300E+03  0.21263973508E+04  0.21090349647E+04 0.  0.
        4    1    3    3  502    0 -0.64356173656E+03  0.25631559808E+02 -0.97743368023E+03  0.11705583701E+04  0.12699999809E+01 0.  1.
       -4    1    3    3    0  502  0.64356173656E+03 -0.25631559808E+02  0.70625622723E+03  0.95583898070E+03  0.12699999809E+01 0. -1.
</event>
<event>
 5   0  0.2789662E-05  0.2094392E+04  0.7818609E-02  0.8563718E-01
       -1   -1    0    0    0  501  0.00000000000E+00  0.00000000000E+00  0.12647355697E+04  0.12647355697E+04  0.50400001928E-02 0. -1.
        1   -1    0    0  501    0  0.00000000000E+00  0.00000000000E+00 -0.86707419987E+03  0.86707419989E+03  0.50400001928E-02 0.  1.
    10030    2    1    2    0    0  0.00000000000E+00  0.00000000000E+00  0.39766136982E+03  0.21318097696E+04  0.20943921144E+04 0.  0.
        4    1    3    3  502    0  0.92518052669E+03  0.22706940780E+02  0.69762987879E+03  0.11589493832E+04  0.12699999809E+01 0. -1.
       -4    1    3    3    0  502 -0.92518052669E+03 -0.22706940780E+02 -0.29996850897E+03  0.97286038639E+03  0.12699999809E+01 0.  1.
</event>
<event>
 5   0  0.5506332E-05  0.2082783E+04  0.7818609E-02  0.8568866E-01
        2   -1    0    0  501    0  0.00000000000E+00  0.00000000000E+00  0.89607853556E+03  0.89607853556E+03  0.25500000920E-02 0. -1.
       -2   -1    0    0    0  501  0.00000000000E+00  0.00000000000E+00 -0.12102686643E+04  0.12102686643E+04  0.25500000920E-02 0.  1.
    10030    2    1    2    0    0  0.00000000000E+00  0.00000000000E+00 -0.31419012872E+03  0.21063471998E+04  0.20827825353E+04 0.  0.
        3    1    3    3  502    0  0.80777684912E+03  0.32713709525E+03 -0.73360938971E+03  0.11391684967E+04  0.10100000352E+00 0.  1.
       -3    1    3    3    0  502 -0.80777684912E+03 -0.32713709525E+03  0.41941926099E+03  0.96717870312E+03  0.10100000352E+00 0. -1.
</event>
<event>
 5   0  0.2789662E-05  0.2098743E+04  0.7818609E-02  0.8561797E-01
        1   -1    0    0  501    0  0.00000000000E+00  0.00000000000E+00  0.11805950615E+04  0.11805950615E+04  0.50400001928E-02 0.  1.
       -1   -1    0    0    0  501  0.00000000000E+00  0.00000000000E+00 -0.93273327462E+03  0.93273327463E+03  0.50400001928E-02 0. -1.
    10030    2    1    2    0    0  0.00000000000E+00  0.00000000000E+00  0.24786178686E+03  0.21133283361E+04  0.20987427643E+04 0.  0.
        4    1    3    3  502    0 -0.19328044741E+02 -0.95785296747E+03  0.55506860307E+03  0.11072301692E+04  0.12699999809E+01 0.  1.
       -4    1    3    3    0  502  0.19328044741E+02  0.95785296747E+03 -0.30720681622E+03  0.10060981669E+04  0.12699999809E+01 0. -1.
</event>
<event>
 5   0  0.5462851E-05  0.2092373E+04  0.7818609E-02  0.8564611E-01
        2   -1    0    0  501    0  0.00000000000E+00  0.00000000000E+00  0.99052116285E+03  0.99052116286E+03  0.25500000920E-02 0.  1.
       -2   -1    0    0    0  501  0.00000000000E+00  0.00000000000E+00 -0.11049802925E+04  0.11049802925E+04  0.25500000920E-02 0. -1.
    10030    2    1    2    0    0  0.00000000000E+00  0.00000000000E+00 -0.11445912962E+03  0.20955014553E+04  0.20923731639E+04 0.  0.
        1    1    3    3  502    0 -0.41376529280E+03 -0.14241424956E+03  0.89446631733E+03  0.99576780871E+03  0.50400001928E-02 0.  1.
       -1    1    3    3    0  502  0.41376529280E+03  0.14241424956E+03 -0.10089254470E+04  0.10997336466E+04  0.50400001928E-02 0. -1.
</event>
<event>
 5   0  0.5954140E-05  0.2111927E+04  0.7818609E-02  0.8556008E-01
       -2   -1    0    0    0  501  0.00000000000E+00  0.00000000000E+00  0.83061385634E+03  0.83061385635E+03  0.25500000920E-02 0. -1.
        2   -1    0    0  501    0  0.00000000000E+00  0.00000000000E+00 -0.13424511981E+04  0.13424511981E+04  0.25500000920E-02 0.  1.
    10030    2    1    2    0    0  0.00000000000E+00  0.00000000000E+00 -0.51183734171E+03  0.21730650544E+04  0.21119266716E+04 0.  0.
        2    1    3    3  502    0  0.54321575992E+03  0.42075000648E+03  0.56913211422E+03  0.89220249564E+03  0.25500000920E-02 0. -1.
       -2    1    3    3    0  502 -0.54321575992E+03 -0.42075000648E+03 -0.10809694559E+04  0.12808625588E+04  0.25500000920E-02 0.  1.
</event>
<event>
 5   0  0.2602060E-05  0.2133741E+04  0.7818609E-02  0.8546524E-01
       -1   -1    0    0    0  501  0.00000000000E+00  0.00000000000E+00  0.10036906933E+04  0.10036906933E+04  0.50400001928E-02 0. -1.
        1   -1    0    0  501    0  0.00000000000E+00  0.00000000000E+00 -0.11340270644E+04  0.11340270644E+04  0.50400001928E-02 0.  1.
    10030    2    1    2    0    0  0.00000000000E+00  0.00000000000E+00 -0.13033637108E+03  0.21377177577E+04  0.21337407626E+04 0.  0.
        1    1    3    3  502    0 -0.19674949986E+03 -0.99642246943E+03  0.26200488471E+03  0.10489111797E+04  0.50400001928E-02 0. -1.
       -1    1    3    3    0  502  0.19674949986E+03  0.99642246943E+03 -0.39234125578E+03  0.10888065780E+04  0.50400001928E-02 0.  1.
</event>
<event>
 5   0  0.2699285E-05  0.2102991E+04  0.7818609E-02  0.8559927E-01
       -1   -1    0    0    0  501  0.00000000000E+00  0.00000000000E+00  0.10996838075E+04  0.10996838075E+04  0.50400001928E-02 0.  1.
        1   -1    0    0  501    0  0.00000000000E+00  0.00000000000E+00 -0.10054191818E+04  0.10054191818E+04  0.50400001928E-02 0. -1.
    10030    2    1    2    0    0  0.00000000000E+00  0.00000000000E+00  0.94264625676E+02  0.21051029893E+04  0.21029913875E+04 0.  0.
        2    1    3    3  502    0 -0.11912121189E+02  0.10510414797E+04  0.75675912561E+02  0.10538296515E+04  0.25500000920E-02 0.  1.
       -2    1    3    3    0  502  0.11912121189E+02 -0.10510414797E+04  0.18588713115E+02  0.10512733378E+04  0.25500000920E-02 0. -1.
</event>
<event>
 5   0  0.5967046E-05  0.2132759E+04  0.7818609E-02  0.8546949E-01
        2   -1    0    0  501    0  0.00000000000E+00  0.00000000000E+00  0.20033615713E+04  0.20033615713E+04  0.25500000920E-02 0.  1.
       -2   -1    0    0    0  501  0.00000000000E+00  0.00000000000E+00 -0.56762837196E+03  0.56762837196E+03  0.25500000920E-02 0. -1.
    10030    2    1    2    0    0  0.00000000000E+00  0.00000000000E+00  0.14357331993E+04  0.25709899432E+04  0.21327586522E+04 0.  0.
        4    1    3    3  502    0 -0.79453856605E+03 -0.22844428376E+03  0.15298288572E+04  0.17389238825E+04  0.12699999809E+01 0.  1.
       -4    1    3    3    0  502  0.79453856605E+03  0.22844428376E+03 -0.94095657923E+02  0.83206606076E+03  0.12699999809E+01 0. -1.
</event>
<event>
 5   0  0.5967046E-05  0.2099242E+04  0.7818609E-02  0.8561577E-01
       -2   -1    0    0    0  501  0.00000000000E+00  0.00000000000E+00  0.13887269161E+04  0.13887269161E+04  0.25500000920E-02 0.  1.
        2   -1    0    0  501    0  0.00000000000E+00  0.00000000000E+00 -0.79331970604E+03  0.79331970604E+03  0.25500000920E-02 0. -1.
    10030    2    1    2    0    0  0.00000000000E+00  0.00000000000E+00  0.59540721004E+03  0.21820466221E+04  0.20992421764E+04 0.  0.
        4    1    3    3  502    0 -0.27695313006E+03  0.99974015861E+03  0.46375275966E+03  0.11363325464E+04  0.12699999809E+01 0.  1.
       -4    1    3    3    0  502  0.27695313006E+03 -0.99974015861E+03  0.13165445038E+03  0.10457140757E+04  0.12699999809E+01 0. -1.
</event>
<event>
 5   0  0.2789662E-05  0.2098841E+04  0.7818609E-02  0.8561754E-01
       -1   -1    0    0    0  501  0.00000000000E+00  0.00000000000E+00  0.14972263991E+04  0.14972263991E+04  0.50400001928E-02 0.  1.
        1   -1    0    0  501    0  0.00000000000E+00  0.00000000000E+00 -0.73554932362E+03  0.73554932364E+03  0.50400001928E-02 0. -1.
    10030    2    1    2    0    0  0.00000000000E+00  0.00000000000E+00  0.76167707551E+03  0.22327757228E+04  0.20988414568E+04 0.  0.
        4    1    3    3  502    0 -0.10078157860E+04 -0.28933374362E+03  0.42691011858E+03  0.11321044721E+04  0.12699999809E+01 0. -1.
       -4    1    3    3    0  502  0.10078157860E+04  0.28933374362E+03  0.33476695694E+03  0.11006712506E+04  0.12699999809E+01 0.  1.
</event>
<event>
 5   0  0.2699285E-05  0.2082824E+04  0.7818609E-02  0.8568848E-01
       -1   -1    0    0    0  501  0.00000000000E+00  0.00000000000E+00  0.82441370503E+03  0.82441370505E+03  0.50400001928E-02 0.  1.
        1   -1    0    0  501    0  0.00000000000E+00  0.00000000000E+00 -0.13155269483E+04  0.13155269483E+04  0.50400001928E-02 0. -1.
    10030    2    1    2    0    0  0.00000000000E+00  0.00000000000E+00 -0.49111324326E+03  0.21399406534E+04  0.20828235120E+04 0.  0.
        2    1    3    3  502    0  0.57935543017E+03 -0.53215822311E+03 -0.94668779831E+03  0.12308789040E+04  0.25500000920E-02 0. -1.
       -2    1    3    3    0  502 -0.57935543017E+03  0.53215822311E+03  0.45557455505E+03  0.90906174933E+03  0.25500000920E-02 0.  1.
</event>
<event>
 5   0  0.5866610E-05  0.2049023E+04  0.7818609E-02  0.8584038E-01
        2   -1    0    0  501    0  0.00000000000E+00  0.00000000000E+00  0.12331072707E+04  0.12331072707E+04  0.25500000920E-02 0.  1.
       -2   -1    0    0    0  501  0.00000000000E+00  0.00000000000E+00 -0.85120258508E+03  0.85120258509E+03  0.25500000920E-02 0. -1.
    10030    2    1    2    0    0  0.00000000000E+00  0.00000000000E+00  0.38190468563E+03  0.20843098558E+04  0.20490232761E+04 0.  0.
        5    1    3    3  502    0  0.35025435115E+03  0.78299434512E+03  0.76081753866E+03  0.11465703956E+04  0.46999998093E+01 0. -1.
       -5    1    3    3    0  502 -0.35025435115E+03 -0.78299434512E+03 -0.37891285303E+03  0.93773946018E+03  0.46999998093E+01 0.  1.
</event>
<event>
 5   0  0.2017750E-05  0.2102306E+04  0.7818609E-02  0.8560228E-01
        4   -1    0    0  501    0  0.00000000000E+00  0.00000000000E+00  0.14978503447E+04  0.14978508831E+04  0.12699999809E+01 0. -1.
       -4   -1    0    0    0  501  0.00000000000E+00  0.00000000000E+00 -0.73767126976E+03  0.73767236300E+03  0.12699999809E+01 0.  1.
    10030    2    1    2    0    0  0.00000000000E+00  0.00000000000E+00  0.76017907492E+03  0.22355232461E+04  0.21023063425E+04 0.  0.
        2    1    3    3  502    0 -0.60520267909E+02  0.69690381042E+03 -0.45422023975E+03  0.83405854111E+03  0.25500000920E-02 0.  1.
       -2    1    3    3    0  502  0.60520267909E+02 -0.69690381042E+03  0.12143993147E+04  0.14014647050E+04  0.25500000920E-02 0. -1.
</event>
<event>
 5   0  0.2604390E-05  0.2097920E+04  0.7818609E-02  0.8562160E-01
       -1   -1    0    0    0  501  0.00000000000E+00  0.00000000000E+00  0.75066960290E+03  0.75066960291E+03  0.50400001928E-02 0.  1.
        1   -1    0    0  501    0  0.00000000000E+00  0.00000000000E+00 -0.14657811768E+04  0.14657811769E+04  0.50400001928E-02 0. -1.
    10030    2    1    2    0    0  0.00000000000E+00  0.00000000000E+00 -0.71511157395E+03  0.22164507798E+04  0.20979202787E+04 0.  0.
        5    1    3    3  502    0 -0.38599708245E+03 -0.64358722306E+03 -0.11318312258E+04  0.13580361832E+04  0.46999998093E+01 0. -1.
       -5    1    3    3    0  502  0.38599708245E+03  0.64358722306E+03  0.41671965182E+03  0.85841459654E+03  0.46999998093E+01 0.  1.
</event>
<event>
 5   0  0.5954140E-05  0.2100453E+04  0.7818609E-02  0.8561044E-01
       -2   -1    0    0    0  501  0.00000000000E+00  0.00000000000E+00  0.14799181842E+04  0.14799181842E+04  0.25500000920E-02 0. -1.
        2   -1    0    0  501    0  0.00000000000E+00  0.00000000000E+00 -0.74529473490E+03  0.74529473490E+03  0.25500000920E-02 0.  1.
    10030    2    1    2    0    0  0.00000000000E+00  0.00000000000E+00  0.73462344931E+03  0.22252129191E+04  0.21004525520E+04 0.  0.
        2    1    3    3  502    0  0.56654383142E+03  0.12922619427E+03  0.12940896115E+04  0.14185694360E+04  0.25500000920E-02 0. -1.
       -2    1    3    3    0  502 -0.56654383142E+03 -0.12922619427E+03 -0.55946616218E+03  0.80664348311E+03  0.25500000920E-02 0.  1.
</event>
<event>
 5   0  0.2789662E-05  0.2103340E+04  0.7818609E-02  0.8559773E-01
        1   -1    0    0  501    0  0.00000000000E+00  0.00000000000E+00  0.12118554688E+04  0.12118554688E+04  0.50400001928E-02 0. -1.
       -1   -1    0    0    0  501  0.00000000000E+00  0.00000000000E+00 -0.91265858571E+03  0.91265858572E+03  0.50400001928E-02 0.  1.
    10030    2    1    2    0    0  0.00000000000E+00  0.00000000000E+00  0.29919688309E+03  0.21245140545E+04  0.21033404843E+04 0.  0.
        4    1    3    3  502    0  0.96408977288E+03 -0.24025440653E+03 -0.19857054057E+03  0.10132241324E+04  0.12699999809E+01 0. -1.
       -4    1    3    3    0  502 -0.96408977288E+03  0.24025440653E+03  0.49776742366E+03  0.11112899221E+04  0.12699999809E+01 0.  1.
</event>
<event>
 5   0  0.5506332E-05  0.2107778E+04  0.7818609E-02  0.8557825E-01
       -2   -1    0    0    0  501  0.00000000000E+00  0.00000000000E+00  0.13323064731E+04  0.13323064731E+04  0.25500000920E-02 0. -1.
        2   -1    0    0  501    0  0.00000000000E+00  0.00000000000E+00 -0.83365326806E+03  0.83365326806E+03  0.25500000920E-02 0.  1.
    10030    2    1    2    0    0  0.00000000000E+00  0.00000000000E+00  0.49865320509E+03  0.21659597412E+04  0.21077776405E+04 0.  0.
        3    1    3    3  502    0 -0.26302751846E+03  0.10205273063E+04  0.24448738314E+03  0.10818657722E+04  0.10100000352E+00 0.  1.
       -3    1    3    3    0  502  0.26302751846E+03 -0.10205273063E+04  0.25416582194E+03  0.10840939690E+04  0.10100000352E+00 0. -1.
</event>
<event>
 5   0  0.2017750E-05  0.2085934E+04  0.7818609E-02  0.8567465E-01
        4   -1    0    0  501    0  0.00000000000E+00  0.00000000000E+00  0.15921316478E+04  0.15921321543E+04  0.12699999809E+01 0. -1.
       -4   -1    0    0    0  501  0.00000000000E+00  0.00000000000E+00 -0.68322102008E+03  0.68322220044E+03  0.12699999809E+01 0.  1.
    10030    2    1    2    0    0  0.00000000000E+00  0.00000000000E+00  0.90891062772E+03  0.22753543548E+04  0.20859335825E+04 0.  0.
        3    1    3    3  502    0 -0.37733489522E+03 -0.48604513524E+01  0.15150525732E+04  0.15613422292E+04  0.10100000352E+00 0. -1.
       -3    1    3    3    0  502  0.37733489522E+03  0.48604513524E+01 -0.60614194546E+03  0.71401212551E+03  0.10100000352E+00 0.  1.
</event>
<event>
 5   0  0.5954140E-05  0.2097041E+04  0.7818609E-02  0.8562548E-01
       -2   -1    0    0    0  501  0.00000000000E+00  0.00000000000E+00  0.42152583441E+03  0.42152583441E+03  0.25500000920E-02 0.  1.
        2   -1    0    0  501    0  0.00000000000E+00  0.00000000000E+00 -0.26081329309E+04  0.26081329310E+04  0.25500000920E-02 0. -1.
    10030    2    1    2    0    0  0.00000000000E+00  0.00000000000E+00 -0.21866070965E+04  0.30296587654E+04  0.20970411631E+04 0.  0.
        2    1    3    3  502    0 -0.45310571521E+03 -0.43599048060E+03  0.11889564719E+03  0.63994426574E+03  0.25500000920E-02 0.  1.
       -2    1    3    3    0  502  0.45310571521E+03  0.43599048060E+03 -0.23055027437E+04  0.23897144996E+04  0.25500000920E-02 0. -1.
</event>
<event>
 5   0  0.2732159E-05  0.2103892E+04  0.7818609E-02  0.8559531E-01
        1   -1    0    0  501    0  0.00000000000E+00  0.00000000000E+00  0.15867509146E+04  0.15867509146E+04  0.50400001928E-02 0.  1.
       -1   -1    0    0    0  501  0.00000000000E+00  0.00000000000E+00 -0.69739380136E+03  0.69739380138E+03  0.50400001928E-02 0. -1.
    10030    2    1    2    0    0  0.00000000000E+00  0.00000000000E+00  0.88935711324E+03  0.22841447160E+04  0.21038918719E+04 0.  0.
        3    1    3    3  502    0 -0.75916404828E+03 -0.67051015207E+03  0.13630775086E+03  0.10220047600E+04  0.10100000352E+00 0. -1.
       -3    1    3    3    0  502  0.75916404828E+03  0.67051015207E+03  0.75304936238E+03  0.12621399560E+04  0.10100000352E+00 0.  1.
</event>
<event>
 5   0  0.5954140E-05  0.2126124E+04  0.7818609E-02  0.8549822E-01
       -2   -1    0    0    0  501  0.00000000000E+00  0.00000000000E+00  0.64368848255E+03  0.64368848255E+03  0.25500000920E-02 0.  1.
        2   -1    0    0  501    0  0.00000000000E+00  0.00000000000E+00 -0.17556649632E+04  0.17556649632E+04  0.25500000920E-02 0. -1.
    10030    2    1    2    0    0  0.00000000000E+00  0.00000000000E+00 -0.11119764806E+04  0.23993534457E+04  0.21261244705E+04 0.  0.
        2    1    3    3  502    0 -0.60970516581E+03 -0.79806560784E+03 -0.16270244828E+03  0.10174090575E+04  0.25500000920E-02 0.  1.
       -2    1    3    3    0  502  0.60970516581E+03  0.79806560784E+03 -0.94927403235E+03  0.13819443882E+04  0.25500000920E-02 0. -1.
</event>
<event>
 5   0  0.2604390E-05  0.2094201E+04  0.7818609E-02  0.8563802E-01
       -1   -1    0    0    0  501  0.00000000000E+00  0.00000000000E+00  0.81313822712E+03  0.81313822714E+03  0.50400001928E-02 0. -1.
        1   -1    0    0  501    0  0.00000000000E+00  0.00000000000E+00 -0.13483805849E+04  0.13483805849E+04  0.50400001928E-02 0.  1.
    10030    2    1    2    0    0  0.00000000000E+00  0.00000000000E+00 -0.53524235777E+03  0.21615188120E+04  0.20942013259E+04 0.  0.
        5    1    3    3  502    0  0.89258239061E+03 -0.53559088871E+03 -0.38456269227E+03  0.11097168460E+04  0.46999998093E+01 0. -1.
       -5    1    3    3    0  502 -0.89258239061E+03  0.53559088871E+03 -0.15067966550E+03  0.10518019660E+04  0.46999998093E+01 0.  1.
</event>
<event>
 5   0  0.2789662E-05  0.2099094E+04  0.7818609E-02  0.8561643E-01
       -1   -1    0    0    0  501  0.00000000000E+00  0.00000000000E+00  0.11080396808E+04  0.11080396809E+04  0.50400001928E-02 0.  1.
        1   -1    0    0  501    0  0.00000000000E+00  0.00000000000E+00 -0.99414171669E+03  0.99414171670E+03  0.50400001928E-02 0. -1.
    10030    2    1    2    0    0  0.00000000000E+00  0.00000000000E+00  0.11389796415E+03  0.21021813975E+04  0.20990935858E+04 0.  0.
        4    1    3    3  502    0  0.84604930040E+03  0.11334033458E+01  0.67894727046E+03  0.10847910915E+04  0.12699999809E+01 0.  1.
       -4    1    3    3    0  502 -0.84604930040E+03 -0.11334033458E+01 -0.56504930630E+03  0.10173903060E+04  0.12699999809E+01 0. -1.
</event>
<event>
 5   0  0.5506332E-05  0.2075307E+04  0.7818609E-02  0.8572199E-01
       -2   -1    0    0    0  501  0.00000000000E+00  0.00000000000E+00  0.23450102912E+04  0.23450102912E+04  0.25500000920E-02 0.  1.
        2   -1    0    0  501    0  0.00000000000E+00  0.00000000000E+00 -0.45915584544E+03  0.45915584545E+03  0.25500000920E-02 0. -1.
    10030    2    1    2    0    0  0.00000000000E+00  0.00000000000E+00  0.18858544458E+04  0.28041661367E+04  0.20753073824E+04 0.  0.
        3    1    3    3  502    0 -0.20741911112E+03  0.10165973452E+04  0.96352247640E+03  0.14159337635E+04  0.10100000352E+00 0.  1.
       -3    1    3    3    0  502  0.20741911112E+03 -0.10165973452E+04  0.92233196939E+03  0.13882323732E+04  0.10100000352E+00 0. -1.
</event>
<event>
 5   0  0.2732159E-05  0.2103389E+04  0.7818609E-02  0.8559752E-01
        1   -1    0    0  501    0  0.00000000000E+00  0.00000000000E+00  0.23361500542E+04  0.23361500542E+04  0.50400001928E-02 0.  1.
       -1   -1    0    0    0  501  0.00000000000E+00  0.00000000000E+00 -0.47345479656E+03  0.47345479658E+03  0.50400001928E-02 0. -1.
    10030    2    1    2    0    0  0.00000000000E+00  0.00000000000E+00  0.18626952576E+04  0.28096048508E+04  0.21033891211E+04 0.  0.
        3    1    3    3  502    0  0.20077811628E+03  0.95692035077E+03  0.14487733381E+04  0.17478422712E+04  0.10100000352E+00 0.  1.
       -3    1    3    3    0  502 -0.20077811628E+03 -0.95692035077E+03  0.41392191955E+03  0.10617625796E+04  0.10100000352E+00 0. -1.
</event>
<event>
 5   0  0.2699285E-05  0.2101882E+04  0.7818609E-02  0.8560415E-01
        1   -1    0    0  501    0  0.00000000000E+00  0.00000000000E+00  0.83858608367E+03  0.83858608368E+03  0.50400001928E-02 0.  1.
       -1   -1    0    0    0  501  0.00000000000E+00  0.00000000000E+00 -0.13170701855E+04  0.13170701855E+04  0.50400001928E-02 0. -1.
    10030    2    1    2    0    0  0.00000000000E+00  0.00000000000E+00 -0.47848410185E+03  0.21556562692E+04  0.21018817558E+04 0.  0.
        2    1    3    3  502    0  0.74893454488E+03  0.68722448021E+03  0.34602874134E+02  0.10170436557E+04  0.25500000920E-02 0.  1.
       -2    1    3    3    0  502 -0.74893454488E+03 -0.68722448021E+03 -0.51308697599E+03  0.11386126135E+04  0.25500000920E-02 0. -1.
</event>
<event>
 5   0  0.2699285E-05  0.2058844E+04  0.7818609E-02  0.8579593E-01
       -1   -1    0    0    0  501  0.00000000000E+00  0.00000000000E+00  0.14508771404E+04  0.14508771404E+04  0.50400001928E-02 0. -1.
        1   -1    0    0  501    0  0.00000000000E+00  0.00000000000E+00 -0.73039228211E+03  0.73039228212E+03  0.50400001928E-02 0.  1.
    10030    2    1    2    0    0  0.00000000000E+00  0.00000000000E+00  0.72048485831E+03  0.21812694225E+04  0.20588438170E+04 0.  0.
        2    1    3    3  502    0 -0.68714491627E+03  0.72455956857E+03  0.95260599470E+02  0.10031098076E+04  0.25500000920E-02 0.  1.
       -2    1    3    3    0  502  0.68714491627E+03 -0.72455956857E+03  0.62522425884E+03  0.11781596149E+04  0.25500000920E-02 0. -1.
</event>
<event>
 5   0  0.5967046E-05  0.2093063E+04  0.7818609E-02  0.8564305E-01
        2   -1    0    0  501    0  0.00000000000E+00  0.00000000000E+00  0.93465658137E+03  0.93465658137E+03  0.25500000920E-02 0.  1.
       -2   -1    0    0    0  501  0.00000000000E+00  0.00000000000E+00 -0.11717971005E+04  0.11717971005E+04  0.25500000920E-02 0. -1.
    10030    2    1    2    0    0  0.00000000000E+00  0.00000000000E+00 -0.23714051914E+03  0.21064536819E+04  0.20930627052E+04 0.  0.
        4    1    3    3  502    0  0.51063364758E+03  0.54153468010E+03  0.62181281777E+03  0.96987593281E+03  0.12699999809E+01 0.  1.
       -4    1    3    3    0  502 -0.51063364758E+03 -0.54153468010E+03 -0.85895333692E+03  0.11365777491E+04  0.12699999809E+01 0. -1.
</event>
<event>
 5   0  0.2602060E-05  0.2097573E+04  0.7818609E-02  0.8562313E-01
        1   -1    0    0  501    0  0.00000000000E+00  0.00000000000E+00  0.16610480227E+04  0.16610480227E+04  0.50400001928E-02 0. -1.
       -1   -1    0    0    0  501  0.00000000000E+00  0.00000000000E+00 -0.66220449194E+03  0.66220449196E+03  0.50400001928E-02 0.  1.
    10030    2    1    2    0    0  0.00000000000E+00  0.00000000000E+00  0.99884353075E+03  0.23232525147E+04  0.20975733236E+04 0.  0.
        1    1    3    3  502    0 -0.55479433838E+03 -0.13835040261E+02 -0.48625005430E+03  0.73785315719E+03  0.50400001928E-02 0.  1.
       -1    1    3    3    0  502  0.55479433838E+03  0.13835040261E+02  0.14850935851E+04  0.15853993575E+04  0.50400001928E-02 0. -1.
</event>
<event>
 5   0  0.2602060E-05  0.2117209E+04  0.7818609E-02  0.8553700E-01
       -1   -1    0    0    0  501  0.00000000000E+00  0.00000000000E+00  0.13447133830E+04  0.13447133830E+04  0.50400001928E-02 0.  1.
        1   -1    0    0  501    0  0.00000000000E+00  0.00000000000E+00 -0.83336963442E+03  0.83336963444E+03  0.50400001928E-02 0. -1.
    10030    2    1    2    0    0  0.00000000000E+00  0.00000000000E+00  0.51134374857E+03  0.21780830174E+04  0.21172088234E+04 0.  0.
        1    1    3    3  502    0  0.30445430272E+03  0.24977764403E+03  0.12665546992E+04  0.13263642411E+04  0.50400001928E-02 0.  1.
       -1    1    3    3    0  502 -0.30445430272E+03 -0.24977764403E+03 -0.75521095067E+03  0.85171877633E+03  0.50400001928E-02 0. -1.
</event>
<event>
 5   0  0.5866610E-05  0.2177631E+04  0.7818609E-02  0.8527797E-01
        2   -1    0    0  501    0  0.00000000000E+00  0.00000000000E+00  0.22990670514E+04  0.22990670514E+04  0.25500000920E-02 0. -1.
       -2   -1    0    0    0  501  0.00000000000E+00  0.00000000000E+00 -0.51565237392E+03  0.51565237392E+03  0.25500000920E-02 0.  1.
    10030    2    1    2    0    0  0.00000000000E+00  0.00000000000E+00  0.17834146775E+04  0.28147194253E+04  0.21776311743E+04 0.  0.
        5    1    3    3  502    0  0.76989906084E+03 -0.76435545629E+03  0.77244482108E+03  0.13317946234E+04  0.46999998093E+01 0. -1.
       -5    1    3    3    0  502 -0.76989906084E+03  0.76435545629E+03  0.10109698564E+04  0.14829248018E+04  0.46999998093E+01 0.  1.
</event>
<event>
 5   0  0.5462851E-05  0.2100181E+04  0.7818609E-02  0.8561164E-01
       -2   -1    0    0    0  501  0.00000000000E+00  0.00000000000E+00  0.44906649506E+03  0.44906649507E+03  0.25500000920E-02 0.  1.
        2   -1    0    0  501    0  0.00000000000E+00  0.00000000000E+00 -0.24555155799E+04  0.24555155799E+04  0.25500000920E-02 0. -1.
    10030    2    1    2    0    0  0.00000000000E+00  0.00000000000E+00 -0.20064490848E+04  0.29045820750E+04  0.21001807304E+04 0.  0.
        1    1    3    3  502    0 -0.89107647743E+03 -0.20906516257E+03 -0.17151272084E+04  0.19440645236E+04  0.50400001928E-02 0. -1.
       -1    1    3    3    0  502  0.89107647743E+03  0.20906516257E+03 -0.29132187644E+03  0.96051755140E+03  0.50400001928E-02 0.  1.
</event>
<event>
 5   0  0.5462851E-05  0.2098232E+04  0.7818609E-02  0.8562023E-01
        2   -1    0    0  501    0  0.00000000000E+00  0.00000000000E+00  0.15097505189E+04  0.15097505189E+04  0.25500000920E-02 0. -1.
       -2   -1    0    0    0  501  0.00000000000E+00  0.00000000000E+00 -0.72902380711E+03  0.72902380711E+03  0.25500000920E-02 0.  1.
    10030    2    1    2    0    0  0.00000000000E+00  0.00000000000E+00  0.78072671182E+03  0.22387743261E+04  0.20982317042E+04 0.  0.
        1    1    3    3  502    0  0.95853738707E+03  0.42630795902E+03  0.40163871723E+03  0.11233192144E+04  0.50400001928E-02 0. -1.
       -1    1    3    3    0  502 -0.95853738707E+03 -0.42630795902E+03  0.37908799459E+03  0.11154551116E+04  0.50400001928E-02 0.  1.
</event>
<event>
 5   0  0.2732159E-05  0.2092361E+04  0.7818609E-02  0.8564616E-01
        1   -1    0    0  501    0  0.00000000000E+00  0.00000000000E+00  0.11797877783E+04  0.11797877783E+04  0.50400001928E-02 0.  1.
       -1   -1    0    0    0  501  0.00000000000E+00  0.00000000000E+00 -0.92770385809E+03  0.92770385811E+03  0.50400001928E-02 0. -1.
    10030    2    1    2    0    0  0.00000000000E+00  0.00000000000E+00  0.25208392018E+03  0.21074916364E+04  0.20923610335E+04 0.  0.
        3    1    3    3  502    0 -0.18022939670E+03  0.83575855589E+03  0.73332701482E+03  0.11263851562E+04  0.10100000352E+00 0.  1.
       -3    1    3    3    0  502  0.18022939670E+03 -0.83575855589E+03 -0.48124309464E+03  0.98110648022E+03  0.10100000352E+00 0. -1.
</event>
<event>
 5   0  0.5866610E-05  0.2097571E+04  0.7818609E-02  0.8562314E-01
        2   -1    0    0  501    0  0.00000000000E+00  0.00000000000E+00  0.12063855466E+04  0.12063855466E+04  0.25500000920E-02 0. -1.
       -2   -1    0    0    0  501  0.00000000000E+00  0.00000000000E+00 -0.91177377629E+03  0.91177377629E+03  0.25500000920E-02 0.  1.
    10030    2    1    2    0    0  0.00000000000E+00  0.00000000000E+00  0.29461177035E+03  0.21181593229E+04  0.20975706954E+04 0.  0.
        5    1    3    3  502    0 -0.56651094975E+03  0.24929946284E+03 -0.70767078506E+03  0.94016217132E+03  0.46999998093E+01 0.  1.
       -5    1    3    3    0  502  0.56651094975E+03 -0.24929946284E+03  0.10022825554E+04  0.11779971516E+04  0.46999998093E+01 0. -1.
</event>
<event>
 5   0  0.5954140E-05  0.2126641E+04  0.7818609E-02  0.8549598E-01
       -2   -1    0    0    0  501  0.00000000000E+00  0.00000000000E+00  0.69101868140E+03  0.69101868140E+03  0.25500000920E-02 0.  1.
        2   -1    0    0  501    0  0.00000000000E+00  0.00000000000E+00 -0.16362077993E+04  0.16362077993E+04  0.25500000920E-02 0. -1.
    10030    2    1    2    0    0  0.00000000000E+00  0.00000000000E+00 -0.94518911793E+03  0.23272264807E+04  0.21266406899E+04 0.  0.
        2    1    3    3  502    0  0.11938617746E+03  0.23653819087E+03  0.65431475881E+03  0.70592576006E+03  0.25500000920E-02 0.  1.
       -2    1    3    3    0  502 -0.11938617746E+03 -0.23653819087E+03 -0.15995038767E+04  0.16213007207E+04  0.25500000920E-02 0. -1.
</event>
<event>
 5   0  0.2604390E-05  0.2098453E+04  0.7818609E-02  0.8561925E-01
       -1   -1    0    0    0  501  0.00000000000E+00  0.00000000000E+00  0.10530800392E+04  0.10530800392E+04  0.50400001928E-02 0.  1.
        1   -1    0    0  501    0  0.00000000000E+00  0.00000000000E+00 -0.10453871618E+04  0.10453871618E+04  0.50400001928E-02 0. -1.
    10030    2    1    2    0    0  0.00000000000E+00  0.00000000000E+00  0.76928773576E+01  0.20984672010E+04  0.20984531001E+04 0.  0.
        5    1    3    3  502    0  0.10749828583E+03  0.71892618615E+02  0.10450689909E+04  0.10530506711E+04  0.46999998093E+01 0.  1.
       -5    1    3    3    0  502 -0.10749828583E+03 -0.71892618615E+02 -0.10373761136E+04  0.10454165299E+04  0.46999998093E+01 0. -1.
</event>
<event>
 5   0  0.5462851E-05  0.2130913E+04  0.7818609E-02  0.8547747E-01
        2   -1    0    0  501    0  0.00000000000E+00  0.00000000000E+00  0.19477077425E+04  0.19477077425E+04  0.25500000920E-02 0.  1.
       -2   -1    0    0    0  501  0.00000000000E+00  0.00000000000E+00 -0.58283794522E+03  0.58283794522E+03  0.25500000920E-02 0. -1.
    10030    2    1    2    0    0  0.00000000000E+00  0.00000000000E+00  0.13648697973E+04  0.25305456877E+04  0.21309133990E+04 0.  0.
        1    1    3    3  502    0 -0.95347611771E+03 -0.17961932512E+03  0.12052469937E+04  0.15472556754E+04  0.50400001928E-02 0.  1.
       -1    1    3    3    0  502  0.95347611771E+03  0.17961932512E+03  0.15962280357E+03  0.98329001238E+03  0.50400001928E-02 0. -1.
</event>
<event>
 5   0  0.5967046E-05  0.2105375E+04  0.7818609E-02  0.8558880E-01
        2   -1    0    0  501    0  0.00000000000E+00  0.00000000000E+00  0.11012255394E+04  0.11012255394E+04  0.25500000920E-02 0. -1.
       -2   -1    0    0    0  501  0.00000000000E+00  0.00000000000E+00 -0.10062884171E+04  0.10062884171E+04  0.25500000920E-02 0.  1.
    10030    2    1    2    0    0  0.00000000000E+00  0.00000000000E+00  0.94937122340E+02  0.21075139565E+04  0.21053745556E+04 0.  0.
        4    1    3    3  502    0 -0.37578158520E+03 -0.55943565810E+03  0.85697371123E+03  0.10902227341E+04  0.12699999809E+01 0. -1.
       -4    1    3    3    0  502  0.37578158520E+03  0.55943565810E+03 -0.76203658889E+03  0.10172912223E+04  0.12699999809E+01 0.  1.
</event>
<event>
 5   0  0.5462851E-05  0.2034466E+04  0.7818609E-02  0.8590674E-01
        2   -1    0    0  501    0  0.00000000000E+00  0.00000000000E+00  0.14983696280E+04  0.14983696280E+04  0.25500000920E-02 0. -1.
       -2   -1    0    0    0  501  0.00000000000E+00  0.00000000000E+00 -0.69059231694E+03  0.69059231694E+03  0.25500000920E-02 0.  1.
    10030    2    1    2    0    0  0.00000000000E+00  0.00000000000E+00  0.80777731104E+03  0.21889619449E+04  0.20344655839E+04 0.  0.
        1    1    3    3  502    0  0.62172755009E+03  0.16250510193E+03  0.12523196778E+04  0.14075715364E+04  0.50400001928E-02 0. -1.
       -1    1    3    3    0  502 -0.62172755009E+03 -0.16250510193E+03 -0.44454236673E+03  0.78139040853E+03  0.50400001928E-02 0.  1.
</event>
<event>
 5   0  0.5954140E-05  0.2098772E+04  0.7818609E-02  0.8561785E-01
       -2   -1    0    0    0  501  0.00000000000E+00  0.00000000000E+00  0.59819472006E+03  0.59819472006E+03  0.25500000920E-02 0.  1.
        2   -1    0    0  501    0  0.00000000000E+00  0.00000000000E+00 -0.18408896657E+04  0.18408896657E+04  0.25500000920E-02 0. -1.
    10030    2    1    2    0    0  0.00000000000E+00  0.00000000000E+00 -0.12426949456E+04  0.24390843858E+04  0.20987715247E+04 0.  0.
        2    1    3    3  502    0  0.93185176297E+03 -0.13184594205E+03 -0.81880875349E+02  0.94468806404E+03  0.25500000920E-02 0.  1.
       -2    1    3    3    0  502 -0.93185176297E+03  0.13184594205E+03 -0.11608140703E+04  0.14943963217E+04  0.25500000920E-02 0. -1.
</event>
<event>
 5   0  0.2699285E-05  0.2095468E+04  0.7818609E-02  0.8563242E-01
        1   -1    0    0  501    0  0.00000000000E+00  0.00000000000E+00  0.86642287874E+03  0.86642287876E+03  0.50400001928E-02 0. -1.
       -1   -1    0    0    0  501  0.00000000000E+00  0.00000000000E+00 -0.12669872300E+04  0.12669872300E+04  0.50400001928E-02 0.  1.
    10030    2    1    2    0    0  0.00000000000E+00  0.00000000000E+00 -0.40056435121E+03  0.21334101087E+04  0.20954681798E+04 0.  0.
        2    1    3    3  502    0 -0.44092498051E+03  0.64920153826E+03 -0.90701926506E+03  0.11994004431E+04  0.25500000920E-02 0.  1.
       -2    1    3    3    0  502  0.44092498051E+03 -0.64920153826E+03  0.50645491385E+03  0.93400966562E+03  0.25500000920E-02 0. -1.
</event>
<event>
 5   0  0.2699285E-05  0.2055592E+04  0.7818609E-02  0.8581062E-01
       -1   -1    0    0    0  501  0.00000000000E+00  0.00000000000E+00  0.68116292997E+03  0.68116292999E+03  0.50400001928E-02 0. -1.
        1   -1    0    0  501    0  0.00000000000E+00  0.00000000000E+00 -0.15508257242E+04  0.15508257242E+04  0.50400001928E-02 0.  1.
    10030    2    1    2    0    0  0.00000000000E+00  0.00000000000E+00 -0.86966279423E+03  0.22319886542E+04  0.20555923664E+04 0.  0.
        2    1    3    3  502    0 -0.24426807244E+03  0.83457686742E+03  0.16007075684E+03  0.88419912127E+03  0.25500000920E-02 0. -1.
       -2    1    3    3    0  502  0.24426807244E+03 -0.83457686742E+03 -0.10297335511E+04  0.13477895329E+04  0.25500000920E-02 0.  1.
</event>
<event>
 5   0  0.5462851E-05  0.2096453E+04  0.7818609E-02  0.8562807E-01
        2   -1    0    0  501    0  0.00000000000E+00  0.00000000000E+00  0.22676242662E+04  0.22676242662E+04  0.25500000920E-02 0. -1.
       -2   -1    0    0    0  501  0.00000000000E+00  0.00000000000E+00 -0.48455077134E+03  0.48455077135E+03  0.25500000920E-02 0.  1.
    10030    2    1    2    0    0  0.00000000000E+00  0.00000000000E+00  0.17830734949E+04  0.27521750376E+04  0.20964532786E+04 0.  0.
        1    1    3    3  502    0 -0.46356644182E+03  0.88929757029E+03  0.12919553210E+04  0.16355098795E+04  0.50400001928E-02 0.  1.
       -1    1    3    3    0  502  0.46356644182E+03 -0.88929757029E+03  0.49111817393E+03  0.11166651581E+04  0.50400001928E-02 0. -1.
</event>
<event>
 5   0  0.2732159E-05  0.2117300E+04  0.7818609E-02  0.8553661E-01
        1   -1    0    0  501    0  0.00000000000E+00  0.00000000000E+00  0.10549196545E+04  0.10549196545E+04  0.50400001928E-02 0.  1.
       -1   -1    0    0    0  501  0.00000000000E+00  0.00000000000E+00 -0.10623934444E+04  0.10623934445E+04  0.50400001928E-02 0. -1.
    10030    2    1    2    0    0  0.00000000000E+00  0.00000000000E+00 -0.74737899675E+01  0.21173130990E+04  0.21172999082E+04 0.  0.
        3    1    3    3  502    0  0.79089795681E+03  0.14858688866E+03  0.68412062583E+03  0.10562285181E+04  0.10100000352E+00 0.  1.
       -3    1    3    3    0  502 -0.79089795681E+03 -0.14858688866E+03 -0.69159441579E+03  0.10610845809E+04  0.10100000352E+00 0. -1.
</event>
<event>
 5   0  0.2604390E-05  0.2090469E+04  0.7818609E-02  0.8565454E-01
       -1   -1    0    0    0  501  0.00000000000E+00  0.00000000000E+00  0.48171266678E+03  0.48171266680E+03  0.50400001928E-02 0.  1.
        1   -1    0    0  501    0  0.00000000000E+00  0.00000000000E+00 -0.22679809798E+04  0.22679809798E+04  0.50400001928E-02 0. -1.
    10030    2    1    2    0    0  0.00000000000E+00  0.00000000000E+00 -0.17862683130E+04  0.27496936466E+04  0.20904690058E+04 0.  0.
        5    1    3    3  502    0  0.19198387449E+03  0.32851273752E+03 -0.21736335414E+04  0.22066905739E+04  0.46999998093E+01 0. -1.
       -5    1    3    3    0  502 -0.19198387449E+03 -0.32851273752E+03  0.38736522838E+03  0.54300307267E+03  0.46999998093E+01 0.  1.
</event>
<event>
 5   0  0.5506332E-05  0.2101357E+04  0.7818609E-02  0.8560646E-01
        2   -1    0    0  501    0  0.00000000000E+00  0.00000000000E+00  0.11836130447E+04  0.11836130448E+04  0.25500000920E-02 0. -1.
       -2   -1    0    0    0  501  0.00000000000E+00  0.00000000000E+00 -0.93267383483E+03  0.93267383483E+03  0.25500000920E-02 0.  1.
    10030    2    1    2    0    0  0.00000000000E+00  0.00000000000E+00  0.25093920992E+03  0.21162868796E+04  0.21013566260E+04 0.  0.
        3    1    3    3  502    0  0.39202230859E+03  0.22681961348E+03 -0.82931500210E+03  0.94492963251E+03  0.10100000352E+00 0.  1.
       -3    1    3    3    0  502 -0.39202230859E+03 -0.22681961348E+03  0.10802542120E+04  0.11713572471E+04  0.10100000352E+00 0. -1.
</event>
<event>
 5   0  0.2789662E-05  0.2109913E+04  0.7818609E-02  0.8556889E-01
        1   -1    0    0  501    0  0.00000000000E+00  0.00000000000E+00  0.22536211043E+04  0.22536211043E+04  0.50400001928E-02 0. -1.
       -1   -1    0    0    0  501  0.00000000000E+00  0.00000000000E+00 -0.49384221828E+03  0.49384221830E+03  0.50400001928E-02 0.  1.
    10030    2    1    2    0    0  0.00000000000E+00  0.00000000000E+00  0.17597788860E+04  0.27474633226E+04  0.21099130270E+04 0.  0.
        4    1    3    3  502    0 -0.56994142055E+03 -0.88422054251E+03  0.98285504849E+03  0.14396822045E+04  0.12699999809E+01 0. -1.
       -4    1    3    3    0  502  0.56994142055E+03  0.88422054251E+03  0.77692383749E+03  0.13077811181E+04  0.12699999809E+01 0.  1.
</event>
<event>
 5   0  0.5954140E-05  0.2100983E+04  0.7818609E-02  0.8560811E-01
       -2   -1    0    0    0  501  0.00000000000E+00  0.00000000000E+00  0.97355323406E+03  0.97355323406E+03  0.25500000920E-02 0.  1.
        2   -1    0    0  501    0  0.00000000000E+00  0.00000000000E+00 -0.11335098701E+04  0.11335098701E+04  0.25500000920E-02 0. -1.
    10030    2    1    2    0    0  0.00000000000E+00  0.00000000000E+00 -0.15995663600E+03  0.21070631041E+04  0.21009828175E+04 0.  0.
        2    1    3    3  502    0 -0.31985431263E+03  0.98702245737E+03 -0.24480750368E+03  0.10660444768E+04  0.25500000920E-02 0.  1.
       -2    1    3    3    0  502  0.31985431263E+03 -0.98702245737E+03  0.84850867680E+02  0.10410186273E+04  0.25500000920E-02 0. -1.
</event>
<event>
 5   0  0.2602060E-05  0.2089577E+04  0.7818609E-02  0.8565849E-01
        1   -1    0    0  501    0  0.00000000000E+00  0.00000000000E+00  0.10134268995E+04  0.10134268995E+04  0.50400001928E-02 0.  1.
       -1   -1    0    0    0  501  0.00000000000E+00  0.00000000000E+00 -0.10771202122E+04  0.10771202122E+04  0.50400001928E-02 0. -1.
    10030    2    1    2    0    0  0.00000000000E+00  0.00000000000E+00 -0.63693312697E+02  0.20905471118E+04  0.20895766051E+04 0.  0.
        1    1    3    3  502    0  0.38911852742E+03  0.46214515023E+03  0.82095245136E+03  0.10192910751E+04  0.50400001928E-02 0.  1.
       -1    1    3    3    0  502 -0.38911852742E+03 -0.46214515023E+03 -0.88464576406E+03  0.10712560367E+04  0.50400001928E-02 0. -1.
</event>
<event>
 5   0  0.2602060E-05  0.2079120E+04  0.7818609E-02  0.8570497E-01
        1   -1    0    0  501    0  0.00000000000E+00  0.00000000000E+00  0.11586557932E+04  0.11586557932E+04  0.50400001928E-02 0.  1.
       -1   -1    0    0    0  501  0.00000000000E+00  0.00000000000E+00 -0.93270577078E+03  0.93270577080E+03  0.50400001928E-02 0. -1.
    10030    2    1    2    0    0  0.00000000000E+00  0.00000000000E+00  0.22595002237E+03  0.20913615640E+04  0.20791199529E+04 0.  0.
        1    1    3    3  502    0  0.41045757548E+03 -0.30710060946E+01  0.10736901443E+04  0.11494761321E+04  0.50400001928E-02 0.  1.
       -1    1    3    3    0  502 -0.41045757548E+03  0.30710060946E+01 -0.84774012193E+03  0.94188543183E+03  0.50400001928E-02 0. -1.
</event>
<event>
 5   0  0.5866610E-05  0.2109318E+04  0.7818609E-02  0.8557150E-01
       -2   -1    0    0    0  501  0.00000000000E+00  0.00000000000E+00  0.64563385521E+03  0.64563385522E+03  0.25500000920E-02 0.  1.
        2   -1    0    0  501    0  0.00000000000E+00  0.00000000000E+00 -0.17228109976E+04  0.17228109976E+04  0.25500000920E-02 0. -1.
    10030    2    1    2    0    0  0.00000000000E+00  0.00000000000E+00 -0.10771771424E+04  0.23684448528E+04  0.21093175258E+04 0.  0.
        5    1    3    3  502    0  0.65277177236E+02 -0.56373316065E+03 -0.15367417663E+04  0.16381860495E+04  0.46999998093E+01 0. -1.
       -5    1    3    3    0  502 -0.65277177236E+02  0.56373316065E+03  0.45956462395E+03  0.73025880335E+03  0.46999998093E+01 0.  1.
</event>
<event>
 5   0  0.2732159E-05  0.2103897E+04  0.7818609E-02  0.8559529E-01
        1   -1    0    0  501    0  0.00000000000E+00  0.00000000000E+00  0.18284596091E+04  0.18284596092E+04  0.50400001928E-02 0.  1.
       -1   -1    0    0    0  501  0.00000000000E+00  0.00000000000E+00 -0.60520632628E+03  0.60520632630E+03  0.50400001928E-02 0. -1.
    10030    2    1    2    0    0  0.00000000000E+00  0.00000000000E+00  0.12232532829E+04  0.24336659355E+04  0.21038966922E+04 0.  0.
        3    1    3    3  502    0 -0.81172913918E+03 -0.63716810165E+03  0.84786252003E+03  0.13355741268E+04  0.10100000352E+00 0.  1.
       -3    1    3    3    0  502  0.81172913918E+03  0.63716810165E+03  0.37539076284E+03  0.10980918086E+04  0.10100000352E+00 0. -1.
</event>
<event>
 5   0  0.2604390E-05  0.2132089E+04  0.7818609E-02  0.8547238E-01
        1   -1    0    0  501    0  0.00000000000E+00  0.00000000000E+00  0.96403228198E+03  0.96403228199E+03  0.50400001928E-02 0.  1.
       -1   -1    0    0    0  501  0.00000000000E+00  0.00000000000E+00 -0.11788509241E+04  0.11788509242E+04  0.50400001928E-02 0. -1.
    10030    2    1    2    0    0  0.00000000000E+00  0.00000000000E+00 -0.21481864217E+03  0.21428832061E+04  0.21320885034E+04 0.  0.
        5    1    3    3  502    0 -0.16485094659E+03  0.84842819512E+03 -0.73460567548E+03  0.11343164573E+04  0.46999998093E+01 0. -1.
       -5    1    3    3    0  502  0.16485094659E+03 -0.84842819512E+03  0.51978703331E+03  0.10085667488E+04  0.46999998093E+01 0.  1.
</event>
<event>
 5   0  0.5954140E-05  0.2294187E+04  0.7818609E-02  0.8480217E-01
        2   -1    0    0  501    0  0.00000000000E+00  0.00000000000E+00  0.17423190842E+04  0.17423190842E+04  0.25500000920E-02 0. -1.
       -2   -1    0    0    0  501  0.00000000000E+00  0.00000000000E+00 -0.75521369506E+03  0.75521369507E+03  0.25500000920E-02 0.  1.
    10030    2    1    2    0    0  0.00000000000E+00  0.00000000000E+00  0.98710538917E+03  0.24975327793E+04  0.22941867697E+04 0.  0.
        2    1    3    3  502    0 -0.48809371882E+03  0.10112680988E+04  0.23842016898E+03  0.11479297988E+04  0.25500000920E-02 0. -1.
       -2    1    3    3    0  502  0.48809371882E+03 -0.10112680988E+04  0.74868522019E+03  0.13496029805E+04  0.25500000920E-02 0.  1.
</event>
<event>
 5   0  0.5967046E-05  0.2096537E+04  0.7818609E-02  0.8562771E-01
        2   -1    0    0  501    0  0.00000000000E+00  0.00000000000E+00  0.12005226319E+04  0.12005226319E+04  0.25500000920E-02 0. -1.
       -2   -1    0    0    0  501  0.00000000000E+00  0.00000000000E+00 -0.91532334338E+03  0.91532334338E+03  0.25500000920E-02 0.  1.
    10030    2    1    2    0    0  0.00000000000E+00  0.00000000000E+00  0.28519928855E+03  0.21158459753E+04  0.20965365623E+04 0.  0.
        4    1    3    3  502    0  0.20476419770E+01 -0.74351816829E+03 -0.60315224416E+03  0.95740153643E+03  0.12699999809E+01 0.  1.
       -4    1    3    3    0  502 -0.20476419770E+01  0.74351816829E+03  0.88835153271E+03  0.11584444389E+04  0.12699999809E+01 0. -1.
</event>
<event>
 5   0  0.2732159E-05  0.2104117E+04  0.7818609E-02  0.8559432E-01
       -1   -1    0    0    0  501  0.00000000000E+00  0.00000000000E+00  0.46464780966E+03  0.46464780969E+03  0.50400001928E-02 0.  1.
        1   -1    0    0  501    0  0.00000000000E+00  0.00000000000E+00 -0.23820776906E+04  0.23820776906E+04  0.50400001928E-02 0. -1.
    10030    2    1    2    0    0  0.00000000000E+00  0.00000000000E+00 -0.19174298809E+04  0.28467255003E+04  0.21041170893E+04 0.  0.
        3    1    3    3  502    0 -0.93777914391E+03  0.20532379798E+03 -0.37642057271E+03  0.10311547132E+04  0.10100000352E+00 0.  1.
       -3    1    3    3    0  502  0.93777914391E+03 -0.20532379798E+03 -0.15410093082E+04  0.18155707871E+04  0.10100000352E+00 0. -1.
</event>
<event>
 5   0  0.5954140E-05  0.2100445E+04  0.7818609E-02  0.8561047E-01
        2   -1    0    0  501    0  0.00000000000E+00  0.00000000000E+00  0.15887140596E+04  0.15887140596E+04  0.25500000920E-02 0.  1.
       -2   -1    0    0    0  501  0.00000000000E+00  0.00000000000E+00 -0.69425179459E+03  0.69425179460E+03  0.25500000920E-02 0. -1.
    10030    2    1    2    0    0  0.00000000000E+00  0.00000000000E+00  0.89446226499E+03  0.22829658542E+04  0.21004452737E+04 0.  0.
        2    1    3    3  502    0  0.22933877311E+03  0.24330321362E+02 -0.66638895963E+03  0.70516840749E+03  0.25500000920E-02 0. -1.
       -2    1    3    3    0  502 -0.22933877311E+03 -0.24330321362E+02  0.15608512246E+04  0.15777974467E+04  0.25500000920E-02 0.  1.
</event>
<event>
 5   0  0.5967046E-05  0.2099972E+04  0.7818609E-02  0.8561256E-01
        2   -1    0    0  501    0  0.00000000000E+00  0.00000000000E+00  0.92243512986E+03  0.92243512986E+03  0.25500000920E-02 0.  1.
       -2   -1    0    0    0  501  0.00000000000E+00  0.00000000000E+00 -0.11951746560E+04  0.11951746560E+04  0.25500000920E-02 0. -1.
    10030    2    1    2    0    0  0.00000000000E+00  0.00000000000E+00 -0.27273952612E+03  0.21176097859E+04  0.20999724655E+04 0.  0.
        4    1    3    3  502    0  0.16477491177E+03  0.32713633944E+02  0.90879489902E+03  0.92419193611E+03  0.12699999809E+01 0.  1.
       -4    1    3    3    0  502 -0.16477491177E+03 -0.32713633944E+02 -0.11815344251E+04  0.11934178497E+04  0.12699999809E+01 0. -1.
</event>
<event>
 5   0  0.5506332E-05  0.2108327E+04  0.7818609E-02  0.8557584E-01
        2   -1    0    0  501    0  0.00000000000E+00  0.00000000000E+00  0.27609681674E+04  0.27609681674E+04  0.25500000920E-02 0. -1.
       -2   -1    0    0    0  501  0.00000000000E+00  0.00000000000E+00 -0.40248964610E+03  0.40248964611E+03  0.25500000920E-02 0.  1.
    10030    2    1    2    0    0  0.00000000000E+00  0.00000000000E+00  0.23584785213E+04  0.31634578135E+04  0.21083273945E+04 0.  0.
        3    1    3    3  502    0 -0.52993544051E+03  0.61412279946E+03  0.21894420669E+04  0.23348736494E+04  0.10100000352E+00 0. -1.
       -3    1    3    3    0  502  0.52993544051E+03 -0.61412279946E+03  0.16903645435E+03  0.82858416411E+03  0.10100000352E+00 0.  1.
</event>
<event>
 5   0  0.2604390E-05  0.2108882E+04  0.7818609E-02  0.8557341E-01
       -1   -1    0    0    0  501  0.00000000000E+00  0.00000000000E+00  0.13203499050E+04  0.13203499050E+04  0.50400001928E-02 0.  1.
        1   -1    0    0  501    0  0.00000000000E+00  0.00000000000E+00 -0.84208387165E+03  0.84208387166E+03  0.50400001928E-02 0. -1.
    10030    2    1    2    0    0  0.00000000000E+00  0.00000000000E+00  0.47826603338E+03  0.21624337767E+04  0.21088815614E+04 0.  0.
        5    1    3    3  502    0 -0.13896789897E+03  0.68132170697E+03 -0.57365684492E+03  0.90145194606E+03  0.46999998093E+01 0. -1.
       -5    1    3    3    0  502  0.13896789897E+03 -0.68132170697E+03  0.10519228783E+04  0.12609818306E+04  0.46999998093E+01 0.  1.
</event>
<event>
 5   0  0.5954140E-05  0.2097753E+04  0.7818609E-02  0.8562234E-01
        2   -1    0    0  501    0  0.00000000000E+00  0.00000000000E+00  0.17680067147E+04  0.17680067147E+04  0.25500000920E-02 0. -1.
       -2   -1    0    0    0  501  0.00000000000E+00  0.00000000000E+00 -0.62224958531E+03  0.62224958531E+03  0.25500000920E-02 0.  1.
    10030    2    1    2    0    0  0.00000000000E+00  0.00000000000E+00  0.11457571294E+04  0.23902563000E+04  0.20977525546E+04 0.  0.
        2    1    3    3  502    0 -0.73660504480E+03 -0.34736126097E+03  0.13260234915E+04  0.15561443178E+04  0.25500000920E-02 0. -1.
       -2    1    3    3    0  502  0.73660504480E+03  0.34736126097E+03 -0.18026636211E+03  0.83411198227E+03  0.25500000920E-02 0.  1.
</event>
<event>
 5   0  0.2017750E-05  0.2110221E+04  0.7818609E-02  0.8556754E-01
        3   -1    0    0  501    0  0.00000000000E+00  0.00000000000E+00  0.11154831919E+04  0.11154831965E+04  0.10100000352E+00 0.  1.
       -3   -1    0    0    0  501  0.00000000000E+00  0.00000000000E+00 -0.99800517607E+03  0.99800518118E+03  0.10100000352E+00 0. -1.
    10030    2    1    2    0    0  0.00000000000E+00  0.00000000000E+00  0.11747801584E+03  0.21134883777E+04  0.21102208506E+04 0.  0.
        3    1    3    3  502    0  0.14476043711E+03  0.60148551068E+03  0.91476567594E+03  0.11043263357E+04  0.10100000352E+00 0.  1.
       -3    1    3    3    0  502 -0.14476043711E+03 -0.60148551068E+03 -0.79728766010E+03  0.10091620419E+04  0.10100000352E+00 0. -1.
</event>
<event>
 5   0  0.2789662E-05  0.2110260E+04  0.7818609E-02  0.8556737E-01
        1   -1    0    0  501    0  0.00000000000E+00  0.00000000000E+00  0.13818366106E+04  0.13818366106E+04  0.50400001928E-02 0. -1.
       -1   -1    0    0    0  501  0.00000000000E+00  0.00000000000E+00 -0.80566624012E+03  0.80566624013E+03  0.50400001928E-02 0.  1.
    10030    2    1    2    0    0  0.00000000000E+00  0.00000000000E+00  0.57617037050E+03  0.21875028508E+04  0.21102598006E+04 0.  0.
        4    1    3    3  502    0 -0.23759070250E+03 -0.78575345036E+03 -0.39908187028E+03  0.91275723977E+03  0.12699999809E+01 0.  1.
       -4    1    3    3    0  502  0.23759070250E+03  0.78575345036E+03  0.97525224078E+03  0.12747456110E+04  0.12699999809E+01 0. -1.
</event>
<event>
 5   0  0.5954140E-05  0.2097828E+04  0.7818609E-02  0.8562201E-01
       -2   -1    0    0    0  501  0.00000000000E+00  0.00000000000E+00  0.11862847030E+04  0.11862847030E+04  0.25500000920E-02 0. -1.
        2   -1    0    0  501    0  0.00000000000E+00  0.00000000000E+00 -0.92745060886E+03  0.92745060887E+03  0.25500000920E-02 0.  1.
    10030    2    1    2    0    0  0.00000000000E+00  0.00000000000E+00  0.25883409416E+03  0.21137353119E+04  0.20978278958E+04 0.  0.
        2    1    3    3  502    0 -0.29109463387E+03  0.31550704824E+03  0.10937215286E+04  0.11749500268E+04  0.25500000920E-02 0. -1.
       -2    1    3    3    0  502  0.29109463387E+03 -0.31550704824E+03 -0.83488743443E+03  0.93878528510E+03  0.25500000920E-02 0.  1.
</event>
<event>
 5   0  0.2604390E-05  0.2107392E+04  0.7818609E-02  0.8557994E-01
       -1   -1    0    0    0  501  0.00000000000E+00  0.00000000000E+00  0.71357371999E+03  0.71357372000E+03  0.50400001928E-02 0. -1.
        1   -1    0    0  501    0  0.00000000000E+00  0.00000000000E+00 -0.15559366159E+04  0.15559366159E+04  0.50400001928E-02 0.  1.
    10030    2    1    2    0    0  0.00000000000E+00  0.00000000000E+00 -0.84236289590E+03  0.22695103359E+04  0.21073922075E+04 0.  0.
        5    1    3    3  502    0  0.86370736663E+03  0.57517799737E+03 -0.61809520672E+03  0.12078426712E+04  0.46999998093E+01 0.  1.
       -5    1    3    3    0  502 -0.86370736663E+03 -0.57517799737E+03 -0.22426768918E+03  0.10616676647E+04  0.46999998093E+01 0. -1.
</event>
<event>
 5   0  0.2604390E-05  0.2105326E+04  0.7818609E-02  0.8558901E-01
        1   -1    0    0  501    0  0.00000000000E+00  0.00000000000E+00  0.13441507151E+04  0.13441507151E+04  0.50400001928E-02 0.  1.
       -1   -1    0    0    0  501  0.00000000000E+00  0.00000000000E+00 -0.82438646616E+03  0.82438646618E+03  0.50400001928E-02 0. -1.
    10030    2    1    2    0    0  0.00000000000E+00  0.00000000000E+00  0.51976424893E+03  0.21685371813E+04  0.21053262531E+04 0.  0.
        5    1    3    3  502    0 -0.61237107472E+03  0.40441575324E+03 -0.51744652871E+03  0.89795514069E+03  0.46999998093E+01 0. -1.
       -5    1    3    3    0  502  0.61237107472E+03 -0.40441575324E+03  0.10372107776E+04  0.12705820406E+04  0.46999998093E+01 0.  1.
</event>
<event>
 5   0  0.2732159E-05  0.2089194E+04  0.7818609E-02  0.8566018E-01
        1   -1    0    0  501    0  0.00000000000E+00  0.00000000000E+00  0.24333250969E+04  0.24333250969E+04  0.50400001928E-02 0.  1.
       -1   -1    0    0    0  501  0.00000000000E+00  0.00000000000E+00 -0.44843286593E+03  0.44843286596E+03  0.50400001928E-02 0. -1.
    10030    2    1    2    0    0  0.00000000000E+00  0.00000000000E+00  0.19848922310E+04  0.28817579629E+04  0.20891940523E+04 0.  0.
        3    1    3    3  502    0  0.10362899009E+04 -0.94436521604E+02  0.86626698787E+03  0.13539695417E+04  0.10100000352E+00 0.  1.
       -3    1    3    3    0  502 -0.10362899009E+04  0.94436521604E+02  0.11186252431E+04  0.15277884212E+04  0.10100000352E+00 0. -1.
</event>
<event>
 5   0  0.2699285E-05  0.2106170E+04  0.7818609E-02  0.8558530E-01
        1   -1    0    0  501    0  0.00000000000E+00  0.00000000000E+00  0.97437037038E+03  0.97437037039E+03  0.50400001928E-02 0. -1.
       -1   -1    0    0    0  501  0.00000000000E+00  0.00000000000E+00 -0.11381586633E+04  0.11381586633E+04  0.50400001928E-02 0.  1.
    10030    2    1    2    0    0  0.00000000000E+00  0.00000000000E+00 -0.16378829290E+03  0.21125290337E+04  0.21061700580E+04 0.  0.
        2    1    3    3  502    0  0.18882383116E+03 -0.22011380390E+03 -0.10973160184E+04  0.11349920573E+04  0.25500000920E-02 0.  1.
       -2    1    3    3    0  502 -0.18882383116E+03  0.22011380390E+03  0.93352772551E+03  0.97753697637E+03  0.25500000920E-02 0. -1.
</event>
<event>
 5   0  0.5866610E-05  0.2110479E+04  0.7818609E-02  0.8556641E-01
       -2   -1    0    0    0  501  0.00000000000E+00  0.00000000000E+00  0.64739179554E+03  0.64739179554E+03  0.25500000920E-02 0.  1.
        2   -1    0    0  501    0  0.00000000000E+00  0.00000000000E+00 -0.17200259108E+04  0.17200259108E+04  0.25500000920E-02 0. -1.
    10030    2    1    2    0    0  0.00000000000E+00  0.00000000000E+00 -0.10726341153E+04  0.23674177064E+04  0.21104792468E+04 0.  0.
        5    1    3    3  502    0 -0.91480688578E+03  0.21176084734E+02 -0.11258344297E+04  0.14508085049E+04  0.46999998093E+01 0. -1.
       -5    1    3    3    0  502  0.91480688578E+03 -0.21176084734E+02  0.53200314365E+02  0.91660920150E+03  0.46999998093E+01 0.  1.
</event>
<event>
 5   0  0.2789662E-05  0.2089818E+04  0.7818609E-02  0.8565742E-01
       -1   -1    0    0    0  501  0.00000000000E+00  0.00000000000E+00  0.71729513518E+03  0.71729513519E+03  0.50400001928E-02 0. -1.
        1   -1    0    0  501    0  0.00000000000E+00  0.00000000000E+00 -0.15221554820E+04  0.15221554820E+04  0.50400001928E-02 0.  1.
    10030    2    1    2    0    0  0.00000000000E+00  0.00000000000E+00 -0.80486034681E+03  0.22394506172E+04  0.20898179081E+04 0.  0.
        4    1    3    3  502    0 -0.50486992037E+03 -0.29564588991E+02 -0.13822656757E+04  0.14718789735E+04  0.12699999809E+01 0.  1.
       -4    1    3    3    0  502  0.50486992037E+03  0.29564588991E+02  0.57740532893E+03  0.76757164369E+03  0.12699999809E+01 0. -1.
</event>
<event>
 5   0  0.2604390E-05  0.2095477E+04  0.7818609E-02  0.8563238E-01
       -1   -1    0    0    0  501  0.00000000000E+00  0.00000000000E+00  0.88067912722E+03  0.88067912723E+03  0.50400001928E-02 0. -1.
        1   -1    0    0  501    0  0.00000000000E+00  0.00000000000E+00 -0.12464883274E+04  0.12464883274E+04  0.50400001928E-02 0.  1.
    10030    2    1    2    0    0  0.00000000000E+00  0.00000000000E+00 -0.36580920015E+03  0.21271674546E+04  0.20954772748E+04 0.  0.
        5    1    3    3  502    0  0.38863368206E+03 -0.83996746957E+03 -0.68140414353E+03  0.11493107437E+04  0.46999998093E+01 0.  1.
       -5    1    3    3    0  502 -0.38863368206E+03  0.83996746957E+03  0.31559494338E+03  0.97785671090E+03  0.46999998093E+01 0. -1.
</event>
<event>
 5   0  0.5954140E-05  0.2105630E+04  0.7818609E-02  0.8558767E-01
       -2   -1    0    0    0  501  0.00000000000E+00  0.00000000000E+00  0.12100156807E+04  0.12100156807E+04  0.25500000920E-02 0. -1.
        2   -1    0    0  501    0  0.00000000000E+00  0.00000000000E+00 -0.91603734988E+03  0.91603734988E+03  0.25500000920E-02 0.  1.
    10030    2    1    2    0    0  0.00000000000E+00  0.00000000000E+00  0.29397833080E+03  0.21260530306E+04  0.21056301265E+04 0.  0.
        2    1    3    3  502    0 -0.80844405221E+03 -0.63524432940E+03  0.37568639688E+03  0.10946494473E+04  0.25500000920E-02 0. -1.
       -2    1    3    3    0  502  0.80844405221E+03  0.63524432940E+03 -0.81708066073E+02  0.10314035833E+04  0.25500000920E-02 0.  1.
</event>
<event>
 5   0  0.2699285E-05  0.2106787E+04  0.7818609E-02  0.8558259E-01
        1   -1    0    0  501    0  0.00000000000E+00  0.00000000000E+00  0.88737465647E+03  0.88737465648E+03  0.50400001928E-02 0.  1.
       -1   -1    0    0    0  501  0.00000000000E+00  0.00000000000E+00 -0.12504732711E+04  0.12504732711E+04  0.50400001928E-02 0. -1.
    10030    2    1    2    0    0  0.00000000000E+00  0.00000000000E+00 -0.36309861464E+03  0.21378479276E+04  0.21067874021E+04 0.  0.
        2    1    3    3  502    0  0.20262211696E+03 -0.73142584480E+03 -0.92279728032E+03  0.11948197811E+04  0.25500000920E-02 0. -1.
       -2    1    3    3    0  502 -0.20262211696E+03  0.73142584480E+03  0.55969866568E+03  0.94302814650E+03  0.25500000920E-02 0.  1.
</event>
<event>
 5   0  0.5866610E-05  0.2139892E+04  0.7818609E-02  0.8543871E-01
       -2   -1    0    0    0  501  0.00000000000E+00  0.00000000000E+00  0.60541299441E+03  0.60541299441E+03  0.25500000920E-02 0. -1.
        2   -1    0    0  501    0  0.00000000000E+00  0.00000000000E+00 -0.18909144777E+04  0.18909144777E+04  0.25500000920E-02 0.  1.
    10030    2    1    2    0    0  0.00000000000E+00  0.00000000000E+00 -0.12855014833E+04  0.24963274721E+04  0.21398917693E+04 0.  0.
        5    1    3    3  502    0  0.78629999488E+03 -0.71169250185E+03 -0.80767960536E+03  0.13330950206E+04  0.46999998093E+01 0.  1.
       -5    1    3    3    0  502 -0.78629999488E+03  0.71169250185E+03 -0.47782187794E+03  0.11632324515E+04  0.46999998093E+01 0. -1.
</event>
<event>
 5   0  0.2602060E-05  0.2106655E+04  0.7818609E-02  0.8558317E-01
        1   -1    0    0  501    0  0.00000000000E+00  0.00000000000E+00  0.23891381053E+04  0.23891381053E+04  0.50400001928E-02 0. -1.
       -1   -1    0    0    0  501  0.00000000000E+00  0.00000000000E+00 -0.46439289562E+03  0.46439289565E+03  0.50400001928E-02 0.  1.
    10030    2    1    2    0    0  0.00000000000E+00  0.00000000000E+00  0.19247452097E+04  0.28535310010E+04  0.21066549436E+04 0.  0.
        1    1    3    3  502    0 -0.45646076157E+02 -0.43241661649E+03 -0.33715294646E+03  0.55021796029E+03  0.50400001928E-02 0.  1.
       -1    1    3    3    0  502  0.45646076157E+02  0.43241661649E+03  0.22618981562E+04  0.23033130407E+04  0.50400001928E-02 0. -1.
</event>
<event>
 5   0  0.5506332E-05  0.2097533E+04  0.7818609E-02  0.8562331E-01
        2   -1    0    0  501    0  0.00000000000E+00  0.00000000000E+00  0.20770934994E+04  0.20770934994E+04  0.25500000920E-02 0.  1.
       -2   -1    0    0    0  501  0.00000000000E+00  0.00000000000E+00 -0.52954331195E+03  0.52954331196E+03  0.25500000920E-02 0. -1.
    10030    2    1    2    0    0  0.00000000000E+00  0.00000000000E+00  0.15475501874E+04  0.26066368113E+04  0.20975328087E+04 0.  0.
        3    1    3    3  502    0  0.12609042211E+03 -0.10409020239E+04  0.74502716415E+03  0.12862508711E+04  0.10100000352E+00 0.  1.
       -3    1    3    3    0  502 -0.12609042211E+03  0.10409020239E+04  0.80252302328E+03  0.13203859402E+04  0.10100000352E+00 0. -1.
</event>
<event>
 5   0  0.5866610E-05  0.2098986E+04  0.7818609E-02  0.8561690E-01
       -2   -1    0    0    0  501  0.00000000000E+00  0.00000000000E+00  0.10862575225E+04  0.10862575225E+04  0.25500000920E-02 0.  1.
        2   -1    0    0  501    0  0.00000000000E+00  0.00000000000E+00 -0.10139728602E+04  0.10139728602E+04  0.25500000920E-02 0. -1.
    10030    2    1    2    0    0  0.00000000000E+00  0.00000000000E+00  0.72284662295E+02  0.21002303827E+04  0.20989860857E+04 0.  0.
        5    1    3    3  502    0  0.48880268641E+03 -0.56389444890E+03  0.77448798956E+03  0.10755271971E+04  0.46999998093E+01 0.  1.
       -5    1    3    3    0  502 -0.48880268641E+03  0.56389444890E+03 -0.70220332727E+03  0.10247031856E+04  0.46999998093E+01 0. -1.
</event>
<event>
 5   0  0.2602060E-05  0.2095774E+04  0.7818609E-02  0.8563107E-01
        1   -1    0    0  501    0  0.00000000000E+00  0.00000000000E+00  0.82717852535E+03  0.82717852536E+03  0.50400001928E-02 0.  1.
       -1   -1    0    0    0  501  0.00000000000E+00  0.00000000000E+00 -0.13274849235E+04  0.13274849235E+04  0.50400001928E-02 0. -1.
    10030    2    1    2    0    0  0.00000000000E+00  0.00000000000E+00 -0.50030639816E+03  0.21546634489E+04  0.20957738633E+04 0.  0.
        1    1    3    3  502    0 -0.86523517256E+03 -0.12244155040E+02  0.35745708446E+03  0.93624643680E+03  0.50400001928E-02 0.  1.
       -1    1    3    3    0  502  0.86523517256E+03  0.12244155040E+02 -0.85776348262E+03  0.12184170121E+04  0.50400001928E-02 0. -1.
</event>
<event>
 5   0  0.5954140E-05  0.2117602E+04  0.7818609E-02  0.8553529E-01
        2   -1    0    0  501    0  0.00000000000E+00  0.00000000000E+00  0.16337036861E+04  0.16337036861E+04  0.25500000920E-02 0.  1.
       -2   -1    0    0    0  501  0.00000000000E+00  0.00000000000E+00 -0.68620719801E+03  0.68620719802E+03  0.25500000920E-02 0. -1.
    10030    2    1    2    0    0  0.00000000000E+00  0.00000000000E+00  0.94749648808E+03  0.23199108841E+04  0.21176016895E+04 0.  0.
        2    1    3    3  502    0  0.45424606021E+02 -0.55781787348E+03 -0.51091646957E+03  0.75779932284E+03  0.25500000920E-02 0. -1.
       -2    1    3    3    0  502 -0.45424606021E+02  0.55781787348E+03  0.14584129576E+04  0.15621115613E+04  0.25500000920E-02 0.  1.
</event>
<event>
 5   0  0.5866610E-05  0.2112251E+04  0.7818609E-02  0.8555866E-01
       -2   -1    0    0    0  501  0.00000000000E+00  0.00000000000E+00  0.82017966091E+03  0.82017966091E+03  0.25500000920E-02 0.  1.
        2   -1    0    0  501    0  0.00000000000E+00  0.00000000000E+00 -0.13599474104E+04  0.13599474104E+04  0.25500000920E-02 0. -1.
    10030    2    1    2    0    0  0.00000000000E+00  0.00000000000E+00 -0.53976774951E+03  0.21801270713E+04  0.21122511271E+04 0.  0.
        5    1    3    3  502    0 -0.24487576469E+03 -0.30593539839E+03  0.74235455674E+03  0.83944802462E+03  0.46999998093E+01 0.  1.
       -5    1    3    3    0  502  0.24487576469E+03  0.30593539839E+03 -0.12821223063E+04  0.13406790467E+04  0.46999998093E+01 0. -1.
</event>
<event>
 5   0  0.2699285E-05  0.2092763E+04  0.7818609E-02  0.8564438E-01
        1   -1    0    0  501    0  0.00000000000E+00  0.00000000000E+00  0.69216578731E+03  0.69216578733E+03  0.50400001928E-02 0.  1.
       -1   -1    0    0    0  501  0.00000000000E+00  0.00000000000E+00 -0.15818662865E+04  0.15818662865E+04  0.50400001928E-02 0. -1.
    10030    2    1    2    0    0  0.00000000000E+00  0.00000000000E+00 -0.88970049915E+03  0.22740320738E+04  0.20927625031E+04 0.  0.
        2    1    3    3  502    0 -0.19890100585E+03  0.66771396659E+03 -0.12931847308E+04  0.14689214749E+04  0.25500000920E-02 0. -1.
       -2    1    3    3    0  502  0.19890100585E+03 -0.66771396659E+03  0.40348423166E+03  0.80511059893E+03  0.25500000920E-02 0.  1.
</event>
<event>
 5   0  0.5866610E-05  0.2112641E+04  0.7818609E-02  0.8555695E-01
        2   -1    0    0  501    0  0.00000000000E+00  0.00000000000E+00  0.63585365960E+03  0.63585365961E+03  0.25500000920E-02 0.  1.
       -2   -1    0    0    0  501  0.00000000000E+00  0.00000000000E+00 -0.17548269142E+04  0.17548269142E+04  0.25500000920E-02 0. -1.
    10030    2    1    2    0    0  0.00000000000E+00  0.00000000000E+00 -0.11189732546E+04  0.23906805738E+04  0.21126411104E+04 0.  0.
        5    1    3    3  502    0 -0.69054534634E+03 -0.42027305730E+03  0.20993052317E+03  0.83520969379E+03  0.46999998093E+01 0.  1.
       -5    1    3    3    0  502  0.69054534634E+03  0.42027305730E+03 -0.13289037778E+04  0.15554708801E+04  0.46999998093E+01 0. -1.
</event>
<event>
 5   0  0.2789662E-05  0.2215839E+04  0.7818609E-02  0.8511864E-01
        1   -1    0    0  501    0  0.00000000000E+00  0.00000000000E+00  0.18097777819E+04  0.18097777819E+04  0.50400001928E-02 0.  1.
       -1   -1    0    0    0  501  0.00000000000E+00  0.00000000000E+00 -0.67825212518E+03  0.67825212520E+03  0.50400001928E-02 0. -1.
    10030    2    1    2    0    0  0.00000000000E+00  0.00000000000E+00  0.11315256567E+04  0.24880299071E+04  0.22158390074E+04 0.  0.
        4    1    3    3  502    0  0.70276535279E+03  0.84665785553E+02  0.15227723194E+04  0.16792511980E+04  0.12699999809E+01 0.  1.
       -4    1    3    3    0  502 -0.70276535279E+03 -0.84665785553E+02 -0.39124666269E+03  0.80877870910E+03  0.12699999809E+01 0. -1.
</event>
<event>
 5   0  0.2604390E-05  0.2097324E+04  0.7818609E-02  0.8562423E-01
       -1   -1    0    0    0  501  0.00000000000E+00  0.00000000000E+00  0.13704926604E+04  0.13704926604E+04  0.50400001928E-02 0. -1.
        1   -1    0    0  501    0  0.00000000000E+00  0.00000000000E+00 -0.80240615284E+03  0.80240615286E+03  0.50400001928E-02 0.  1.
    10030    2    1    2    0    0  0.00000000000E+00  0.00000000000E+00  0.56808650757E+03  0.21728988133E+04  0.20973237644E+04 0.  0.
        5    1    3    3  502    0  0.51377589820E+03 -0.62175085486E+03  0.97836375191E+03  0.12679737853E+04  0.46999998093E+01 0. -1.
       -5    1    3    3    0  502 -0.51377589820E+03  0.62175085486E+03 -0.41027724433E+03  0.90492502801E+03  0.46999998093E+01 0.  1.
</event>
<event>
 5   0  0.2604390E-05  0.2021518E+04  0.7818609E-02  0.8596626E-01
       -1   -1    0    0    0  501  0.00000000000E+00  0.00000000000E+00  0.61207135548E+03  0.61207135550E+03  0.50400001928E-02 0. -1.
        1   -1    0    0  501    0  0.00000000000E+00  0.00000000000E+00 -0.16691412154E+04  0.16691412154E+04  0.50400001928E-02 0.  1.
    10030    2    1    2    0    0  0.00000000000E+00  0.00000000000E+00 -0.10570698599E+04  0.22812125709E+04  0.20215177726E+04 0.  0.
        5    1    3    3  502    0 -0.87093555043E+03  0.49096455589E+03 -0.36101766218E+03  0.10629820180E+04  0.46999998093E+01 0. -1.
       -5    1    3    3    0  502  0.87093555043E+03 -0.49096455589E+03 -0.69605219775E+03  0.12182305529E+04  0.46999998093E+01 0.  1.
</event>
<event>
 5   0  0.2017750E-05  0.2080138E+04  0.7818609E-02  0.8570044E-01
        3   -1    0    0  501    0  0.00000000000E+00  0.00000000000E+00  0.75170845992E+03  0.75170846671E+03  0.10100000352E+00 0.  1.
       -3   -1    0    0    0  501  0.00000000000E+00  0.00000000000E+00 -0.14390459612E+04  0.14390459647E+04  0.10100000352E+00 0. -1.
    10030    2    1    2    0    0  0.00000000000E+00  0.00000000000E+00 -0.68733750125E+03  0.21907544314E+04  0.20801375287E+04 0.  0.
        5    1    3    3  502    0  0.64738196844E+03 -0.36342947825E+03 -0.11107816792E+04  0.13360547996E+04  0.46999998093E+01 0. -1.
       -5    1    3    3    0  502 -0.64738196844E+03  0.36342947825E+03  0.42344417797E+03  0.85469963179E+03  0.46999998093E+01 0.  1.
</event>
<event>
 5   0  0.5506332E-05  0.2110694E+04  0.7818609E-02  0.8556547E-01
        2   -1    0    0  501    0  0.00000000000E+00  0.00000000000E+00  0.19572953638E+04  0.19572953638E+04  0.25500000920E-02 0.  1.
       -2   -1    0    0    0  501  0.00000000000E+00  0.00000000000E+00 -0.56902865406E+03  0.56902865406E+03  0.25500000920E-02 0. -1.
    10030    2    1    2    0    0  0.00000000000E+00  0.00000000000E+00  0.13882667097E+04  0.25263240179E+04  0.21106938636E+04 0.  0.
        3    1    3    3  502    0  0.93177186487E+03 -0.51599114687E+02  0.10423951732E+03  0.93900328220E+03  0.10100000352E+00 0. -1.
       -3    1    3    3    0  502 -0.93177186487E+03  0.51599114687E+02  0.12840271924E+04  0.15873207357E+04  0.10100000352E+00 0.  1.
</event>
<event>
 5   0  0.2604390E-05  0.2099145E+04  0.7818609E-02  0.8561620E-01
        1   -1    0    0  501    0  0.00000000000E+00  0.00000000000E+00  0.12657285322E+04  0.12657285322E+04  0.50400001928E-02 0. -1.
       -1   -1    0    0    0  501  0.00000000000E+00  0.00000000000E+00 -0.87033042367E+03  0.87033042368E+03  0.50400001928E-02 0.  1.
    10030    2    1    2    0    0  0.00000000000E+00  0.00000000000E+00  0.39539810850E+03  0.21360589559E+04  0.20991446350E+04 0.  0.
        5    1    3    3  502    0  0.68371716022E+02  0.54647766444E+03 -0.71147090424E+03  0.89973633185E+03  0.46999998093E+01 0.  1.
       -5    1    3    3    0  502 -0.68371716022E+02 -0.54647766444E+03  0.11068690127E+04  0.12363226240E+04  0.46999998093E+01 0. -1.
</event>
<event>
 5   0  0.2604390E-05  0.2080384E+04  0.7818609E-02  0.8569934E-01
        1   -1    0    0  501    0  0.00000000000E+00  0.00000000000E+00  0.95683904234E+03  0.95683904235E+03  0.50400001928E-02 0. -1.
       -1   -1    0    0    0  501  0.00000000000E+00  0.00000000000E+00 -0.11308062819E+04  0.11308062819E+04  0.50400001928E-02 0.  1.
    10030    2    1    2    0    0  0.00000000000E+00  0.00000000000E+00 -0.17396723957E+03  0.20876453243E+04  0.20803841952E+04 0.  0.
        5    1    3    3  502    0 -0.42098939249E+03 -0.86659631721E+03  0.30650264813E+03  0.10110327437E+04  0.46999998093E+01 0. -1.
       -5    1    3    3    0  502  0.42098939249E+03  0.86659631721E+03 -0.48046988769E+03  0.10766125805E+04  0.46999998093E+01 0.  1.
</event>
<event>
 5   0  0.5506332E-05  0.2102727E+04  0.7818609E-02  0.8560043E-01
        2   -1    0    0  501    0  0.00000000000E+00  0.00000000000E+00  0.75431176625E+03  0.75431176625E+03  0.25500000920E-02 0.  1.
       -2   -1    0    0    0  501  0.00000000000E+00  0.00000000000E+00 -0.14653961919E+04  0.14653961919E+04  0.25500000920E-02 0. -1.
    10030    2    1    2    0    0  0.00000000000E+00  0.00000000000E+00 -0.71108442561E+03  0.22197079581E+04  0.21027273620E+04 0.  0.
        3    1    3    3  502    0 -0.95285267014E+03  0.38458212491E+03 -0.12059819700E+03  0.10345895597E+04  0.10100000352E+00 0.  1.
       -3    1    3    3    0  502  0.95285267014E+03 -0.38458212491E+03 -0.59048622861E+03  0.11851183984E+04  0.10100000352E+00 0. -1.
</event>
<event>
 5   0  0.5462851E-05  0.2066295E+04  0.7818609E-02  0.8576238E-01
        2   -1    0    0  501    0  0.00000000000E+00  0.00000000000E+00  0.14432718754E+04  0.14432718754E+04  0.25500000920E-02 0.  1.
       -2   -1    0    0    0  501  0.00000000000E+00  0.00000000000E+00 -0.73956506389E+03  0.73956506390E+03  0.25500000920E-02 0. -1.
    10030    2    1    2    0    0  0.00000000000E+00  0.00000000000E+00  0.70370681153E+03  0.21828369393E+04  0.20662947096E+04 0.  0.
        1    1    3    3  502    0  0.31898302043E+03 -0.90131525347E+03 -0.61730302449E+02  0.95808662642E+03  0.50400001928E-02 0. -1.
       -1    1    3    3    0  502 -0.31898302043E+03  0.90131525347E+03  0.76543711398E+03  0.12247503129E+04  0.50400001928E-02 0.  1.
</event>
<event>
 5   0  0.5967046E-05  0.2227308E+04  0.7818609E-02  0.8507147E-01
       -2   -1    0    0    0  501  0.00000000000E+00  0.00000000000E+00  0.41042168908E+03  0.41042168909E+03  0.25500000920E-02 0.  1.
        2   -1    0    0  501    0  0.00000000000E+00  0.00000000000E+00 -0.30218315284E+04  0.30218315284E+04  0.25500000920E-02 0. -1.
    10030    2    1    2    0    0  0.00000000000E+00  0.00000000000E+00 -0.26114098393E+04  0.34322532175E+04  0.22273079716E+04 0.  0.
        4    1    3    3  502    0  0.40992674434E+03 -0.10345298490E+04 -0.12379778211E+04  0.16645968409E+04  0.12699999809E+01 0.  1.
       -4    1    3    3    0  502 -0.40992674434E+03  0.10345298490E+04 -0.13734320183E+04  0.17676563767E+04  0.12699999809E+01 0. -1.
</event>
<event>
 5   0  0.2699285E-05  0.2101396E+04  0.7818609E-02  0.8560629E-01
       -1   -1    0    0    0  501  0.00000000000E+00  0.00000000000E+00  0.76751718369E+03  0.76751718371E+03  0.50400001928E-02 0.  1.
        1   -1    0    0  501    0  0.00000000000E+00  0.00000000000E+00 -0.14383603248E+04  0.14383603248E+04  0.50400001928E-02 0. -1.
    10030    2    1    2    0    0  0.00000000000E+00  0.00000000000E+00 -0.67084314111E+03  0.22058775085E+04  0.21013959795E+04 0.  0.
        2    1    3    3  502    0 -0.90688506614E+03 -0.30313639357E+03 -0.79254310188E+03  0.12419568288E+04  0.25500000920E-02 0. -1.
       -2    1    3    3    0  502  0.90688506614E+03  0.30313639357E+03  0.12169996077E+03  0.96392067970E+03  0.25500000920E-02 0.  1.
</event>
<event>
 5   0  0.5866610E-05  0.2115913E+04  0.7818609E-02  0.8554266E-01
        2   -1    0    0  501    0  0.00000000000E+00  0.00000000000E+00  0.13317078660E+04  0.13317078660E+04  0.25500000920E-02 0.  1.
       -2   -1    0    0    0  501  0.00000000000E+00  0.00000000000E+00 -0.84047825720E+03  0.84047825721E+03  0.25500000920E-02 0. -1.
    10030    2    1    2    0    0  0.00000000000E+00  0.00000000000E+00  0.49122960878E+03  0.21721861232E+04  0.21159125750E+04 0.  0.
        5    1    3    3  502    0 -0.98240012009E+03  0.37341164479E+03  0.12113333265E+03  0.10579421660E+04  0.46999998093E+01 0.  1.
       -5    1    3    3    0  502  0.98240012009E+03 -0.37341164479E+03  0.37009627613E+03  0.11142439571E+04  0.46999998093E+01 0. -1.
</event>
<event>
 5   0  0.2789662E-05  0.2128071E+04  0.7818609E-02  0.8548978E-01
        1   -1    0    0  501    0  0.00000000000E+00  0.00000000000E+00  0.73022610010E+03  0.73022610012E+03  0.50400001928E-02 0.  1.
       -1   -1    0    0    0  501  0.00000000000E+00  0.00000000000E+00 -0.15504403702E+04  0.15504403702E+04  0.50400001928E-02 0. -1.
    10030    2    1    2    0    0  0.00000000000E+00  0.00000000000E+00 -0.82021427012E+03  0.22806664703E+04  0.21280714509E+04 0.  0.
        4    1    3    3  502    0 -0.87145119255E+03  0.47995088240E+03 -0.81451156027E+03  0.12857724236E+04  0.12699999809E+01 0. -1.
       -4    1    3    3    0  502  0.87145119255E+03 -0.47995088240E+03 -0.57027098440E+01  0.99489404677E+03  0.12699999809E+01 0.  1.
</event>
<event>
 5   0  0.5462851E-05  0.2098882E+04  0.7818609E-02  0.8561736E-01
        2   -1    0    0  501    0  0.00000000000E+00  0.00000000000E+00  0.15134375655E+04  0.15134375655E+04  0.25500000920E-02 0. -1.
       -2   -1    0    0    0  501  0.00000000000E+00  0.00000000000E+00 -0.72769838684E+03  0.72769838684E+03  0.25500000920E-02 0.  1.
    10030    2    1    2    0    0  0.00000000000E+00  0.00000000000E+00  0.78573917863E+03  0.22411359523E+04  0.20988816784E+04 0.  0.
        1    1    3    3  502    0 -0.85212358984E+03  0.33665816475E+03  0.93928808899E+03  0.13121415497E+04  0.50400001928E-02 0. -1.
       -1    1    3    3    0  502  0.85212358984E+03 -0.33665816475E+03 -0.15354891035E+03  0.92899440264E+03  0.50400001928E-02 0.  1.
</event>
<event>
 5   0  0.5866610E-05  0.2279340E+04  0.7818609E-02  0.8486112E-01
        2   -1    0    0  501    0  0.00000000000E+00  0.00000000000E+00  0.76074357605E+03  0.76074357606E+03  0.25500000920E-02 0.  1.
       -2   -1    0    0    0  501  0.00000000000E+00  0.00000000000E+00 -0.17073403205E+04  0.17073403205E+04  0.25500000920E-02 0. -1.
    10030    2    1    2    0    0  0.00000000000E+00  0.00000000000E+00 -0.94659674446E+03  0.24680838966E+04  0.22793404142E+04 0.  0.
        5    1    3    3  502    0 -0.10621488240E+04  0.21566787573E+03 -0.91767293132E+02  0.10877113969E+04  0.46999998093E+01 0.  1.
       -5    1    3    3    0  502  0.10621488240E+04 -0.21566787573E+03 -0.85482945133E+03  0.13803724996E+04  0.46999998093E+01 0. -1.
</event>
<event>
 5   0  0.5954140E-05  0.2110629E+04  0.7818609E-02  0.8556576E-01
        2   -1    0    0  501    0  0.00000000000E+00  0.00000000000E+00  0.86059981416E+03  0.86059981417E+03  0.25500000920E-02 0.  1.
       -2   -1    0    0    0  501  0.00000000000E+00  0.00000000000E+00 -0.12940840726E+04  0.12940840726E+04  0.25500000920E-02 0. -1.
    10030    2    1    2    0    0  0.00000000000E+00  0.00000000000E+00 -0.43348425840E+03  0.21546838867E+04  0.21106288280E+04 0.  0.
        2    1    3    3  502    0  0.44003964414E+03  0.35596463278E+03  0.69254729880E+03  0.89440900559E+03  0.25500000920E-02 0.  1.
       -2    1    3    3    0  502 -0.44003964414E+03 -0.35596463278E+03 -0.11260315572E+04  0.12602748811E+04  0.25500000920E-02 0. -1.
</event>
<event>
 5   0  0.2602060E-05  0.2099252E+04  0.7818609E-02  0.8561573E-01
       -1   -1    0    0    0  501  0.00000000000E+00  0.00000000000E+00  0.16692786001E+04  0.16692786001E+04  0.50400001928E-02 0. -1.
        1   -1    0    0  501    0  0.00000000000E+00  0.00000000000E+00 -0.65999472477E+03  0.65999472479E+03  0.50400001928E-02 0.  1.
    10030    2    1    2    0    0  0.00000000000E+00  0.00000000000E+00  0.10092838753E+04  0.23292733249E+04  0.20992523148E+04 0.  0.
        1    1    3    3  502    0  0.27154193366E+03 -0.92988387144E+03  0.56264623563E+02  0.97035289663E+03  0.50400001928E-02 0.  1.
       -1    1    3    3    0  502 -0.27154193366E+03  0.92988387144E+03  0.95301925177E+03  0.13589204283E+04  0.50400001928E-02 0. -1.
</event>
<event>
 5   0  0.2789662E-05  0.2098296E+04  0.7818609E-02  0.8561994E-01
       -1   -1    0    0    0  501  0.00000000000E+00  0.00000000000E+00  0.12518438749E+04  0.12518438749E+04  0.50400001928E-02 0.  1.
        1   -1    0    0  501    0  0.00000000000E+00  0.00000000000E+00 -0.87927208312E+03  0.87927208314E+03  0.50400001928E-02 0. -1.
    10030    2    1    2    0    0  0.00000000000E+00  0.00000000000E+00  0.37257179179E+03  0.21311159581E+04  0.20982958530E+04 0.  0.
        4    1    3    3  502    0 -0.54073817118E+03  0.60646301712E+03 -0.48780818113E+03  0.94770965775E+03  0.12699999809E+01 0. -1.
       -4    1    3    3    0  502  0.54073817118E+03 -0.60646301712E+03  0.86037997292E+03  0.11834063003E+04  0.12699999809E+01 0.  1.
</event>
<event>
 5   0  0.5954140E-05  0.2089387E+04  0.7818609E-02  0.8565933E-01
       -2   -1    0    0    0  501  0.00000000000E+00  0.00000000000E+00  0.99649541862E+03  0.99649541862E+03  0.25500000920E-02 0.  1.
        2   -1    0    0  501    0  0.00000000000E+00  0.00000000000E+00 -0.10952223744E+04  0.10952223744E+04  0.25500000920E-02 0. -1.
    10030    2    1    2    0    0  0.00000000000E+00  0.00000000000E+00 -0.98726955818E+02  0.20917177931E+04  0.20893865880E+04 0.  0.
        2    1    3    3  502    0  0.96642062152E+03 -0.14094632995E+03  0.32192684230E+03  0.10283343704E+04  0.25500000920E-02 0.  1.
       -2    1    3    3    0  502 -0.96642062152E+03  0.14094632995E+03 -0.42065379812E+03  0.10633834226E+04  0.25500000920E-02 0. -1.
</event>
<event>
 5   0  0.5866610E-05  0.2124230E+04  0.7818609E-02  0.8550645E-01
       -2   -1    0    0    0  501  0.00000000000E+00  0.00000000000E+00  0.49976130011E+03  0.49976130012E+03  0.25500000920E-02 0. -1.
        2   -1    0    0  501    0  0.00000000000E+00  0.00000000000E+00 -0.22572532767E+04  0.22572532767E+04  0.25500000920E-02 0.  1.
    10030    2    1    2    0    0  0.00000000000E+00  0.00000000000E+00 -0.17574919766E+04  0.27570145768E+04  0.21242295848E+04 0.  0.
        5    1    3    3  502    0 -0.50637358050E+03 -0.46056900230E+03 -0.19327788240E+04  0.20504131490E+04  0.46999998093E+01 0.  1.
       -5    1    3    3    0  502  0.50637358050E+03  0.46056900230E+03  0.17528684746E+03  0.70660142782E+03  0.46999998093E+01 0. -1.
</event>
<event>
 5   0  0.2602060E-05  0.2098245E+04  0.7818609E-02  0.8562017E-01
        1   -1    0    0  501    0  0.00000000000E+00  0.00000000000E+00  0.11392255993E+04  0.11392255993E+04  0.50400001928E-02 0.  1.
       -1   -1    0    0    0  501  0.00000000000E+00  0.00000000000E+00 -0.96614561178E+03  0.96614561180E+03  0.50400001928E-02 0. -1.
    10030    2    1    2    0    0  0.00000000000E+00  0.00000000000E+00  0.17307998752E+03  0.21053712111E+04  0.20982448033E+04 0.  0.
        1    1    3    3  502    0  0.97438031578E+03  0.38799094355E+03  0.59919875969E+02  0.10504971983E+04  0.50400001928E-02 0. -1.
       -1    1    3    3    0  502 -0.97438031578E+03 -0.38799094355E+03  0.11316011155E+03  0.10548740128E+04  0.50400001928E-02 0.  1.
</event>
<event>
 5   0  0.2699285E-05  0.2103157E+04  0.7818609E-02  0.8559854E-01
        1   -1    0    0  501    0  0.00000000000E+00  0.00000000000E+00  0.75348736291E+03  0.75348736293E+03  0.50400001928E-02 0.  1.
       -1   -1    0    0    0  501  0.00000000000E+00  0.00000000000E+00 -0.14675994270E+04  0.14675994271E+04  0.50400001928E-02 0. -1.
    10030    2    1    2    0    0  0.00000000000E+00  0.00000000000E+00 -0.71411206414E+03  0.22210867900E+04  0.21031572667E+04 0.  0.
        2    1    3    3  502    0  0.81730559090E+03 -0.58876657443E+03 -0.38158623457E+02  0.10080131887E+04  0.25500000920E-02 0.  1.
       -2    1    3    3    0  502 -0.81730559090E+03  0.58876657443E+03 -0.67595344068E+03  0.12130736013E+04  0.25500000920E-02 0. -1.
</event>
<event>
 5   0  0.5967046E-05  0.2102528E+04  0.7818609E-02  0.8560131E-01
       -2   -1    0    0    0  501  0.00000000000E+00  0.00000000000E+00  0.38216807410E+03  0.38216807411E+03  0.25500000920E-02 0. -1.
        2   -1    0    0  501    0  0.00000000000E+00  0.00000000000E+00 -0.28918051711E+04  0.28918051711E+04  0.25500000920E-02 0.  1.
    10030    2    1    2    0    0  0.00000000000E+00  0.00000000000E+00 -0.25096370970E+04  0.32739732452E+04  0.21025276340E+04 0.  0.
        4    1    3    3  502    0  0.22052272500E+03  0.54080881194E+03 -0.26159315347E+04  0.26803365182E+04  0.12699999809E+01 0.  1.
       -4    1    3    3    0  502 -0.22052272500E+03 -0.54080881194E+03  0.10629443773E+03  0.59363672705E+03  0.12699999809E+01 0. -1.
</event>
<event>
 5   0  0.2017750E-05  0.2101030E+04  0.7818609E-02  0.8560790E-01
       -3   -1    0    0    0  501  0.00000000000E+00  0.00000000000E+00  0.68725078055E+03  0.68725078797E+03  0.10100000352E+00 0. -1.
        3   -1    0    0  501    0  0.00000000000E+00  0.00000000000E+00 -0.16057914473E+04  0.16057914505E+04  0.10100000352E+00 0.  1.
    10030    2    1    2    0    0  0.00000000000E+00  0.00000000000E+00 -0.91854066679E+03  0.22930422385E+04  0.21010296883E+04 0.  0.
        4    1    3    3  502    0 -0.94979812919E+03 -0.39813766571E+03 -0.68545341862E+03  0.12371249286E+04  0.12699999809E+01 0.  1.
       -4    1    3    3    0  502  0.94979812919E+03  0.39813766571E+03 -0.23308724817E+03  0.10559173098E+04  0.12699999809E+01 0. -1.
</event>
<event>
 5   0  0.5967046E-05  0.2108703E+04  0.7818609E-02  0.8557419E-01
        2   -1    0    0  501    0  0.00000000000E+00  0.00000000000E+00  0.13563219068E+04  0.13563219068E+04  0.25500000920E-02 0. -1.
       -2   -1    0    0    0  501  0.00000000000E+00  0.00000000000E+00 -0.81961155959E+03  0.81961155959E+03  0.25500000920E-02 0.  1.
    10030    2    1    2    0    0  0.00000000000E+00  0.00000000000E+00  0.53671034722E+03  0.21759334664E+04  0.21087030264E+04 0.  0.
        4    1    3    3  502    0  0.44744349140E+03 -0.76415852614E+03  0.85888727857E+03  0.12336259163E+04  0.12699999809E+01 0. -1.
       -4    1    3    3    0  502 -0.44744349140E+03  0.76415852614E+03 -0.32217693135E+03  0.94230755015E+03  0.12699999809E+01 0.  1.
</event>
<event>
 5   0  0.5967046E-05  0.2091523E+04  0.7818609E-02  0.8564987E-01
        2   -1    0    0  501    0  0.00000000000E+00  0.00000000000E+00  0.19048090444E+04  0.19048090444E+04  0.25500000920E-02 0. -1.
       -2   -1    0    0    0  501  0.00000000000E+00  0.00000000000E+00 -0.57413461465E+03  0.57413461465E+03  0.25500000920E-02 0.  1.
    10030    2    1    2    0    0  0.00000000000E+00  0.00000000000E+00  0.13306744298E+04  0.24789436591E+04  0.20915227053E+04 0.  0.
        4    1    3    3  502    0  0.14658163880E+03 -0.60144255848E+03  0.16643114456E+04  0.17757121188E+04  0.12699999809E+01 0. -1.
       -4    1    3    3    0  502 -0.14658163880E+03  0.60144255848E+03 -0.33363701585E+03  0.70323154027E+03  0.12699999809E+01 0.  1.
</event>
<event>
 5   0  0.5506332E-05  0.2095450E+04  0.7818609E-02  0.8563250E-01
        2   -1    0    0  501    0  0.00000000000E+00  0.00000000000E+00  0.13818923088E+04  0.13818923088E+04  0.25500000920E-02 0. -1.
       -2   -1    0    0    0  501  0.00000000000E+00  0.00000000000E+00 -0.79436528802E+03  0.79436528802E+03  0.25500000920E-02 0.  1.
    10030    2    1    2    0    0  0.00000000000E+00  0.00000000000E+00  0.58752702080E+03  0.21762575968E+04  0.20954496242E+04 0.  0.
        3    1    3    3  502    0 -0.26499301237E+03 -0.99525755625E+03  0.49344979541E+03  0.11420383578E+04  0.10100000352E+00 0. -1.
       -3    1    3    3    0  502  0.26499301237E+03  0.99525755625E+03  0.94077225389E+02  0.10342192390E+04  0.10100000352E+00 0.  1.
</event>
<event>
 5   0  0.2699285E-05  0.2084458E+04  0.7818609E-02  0.8568121E-01
       -1   -1    0    0    0  501  0.00000000000E+00  0.00000000000E+00  0.27452115333E+04  0.27452115333E+04  0.50400001928E-02 0. -1.
        1   -1    0    0  501    0  0.00000000000E+00  0.00000000000E+00 -0.39568581521E+03  0.39568581525E+03  0.50400001928E-02 0.  1.
    10030    2    1    2    0    0  0.00000000000E+00  0.00000000000E+00  0.23495257180E+04  0.31408973485E+04  0.20844579761E+04 0.  0.
        2    1    3    3  502    0  0.36116030840E+03  0.30170894624E+03 -0.22647694355E+03  0.52226129721E+03  0.25500000920E-02 0.  1.
       -2    1    3    3    0  502 -0.36116030840E+03 -0.30170894624E+03  0.25760026616E+04  0.26186360513E+04  0.25500000920E-02 0. -1.
</event>
<event>
 5   0  0.2602060E-05  0.2088079E+04  0.7818609E-02  0.8566513E-01
        1   -1    0    0  501    0  0.00000000000E+00  0.00000000000E+00  0.11002761041E+04  0.11002761041E+04  0.50400001928E-02 0.  1.
       -1   -1    0    0    0  501  0.00000000000E+00  0.00000000000E+00 -0.99067692311E+03  0.99067692312E+03  0.50400001928E-02 0. -1.
    10030    2    1    2    0    0  0.00000000000E+00  0.00000000000E+00  0.10959918095E+03  0.20909530272E+04  0.20880786818E+04 0.  0.
        1    1    3    3  502    0  0.26301706361E+03 -0.54247452131E+03 -0.79875956810E+03  0.10007364437E+04  0.50400001928E-02 0. -1.
       -1    1    3    3    0  502 -0.26301706361E+03  0.54247452131E+03  0.90835874905E+03  0.10902165835E+04  0.50400001928E-02 0.  1.
</event>
<event>
 5   0  0.2017750E-05  0.2093682E+04  0.7818609E-02  0.8564031E-01
       -3   -1    0    0    0  501  0.00000000000E+00  0.00000000000E+00  0.14961718666E+04  0.14961718700E+04  0.10100000352E+00 0. -1.
        3   -1    0    0  501    0  0.00000000000E+00  0.00000000000E+00 -0.73245361082E+03  0.73245361778E+03  0.10100000352E+00 0.  1.
    10030    2    1    2    0    0  0.00000000000E+00  0.00000000000E+00  0.76371825581E+03  0.22286254878E+04  0.20936823997E+04 0.  0.
        2    1    3    3  502    0  0.74813406729E+03  0.42286325945E+03 -0.25446500885E+03  0.89625351300E+03  0.25500000920E-02 0.  1.
       -2    1    3    3    0  502 -0.74813406729E+03 -0.42286325945E+03  0.10181832647E+04  0.13323719748E+04  0.25500000920E-02 0. -1.
</event>
<event>
 5   0  0.5462851E-05  0.2170832E+04  0.7818609E-02  0.8530667E-01
        2   -1    0    0  501    0  0.00000000000E+00  0.00000000000E+00  0.99018270819E+03  0.99018270820E+03  0.25500000920E-02 0. -1.
       -2   -1    0    0    0  501  0.00000000000E+00  0.00000000000E+00 -0.11898087610E+04  0.11898087610E+04  0.25500000920E-02 0.  1.
    10030    2    1    2    0    0  0.00000000000E+00  0.00000000000E+00 -0.19962605283E+03  0.21799914692E+04  0.21708321549E+04 0.  0.
        1    1    3    3  502    0 -0.90480830361E+03 -0.59815848764E+03 -0.58942183383E+02  0.10862531121E+04  0.50400001928E-02 0. -1.
       -1    1    3    3    0  502  0.90480830361E+03  0.59815848764E+03 -0.14068386945E+03  0.10937383571E+04  0.50400001928E-02 0.  1.
</event>
<event>
 5   0  0.5866610E-05  0.2087815E+04  0.7818609E-02  0.8566630E-01
       -2   -1    0    0    0  501  0.00000000000E+00  0.00000000000E+00  0.90699398583E+03  0.90699398583E+03  0.25500000920E-02 0.  1.
        2   -1    0    0  501    0  0.00000000000E+00  0.00000000000E+00 -0.12014884208E+04  0.12014884208E+04  0.25500000920E-02 0. -1.
    10030    2    1    2    0    0  0.00000000000E+00  0.00000000000E+00 -0.29449443500E+03  0.21084824067E+04  0.20878149073E+04 0.  0.
        5    1    3    3  502    0  0.24926407628E+02  0.10179268603E+04  0.85082838497E+02  0.10217913672E+04  0.46999998093E+01 0.  1.
       -5    1    3    3    0  502 -0.24926407628E+02 -0.10179268603E+04 -0.37957727350E+03  0.10866910395E+04  0.46999998093E+01 0. -1.
</event>
<event>
 5   0  0.5967046E-05  0.2123419E+04  0.7818609E-02  0.8550997E-01
       -2   -1    0    0    0  501  0.00000000000E+00  0.00000000000E+00  0.11198752962E+04  0.11198752962E+04  0.25500000920E-02 0.  1.
        2   -1    0    0  501    0  0.00000000000E+00  0.00000000000E+00 -0.10065647388E+04  0.10065647388E+04  0.25500000920E-02 0. -1.
    10030    2    1    2    0    0  0.00000000000E+00  0.00000000000E+00  0.11331055744E+03  0.21264400350E+04  0.21234189271E+04 0.  0.
        4    1    3    3  502    0 -0.82188701090E+03 -0.48034770905E+03  0.52742324504E+03  0.10883055971E+04  0.12699999809E+01 0. -1.
       -4    1    3    3    0  502  0.82188701090E+03  0.48034770905E+03 -0.41411268759E+03  0.10381344379E+04  0.12699999809E+01 0.  1.
</event>
<event>
 5   0  0.2604390E-05  0.2095636E+04  0.7818609E-02  0.8563168E-01
        1   -1    0    0  501    0  0.00000000000E+00  0.00000000000E+00  0.16688682062E+04  0.16688682062E+04  0.50400001928E-02 0. -1.
       -1   -1    0    0    0  501  0.00000000000E+00  0.00000000000E+00 -0.65788453684E+03  0.65788453686E+03  0.50400001928E-02 0.  1.
    10030    2    1    2    0    0  0.00000000000E+00  0.00000000000E+00  0.10109836694E+04  0.23267527431E+04  0.20956360246E+04 0.  0.
        5    1    3    3  502    0 -0.65962319269E+03 -0.17958711313E+03  0.13871349870E+04  0.15464539598E+04  0.46999998093E+01 0. -1.
       -5    1    3    3    0  502  0.65962319269E+03  0.17958711313E+03 -0.37615131760E+03  0.78029878333E+03  0.46999998093E+01 0.  1.
</event>
<event>
 5   0  0.2732159E-05  0.2057168E+04  0.7818609E-02  0.8580350E-01
        1   -1    0    0  501    0  0.00000000000E+00  0.00000000000E+00  0.11940108958E+04  0.11940108958E+04  0.50400001928E-02 0. -1.
       -1   -1    0    0    0  501  0.00000000000E+00  0.00000000000E+00 -0.88607641601E+03  0.88607641602E+03  0.50400001928E-02 0.  1.
    10030    2    1    2    0    0  0.00000000000E+00  0.00000000000E+00  0.30793447979E+03  0.20800873118E+04  0.20571678544E+04 0.  0.
        3    1    3    3  502    0 -0.37296570891E+03 -0.49919241308E+03  0.98142955446E+03  0.11625405222E+04  0.10100000352E+00 0. -1.
       -3    1    3    3    0  502  0.37296570891E+03  0.49919241308E+03 -0.67349507466E+03  0.91754678959E+03  0.10100000352E+00 0.  1.
</event>
<event>
 5   0  0.2699285E-05  0.2079099E+04  0.7818609E-02  0.8570507E-01
        1   -1    0    0  501    0  0.00000000000E+00  0.00000000000E+00  0.12391088802E+04  0.12391088802E+04  0.50400001928E-02 0. -1.
       -1   -1    0    0    0  501  0.00000000000E+00  0.00000000000E+00 -0.87212890890E+03  0.87212890892E+03  0.50400001928E-02 0.  1.
    10030    2    1    2    0    0  0.00000000000E+00  0.00000000000E+00  0.36697997131E+03  0.21112377891E+04  0.20790985313E+04 0.  0.
        2    1    3    3  502    0 -0.14797104234E+02  0.62306329193E+03  0.10283584978E+04  0.12024757877E+04  0.25500000920E-02 0. -1.
       -2    1    3    3    0  502  0.14797104234E+02 -0.62306329193E+03 -0.66137852645E+03  0.90876200146E+03  0.25500000920E-02 0.  1.
</event>
<event>
 5   0  0.2699285E-05  0.2110745E+04  0.7818609E-02  0.8556525E-01
       -1   -1    0    0    0  501  0.00000000000E+00  0.00000000000E+00  0.70432366852E+03  0.70432366854E+03  0.50400001928E-02 0.  1.
        1   -1    0    0  501    0  0.00000000000E+00  0.00000000000E+00 -0.15813914324E+04  0.15813914325E+04  0.50400001928E-02 0. -1.
    10030    2    1    2    0    0  0.00000000000E+00  0.00000000000E+00 -0.87706776393E+03  0.22857151010E+04  0.21107452855E+04 0.  0.
        2    1    3    3  502    0  0.10274396488E+04 -0.24091748285E+03 -0.42581506695E+03  0.11379771248E+04  0.25500000920E-02 0.  1.
       -2    1    3    3    0  502 -0.10274396488E+04  0.24091748285E+03 -0.45125269698E+03  0.11477379762E+04  0.25500000920E-02 0. -1.
</event>
<event>
 5   0  0.2604390E-05  0.2117522E+04  0.7818609E-02  0.8553564E-01
        1   -1    0    0  501    0  0.00000000000E+00  0.00000000000E+00  0.15959920034E+04  0.15959920034E+04  0.50400001928E-02 0.  1.
       -1   -1    0    0    0  501  0.00000000000E+00  0.00000000000E+00 -0.70236895630E+03  0.70236895632E+03  0.50400001928E-02 0. -1.
    10030    2    1    2    0    0  0.00000000000E+00  0.00000000000E+00  0.89362304711E+03  0.22983609597E+04  0.21175223614E+04 0.  0.
        5    1    3    3  502    0  0.41304773437E+03  0.78516189787E+03 -0.18034509483E+03  0.90533644573E+03  0.46999998093E+01 0. -1.
       -5    1    3    3    0  502 -0.41304773437E+03 -0.78516189787E+03  0.10739681419E+04  0.13930245140E+04  0.46999998093E+01 0.  1.
</event>
<event>
 5   0  0.5462851E-05  0.2100081E+04  0.7818609E-02  0.8561208E-01
       -2   -1    0    0    0  501  0.00000000000E+00  0.00000000000E+00  0.15845173071E+04  0.15845173071E+04  0.25500000920E-02 0.  1.
        2   -1    0    0  501    0  0.00000000000E+00  0.00000000000E+00 -0.69584903742E+03  0.69584903743E+03  0.25500000920E-02 0. -1.
    10030    2    1    2    0    0  0.00000000000E+00  0.00000000000E+00  0.88866826972E+03  0.22803663446E+04  0.21000808013E+04 0.  0.
        1    1    3    3  502    0 -0.40559563657E+03 -0.96308170883E+03  0.55586835007E+03  0.11836485209E+04  0.50400001928E-02 0.  1.
       -1    1    3    3    0  502  0.40559563657E+03  0.96308170883E+03  0.33279991964E+03  0.10967178237E+04  0.50400001928E-02 0. -1.
</event>
<event>
 5   0  0.2789662E-05  0.2092672E+04  0.7818609E-02  0.8564478E-01
       -1   -1    0    0    0  501  0.00000000000E+00  0.00000000000E+00  0.61336796241E+03  0.61336796243E+03  0.50400001928E-02 0. -1.
        1   -1    0    0  501    0  0.00000000000E+00  0.00000000000E+00 -0.17849298157E+04  0.17849298157E+04  0.50400001928E-02 0.  1.
    10030    2    1    2    0    0  0.00000000000E+00  0.00000000000E+00 -0.11715618533E+04  0.23982977781E+04  0.20926717508E+04 0.  0.
        4    1    3    3  502    0 -0.41403643472E+03 -0.38013916521E+03  0.42565579754E+03  0.70506483750E+03  0.12699999809E+01 0. -1.
       -4    1    3    3    0  502  0.41403643472E+03  0.38013916521E+03 -0.15972176508E+04  0.16932329406E+04  0.12699999809E+01 0.  1.
</event>
<event>
 5   0  0.2602060E-05  0.2097946E+04  0.7818609E-02  0.8562149E-01
       -1   -1    0    0    0  501  0.00000000000E+00  0.00000000000E+00  0.87650400231E+03  0.87650400232E+03  0.50400001928E-02 0.  1.
        1   -1    0    0  501    0  0.00000000000E+00  0.00000000000E+00 -0.12553786824E+04  0.12553786824E+04  0.50400001928E-02 0. -1.
    10030    2    1    2    0    0  0.00000000000E+00  0.00000000000E+00 -0.37887468004E+03  0.21318826847E+04  0.20979460808E+04 0.  0.
        1    1    3    3  502    0  0.91957960063E+03 -0.10192660130E+03 -0.69172936220E+03  0.11552078534E+04  0.50400001928E-02 0. -1.
       -1    1    3    3    0  502 -0.91957960063E+03  0.10192660130E+03  0.31285468215E+03  0.97667483131E+03  0.50400001928E-02 0.  1.
</event>
<event>
 5   0  0.5967046E-05  0.2076066E+04  0.7818609E-02  0.8571861E-01
        2   -1    0    0  501    0  0.00000000000E+00  0.00000000000E+00  0.15297991947E+04  0.15297991947E+04  0.25500000920E-02 0.  1.
       -2   -1    0    0    0  501  0.00000000000E+00  0.00000000000E+00 -0.70434864928E+03  0.70434864928E+03  0.25500000920E-02 0. -1.
    10030    2    1    2    0    0  0.00000000000E+00  0.00000000000E+00  0.82545054539E+03  0.22341478440E+04  0.20760655061E+04 0.  0.
        4    1    3    3  502    0  0.10108756850E+02  0.10325441182E+03  0.15242049211E+04  0.15277322786E+04  0.12699999809E+01 0.  1.
       -4    1    3    3    0  502 -0.10108756850E+02 -0.10325441182E+03 -0.69875437572E+03  0.70641556539E+03  0.12699999809E+01 0. -1.
</event>
<event>
 5   0  0.2604390E-05  0.2074017E+04  0.7818609E-02  0.8572776E-01
        1   -1    0    0  501    0  0.00000000000E+00  0.00000000000E+00  0.82299465597E+03  0.82299465598E+03  0.50400001928E-02 0. -1.
       -1   -1    0    0    0  501  0.00000000000E+00  0.00000000000E+00 -0.13066745325E+04  0.13066745325E+04  0.50400001928E-02 0.  1.
    10030    2    1    2    0    0  0.00000000000E+00  0.00000000000E+00 -0.48367987652E+03  0.21296691885E+04  0.20740165451E+04 0.  0.
        5    1    3    3  502    0  0.55497251553E+03 -0.64958581176E+03  0.36164443832E+03  0.92777422340E+03  0.46999998093E+01 0. -1.
       -5    1    3    3    0  502 -0.55497251553E+03  0.64958581176E+03 -0.84532431484E+03  0.12018949651E+04  0.46999998093E+01 0.  1.
</event>
<event>
 5   0  0.2604390E-05  0.2091404E+04  0.7818609E-02  0.8565039E-01
        1   -1    0    0  501    0  0.00000000000E+00  0.00000000000E+00  0.61013758574E+03  0.61013758576E+03  0.50400001928E-02 0.  1.
       -1   -1    0    0    0  501  0.00000000000E+00  0.00000000000E+00 -0.17922072149E+04  0.17922072149E+04  0.50400001928E-02 0. -1.
    10030    2    1    2    0    0  0.00000000000E+00  0.00000000000E+00 -0.11820696292E+04  0.24023448007E+04  0.20914042969E+04 0.  0.
        5    1    3    3  502    0  0.27489898941E+03  0.66786827534E+02 -0.17474041610E+04  0.17701619493E+04  0.46999998093E+01 0. -1.
       -5    1    3    3    0  502 -0.27489898941E+03 -0.66786827534E+02  0.56533453185E+03  0.63218285140E+03  0.46999998093E+01 0.  1.
</event>
<event>
 5   0  0.2789662E-05  0.2096874E+04  0.7818609E-02  0.8562622E-01
        1   -1    0    0  501    0  0.00000000000E+00  0.00000000000E+00  0.72177962457E+03  0.72177962459E+03  0.50400001928E-02 0.  1.
       -1   -1    0    0    0  501  0.00000000000E+00  0.00000000000E+00 -0.15229297787E+04  0.15229297787E+04  0.50400001928E-02 0. -1.
    10030    2    1    2    0    0  0.00000000000E+00  0.00000000000E+00 -0.80115015415E+03  0.22447094033E+04  0.20968735622E+04 0.  0.
        4    1    3    3  502    0  0.76368903563E+03  0.25496421920E+03 -0.11194801006E+04  0.13789361859E+04  0.12699999809E+01 0. -1.
       -4    1    3    3    0  502 -0.76368903563E+03 -0.25496421920E+03  0.31832994650E+03  0.86577321739E+03  0.12699999809E+01 0.  1.
</event>
<event>
 5   0  0.5462851E-05  0.2044364E+04  0.7818609E-02  0.8586155E-01
       -2   -1    0    0    0  501  0.00000000000E+00  0.00000000000E+00  0.74123943028E+03  0.74123943028E+03  0.25500000920E-02 0. -1.
        2   -1    0    0  501    0  0.00000000000E+00  0.00000000000E+00 -0.14096066172E+04  0.14096066172E+04  0.25500000920E-02 0.  1.
    10030    2    1    2    0    0  0.00000000000E+00  0.00000000000E+00 -0.66836718694E+03  0.21508460475E+04  0.20443639655E+04 0.  0.
        1    1    3    3  502    0 -0.12836943526E+03 -0.10886921432E+02  0.73266384615E+03  0.74390426027E+03  0.50400001928E-02 0. -1.
       -1    1    3    3    0  502  0.12836943526E+03  0.10886921432E+02 -0.14010310331E+04  0.14069417872E+04  0.50400001928E-02 0.  1.
</event>
<event>
 5   0  0.2789662E-05  0.2103676E+04  0.7818609E-02  0.8559626E-01
       -1   -1    0    0    0  501  0.00000000000E+00  0.00000000000E+00  0.69966426561E+03  0.69966426563E+03  0.50400001928E-02 0. -1.
        1   -1    0    0  501    0  0.00000000000E+00  0.00000000000E+00 -0.15812773436E+04  0.15812773436E+04  0.50400001928E-02 0.  1.
    10030    2    1    2    0    0  0.00000000000E+00  0.00000000000E+00 -0.88161307800E+03  0.22809416092E+04  0.21036760695E+04 0.  0.
        4    1    3    3  502    0  0.75504284614E+03  0.39674511748E+03 -0.11081934549E+04  0.13984243755E+04  0.12699999809E+01 0.  1.
       -4    1    3    3    0  502 -0.75504284614E+03 -0.39674511748E+03  0.22658037686E+03  0.88251723373E+03  0.12699999809E+01 0. -1.
</event>
<event>
 5   0  0.5462851E-05  0.2116259E+04  0.7818609E-02  0.8554115E-01
       -2   -1    0    0    0  501  0.00000000000E+00  0.00000000000E+00  0.18264112207E+04  0.18264112207E+04  0.25500000920E-02 0.  1.
        2   -1    0    0  501    0  0.00000000000E+00  0.00000000000E+00 -0.61302608175E+03  0.61302608176E+03  0.25500000920E-02 0. -1.
    10030    2    1    2    0    0  0.00000000000E+00  0.00000000000E+00  0.12133851389E+04  0.24394373024E+04  0.21162586933E+04 0.  0.
        1    1    3    3  502    0 -0.35438317703E+03  0.79903183330E+03  0.12940787695E+04  0.15616270901E+04  0.50400001928E-02 0.  1.
       -1    1    3    3    0  502  0.35438317703E+03 -0.79903183330E+03 -0.80693630618E+02  0.87781021231E+03  0.50400001928E-02 0. -1.
</event>
<event>
 5   0  0.5506332E-05  0.2025596E+04  0.7818609E-02  0.8594747E-01
        2   -1    0    0  501    0  0.00000000000E+00  0.00000000000E+00  0.55904480909E+03  0.55904480910E+03  0.25500000920E-02 0.  1.
       -2   -1    0    0    0  501  0.00000000000E+00  0.00000000000E+00 -0.18348427208E+04  0.18348427208E+04  0.25500000920E-02 0. -1.
    10030    2    1    2    0    0  0.00000000000E+00  0.00000000000E+00 -0.12757979117E+04  0.23938875299E+04  0.20255955160E+04 0.  0.
        3    1    3    3  502    0 -0.21375552840E+02  0.55987178419E+03  0.35921323858E+03  0.66554300384E+03  0.10100000352E+00 0.  1.
       -3    1    3    3    0  502  0.21375552840E+02 -0.55987178419E+03 -0.16350111503E+04  0.17283445261E+04  0.10100000352E+00 0. -1.
</event>
<event>
 5   0  0.5506332E-05  0.2095094E+04  0.7818609E-02  0.8563407E-01
       -2   -1    0    0    0  501  0.00000000000E+00  0.00000000000E+00  0.54548980913E+03  0.54548980913E+03  0.25500000920E-02 0.  1.
        2   -1    0    0  501    0  0.00000000000E+00  0.00000000000E+00 -0.20116874027E+04  0.20116874027E+04  0.25500000920E-02 0. -1.
    10030    2    1    2    0    0  0.00000000000E+00  0.00000000000E+00 -0.14661975936E+04  0.25571772118E+04  0.20950942483E+04 0.  0.
        3    1    3    3  502    0 -0.45088374093E+03 -0.93264173926E+03 -0.54307521827E+03  0.11696356119E+04  0.10100000352E+00 0.  1.
       -3    1    3    3    0  502  0.45088374093E+03  0.93264173926E+03 -0.92312237530E+03  0.13875416000E+04  0.10100000352E+00 0. -1.
</event>
<event>
 5   0  0.2602060E-05  0.2104778E+04  0.7818609E-02  0.8559141E-01
        1   -1    0    0  501    0  0.00000000000E+00  0.00000000000E+00  0.98251750350E+03  0.98251750351E+03  0.50400001928E-02 0. -1.
       -1   -1    0    0    0  501  0.00000000000E+00  0.00000000000E+00 -0.11272297403E+04  0.11272297403E+04  0.50400001928E-02 0.  1.
    10030    2    1    2    0    0  0.00000000000E+00  0.00000000000E+00 -0.14471223681E+03  0.21097472438E+04  0.21047783259E+04 0.  0.
        1    1    3    3  502    0 -0.21145944971E+03  0.10298135561E+04 -0.12034283733E+03  0.10581651373E+04  0.50400001928E-02 0. -1.
       -1    1    3    3    0  502  0.21145944971E+03 -0.10298135561E+04 -0.24369399472E+02  0.10515821066E+04  0.50400001928E-02 0.  1.
</event>
<event>
 5   0  0.2604390E-05  0.2098768E+04  0.7818609E-02  0.8561786E-01
        1   -1    0    0  501    0  0.00000000000E+00  0.00000000000E+00  0.19976331391E+04  0.19976331391E+04  0.50400001928E-02 0. -1.
       -1   -1    0    0    0  501  0.00000000000E+00  0.00000000000E+00 -0.55125575450E+03  0.55125575452E+03  0.50400001928E-02 0.  1.
    10030    2    1    2    0    0  0.00000000000E+00  0.00000000000E+00  0.14463773846E+04  0.25488888937E+04  0.20987679847E+04 0.  0.
        5    1    3    3  502    0  0.64442163625E+03 -0.65302286811E+03  0.13418132735E+04  0.16254854851E+04  0.46999998093E+01 0. -1.
       -5    1    3    3    0  502 -0.64442163625E+03  0.65302286811E+03  0.10456411117E+03  0.92340340853E+03  0.46999998093E+01 0.  1.
</event>
<event>
 5   0  0.5506332E-05  0.2105058E+04  0.7818609E-02  0.8559019E-01
       -2   -1    0    0    0  501  0.00000000000E+00  0.00000000000E+00  0.88991549148E+03  0.88991549148E+03  0.25500000920E-02 0. -1.
        2   -1    0    0  501    0  0.00000000000E+00  0.00000000000E+00 -0.12448566403E+04  0.12448566403E+04  0.25500000920E-02 0.  1.
    10030    2    1    2    0    0  0.00000000000E+00  0.00000000000E+00 -0.35494114882E+03  0.21347721318E+04  0.21050579174E+04 0.  0.
        3    1    3    3  502    0  0.97162230305E+03 -0.40295639023E+03 -0.21532639109E+03  0.10736802211E+04  0.10100000352E+00 0.  1.
       -3    1    3    3    0  502 -0.97162230305E+03  0.40295639023E+03 -0.13961475773E+03  0.10610919107E+04  0.10100000352E+00 0. -1.
</event>
<event>
 5   0  0.2604390E-05  0.2102427E+04  0.7818609E-02  0.8560175E-01
       -1   -1    0    0    0  501  0.00000000000E+00  0.00000000000E+00  0.20528991932E+04  0.20528991932E+04  0.50400001928E-02 0.  1.
        1   -1    0    0  501    0  0.00000000000E+00  0.00000000000E+00 -0.53828734325E+03  0.53828734327E+03  0.50400001928E-02 0. -1.
    10030    2    1    2    0    0  0.00000000000E+00  0.00000000000E+00  0.15146118499E+04  0.25911865364E+04  0.21024268384E+04 0.  0.
        5    1    3    3  502    0  0.83101657981E+03 -0.40176184765E+02  0.15491883762E+04  0.17584679117E+04  0.46999998093E+01 0.  1.
       -5    1    3    3    0  502 -0.83101657981E+03  0.40176184765E+02 -0.34576526262E+02  0.83271862470E+03  0.46999998093E+01 0. -1.
</event>
<event>
 5   0  0.5954140E-05  0.2104384E+04  0.7818609E-02  0.8559315E-01
       -2   -1    0    0    0  501  0.00000000000E+00  0.00000000000E+00  0.82844936024E+03  0.82844936024E+03  0.25500000920E-02 0.  1.
        2   -1    0    0  501    0  0.00000000000E+00  0.00000000000E+00 -0.13363615879E+04  0.13363615879E+04  0.25500000920E-02 0. -1.
    10030    2    1    2    0    0  0.00000000000E+00  0.00000000000E+00 -0.50791222769E+03  0.21648109482E+04  0.21043839028E+04 0.  0.
        2    1    3    3  502    0 -0.47587696233E+02  0.83101893298E+03 -0.91606086907E+03  0.12377498017E+04  0.25500000920E-02 0. -1.
       -2    1    3    3    0  502  0.47587696233E+02 -0.83101893298E+03  0.40814864138E+03  0.92706114646E+03  0.25500000920E-02 0.  1.
</event>
<event>
 5   0  0.2732159E-05  0.2278030E+04  0.7818609E-02  0.8486634E-01
        1   -1    0    0  501    0  0.00000000000E+00  0.00000000000E+00  0.18948240208E+04  0.18948240208E+04  0.50400001928E-02 0. -1.
       -1   -1    0    0    0  501  0.00000000000E+00  0.00000000000E+00 -0.68468371915E+03  0.68468371917E+03  0.50400001928E-02 0.  1.
    10030    2    1    2    0    0  0.00000000000E+00  0.00000000000E+00  0.12101403016E+04  0.25795077400E+04  0.22780299890E+04 0.  0.
        3    1    3    3  502    0 -0.79439015337E+03  0.73244149395E+03  0.19706742010E+03  0.10983450442E+04  0.10100000352E+00 0.  1.
       -3    1    3    3    0  502  0.79439015337E+03 -0.73244149395E+03  0.10130728815E+04  0.14811626958E+04  0.10100000352E+00 0. -1.
</event>
<event>
 5   0  0.2732159E-05  0.2107558E+04  0.7818609E-02  0.8557921E-01
        1   -1    0    0  501    0  0.00000000000E+00  0.00000000000E+00  0.77792473595E+03  0.77792473596E+03  0.50400001928E-02 0.  1.
       -1   -1    0    0    0  501  0.00000000000E+00  0.00000000000E+00 -0.14274514692E+04  0.14274514692E+04  0.50400001928E-02 0. -1.
    10030    2    1    2    0    0  0.00000000000E+00  0.00000000000E+00 -0.64952673324E+03  0.22053762052E+04  0.21075576455E+04 0.  0.
        3    1    3    3  502    0 -0.58223325588E+03 -0.74716783808E+03 -0.80792359098E+03  0.12449883058E+04  0.10100000352E+00 0. -1.
       -3    1    3    3    0  502  0.58223325588E+03  0.74716783808E+03  0.15839685774E+03  0.96038789936E+03  0.10100000352E+00 0.  1.
</event>
<event>
 5   0  0.2789662E-05  0.2097296E+04  0.7818609E-02  0.8562435E-01
       -1   -1    0    0    0  501  0.00000000000E+00  0.00000000000E+00  0.11926547389E+04  0.11926547389E+04  0.50400001928E-02 0.  1.
        1   -1    0    0  501    0  0.00000000000E+00  0.00000000000E+00 -0.92202948666E+03  0.92202948667E+03  0.50400001928E-02 0. -1.
    10030    2    1    2    0    0  0.00000000000E+00  0.00000000000E+00  0.27062525224E+03  0.21146842256E+04  0.20972961991E+04 0.  0.
        4    1    3    3  502    0 -0.37076231725E+03 -0.73806929897E+03  0.78677316218E+03  0.11407123246E+04  0.12699999809E+01 0.  1.
       -4    1    3    3    0  502  0.37076231725E+03  0.73806929897E+03 -0.51614790995E+03  0.97397190094E+03  0.12699999809E+01 0. -1.
</event>
<event>
 5   0  0.5967046E-05  0.2100242E+04  0.7818609E-02  0.8561137E-01
       -2   -1    0    0    0  501  0.00000000000E+00  0.00000000000E+00  0.75283391672E+03  0.75283391673E+03  0.25500000920E-02 0. -1.
        2   -1    0    0  501    0  0.00000000000E+00  0.00000000000E+00 -0.14648041359E+04  0.14648041359E+04  0.25500000920E-02 0.  1.
    10030    2    1    2    0    0  0.00000000000E+00  0.00000000000E+00 -0.71197021913E+03  0.22176380526E+04  0.21002421145E+04 0.  0.
        4    1    3    3  502    0  0.15316786575E+03  0.34340425657E+03  0.67931348313E+03  0.77643756979E+03  0.12699999809E+01 0. -1.
       -4    1    3    3    0  502 -0.15316786575E+03 -0.34340425657E+03 -0.13912837023E+04  0.14412004828E+04  0.12699999809E+01 0.  1.
</event>
<event>
 5   0  0.2732159E-05  0.2099765E+04  0.7818609E-02  0.8561347E-01
        1   -1    0    0  501    0  0.00000000000E+00  0.00000000000E+00  0.14990371177E+04  0.14990371177E+04  0.50400001928E-02 0. -1.
       -1   -1    0    0    0  501  0.00000000000E+00  0.00000000000E+00 -0.73530766480E+03  0.73530766482E+03  0.50400001928E-02 0.  1.
    10030    2    1    2    0    0  0.00000000000E+00  0.00000000000E+00  0.76372945293E+03  0.22343447826E+04  0.20997652083E+04 0.  0.
        3    1    3    3  502    0  0.92409967062E+02  0.85818819729E+03 -0.25412708629E+03  0.89978173474E+03  0.10100000352E+00 0.  1.
       -3    1    3    3    0  502 -0.92409967062E+02 -0.85818819729E+03  0.10178565392E+04  0.13345630478E+04  0.10100000352E+00 0. -1.
</event>
<event>
 5   0  0.2604390E-05  0.2114281E+04  0.7818609E-02  0.8554978E-01
       -1   -1    0    0    0  501  0.00000000000E+00  0.00000000000E+00  0.83573402023E+03  0.83573402025E+03  0.50400001928E-02 0. -1.
        1   -1    0    0  501    0  0.00000000000E+00  0.00000000000E+00 -0.13372034118E+04  0.13372034118E+04  0.50400001928E-02 0.  1.
    10030    2    1    2    0    0  0.00000000000E+00  0.00000000000E+00 -0.50146939158E+03  0.21729374321E+04  0.21142813278E+04 0.  0.
        5    1    3    3  502    0  0.55533263855E+03  0.89126716416E+03 -0.37565004199E+03  0.11152966159E+04  0.46999998093E+01 0. -1.
       -5    1    3    3    0  502 -0.55533263855E+03 -0.89126716416E+03 -0.12581934959E+03  0.10576408162E+04  0.46999998093E+01 0.  1.
</event>
<event>
 5   0  0.2789662E-05  0.2108202E+04  0.7818609E-02  0.8557639E-01
        1   -1    0    0  501    0  0.00000000000E+00  0.00000000000E+00  0.94627810935E+03  0.94627810936E+03  0.50400001928E-02 0.  1.
       -1   -1    0    0    0  501  0.00000000000E+00  0.00000000000E+00 -0.11742093550E+04  0.11742093550E+04  0.50400001928E-02 0. -1.
    10030    2    1    2    0    0  0.00000000000E+00  0.00000000000E+00 -0.22793124568E+03  0.21204874644E+04  0.21082017062E+04 0.  0.
        4    1    3    3  502    0 -0.62610965768E+03 -0.28354222428E+02 -0.96643624965E+03  0.11518758192E+04  0.12699999809E+01 0. -1.
       -4    1    3    3    0  502  0.62610965768E+03  0.28354222428E+02  0.73850500398E+03  0.96861164517E+03  0.12699999809E+01 0.  1.
</event>
<event>
 5   0  0.5954140E-05  0.1942636E+04  0.7818609E-02  0.8633920E-01
        2   -1    0    0  501    0  0.00000000000E+00  0.00000000000E+00  0.11354574568E+04  0.11354574568E+04  0.25500000920E-02 0. -1.
       -2   -1    0    0    0  501  0.00000000000E+00  0.00000000000E+00 -0.83090611393E+03  0.83090611393E+03  0.25500000920E-02 0.  1.
    10030    2    1    2    0    0  0.00000000000E+00  0.00000000000E+00  0.30455134289E+03  0.19663635708E+04  0.19426358825E+04 0.  0.
        2    1    3    3  502    0 -0.33858985726E+03 -0.76672218135E+03 -0.34458906519E+03  0.90622713415E+03  0.25500000920E-02 0.  1.
       -2    1    3    3    0  502  0.33858985726E+03  0.76672218135E+03  0.64914040808E+03  0.10601364366E+04  0.25500000920E-02 0. -1.
</event>
<event>
 5   0  0.5967046E-05  0.2120523E+04  0.7818609E-02  0.8552256E-01
        2   -1    0    0  501    0  0.00000000000E+00  0.00000000000E+00  0.21184742978E+04  0.21184742978E+04  0.25500000920E-02 0.  1.
       -2   -1    0    0    0  501  0.00000000000E+00  0.00000000000E+00 -0.53064325367E+03  0.53064325368E+03  0.25500000920E-02 0. -1.
    10030    2    1    2    0    0  0.00000000000E+00  0.00000000000E+00  0.15878310441E+04  0.26491175515E+04  0.21205226660E+04 0.  0.
        4    1    3    3  502    0 -0.53506696791E+03 -0.90996967660E+03  0.91765695612E+03  0.13987270550E+04  0.12699999809E+01 0.  1.
       -4    1    3    3    0  502  0.53506696791E+03  0.90996967660E+03  0.67017408803E+03  0.12503904965E+04  0.12699999809E+01 0. -1.
</event>
<event>
 5   0  0.5967046E-05  0.2078428E+04  0.7818609E-02  0.8570806E-01
       -2   -1    0    0    0  501  0.00000000000E+00  0.00000000000E+00  0.73058008904E+03  0.73058008904E+03  0.25500000920E-02 0. -1.
        2   -1    0    0  501    0  0.00000000000E+00  0.00000000000E+00 -0.14782310043E+04  0.14782310043E+04  0.25500000920E-02 0.  1.
    10030    2    1    2    0    0  0.00000000000E+00  0.00000000000E+00 -0.74765091521E+03  0.22088110933E+04  0.20784283858E+04 0.  0.
        4    1    3    3  502    0 -0.10285462977E+04 -0.99291246008E+02 -0.25645117572E+03  0.10646760335E+04  0.12699999809E+01 0. -1.
       -4    1    3    3    0  502  0.10285462977E+04  0.99291246008E+02 -0.49119973950E+03  0.11441350598E+04  0.12699999809E+01 0.  1.
</event>
<event>
 5   0  0.2789662E-05  0.2031654E+04  0.7818609E-02  0.8591963E-01
        1   -1    0    0  501    0  0.00000000000E+00  0.00000000000E+00  0.24866947950E+04  0.24866947950E+04  0.50400001928E-02 0. -1.
       -1   -1    0    0    0  501  0.00000000000E+00  0.00000000000E+00 -0.41497015742E+03  0.41497015745E+03  0.50400001928E-02 0.  1.
    10030    2    1    2    0    0  0.00000000000E+00  0.00000000000E+00  0.20717246376E+04  0.29016649525E+04  0.20316536423E+04 0.  0.
        4    1    3    3  502    0  0.34096861318E+02 -0.91545489507E+02  0.24799693370E+04  0.24818929667E+04  0.12699999809E+01 0. -1.
       -4    1    3    3    0  502 -0.34096861318E+02  0.91545489507E+02 -0.40824469939E+03  0.41977198582E+03  0.12699999809E+01 0.  1.
</event>
<event>
 5   0  0.5954140E-05  0.2073991E+04  0.7818609E-02  0.8572788E-01
        2   -1    0    0  501    0  0.00000000000E+00  0.00000000000E+00  0.16942603558E+04  0.16942603558E+04  0.25500000920E-02 0.  1.
       -2   -1    0    0    0  501  0.00000000000E+00  0.00000000000E+00 -0.63470757320E+03  0.63470757321E+03  0.25500000920E-02 0. -1.
    10030    2    1    2    0    0  0.00000000000E+00  0.00000000000E+00  0.10595527826E+04  0.23289679290E+04  0.20739912042E+04 0.  0.
        2    1    3    3  502    0  0.84186914558E+03  0.52879383376E+03  0.19856939243E+03  0.10138029298E+04  0.25500000920E-02 0. -1.
       -2    1    3    3    0  502 -0.84186914558E+03 -0.52879383376E+03  0.86098339012E+03  0.13151649991E+04  0.25500000920E-02 0.  1.
</event>
<event>
 5   0  0.5967046E-05  0.2095016E+04  0.7818609E-02  0.8563442E-01
       -2   -1    0    0    0  501  0.00000000000E+00  0.00000000000E+00  0.91244209636E+03  0.91244209636E+03  0.25500000920E-02 0.  1.
        2   -1    0    0  501    0  0.00000000000E+00  0.00000000000E+00 -0.12025669071E+04  0.12025669071E+04  0.25500000920E-02 0. -1.
    10030    2    1    2    0    0  0.00000000000E+00  0.00000000000E+00 -0.29012481075E+03  0.21150090035E+04  0.20950156751E+04 0.  0.
        4    1    3    3  502    0 -0.51611609066E+03 -0.31703855751E+03  0.71771728302E+03  0.93915332999E+03  0.12699999809E+01 0.  1.
       -4    1    3    3    0  502  0.51611609066E+03  0.31703855751E+03 -0.10078420938E+04  0.11758556735E+04  0.12699999809E+01 0. -1.
</event>
<event>
 5   0  0.5866610E-05  0.2093827E+04  0.7818609E-02  0.8563968E-01
        2   -1    0    0  501    0  0.00000000000E+00  0.00000000000E+00  0.11453353558E+04  0.11453353558E+04  0.25500000920E-02 0. -1.
       -2   -1    0    0    0  501  0.00000000000E+00  0.00000000000E+00 -0.95694911498E+03  0.95694911498E+03  0.25500000920E-02 0.  1.
    10030    2    1    2    0    0  0.00000000000E+00  0.00000000000E+00  0.18838624082E+03  0.21022844708E+04  0.20938267885E+04 0.  0.
        5    1    3    3  502    0  0.89041639033E+03 -0.80003541187E+02 -0.45276752908E+03  0.10021289539E+04  0.46999998093E+01 0.  1.
       -5    1    3    3    0  502 -0.89041639033E+03  0.80003541187E+02  0.64115376990E+03  0.11001555169E+04  0.46999998093E+01 0. -1.
</event>
<event>
 5   0  0.2699285E-05  0.2098585E+04  0.7818609E-02  0.8561867E-01
       -1   -1    0    0    0  501  0.00000000000E+00  0.00000000000E+00  0.57375671270E+03  0.57375671272E+03  0.50400001928E-02 0. -1.
        1   -1    0    0  501    0  0.00000000000E+00  0.00000000000E+00 -0.19189581681E+04  0.19189581681E+04  0.50400001928E-02 0.  1.
    10030    2    1    2    0    0  0.00000000000E+00  0.00000000000E+00 -0.13452014554E+04  0.24927148808E+04  0.20985853620E+04 0.  0.
        2    1    3    3  502    0  0.52701104433E+03  0.16018820155E+03  0.38822101796E+03  0.67388163616E+03  0.25500000920E-02 0. -1.
       -2    1    3    3    0  502 -0.52701104433E+03 -0.16018820155E+03 -0.17334224733E+04  0.18188332447E+04  0.25500000920E-02 0.  1.
</event>
<event>
 5   0  0.5866610E-05  0.2103481E+04  0.7818609E-02  0.8559711E-01
        2   -1    0    0  501    0  0.00000000000E+00  0.00000000000E+00  0.86863606173E+03  0.86863606173E+03  0.25500000920E-02 0. -1.
       -2   -1    0    0    0  501  0.00000000000E+00  0.00000000000E+00 -0.12734425867E+04  0.12734425867E+04  0.25500000920E-02 0.  1.
    10030    2    1    2    0    0  0.00000000000E+00  0.00000000000E+00 -0.40480652495E+03  0.21420786484E+04  0.21034810704E+04 0.  0.
        5    1    3    3  502    0 -0.58481444972E+03  0.13026111541E+03 -0.10826484488E+04  0.12373866221E+04  0.46999998093E+01 0.  1.
       -5    1    3    3    0  502  0.58481444972E+03 -0.13026111541E+03  0.67784192386E+03  0.90469202634E+03  0.46999998093E+01 0. -1.
</event>
<event>
 5   0  0.2017750E-05  0.2104373E+04  0.7818609E-02  0.8559320E-01
        3   -1    0    0  501    0  0.00000000000E+00  0.00000000000E+00  0.16421469154E+04  0.16421469185E+04  0.10100000352E+00 0.  1.
       -3   -1    0    0    0  501  0.00000000000E+00  0.00000000000E+00 -0.67417601768E+03  0.67417602525E+03  0.10100000352E+00 0. -1.
    10030    2    1    2    0    0  0.00000000000E+00  0.00000000000E+00  0.96797089771E+03  0.23163229437E+04  0.21043726668E+04 0.  0.
        2    1    3    3  502    0 -0.53329312261E+03  0.83844070431E+03  0.86482739495E+03  0.13173119571E+04  0.25500000920E-02 0. -1.
       -2    1    3    3    0  502  0.53329312261E+03 -0.83844070431E+03  0.10314350276E+03  0.99901098664E+03  0.25500000920E-02 0.  1.
</event>
<event>
 5   0  0.2699285E-05  0.2095136E+04  0.7818609E-02  0.8563389E-01
       -1   -1    0    0    0  501  0.00000000000E+00  0.00000000000E+00  0.12211237495E+04  0.12211237495E+04  0.50400001928E-02 0.  1.
        1   -1    0    0  501    0  0.00000000000E+00  0.00000000000E+00 -0.89867940988E+03  0.89867940990E+03  0.50400001928E-02 0. -1.
    10030    2    1    2    0    0  0.00000000000E+00  0.00000000000E+00  0.32244433964E+03  0.21198031594E+04  0.20951360535E+04 0.  0.
        2    1    3    3  502    0 -0.59810995324E+03  0.11450357051E+03 -0.70119364496E+03  0.92871907031E+03  0.25500000920E-02 0.  1.
       -2    1    3    3    0  502  0.59810995324E+03 -0.11450357051E+03  0.10236379846E+04  0.11910840891E+04  0.25500000920E-02 0. -1.
</event>
<event>
 5   0  0.5462851E-05  0.2088207E+04  0.7818609E-02  0.8566456E-01
       -2   -1    0    0    0  501  0.00000000000E+00  0.00000000000E+00  0.13573360159E+04  0.13573360159E+04  0.25500000920E-02 0.  1.
        2   -1    0    0  501    0  0.00000000000E+00  0.00000000000E+00 -0.80315582951E+03  0.80315582952E+03  0.25500000920E-02 0. -1.
    10030    2    1    2    0    0  0.00000000000E+00  0.00000000000E+00  0.55418018640E+03  0.21604918454E+04  0.20882072060E+04 0.  0.
        1    1    3    3  502    0 -0.59720030547E+03 -0.48365567785E+03  0.10083674639E+04  0.12678233165E+04  0.50400001928E-02 0.  1.
       -1    1    3    3    0  502  0.59720030547E+03  0.48365567785E+03 -0.45418727747E+03  0.89266852897E+03  0.50400001928E-02 0. -1.
</event>
<event>
 5   0  0.2789662E-05  0.2099916E+04  0.7818609E-02  0.8561280E-01
        1   -1    0    0  501    0  0.00000000000E+00  0.00000000000E+00  0.15514474793E+04  0.15514474793E+04  0.50400001928E-02 0.  1.
       -1   -1    0    0    0  501  0.00000000000E+00  0.00000000000E+00 -0.71056997052E+03  0.71056997053E+03  0.50400001928E-02 0. -1.
    10030    2    1    2    0    0  0.00000000000E+00  0.00000000000E+00  0.84087750880E+03  0.22620174499E+04  0.20999161790E+04 0.  0.
        4    1    3    3  502    0 -0.14378773646E+02  0.10492171255E+04  0.45997414555E+03  0.11457055263E+04  0.12699999809E+01 0.  1.
       -4    1    3    3    0  502  0.14378773646E+02 -0.10492171255E+04  0.38090336324E+03  0.11163119235E+04  0.12699999809E+01 0. -1.
</event>
<event>
 5   0  0.5506332E-05  0.2104248E+04  0.7818609E-02  0.8559374E-01
        2   -1    0    0  501    0  0.00000000000E+00  0.00000000000E+00  0.16674478641E+04  0.16674478641E+04  0.25500000920E-02 0.  1.
       -2   -1    0    0    0  501  0.00000000000E+00  0.00000000000E+00 -0.66386781320E+03  0.66386781320E+03  0.25500000920E-02 0. -1.
    10030    2    1    2    0    0  0.00000000000E+00  0.00000000000E+00  0.10035800509E+04  0.23313156773E+04  0.21042480530E+04 0.  0.
        3    1    3    3  502    0  0.14832130160E+03  0.83651401159E+03  0.11894170848E+04  0.14616661425E+04  0.10100000352E+00 0.  1.
       -3    1    3    3    0  502 -0.14832130160E+03 -0.83651401159E+03 -0.18583703392E+03  0.86964953486E+03  0.10100000352E+00 0. -1.
</event>
<event>
 5   0  0.2604390E-05  0.2101122E+04  0.7818609E-02  0.8560749E-01
        1   -1    0    0  501    0  0.00000000000E+00  0.00000000000E+00  0.13409358003E+04  0.13409358003E+04  0.50400001928E-02 0.  1.
       -1   -1    0    0    0  501  0.00000000000E+00  0.00000000000E+00 -0.82306579699E+03  0.82306579701E+03  0.50400001928E-02 0. -1.
    10030    2    1    2    0    0  0.00000000000E+00  0.00000000000E+00  0.51787000327E+03  0.21640015973E+04  0.21011219795E+04 0.  0.
        5    1    3    3  502    0 -0.66126561827E+03 -0.68374747131E+03  0.71823320713E+03  0.11919160425E+04  0.46999998093E+01 0.  1.
       -5    1    3    3    0  502  0.66126561827E+03  0.68374747131E+03 -0.20036320386E+03  0.97208555482E+03  0.46999998093E+01 0. -1.
</event>
<event>
 5   0  0.2732159E-05  0.2128273E+04  0.7818609E-02  0.8548890E-01
       -1   -1    0    0    0  501  0.00000000000E+00  0.00000000000E+00  0.16268061605E+04  0.16268061605E+04  0.50400001928E-02 0. -1.
        1   -1    0    0  501    0  0.00000000000E+00  0.00000000000E+00 -0.69607946598E+03  0.69607946600E+03  0.50400001928E-02 0.  1.
    10030    2    1    2    0    0  0.00000000000E+00  0.00000000000E+00  0.93072669454E+03  0.23228856265E+04  0.21282728805E+04 0.  0.
        3    1    3    3  502    0 -0.10588257518E+03  0.10491917385E+04  0.62114510368E+03  0.12238609700E+04  0.10100000352E+00 0. -1.
       -3    1    3    3    0  502  0.10588257518E+03 -0.10491917385E+04  0.30958159086E+03  0.10990246565E+04  0.10100000352E+00 0.  1.
</event>
<event>
 5   0  0.2017750E-05  0.2043151E+04  0.7818609E-02  0.8586708E-01
       -3   -1    0    0    0  501  0.00000000000E+00  0.00000000000E+00  0.67840669594E+03  0.67840670345E+03  0.10100000352E+00 0.  1.
        3   -1    0    0  501    0  0.00000000000E+00  0.00000000000E+00 -0.15383349139E+04  0.15383349172E+04  0.10100000352E+00 0. -1.
    10030    2    1    2    0    0  0.00000000000E+00  0.00000000000E+00 -0.85992821797E+03  0.22167416207E+04  0.20431512114E+04 0.  0.
        5    1    3    3  502    0  0.73083025894E+03  0.71263943659E+03 -0.47372446798E+03  0.11253465224E+04  0.46999998093E+01 0. -1.
       -5    1    3    3    0  502 -0.73083025894E+03 -0.71263943659E+03 -0.38620374999E+03  0.10913950982E+04  0.46999998093E+01 0.  1.
</event>
<event>
 5   0  0.5954140E-05  0.2104266E+04  0.7818609E-02  0.8559366E-01
       -2   -1    0    0    0  501  0.00000000000E+00  0.00000000000E+00  0.58105557740E+03  0.58105557740E+03  0.25500000920E-02 0.  1.
        2   -1    0    0  501    0  0.00000000000E+00  0.00000000000E+00 -0.19051263610E+04  0.19051263610E+04  0.25500000920E-02 0. -1.
    10030    2    1    2    0    0  0.00000000000E+00  0.00000000000E+00 -0.13240707836E+04  0.24861819384E+04  0.21042664258E+04 0.  0.
        2    1    3    3  502    0  0.19541552793E+02 -0.75460518514E+03  0.20390788910E+03  0.78191386032E+03  0.25500000920E-02 0.  1.
       -2    1    3    3    0  502 -0.19541552793E+02  0.75460518514E+03 -0.15279786727E+04  0.17042680781E+04  0.25500000920E-02 0. -1.
</event>
<event>
 5   0  0.5866610E-05  0.2101047E+04  0.7818609E-02  0.8560782E-01
        2   -1    0    0  501    0  0.00000000000E+00  0.00000000000E+00  0.27717524617E+04  0.27717524617E+04  0.25500000920E-02 0.  1.
       -2   -1    0    0    0  501  0.00000000000E+00  0.00000000000E+00 -0.39815958569E+03  0.39815958570E+03  0.25500000920E-02 0. -1.
    10030    2    1    2    0    0  0.00000000000E+00  0.00000000000E+00  0.23735928760E+04  0.31699120474E+04  0.21010471787E+04 0.  0.
        5    1    3    3  502    0 -0.60359762052E+03 -0.77506500147E+02  0.24787133809E+04  0.25523282429E+04  0.46999998093E+01 0.  1.
       -5    1    3    3    0  502  0.60359762052E+03  0.77506500147E+02 -0.10512050484E+03  0.61758380451E+03  0.46999998093E+01 0. -1.
</event>
<event>
 5   0  0.2789662E-05  0.2113969E+04  0.7818609E-02  0.8555115E-01
        1   -1    0    0  501    0  0.00000000000E+00  0.00000000000E+00  0.90298512666E+03  0.90298512668E+03  0.50400001928E-02 0. -1.
       -1   -1    0    0    0  501  0.00000000000E+00  0.00000000000E+00 -0.12372478502E+04  0.12372478502E+04  0.50400001928E-02 0.  1.
    10030    2    1    2    0    0  0.00000000000E+00  0.00000000000E+00 -0.33426272351E+03  0.21402329769E+04  0.21139691641E+04 0.  0.
        4    1    3    3  502    0 -0.78121675192E+03 -0.23382293497E+03 -0.84797574227E+03  0.11764511255E+04  0.12699999809E+01 0.  1.
       -4    1    3    3    0  502  0.78121675192E+03  0.23382293497E+03  0.51371301876E+03  0.96378185133E+03  0.12699999809E+01 0. -1.
</event>
<event>
 5   0  0.5967046E-05  0.2090232E+04  0.7818609E-02  0.8565558E-01
        2   -1    0    0  501    0  0.00000000000E+00  0.00000000000E+00  0.17960312055E+04  0.17960312055E+04  0.25500000920E-02 0.  1.
       -2   -1    0    0    0  501  0.00000000000E+00  0.00000000000E+00 -0.60815639968E+03  0.60815639968E+03  0.25500000920E-02 0. -1.
    10030    2    1    2    0    0  0.00000000000E+00  0.00000000000E+00  0.11878748058E+04  0.24041876052E+04  0.20902324002E+04 0.  0.
        4    1    3    3  502    0 -0.53294129741E+03  0.77164016689E+03  0.63332686942E+02  0.93992958022E+03  0.12699999809E+01 0. -1.
       -4    1    3    3    0  502  0.53294129741E+03 -0.77164016689E+03  0.11245421189E+04  0.14642580250E+04  0.12699999809E+01 0.  1.
</event>
<event>
 5   0  0.2604390E-05  0.2095007E+04  0.7818609E-02  0.8563446E-01
        1   -1    0    0  501    0  0.00000000000E+00  0.00000000000E+00  0.40410136440E+03  0.40410136443E+03  0.50400001928E-02 0.  1.
       -1   -1    0    0    0  501  0.00000000000E+00  0.00000000000E+00 -0.27153177840E+04  0.27153177840E+04  0.50400001928E-02 0. -1.
    10030    2    1    2    0    0  0.00000000000E+00  0.00000000000E+00 -0.23112164196E+04  0.31194191484E+04  0.20950070370E+04 0.  0.
        5    1    3    3  502    0  0.75851453866E+02  0.83659280003E+03 -0.22383566800E+03  0.86934771662E+03  0.46999998093E+01 0.  1.
       -5    1    3    3    0  502 -0.75851453866E+02 -0.83659280003E+03 -0.20873807516E+04  0.22500714318E+04  0.46999998093E+01 0. -1.
</event>
<event>
 5   0  0.5954140E-05  0.2080178E+04  0.7818609E-02  0.8570026E-01
       -2   -1    0    0    0  501  0.00000000000E+00  0.00000000000E+00  0.95384714969E+03  0.95384714970E+03  0.25500000920E-02 0. -1.
        2   -1    0    0  501    0  0.00000000000E+00  0.00000000000E+00 -0.11341287638E+04  0.11341287638E+04  0.25500000920E-02 0.  1.
    10030    2    1    2    0    0  0.00000000000E+00  0.00000000000E+00 -0.18028161411E+03  0.20879759135E+04  0.20801783469E+04 0.  0.
        2    1    3    3  502    0  0.50828449498E+03  0.21199329857E+03  0.79548806733E+03  0.96752031077E+03  0.25500000920E-02 0. -1.
       -2    1    3    3    0  502 -0.50828449498E+03 -0.21199329857E+03 -0.97576968145E+03  0.11204556027E+04  0.25500000920E-02 0.  1.
</event>
<event>
 5   0  0.5506332E-05  0.2109927E+04  0.7818609E-02  0.8556883E-01
        2   -1    0    0  501    0  0.00000000000E+00  0.00000000000E+00  0.21400259297E+04  0.21400259297E+04  0.25500000920E-02 0. -1.
       -2   -1    0    0    0  501  0.00000000000E+00  0.00000000000E+00 -0.52006276022E+03  0.52006276023E+03  0.25500000920E-02 0.  1.
    10030    2    1    2    0    0  0.00000000000E+00  0.00000000000E+00  0.16199631695E+04  0.26600886900E+04  0.21099268158E+04 0.  0.
        3    1    3    3  502    0  0.10280260645E+04 -0.23669519601E+03  0.82164447968E+03  0.13371469128E+04  0.10100000352E+00 0.  1.
       -3    1    3    3    0  502 -0.10280260645E+04  0.23669519601E+03  0.79831868984E+03  0.13229417772E+04  0.10100000352E+00 0. -1.
</event>
<event>
 5   0  0.2699285E-05  0.2096376E+04  0.7818609E-02  0.8562841E-01
        1   -1    0    0  501    0  0.00000000000E+00  0.00000000000E+00  0.21496516704E+04  0.21496516704E+04  0.50400001928E-02 0. -1.
       -1   -1    0    0    0  501  0.00000000000E+00  0.00000000000E+00 -0.51110514420E+03  0.51110514423E+03  0.50400001928E-02 0.  1.
    10030    2    1    2    0    0  0.00000000000E+00  0.00000000000E+00  0.16385465262E+04  0.26607568147E+04  0.20963759463E+04 0.  0.
        2    1    3    3  502    0 -0.86851932898E+03  0.56054646933E+03  0.59885343423E+03  0.11946395292E+04  0.25500000920E-02 0.  1.
       -2    1    3    3    0  502  0.86851932898E+03 -0.56054646933E+03  0.10396930920E+04  0.14661172854E+04  0.25500000920E-02 0. -1.
</event>
<event>
 5   0  0.2604390E-05  0.2107304E+04  0.7818609E-02  0.8558033E-01
        1   -1    0    0  501    0  0.00000000000E+00  0.00000000000E+00  0.18393327349E+04  0.18393327349E+04  0.50400001928E-02 0. -1.
       -1   -1    0    0    0  501  0.00000000000E+00  0.00000000000E+00 -0.60357878558E+03  0.60357878560E+03  0.50400001928E-02 0.  1.
    10030    2    1    2    0    0  0.00000000000E+00  0.00000000000E+00  0.12357539493E+04  0.24429115205E+04  0.21073036975E+04 0.  0.
        5    1    3    3  502    0  0.54146636874E+03 -0.64160932746E+03  0.13559090155E+04  0.15947914302E+04  0.46999998093E+01 0. -1.
       -5    1    3    3    0  502 -0.54146636874E+03  0.64160932746E+03 -0.12015506621E+03  0.84812009026E+03  0.46999998093E+01 0.  1.
</event>
<event>
 5   0  0.5506332E-05  0.2106221E+04  0.7818609E-02  0.8558508E-01
       -2   -1    0    0    0  501  0.00000000000E+00  0.00000000000E+00  0.12039730525E+04  0.12039730525E+04  0.25500000920E-02 0. -1.
        2   -1    0    0  501    0  0.00000000000E+00  0.00000000000E+00 -0.92115162288E+03  0.92115162288E+03  0.25500000920E-02 0.  1.
    10030    2    1    2    0    0  0.00000000000E+00  0.00000000000E+00  0.28282142960E+03  0.21251246754E+04  0.21062210057E+04 0.  0.
        3    1    3    3  502    0 -0.58958967282E+03 -0.72464352146E+03 -0.34907732417E+03  0.99728591885E+03  0.10100000352E+00 0.  1.
       -3    1    3    3    0  502  0.58958967282E+03  0.72464352146E+03  0.63189875377E+03  0.11278387565E+04  0.10100000352E+00 0. -1.
</event>
<event>
 5   0  0.5506332E-05  0.2081697E+04  0.7818609E-02  0.8569349E-01
        2   -1    0    0  501    0  0.00000000000E+00  0.00000000000E+00  0.17425387208E+04  0.17425387208E+04  0.25500000920E-02 0. -1.
       -2   -1    0    0    0  501  0.00000000000E+00  0.00000000000E+00 -0.62171698361E+03  0.62171698361E+03  0.25500000920E-02 0.  1.
    10030    2    1    2    0    0  0.00000000000E+00  0.00000000000E+00  0.11208217372E+04  0.23642557044E+04  0.20816973049E+04 0.  0.
        3    1    3    3  502    0 -0.33079293222E+03 -0.80482485412E+03  0.12090723505E+04  0.14896385363E+04  0.10100000352E+00 0. -1.
       -3    1    3    3    0  502  0.33079293222E+03  0.80482485412E+03 -0.88250613329E+02  0.87461716812E+03  0.10100000352E+00 0.  1.
</event>
<event>
 5   0  0.5954140E-05  0.2024790E+04  0.7818609E-02  0.8595117E-01
       -2   -1    0    0    0  501  0.00000000000E+00  0.00000000000E+00  0.63695399319E+03  0.63695399320E+03  0.25500000920E-02 0. -1.
        2   -1    0    0  501    0  0.00000000000E+00  0.00000000000E+00 -0.16091330786E+04  0.16091330786E+04  0.25500000920E-02 0.  1.
    10030    2    1    2    0    0  0.00000000000E+00  0.00000000000E+00 -0.97217908542E+03  0.22460870718E+04  0.20247901027E+04 0.  0.
        2    1    3    3  502    0  0.55110060050E+03  0.17096126232E+01  0.45598041143E+03  0.71528520903E+03  0.25500000920E-02 0. -1.
       -2    1    3    3    0  502 -0.55110060050E+03 -0.17096126232E+01 -0.14281594968E+04  0.15308018628E+04  0.25500000920E-02 0.  1.
</event>
<event>
 5   0  0.2602060E-05  0.2107848E+04  0.7818609E-02  0.8557794E-01
       -1   -1    0    0    0  501  0.00000000000E+00  0.00000000000E+00  0.68437208357E+03  0.68437208359E+03  0.50400001928E-02 0. -1.
        1   -1    0    0  501    0  0.00000000000E+00  0.00000000000E+00 -0.16230296711E+04  0.16230296711E+04  0.50400001928E-02 0.  1.
    10030    2    1    2    0    0  0.00000000000E+00  0.00000000000E+00 -0.93865758753E+03  0.23074017547E+04  0.21078483795E+04 0.  0.
        1    1    3    3  502    0  0.79987333360E+03  0.11459123374E+03 -0.12100160654E+04  0.14550145632E+04  0.50400001928E-02 0.  1.
       -1    1    3    3    0  502 -0.79987333360E+03 -0.11459123374E+03  0.27135847787E+03  0.85238719148E+03  0.50400001928E-02 0. -1.
</event>
<event>
 5   0  0.5967046E-05  0.2048123E+04  0.7818609E-02  0.8584446E-01
       -2   -1    0    0    0  501  0.00000000000E+00  0.00000000000E+00  0.77652228558E+03  0.77652228558E+03  0.25500000920E-02 0.  1.
        2   -1    0    0  501    0  0.00000000000E+00  0.00000000000E+00 -0.13505110863E+04  0.13505110863E+04  0.25500000920E-02 0. -1.
    10030    2    1    2    0    0  0.00000000000E+00  0.00000000000E+00 -0.57398880074E+03  0.21270333719E+04  0.20481229997E+04 0.  0.
        4    1    3    3  502    0 -0.73804136402E+03  0.45841462431E+03 -0.84996030357E+03  0.12154353760E+04  0.12699999809E+01 0. -1.
       -4    1    3    3    0  502  0.73804136402E+03 -0.45841462431E+03  0.27597150283E+03  0.91159799586E+03  0.12699999809E+01 0.  1.
</event>
<event>
 5   0  0.5506332E-05  0.2099842E+04  0.7818609E-02  0.8561313E-01
        2   -1    0    0  501    0  0.00000000000E+00  0.00000000000E+00  0.16144689134E+04  0.16144689134E+04  0.25500000920E-02 0. -1.
       -2   -1    0    0    0  501  0.00000000000E+00  0.00000000000E+00 -0.68278429644E+03  0.68278429644E+03  0.25500000920E-02 0.  1.
    10030    2    1    2    0    0  0.00000000000E+00  0.00000000000E+00  0.93168461694E+03  0.22972532098E+04  0.20998419190E+04 0.  0.
        3    1    3    3  502    0  0.37858584862E+03  0.23267113079E+03  0.15065184051E+04  0.15706880069E+04  0.10100000352E+00 0. -1.
       -3    1    3    3    0  502 -0.37858584862E+03 -0.23267113079E+03 -0.57483378817E+03  0.72656520292E+03  0.10100000352E+00 0.  1.
</event>
<event>
 5   0  0.2699285E-05  0.2093922E+04  0.7818609E-02  0.8563926E-01
       -1   -1    0    0    0  501  0.00000000000E+00  0.00000000000E+00  0.60874034837E+03  0.60874034839E+03  0.50400001928E-02 0. -1.
        1   -1    0    0  501    0  0.00000000000E+00  0.00000000000E+00 -0.18006482775E+04  0.18006482775E+04  0.50400001928E-02 0.  1.
    10030    2    1    2    0    0  0.00000000000E+00  0.00000000000E+00 -0.11919079291E+04  0.24093886259E+04  0.20939219276E+04 0.  0.
        2    1    3    3  502    0 -0.65312577882E+03  0.23658389815E+03 -0.14972816039E+04  0.16505748772E+04  0.25500000920E-02 0.  1.
       -2    1    3    3    0  502  0.65312577882E+03 -0.23658389815E+03  0.30537367485E+03  0.75881374863E+03  0.25500000920E-02 0. -1.
</event>
<event>
 5   0  0.2602060E-05  0.2114142E+04  0.7818609E-02  0.8555039E-01
        1   -1    0    0  501    0  0.00000000000E+00  0.00000000000E+00  0.57159462416E+03  0.57159462418E+03  0.50400001928E-02 0. -1.
       -1   -1    0    0    0  501  0.00000000000E+00  0.00000000000E+00 -0.19548798046E+04  0.19548798046E+04  0.50400001928E-02 0.  1.
    10030    2    1    2    0    0  0.00000000000E+00  0.00000000000E+00 -0.13832851805E+04  0.25264744288E+04  0.21141417050E+04 0.  0.
        1    1    3    3  502    0 -0.45609782087E+02  0.66340866993E+03  0.29033015303E+03  0.72559142315E+03  0.50400001928E-02 0. -1.
       -1    1    3    3    0  502  0.45609782087E+02 -0.66340866993E+03 -0.16736153335E+04  0.18008830057E+04  0.50400001928E-02 0.  1.
</event>
<event>
 5   0  0.5462851E-05  0.2103722E+04  0.7818609E-02  0.8559606E-01
        2   -1    0    0  501    0  0.00000000000E+00  0.00000000000E+00  0.15462043019E+04  0.15462043019E+04  0.25500000920E-02 0. -1.
       -2   -1    0    0    0  501  0.00000000000E+00  0.00000000000E+00 -0.71556625739E+03  0.71556625740E+03  0.25500000920E-02 0.  1.
    10030    2    1    2    0    0  0.00000000000E+00  0.00000000000E+00  0.83063804453E+03  0.22617705593E+04  0.21037220591E+04 0.  0.
        1    1    3    3  502    0 -0.73397509631E+01  0.10447194826E+04  0.54663857810E+03  0.11791125495E+04  0.50400001928E-02 0. -1.
       -1    1    3    3    0  502  0.73397509631E+01 -0.10447194826E+04  0.28399946644E+03  0.10826580098E+04  0.50400001928E-02 0.  1.
</event>
<event>
 5   0  0.2604390E-05  0.2023745E+04  0.7818609E-02  0.8595599E-01
        1   -1    0    0  501    0  0.00000000000E+00  0.00000000000E+00  0.91983778836E+03  0.91983778837E+03  0.50400001928E-02 0.  1.
       -1   -1    0    0    0  501  0.00000000000E+00  0.00000000000E+00 -0.11131161451E+04  0.11131161451E+04  0.50400001928E-02 0. -1.
    10030    2    1    2    0    0  0.00000000000E+00  0.00000000000E+00 -0.19327835675E+03  0.20329539335E+04  0.20237453329E+04 0.  0.
        5    1    3    3  502    0  0.32504605453E+03  0.82134530044E+03 -0.59244469670E+03  0.10636145208E+04  0.46999998093E+01 0. -1.
       -5    1    3    3    0  502 -0.32504605453E+03 -0.82134530044E+03  0.39916633995E+03  0.96933941273E+03  0.46999998093E+01 0.  1.
</event>
<event>
 5   0  0.2602060E-05  0.2097698E+04  0.7818609E-02  0.8562258E-01
       -1   -1    0    0    0  501  0.00000000000E+00  0.00000000000E+00  0.10162944086E+04  0.10162944086E+04  0.50400001928E-02 0.  1.
        1   -1    0    0  501    0  0.00000000000E+00  0.00000000000E+00 -0.10824464218E+04  0.10824464218E+04  0.50400001928E-02 0. -1.
    10030    2    1    2    0    0  0.00000000000E+00  0.00000000000E+00 -0.66152013248E+02  0.20987408304E+04  0.20976980203E+04 0.  0.
        1    1    3    3  502    0  0.89617767570E+03 -0.37362167507E+02 -0.57699494666E+03  0.10665146630E+04  0.50400001928E-02 0. -1.
       -1    1    3    3    0  502 -0.89617767570E+03  0.37362167507E+02  0.51084293341E+03  0.10322261674E+04  0.50400001928E-02 0.  1.
</event>
<event>
 5   0  0.5506332E-05  0.2120693E+04  0.7818609E-02  0.8552182E-01
       -2   -1    0    0    0  501  0.00000000000E+00  0.00000000000E+00  0.93645454880E+03  0.93645454880E+03  0.25500000920E-02 0.  1.
        2   -1    0    0  501    0  0.00000000000E+00  0.00000000000E+00 -0.12006293219E+04  0.12006293219E+04  0.25500000920E-02 0. -1.
    10030    2    1    2    0    0  0.00000000000E+00  0.00000000000E+00 -0.26417477311E+03  0.21370838707E+04  0.21206930848E+04 0.  0.
        3    1    3    3  502    0  0.48614581042E+03  0.58857833778E+03  0.60951663569E+03  0.97686884896E+03  0.10100000352E+00 0.  1.
       -3    1    3    3    0  502 -0.48614581042E+03 -0.58857833778E+03 -0.87369140880E+03  0.11602150218E+04  0.10100000352E+00 0. -1.
</event>
<event>
 5   0  0.2602060E-05  0.2141090E+04  0.7818609E-02  0.8543356E-01
        1   -1    0    0  501    0  0.00000000000E+00  0.00000000000E+00  0.10990137921E+04  0.10990137921E+04  0.50400001928E-02 0.  1.
       -1   -1    0    0    0  501  0.00000000000E+00  0.00000000000E+00 -0.10428135625E+04  0.10428135625E+04  0.50400001928E-02 0. -1.
    10030    2    1    2    0    0  0.00000000000E+00  0.00000000000E+00  0.56200229597E+02  0.21418273546E+04  0.21410898980E+04 0.  0.
        1    1    3    3  502    0  0.27467356005E+03 -0.14156365398E+03 -0.99723128709E+03  0.10440096133E+04  0.50400001928E-02 0. -1.
       -1    1    3    3    0  502 -0.27467356005E+03  0.14156365398E+03  0.10534315167E+04  0.10978177413E+04  0.50400001928E-02 0.  1.
</event>
<event>
 5   0  0.2602060E-05  0.2093889E+04  0.7818609E-02  0.8563940E-01
       -1   -1    0    0    0  501  0.00000000000E+00  0.00000000000E+00  0.74014844206E+03  0.74014844208E+03  0.50400001928E-02 0.  1.
        1   -1    0    0  501    0  0.00000000000E+00  0.00000000000E+00 -0.14809091769E+04  0.14809091769E+04  0.50400001928E-02 0. -1.
    10030    2    1    2    0    0  0.00000000000E+00  0.00000000000E+00 -0.74076073484E+03  0.22210576190E+04  0.20938888415E+04 0.  0.
        1    1    3    3  502    0  0.47470421062E+02  0.47140970940E+03  0.61992200469E+03  0.78024601692E+03  0.50400001928E-02 0.  1.
       -1    1    3    3    0  502 -0.47470421062E+02 -0.47140970940E+03 -0.13606827395E+04  0.14408116021E+04  0.50400001928E-02 0. -1.
</event>
<event>
 5   0  0.2699285E-05  0.2078718E+04  0.7818609E-02  0.8570676E-01
        1   -1    0    0  501    0  0.00000000000E+00  0.00000000000E+00  0.81244709262E+03  0.81244709264E+03  0.50400001928E-02 0.  1.
       -1   -1    0    0    0  501  0.00000000000E+00  0.00000000000E+00 -0.13296465474E+04  0.13296465474E+04  0.50400001928E-02 0. -1.
    10030    2    1    2    0    0  0.00000000000E+00  0.00000000000E+00 -0.51719945481E+03  0.21420936401E+04  0.20787183279E+04 0.  0.
        2    1    3    3  502    0 -0.22698913895E+03  0.79875203975E+01 -0.13037599451E+04  0.13233963367E+04  0.25500000920E-02 0. -1.
       -2    1    3    3    0  502  0.22698913895E+03 -0.79875203975E+01  0.78656049026E+03  0.81869730336E+03  0.25500000920E-02 0.  1.
</event>
<event>
 5   0  0.5462851E-05  0.1869478E+04  0.7818609E-02  0.8670200E-01
        2   -1    0    0  501    0  0.00000000000E+00  0.00000000000E+00  0.13152606656E+04  0.13152606657E+04  0.25500000920E-02 0. -1.
       -2   -1    0    0    0  501  0.00000000000E+00  0.00000000000E+00 -0.66430744264E+03  0.66430744264E+03  0.25500000920E-02 0.  1.
    10030    2    1    2    0    0  0.00000000000E+00  0.00000000000E+00  0.65095322301E+03  0.19795681083E+04  0.18694784826E+04 0.  0.
        1    1    3    3  502    0 -0.60386569649E+03  0.38973938707E+03 -0.30736893288E+03  0.78168166805E+03  0.50400001928E-02 0.  1.
       -1    1    3    3    0  502  0.60386569649E+03 -0.38973938707E+03  0.95832215589E+03  0.11978864402E+04  0.50400001928E-02 0. -1.
</event>
<event>
 5   0  0.2017750E-05  0.2107879E+04  0.7818609E-02  0.8557781E-01
        3   -1    0    0  501    0  0.00000000000E+00  0.00000000000E+00  0.11184776399E+04  0.11184776445E+04  0.10100000352E+00 0. -1.
       -3   -1    0    0    0  501  0.00000000000E+00  0.00000000000E+00 -0.99312510502E+03  0.99312511016E+03  0.10100000352E+00 0.  1.
    10030    2    1    2    0    0  0.00000000000E+00  0.00000000000E+00  0.12535253491E+03  0.21116027546E+04  0.21078787763E+04 0.  0.
        5    1    3    3  502    0  0.62593187184E+03  0.62352802636E+03 -0.51295899055E+03  0.10216295433E+04  0.46999998093E+01 0.  1.
       -5    1    3    3    0  502 -0.62593187184E+03 -0.62352802636E+03  0.63831152546E+03  0.10899732113E+04  0.46999998093E+01 0. -1.
</event>
<event>
 5   0  0.5506332E-05  0.2093279E+04  0.7818609E-02  0.8564210E-01
        2   -1    0    0  501    0  0.00000000000E+00  0.00000000000E+00  0.15986234795E+04  0.15986234795E+04  0.25500000920E-02 0. -1.
       -2   -1    0    0    0  501  0.00000000000E+00  0.00000000000E+00 -0.68524821452E+03  0.68524821452E+03  0.25500000920E-02 0.  1.
    10030    2    1    2    0    0  0.00000000000E+00  0.00000000000E+00  0.91337526497E+03  0.22838716940E+04  0.20932786580E+04 0.  0.
        3    1    3    3  502    0 -0.95511394290E+03 -0.97988773178E+02  0.91128960256E+03  0.13237421175E+04  0.10100000352E+00 0. -1.
       -3    1    3    3    0  502  0.95511394290E+03  0.97988773178E+02  0.20856624091E+01  0.96012957656E+03  0.10100000352E+00 0.  1.
</event>
<event>
 5   0  0.5954140E-05  0.2102559E+04  0.7818609E-02  0.8560117E-01
       -2   -1    0    0    0  501  0.00000000000E+00  0.00000000000E+00  0.62782092189E+03  0.62782092190E+03  0.25500000920E-02 0.  1.
        2   -1    0    0  501    0  0.00000000000E+00  0.00000000000E+00 -0.17603562239E+04  0.17603562239E+04  0.25500000920E-02 0. -1.
    10030    2    1    2    0    0  0.00000000000E+00  0.00000000000E+00 -0.11325353020E+04  0.23881771458E+04  0.21025588861E+04 0.  0.
        2    1    3    3  502    0  0.21142507051E+03  0.91217593209E+03 -0.11091281763E+04  0.14515270590E+04  0.25500000920E-02 0. -1.
       -2    1    3    3    0  502 -0.21142507051E+03 -0.91217593209E+03 -0.23407125674E+02  0.93665008678E+03  0.25500000920E-02 0.  1.
</event>
<event>
 5   0  0.5462851E-05  0.2098840E+04  0.7818609E-02  0.8561755E-01
       -2   -1    0    0    0  501  0.00000000000E+00  0.00000000000E+00  0.85134968182E+03  0.85134968182E+03  0.25500000920E-02 0.  1.
        2   -1    0    0  501    0  0.00000000000E+00  0.00000000000E+00 -0.12935722769E+04  0.12935722769E+04  0.25500000920E-02 0. -1.
    10030    2    1    2    0    0  0.00000000000E+00  0.00000000000E+00 -0.44222259510E+03  0.21449219587E+04  0.20988400095E+04 0.  0.
        1    1    3    3  502    0 -0.18993665948E+03 -0.52545422544E+03 -0.11289304843E+04  0.12596277688E+04  0.50400001928E-02 0. -1.
       -1    1    3    3    0  502  0.18993665948E+03  0.52545422544E+03  0.68670788917E+03  0.88529418993E+03  0.50400001928E-02 0.  1.
</event>
<event>
 5   0  0.5506332E-05  0.2087019E+04  0.7818609E-02  0.8566983E-01
       -2   -1    0    0    0  501  0.00000000000E+00  0.00000000000E+00  0.37792639004E+03  0.37792639004E+03  0.25500000920E-02 0. -1.
        2   -1    0    0  501    0  0.00000000000E+00  0.00000000000E+00 -0.28812806793E+04  0.28812806793E+04  0.25500000920E-02 0.  1.
    10030    2    1    2    0    0  0.00000000000E+00  0.00000000000E+00 -0.25033542892E+04  0.32592070693E+04  0.20870189322E+04 0.  0.
        3    1    3    3  502    0  0.99254083194E+03 -0.11136605318E+03 -0.77962189582E+03  0.12670240769E+04  0.10100000352E+00 0. -1.
       -3    1    3    3    0  502 -0.99254083194E+03  0.11136605318E+03 -0.17237323934E+04  0.19921829924E+04  0.10100000352E+00 0.  1.
</event>
<event>
 5   0  0.2602060E-05  0.2111236E+04  0.7818609E-02  0.8556310E-01
        1   -1    0    0  501    0  0.00000000000E+00  0.00000000000E+00  0.12475166383E+04  0.12475166383E+04  0.50400001928E-02 0. -1.
       -1   -1    0    0    0  501  0.00000000000E+00  0.00000000000E+00 -0.89323831082E+03  0.89323831083E+03  0.50400001928E-02 0.  1.
    10030    2    1    2    0    0  0.00000000000E+00  0.00000000000E+00  0.35427832747E+03  0.21407549491E+04  0.21112362774E+04 0.  0.
        1    1    3    3  502    0  0.37151649547E+03 -0.75414195477E+03  0.82448136118E+03  0.11775075835E+04  0.50400001928E-02 0. -1.
       -1    1    3    3    0  502 -0.37151649547E+03  0.75414195477E+03 -0.47020303371E+03  0.96324736558E+03  0.50400001928E-02 0.  1.
</event>
<event>
 5   0  0.2017750E-05  0.2102108E+04  0.7818609E-02  0.8560316E-01
       -3   -1    0    0    0  501  0.00000000000E+00  0.00000000000E+00  0.79072506797E+03  0.79072507442E+03  0.10100000352E+00 0. -1.
        3   -1    0    0  501    0  0.00000000000E+00  0.00000000000E+00 -0.13970900267E+04  0.13970900303E+04  0.10100000352E+00 0.  1.
    10030    2    1    2    0    0  0.00000000000E+00  0.00000000000E+00 -0.60636495869E+03  0.21878151047E+04  0.21021076255E+04 0.  0.
        3    1    3    3  502    0 -0.69887083892E+02  0.89922814661E+03  0.25846686424E+03  0.93824335557E+03  0.10100000352E+00 0. -1.
       -3    1    3    3    0  502  0.69887083892E+02 -0.89922814661E+03 -0.86483182293E+03  0.12495717492E+04  0.10100000352E+00 0.  1.
</event>
<event>
 5   0  0.5967046E-05  0.2153538E+04  0.7818609E-02  0.8538020E-01
       -2   -1    0    0    0  501  0.00000000000E+00  0.00000000000E+00  0.96410298519E+03  0.96410298519E+03  0.25500000920E-02 0. -1.
        2   -1    0    0  501    0  0.00000000000E+00  0.00000000000E+00 -0.12026007619E+04  0.12026007619E+04  0.25500000920E-02 0.  1.
    10030    2    1    2    0    0  0.00000000000E+00  0.00000000000E+00 -0.23849777669E+03  0.21667037471E+04  0.21535375404E+04 0.  0.
        4    1    3    3  502    0  0.52140002034E+03  0.63653204898E+02 -0.10649528242E+04  0.11874493010E+04  0.12699999809E+01 0.  1.
       -4    1    3    3    0  502 -0.52140002034E+03 -0.63653204898E+02  0.82645504752E+03  0.97925444609E+03  0.12699999809E+01 0. -1.
</event>
<event>
 5   0  0.5954140E-05  0.2108136E+04  0.7818609E-02  0.8557668E-01
        2   -1    0    0  501    0  0.00000000000E+00  0.00000000000E+00  0.13128232698E+04  0.13128232698E+04  0.25500000920E-02 0. -1.
       -2   -1    0    0    0  501  0.00000000000E+00  0.00000000000E+00 -0.84631286189E+03  0.84631286189E+03  0.25500000920E-02 0.  1.
    10030    2    1    2    0    0  0.00000000000E+00  0.00000000000E+00  0.46651040789E+03  0.21591361317E+04  0.21081358766E+04 0.  0.
        2    1    3    3  502    0 -0.63463176863E+03 -0.52305779953E+01  0.10952054372E+04  0.12658040095E+04  0.25500000920E-02 0. -1.
       -2    1    3    3    0  502  0.63463176863E+03  0.52305779953E+01 -0.62869502930E+03  0.89333212221E+03  0.25500000920E-02 0.  1.
</event>
<event>
 5   0  0.2699285E-05  0.2088439E+04  0.7818609E-02  0.8566353E-01
        1   -1    0    0  501    0  0.00000000000E+00  0.00000000000E+00  0.20372016172E+04  0.20372016172E+04  0.50400001928E-02 0. -1.
       -1   -1    0    0    0  501  0.00000000000E+00  0.00000000000E+00 -0.53524132961E+03  0.53524132964E+03  0.50400001928E-02 0.  1.
    10030    2    1    2    0    0  0.00000000000E+00  0.00000000000E+00  0.15019602876E+04  0.25724429468E+04  0.20884391323E+04 0.  0.
        2    1    3    3  502    0  0.40653413751E+03  0.37392426059E+03 -0.34056864121E+03  0.64890396593E+03  0.25500000920E-02 0.  1.
       -2    1    3    3    0  502 -0.40653413751E+03 -0.37392426059E+03  0.18425289288E+04  0.19235389809E+04  0.25500000920E-02 0. -1.
</event>
<event>
 5   0  0.2699285E-05  0.2093161E+04  0.7818609E-02  0.8564262E-01
       -1   -1    0    0    0  501  0.00000000000E+00  0.00000000000E+00  0.86148424345E+03  0.86148424347E+03  0.50400001928E-02 0. -1.
        1   -1    0    0  501    0  0.00000000000E+00  0.00000000000E+00 -0.12714457923E+04  0.12714457923E+04  0.50400001928E-02 0.  1.
    10030    2    1    2    0    0  0.00000000000E+00  0.00000000000E+00 -0.40996154881E+03  0.21329300357E+04  0.20931607836E+04 0.  0.
        2    1    3    3  502    0  0.36804862316E+03 -0.49609575218E+03  0.65591394120E+03  0.90099605027E+03  0.25500000920E-02 0. -1.
       -2    1    3    3    0  502 -0.36804862316E+03  0.49609575218E+03 -0.10658754900E+04  0.12319339855E+04  0.25500000920E-02 0.  1.
</event>
<event>
 5   0  0.5462851E-05  0.2099979E+04  0.7818609E-02  0.8561253E-01
       -2   -1    0    0    0  501  0.00000000000E+00  0.00000000000E+00  0.15535107586E+04  0.15535107586E+04  0.25500000920E-02 0. -1.
        2   -1    0    0  501    0  0.00000000000E+00  0.00000000000E+00 -0.70966875925E+03  0.70966875926E+03  0.25500000920E-02 0.  1.
    10030    2    1    2    0    0  0.00000000000E+00  0.00000000000E+00  0.84384199938E+03  0.22631795179E+04  0.20999790976E+04 0.  0.
        1    1    3    3  502    0 -0.97245739894E+03 -0.30941429654E+03  0.15559783974E+03  0.10322893429E+04  0.50400001928E-02 0. -1.
       -1    1    3    3    0  502  0.97245739894E+03  0.30941429654E+03  0.68824415965E+03  0.12308901750E+04  0.50400001928E-02 0.  1.
</event>
<event>
 5   0  0.2602060E-05  0.2069373E+04  0.7818609E-02  0.8574856E-01
        1   -1    0    0  501    0  0.00000000000E+00  0.00000000000E+00  0.14495804513E+04  0.14495804513E+04  0.50400001928E-02 0. -1.
       -1   -1    0    0    0  501  0.00000000000E+00  0.00000000000E+00 -0.73854225033E+03  0.73854225035E+03  0.50400001928E-02 0.  1.
    10030    2    1    2    0    0  0.00000000000E+00  0.00000000000E+00  0.71103820099E+03  0.21881227017E+04  0.20693732467E+04 0.  0.
        1    1    3    3  502    0  0.45748032637E+03 -0.48125340684E+03 -0.48354267303E+03  0.82140526372E+03  0.50400001928E-02 0.  1.
       -1    1    3    3    0  502 -0.45748032637E+03  0.48125340684E+03  0.11945808740E+04  0.13667174379E+04  0.50400001928E-02 0. -1.
</event>
<event>
 5   0  0.2604390E-05  0.2093275E+04  0.7818609E-02  0.8564212E-01
       -1   -1    0    0    0  501  0.00000000000E+00  0.00000000000E+00  0.11312516092E+04  0.11312516092E+04  0.50400001928E-02 0.  1.
        1   -1    0    0  501    0  0.00000000000E+00  0.00000000000E+00 -0.96835229232E+03  0.96835229233E+03  0.50400001928E-02 0. -1.
    10030    2    1    2    0    0  0.00000000000E+00  0.00000000000E+00  0.16289931692E+03  0.20996039016E+04  0.20932750312E+04 0.  0.
        5    1    3    3  502    0  0.57141216187E+02 -0.89731092290E+03  0.61878943558E+03  0.10914918536E+04  0.46999998093E+01 0.  1.
       -5    1    3    3    0  502 -0.57141216187E+02  0.89731092290E+03 -0.45589011867E+03  0.10081120480E+04  0.46999998093E+01 0. -1.
</event>
<event>
 5   0  0.2602060E-05  0.2043241E+04  0.7818609E-02  0.8586667E-01
       -1   -1    0    0    0  501  0.00000000000E+00  0.00000000000E+00  0.69911037423E+03  0.69911037425E+03  0.50400001928E-02 0. -1.
        1   -1    0    0  501    0  0.00000000000E+00  0.00000000000E+00 -0.14929100349E+04  0.14929100349E+04  0.50400001928E-02 0.  1.
    10030    2    1    2    0    0  0.00000000000E+00  0.00000000000E+00 -0.79379966068E+03  0.21920204092E+04  0.20432414377E+04 0.  0.
        1    1    3    3  502    0 -0.93238532461E+03 -0.39871300444E+03 -0.26379100530E+03  0.10478073048E+04  0.50400001928E-02 0. -1.
       -1    1    3    3    0  502  0.93238532461E+03  0.39871300444E+03 -0.53000865538E+03  0.11442131044E+04  0.50400001928E-02 0.  1.
</event>
<event>
 5   0  0.2732159E-05  0.2098749E+04  0.7818609E-02  0.8561795E-01
        1   -1    0    0  501    0  0.00000000000E+00  0.00000000000E+00  0.10634489469E+04  0.10634489469E+04  0.50400001928E-02 0.  1.
       -1   -1    0    0    0  501  0.00000000000E+00  0.00000000000E+00 -0.10354862901E+04  0.10354862902E+04  0.50400001928E-02 0. -1.
    10030    2    1    2    0    0  0.00000000000E+00  0.00000000000E+00  0.27962656733E+02  0.20989352370E+04  0.20987489652E+04 0.  0.
        3    1    3    3  502    0 -0.36795237544E+03  0.73153769663E+03  0.67027919477E+03  0.10582110193E+04  0.10100000352E+00 0.  1.
       -3    1    3    3    0  502  0.36795237544E+03 -0.73153769663E+03 -0.64231653804E+03  0.10407242178E+04  0.10100000352E+00 0. -1.
</event>
<event>
 5   0  0.5506332E-05  0.2093869E+04  0.7818609E-02  0.8563949E-01
        2   -1    0    0  501    0  0.00000000000E+00  0.00000000000E+00  0.13802887112E+04  0.13802887112E+04  0.25500000920E-02 0.  1.
       -2   -1    0    0    0  501  0.00000000000E+00  0.00000000000E+00 -0.79408919175E+03  0.79408919175E+03  0.25500000920E-02 0. -1.
    10030    2    1    2    0    0  0.00000000000E+00  0.00000000000E+00  0.58619951941E+03  0.21743779029E+04  0.20938694773E+04 0.  0.
        3    1    3    3  502    0 -0.61082875299E+03  0.99010476344E+02 -0.58385693071E+03  0.85076657530E+03  0.10100000352E+00 0. -1.
       -3    1    3    3    0  502  0.61082875299E+03 -0.99010476344E+02  0.11700564501E+04  0.13236113276E+04  0.10100000352E+00 0.  1.
</event>
<event>
 5   0  0.5462851E-05  0.2102209E+04  0.7818609E-02  0.8560271E-01
        2   -1    0    0  501    0  0.00000000000E+00  0.00000000000E+00  0.10445031148E+04  0.10445031148E+04  0.25500000920E-02 0.  1.
       -2   -1    0    0    0  501  0.00000000000E+00  0.00000000000E+00 -0.10577474917E+04  0.10577474917E+04  0.25500000920E-02 0. -1.
    10030    2    1    2    0    0  0.00000000000E+00  0.00000000000E+00 -0.13244376950E+02  0.21022506065E+04  0.21022088857E+04 0.  0.
        1    1    3    3  502    0  0.98509913835E+03 -0.36478785948E+03  0.29848453882E+02  0.10508955348E+04  0.50400001928E-02 0. -1.
       -1    1    3    3    0  502 -0.98509913835E+03  0.36478785948E+03 -0.43092830831E+02  0.10513550717E+04  0.50400001928E-02 0.  1.
</event>
<event>
 5   0  0.5967046E-05  0.2095101E+04  0.7818609E-02  0.8563405E-01
        2   -1    0    0  501    0  0.00000000000E+00  0.00000000000E+00  0.15781276694E+04  0.15781276694E+04  0.25500000920E-02 0.  1.
       -2   -1    0    0    0  501  0.00000000000E+00  0.00000000000E+00 -0.69535687970E+03  0.69535687970E+03  0.25500000920E-02 0. -1.
    10030    2    1    2    0    0  0.00000000000E+00  0.00000000000E+00  0.88277078967E+03  0.22734845491E+04  0.20951008873E+04 0.  0.
        4    1    3    3  502    0 -0.39071931108E+03 -0.16780441154E+03 -0.59748860468E+03  0.73335812957E+03  0.12699999809E+01 0. -1.
       -4    1    3    3    0  502  0.39071931108E+03  0.16780441154E+03  0.14802593943E+04  0.15401264195E+04  0.12699999809E+01 0.  1.
</event>
<event>
 5   0  0.2699285E-05  0.2127864E+04  0.7818609E-02  0.8549067E-01
       -1   -1    0    0    0  501  0.00000000000E+00  0.00000000000E+00  0.84803745202E+03  0.84803745203E+03  0.50400001928E-02 0.  1.
        1   -1    0    0  501    0  0.00000000000E+00  0.00000000000E+00 -0.13347894279E+04  0.13347894280E+04  0.50400001928E-02 0. -1.
    10030    2    1    2    0    0  0.00000000000E+00  0.00000000000E+00 -0.48675197592E+03  0.21828268800E+04  0.21278641174E+04 0.  0.
        2    1    3    3  502    0 -0.78960078663E+03 -0.76468860458E+02 -0.97065585478E+03  0.12535907136E+04  0.25500000920E-02 0. -1.
       -2    1    3    3    0  502  0.78960078663E+03  0.76468860458E+02  0.48390387886E+03  0.92923616635E+03  0.25500000920E-02 0.  1.
</event>
<event>
 5   0  0.5866610E-05  0.2119821E+04  0.7818609E-02  0.8552562E-01
        2   -1    0    0  501    0  0.00000000000E+00  0.00000000000E+00  0.12065433771E+04  0.12065433771E+04  0.25500000920E-02 0.  1.
       -2   -1    0    0    0  501  0.00000000000E+00  0.00000000000E+00 -0.93109830150E+03  0.93109830150E+03  0.25500000920E-02 0. -1.
    10030    2    1    2    0    0  0.00000000000E+00  0.00000000000E+00  0.27544507563E+03  0.21376416786E+04  0.21198212086E+04 0.  0.
        5    1    3    3  502    0 -0.15802889163E+03 -0.62687338732E+03 -0.70924597095E+03  0.95968500646E+03  0.46999998093E+01 0. -1.
       -5    1    3    3    0  502  0.15802889163E+03  0.62687338732E+03  0.98469104658E+03  0.11779566722E+04  0.46999998093E+01 0.  1.
</event>
<event>
 5   0  0.5866610E-05  0.2089384E+04  0.7818609E-02  0.8565934E-01
       -2   -1    0    0    0  501  0.00000000000E+00  0.00000000000E+00  0.56596614844E+03  0.56596614845E+03  0.25500000920E-02 0.  1.
        2   -1    0    0  501    0  0.00000000000E+00  0.00000000000E+00 -0.19283508916E+04  0.19283508916E+04  0.25500000920E-02 0. -1.
    10030    2    1    2    0    0  0.00000000000E+00  0.00000000000E+00 -0.13623847431E+04  0.24943170400E+04  0.20893839541E+04 0.  0.
        5    1    3    3  502    0  0.96216399739E+03 -0.35886829019E+03 -0.45213970245E+03  0.11220509828E+04  0.46999998093E+01 0.  1.
       -5    1    3    3    0  502 -0.96216399739E+03  0.35886829019E+03 -0.91024504069E+03  0.13722660572E+04  0.46999998093E+01 0. -1.
</event>
<event>
 5   0  0.5506332E-05  0.2103920E+04  0.7818609E-02  0.8559519E-01
        2   -1    0    0  501    0  0.00000000000E+00  0.00000000000E+00  0.19624656530E+04  0.19624656530E+04  0.25500000920E-02 0. -1.
       -2   -1    0    0    0  501  0.00000000000E+00  0.00000000000E+00 -0.56389236368E+03  0.56389236368E+03  0.25500000920E-02 0.  1.
    10030    2    1    2    0    0  0.00000000000E+00  0.00000000000E+00  0.13985732893E+04  0.25263580167E+04  0.21039195761E+04 0.  0.
        3    1    3    3  502    0  0.32498381773E+03  0.97233832582E+03  0.98233388961E+03  0.14198718895E+04  0.10100000352E+00 0. -1.
       -3    1    3    3    0  502 -0.32498381773E+03 -0.97233832582E+03  0.41623939973E+03  0.11064861272E+04  0.10100000352E+00 0.  1.
</event>
<event>
 5   0  0.5866610E-05  0.2102023E+04  0.7818609E-02  0.8560353E-01
       -2   -1    0    0    0  501  0.00000000000E+00  0.00000000000E+00  0.38150851985E+03  0.38150851986E+03  0.25500000920E-02 0.  1.
        2   -1    0    0  501    0  0.00000000000E+00  0.00000000000E+00 -0.28954154658E+04  0.28954154658E+04  0.25500000920E-02 0. -1.
    10030    2    1    2    0    0  0.00000000000E+00  0.00000000000E+00 -0.25139069459E+04  0.32769239856E+04  0.21020234715E+04 0.  0.
        5    1    3    3  502    0 -0.34533660539E+03 -0.97698699072E+03 -0.15307352207E+04  0.18484948896E+04  0.46999998093E+01 0. -1.
       -5    1    3    3    0  502  0.34533660539E+03  0.97698699072E+03 -0.98317172525E+03  0.14284290960E+04  0.46999998093E+01 0.  1.
</event>
<event>
 5   0  0.5954140E-05  0.2108556E+04  0.7818609E-02  0.8557484E-01
       -2   -1    0    0    0  501  0.00000000000E+00  0.00000000000E+00  0.96662157854E+03  0.96662157855E+03  0.25500000920E-02 0. -1.
        2   -1    0    0  501    0  0.00000000000E+00  0.00000000000E+00 -0.11498829795E+04  0.11498829795E+04  0.25500000920E-02 0.  1.
    10030    2    1    2    0    0  0.00000000000E+00  0.00000000000E+00 -0.18326140091E+03  0.21165045580E+04  0.21085556201E+04 0.  0.
        2    1    3    3  502    0 -0.59136841280E+02  0.16795863115E+03  0.95141824583E+03  0.96793798679E+03  0.25500000920E-02 0. -1.
       -2    1    3    3    0  502  0.59136841280E+02 -0.16795863115E+03 -0.11346796467E+04  0.11485665712E+04  0.25500000920E-02 0.  1.
</event>
<event>
 5   0  0.5866610E-05  0.2096897E+04  0.7818609E-02  0.8562611E-01
       -2   -1    0    0    0  501  0.00000000000E+00  0.00000000000E+00  0.88507122836E+03  0.88507122836E+03  0.25500000920E-02 0. -1.
        2   -1    0    0  501    0  0.00000000000E+00  0.00000000000E+00 -0.12419840310E+04  0.12419840310E+04  0.25500000920E-02 0.  1.
    10030    2    1    2    0    0  0.00000000000E+00  0.00000000000E+00 -0.35691280268E+03  0.21270552594E+04  0.20968970713E+04 0.  0.
        5    1    3    3  502    0 -0.55571205993E+02  0.64928578973E+03 -0.10115860897E+04  0.12033240223E+04  0.46999998093E+01 0.  1.
       -5    1    3    3    0  502  0.55571205993E+02 -0.64928578973E+03  0.65467328704E+03  0.92373123712E+03  0.46999998093E+01 0. -1.
</event>
<event>
 5   0  0.5954140E-05  0.2053749E+04  0.7818609E-02  0.8581895E-01
       -2   -1    0    0    0  501  0.00000000000E+00  0.00000000000E+00  0.15548454252E+04  0.15548454252E+04  0.25500000920E-02 0.  1.
        2   -1    0    0  501    0  0.00000000000E+00  0.00000000000E+00 -0.67818401456E+03  0.67818401457E+03  0.25500000920E-02 0. -1.
    10030    2    1    2    0    0  0.00000000000E+00  0.00000000000E+00  0.87666141060E+03  0.22330294397E+04  0.20537490718E+04 0.  0.
        2    1    3    3  502    0 -0.70556476842E+03  0.74226781015E+03  0.35632703749E+03  0.10843210328E+04  0.25500000920E-02 0. -1.
       -2    1    3    3    0  502  0.70556476842E+03 -0.74226781015E+03  0.52033437311E+03  0.11487084070E+04  0.25500000920E-02 0.  1.
</event>
<event>
 5   0  0.5967046E-05  0.2147422E+04  0.7818609E-02  0.8540637E-01
       -2   -1    0    0    0  501  0.00000000000E+00  0.00000000000E+00  0.88566822601E+03  0.88566822601E+03  0.25500000920E-02 0. -1.
        2   -1    0    0  501    0  0.00000000000E+00  0.00000000000E+00 -0.13016785483E+04  0.13016785483E+04  0.25500000920E-02 0.  1.
    10030    2    1    2    0    0  0.00000000000E+00  0.00000000000E+00 -0.41601032230E+03  0.21873467743E+04  0.21474220179E+04 0.  0.
        4    1    3    3  502    0 -0.22903716702E+03  0.11030559147E+03 -0.12705817920E+04  0.12957642727E+04  0.12699999809E+01 0.  1.
       -4    1    3    3    0  502  0.22903716702E+03 -0.11030559147E+03  0.85457146972E+03  0.89158250159E+03  0.12699999809E+01 0. -1.
</event>
<event>
 5   0  0.5462851E-05  0.2098943E+04  0.7818609E-02  0.8561709E-01
        2   -1    0    0  501    0  0.00000000000E+00  0.00000000000E+00  0.65705592514E+03  0.65705592515E+03  0.25500000920E-02 0. -1.
       -2   -1    0    0    0  501  0.00000000000E+00  0.00000000000E+00 -0.16762510485E+04  0.16762510485E+04  0.25500000920E-02 0.  1.
    10030    2    1    2    0    0  0.00000000000E+00  0.00000000000E+00 -0.10191951234E+04  0.23333069737E+04  0.20989432422E+04 0.  0.
        1    1    3    3  502    0  0.96107903715E+03  0.47316255850E+02 -0.43921744935E+02  0.96324496543E+03  0.50400001928E-02 0. -1.
       -1    1    3    3    0  502 -0.96107903715E+03 -0.47316255850E+02 -0.97527337844E+03  0.13700620082E+04  0.50400001928E-02 0.  1.
</event>
<event>
 5   0  0.2602060E-05  0.2109941E+04  0.7818609E-02  0.8556877E-01
       -1   -1    0    0    0  501  0.00000000000E+00  0.00000000000E+00  0.84503960096E+03  0.84503960097E+03  0.50400001928E-02 0.  1.
        1   -1    0    0  501    0  0.00000000000E+00  0.00000000000E+00 -0.13170536218E+04  0.13170536219E+04  0.50400001928E-02 0. -1.
    10030    2    1    2    0    0  0.00000000000E+00  0.00000000000E+00 -0.47201402089E+03  0.21620932228E+04  0.21099407262E+04 0.  0.
        1    1    3    3  502    0 -0.19792478052E+03  0.20667222725E+03 -0.12765241897E+04  0.13082055019E+04  0.50400001928E-02 0. -1.
       -1    1    3    3    0  502  0.19792478052E+03 -0.20667222725E+03  0.80451016880E+03  0.85388772095E+03  0.50400001928E-02 0.  1.
</event>
<event>
 5   0  0.2604390E-05  0.2069086E+04  0.7818609E-02  0.8574985E-01
        1   -1    0    0  501    0  0.00000000000E+00  0.00000000000E+00  0.13705559550E+04  0.13705559550E+04  0.50400001928E-02 0.  1.
       -1   -1    0    0    0  501  0.00000000000E+00  0.00000000000E+00 -0.78090880199E+03  0.78090880200E+03  0.50400001928E-02 0. -1.
    10030    2    1    2    0    0  0.00000000000E+00  0.00000000000E+00  0.58964715305E+03  0.21514647570E+04  0.20690859904E+04 0.  0.
        5    1    3    3  502    0 -0.70223496578E+03  0.71330193856E+03  0.23028991135E+02  0.10012422420E+04  0.46999998093E+01 0.  1.
       -5    1    3    3    0  502  0.70223496578E+03 -0.71330193856E+03  0.56661816191E+03  0.11502225150E+04  0.46999998093E+01 0. -1.
</event>
<event>
 5   0  0.2699285E-05  0.2120440E+04  0.7818609E-02  0.8552292E-01
       -1   -1    0    0    0  501  0.00000000000E+00  0.00000000000E+00  0.13701599994E+04  0.13701599994E+04  0.50400001928E-02 0. -1.
        1   -1    0    0  501    0  0.00000000000E+00  0.00000000000E+00 -0.82039087703E+03  0.82039087705E+03  0.50400001928E-02 0.  1.
    10030    2    1    2    0    0  0.00000000000E+00  0.00000000000E+00  0.54976912237E+03  0.21905508765E+04  0.21204402973E+04 0.  0.
        2    1    3    3  502    0  0.70518686031E+03 -0.56004372372E+02  0.10907055824E+04  0.13000244864E+04  0.25500000920E-02 0. -1.
       -2    1    3    3    0  502 -0.70518686031E+03  0.56004372372E+02 -0.54093646002E+03  0.89052639010E+03  0.25500000920E-02 0.  1.
</event>
<event>
 5   0  0.2604390E-05  0.2254521E+04  0.7818609E-02  0.8496072E-01
        1   -1    0    0  501    0  0.00000000000E+00  0.00000000000E+00  0.23826053774E+04  0.23826053774E+04  0.50400001928E-02 0.  1.
       -1   -1    0    0    0  501  0.00000000000E+00  0.00000000000E+00 -0.53333054693E+03  0.53333054695E+03  0.50400001928E-02 0. -1.
    10030    2    1    2    0    0  0.00000000000E+00  0.00000000000E+00  0.18492748304E+04  0.29159359243E+04  0.22545209949E+04 0.  0.
        5    1    3    3  502    0 -0.31081003617E+03 -0.21641361187E+03  0.22978413813E+04  0.23288483921E+04  0.46999998093E+01 0.  1.
       -5    1    3    3    0  502  0.31081003617E+03  0.21641361187E+03 -0.44856655081E+03  0.58708753222E+03  0.46999998093E+01 0. -1.
</event>
<event>
 5   0  0.5462851E-05  0.2091159E+04  0.7818609E-02  0.8565148E-01
        2   -1    0    0  501    0  0.00000000000E+00  0.00000000000E+00  0.14508351861E+04  0.14508351861E+04  0.25500000920E-02 0. -1.
       -2   -1    0    0    0  501  0.00000000000E+00  0.00000000000E+00 -0.75352236547E+03  0.75352236548E+03  0.25500000920E-02 0.  1.
    10030    2    1    2    0    0  0.00000000000E+00  0.00000000000E+00  0.69731282059E+03  0.22043575515E+04  0.20911592587E+04 0.  0.
        1    1    3    3  502    0 -0.14132130321E+03 -0.50514754196E+03 -0.60478879865E+03  0.80057182119E+03  0.50400001928E-02 0.  1.
       -1    1    3    3    0  502  0.14132130321E+03  0.50514754196E+03  0.13021016192E+04  0.14037857304E+04  0.50400001928E-02 0. -1.
</event>
<event>
 5   0  0.5967046E-05  0.2092176E+04  0.7818609E-02  0.8564698E-01
        2   -1    0    0  501    0  0.00000000000E+00  0.00000000000E+00  0.26367783661E+04  0.26367783661E+04  0.25500000920E-02 0. -1.
       -2   -1    0    0    0  501  0.00000000000E+00  0.00000000000E+00 -0.41501424829E+03  0.41501424829E+03  0.25500000920E-02 0.  1.
    10030    2    1    2    0    0  0.00000000000E+00  0.00000000000E+00  0.22217641179E+04  0.30517926144E+04  0.20921764663E+04 0.  0.
        4    1    3    3  502    0  0.43234650829E+02 -0.98887297654E+03  0.16045934748E+04  0.18853277781E+04  0.12699999809E+01 0.  1.
       -4    1    3    3    0  502 -0.43234650829E+02  0.98887297654E+03  0.61717064306E+03  0.11664648363E+04  0.12699999809E+01 0. -1.
</event>
<event>
 5   0  0.2789662E-05  0.2113147E+04  0.7818609E-02  0.8555474E-01
        1   -1    0    0  501    0  0.00000000000E+00  0.00000000000E+00  0.15671549219E+04  0.15671549219E+04  0.50400001928E-02 0. -1.
       -1   -1    0    0    0  501  0.00000000000E+00  0.00000000000E+00 -0.71234049366E+03  0.71234049368E+03  0.50400001928E-02 0.  1.
    10030    2    1    2    0    0  0.00000000000E+00  0.00000000000E+00  0.85481442824E+03  0.22794954156E+04  0.21131473311E+04 0.  0.
        4    1    3    3  502    0  0.74236763166E+03 -0.46233305950E+03  0.10669390704E+04  0.13795731772E+04  0.12699999809E+01 0. -1.
       -4    1    3    3    0  502 -0.74236763166E+03  0.46233305950E+03 -0.21212464215E+03  0.89992223839E+03  0.12699999809E+01 0.  1.
</event>
<event>
 5   0  0.2699285E-05  0.2083849E+04  0.7818609E-02  0.8568392E-01
        1   -1    0    0  501    0  0.00000000000E+00  0.00000000000E+00  0.20415762654E+04  0.20415762654E+04  0.50400001928E-02 0. -1.
       -1   -1    0    0    0  501  0.00000000000E+00  0.00000000000E+00 -0.53174909777E+03  0.53174909780E+03  0.50400001928E-02 0.  1.
    10030    2    1    2    0    0  0.00000000000E+00  0.00000000000E+00  0.15098271676E+04  0.25733253632E+04  0.20838486866E+04 0.  0.
        2    1    3    3  502    0  0.66419279990E+03 -0.23547906480E+03 -0.19282288976E+03  0.73060463468E+03  0.25500000920E-02 0.  1.
       -2    1    3    3    0  502 -0.66419279990E+03  0.23547906480E+03  0.17026500574E+04  0.18427207285E+04  0.25500000920E-02 0. -1.
</event>
<event>
 5   0  0.2699285E-05  0.2017170E+04  0.7818609E-02  0.8598635E-01
        1   -1    0    0  501    0  0.00000000000E+00  0.00000000000E+00  0.19500809939E+04  0.19500809939E+04  0.50400001928E-02 0.  1.
       -1   -1    0    0    0  501  0.00000000000E+00  0.00000000000E+00 -0.52164175056E+03  0.52164175058E+03  0.50400001928E-02 0. -1.
    10030    2    1    2    0    0  0.00000000000E+00  0.00000000000E+00  0.14284392434E+04  0.24717227445E+04  0.20171699615E+04 0.  0.
        2    1    3    3  502    0  0.97804274590E+03  0.10443190227E+03  0.44085569385E+03  0.10778809664E+04  0.25500000920E-02 0. -1.
       -2    1    3    3    0  502 -0.97804274590E+03 -0.10443190227E+03  0.98758354950E+03  0.13938417781E+04  0.25500000920E-02 0.  1.
</event>
<event>
 5   0  0.5954140E-05  0.2114840E+04  0.7818609E-02  0.8554734E-01
       -2   -1    0    0    0  501  0.00000000000E+00  0.00000000000E+00  0.99084446605E+03  0.99084446605E+03  0.25500000920E-02 0.  1.
        2   -1    0    0  501    0  0.00000000000E+00  0.00000000000E+00 -0.11284685571E+04  0.11284685571E+04  0.25500000920E-02 0. -1.
    10030    2    1    2    0    0  0.00000000000E+00  0.00000000000E+00 -0.13762409106E+03  0.21193130232E+04  0.21148397811E+04 0.  0.
        2    1    3    3  502    0  0.24019579568E+03  0.23373803395E+02 -0.11005023725E+04  0.11266524871E+04  0.25500000920E-02 0. -1.
       -2    1    3    3    0  502 -0.24019579568E+03 -0.23373803395E+02  0.96287828142E+03  0.99266053602E+03  0.25500000920E-02 0.  1.
</event>
<event>
 5   0  0.2602060E-05  0.2102599E+04  0.7818609E-02  0.8560099E-01
        1   -1    0    0  501    0  0.00000000000E+00  0.00000000000E+00  0.14849414686E+04  0.14849414686E+04  0.50400001928E-02 0.  1.
       -1   -1    0    0    0  501  0.00000000000E+00  0.00000000000E+00 -0.74429241043E+03  0.74429241045E+03  0.50400001928E-02 0. -1.
    10030    2    1    2    0    0  0.00000000000E+00  0.00000000000E+00  0.74064905816E+03  0.22292338790E+04  0.21025990250E+04 0.  0.
        1    1    3    3  502    0  0.11861135346E+03 -0.89389545877E+03  0.94335083482E+03  0.13050013571E+04  0.50400001928E-02 0.  1.
       -1    1    3    3    0  502 -0.11861135346E+03  0.89389545877E+03 -0.20270177666E+03  0.92423252197E+03  0.50400001928E-02 0. -1.
</event>
<event>
 5   0  0.2789662E-05  0.2060436E+04  0.7818609E-02  0.8578875E-01
       -1   -1    0    0    0  501  0.00000000000E+00  0.00000000000E+00  0.65859317493E+03  0.65859317495E+03  0.50400001928E-02 0. -1.
        1   -1    0    0  501    0  0.00000000000E+00  0.00000000000E+00 -0.16115390438E+04  0.16115390438E+04  0.50400001928E-02 0.  1.
    10030    2    1    2    0    0  0.00000000000E+00  0.00000000000E+00 -0.95294586884E+03  0.22701322187E+04  0.20604355029E+04 0.  0.
        4    1    3    3  502    0  0.75771588446E+03 -0.47572506196E+03 -0.10392398919E+04  0.13713018858E+04  0.12699999809E+01 0.  1.
       -4    1    3    3    0  502 -0.75771588446E+03  0.47572506196E+03  0.86294023046E+02  0.89883033296E+03  0.12699999809E+01 0. -1.
</event>
<event>
 5   0  0.2732159E-05  0.2088911E+04  0.7818609E-02  0.8566144E-01
       -1   -1    0    0    0  501  0.00000000000E+00  0.00000000000E+00  0.13447608637E+04  0.13447608637E+04  0.50400001928E-02 0.  1.
        1   -1    0    0  501    0  0.00000000000E+00  0.00000000000E+00 -0.81121296475E+03  0.81121296477E+03  0.50400001928E-02 0. -1.
    10030    2    1    2    0    0  0.00000000000E+00  0.00000000000E+00  0.53354789890E+03  0.21559738284E+04  0.20889111490E+04 0.  0.
        3    1    3    3  502    0  0.42134459757E+03  0.95170329970E+03  0.17669664316E+03  0.10556951049E+04  0.10100000352E+00 0. -1.
       -3    1    3    3    0  502 -0.42134459757E+03 -0.95170329970E+03  0.35685125574E+03  0.11002787235E+04  0.10100000352E+00 0.  1.
</event>
<event>
 5   0  0.2789662E-05  0.2113241E+04  0.7818609E-02  0.8555433E-01
        1   -1    0    0  501    0  0.00000000000E+00  0.00000000000E+00  0.13202712873E+04  0.13202712873E+04  0.50400001928E-02 0. -1.
       -1   -1    0    0    0  501  0.00000000000E+00  0.00000000000E+00 -0.84561963482E+03  0.84561963483E+03  0.50400001928E-02 0.  1.
    10030    2    1    2    0    0  0.00000000000E+00  0.00000000000E+00  0.47465165251E+03  0.21658909222E+04  0.21132414191E+04 0.  0.
        4    1    3    3  502    0  0.92344779396E+03  0.21807226132E+02 -0.28850038360E+03  0.96771145881E+03  0.12699999809E+01 0.  1.
       -4    1    3    3    0  502 -0.92344779396E+03 -0.21807226132E+02  0.76315203611E+03  0.11981794634E+04  0.12699999809E+01 0. -1.
</event>
<event>
 5   0  0.5967046E-05  0.2103165E+04  0.7818609E-02  0.8559850E-01
       -2   -1    0    0    0  501  0.00000000000E+00  0.00000000000E+00  0.58564330308E+03  0.58564330308E+03  0.25500000920E-02 0.  1.
        2   -1    0    0  501    0  0.00000000000E+00  0.00000000000E+00 -0.18882248688E+04  0.18882248688E+04  0.25500000920E-02 0. -1.
    10030    2    1    2    0    0  0.00000000000E+00  0.00000000000E+00 -0.13025815658E+04  0.24738681719E+04  0.21031654706E+04 0.  0.
        4    1    3    3  502    0  0.95171078774E+03  0.44430094670E+03 -0.71204639177E+03  0.12689241237E+04  0.12699999809E+01 0.  1.
       -4    1    3    3    0  502 -0.95171078774E+03 -0.44430094670E+03 -0.59053517398E+03  0.12049440482E+04  0.12699999809E+01 0. -1.
</event>
<event>
 5   0  0.5954140E-05  0.2100854E+04  0.7818609E-02  0.8560867E-01
       -2   -1    0    0    0  501  0.00000000000E+00  0.00000000000E+00  0.69622626937E+03  0.69622626937E+03  0.25500000920E-02 0. -1.
        2   -1    0    0  501    0  0.00000000000E+00  0.00000000000E+00 -0.15848247431E+04  0.15848247431E+04  0.25500000920E-02 0.  1.
    10030    2    1    2    0    0  0.00000000000E+00  0.00000000000E+00 -0.88859847372E+03  0.22810510125E+04  0.21008537488E+04 0.  0.
        2    1    3    3  502    0  0.71268635973E+03  0.37266832253E+03 -0.11779744490E+04  0.14263335264E+04  0.25500000920E-02 0.  1.
       -2    1    3    3    0  502 -0.71268635973E+03 -0.37266832253E+03  0.28937597527E+03  0.85471748609E+03  0.25500000920E-02 0. -1.
</event>
<event>
 5   0  0.5866610E-05  0.2098182E+04  0.7818609E-02  0.8562045E-01
       -2   -1    0    0    0  501  0.00000000000E+00  0.00000000000E+00  0.86975190374E+03  0.86975190374E+03  0.25500000920E-02 0.  1.
        2   -1    0    0  501    0  0.00000000000E+00  0.00000000000E+00 -0.12654089794E+04  0.12654089794E+04  0.25500000920E-02 0. -1.
    10030    2    1    2    0    0  0.00000000000E+00  0.00000000000E+00 -0.39565707569E+03  0.21351608832E+04  0.20981819453E+04 0.  0.
        5    1    3    3  502    0  0.61744761838E+03 -0.73130000596E+03 -0.63496718767E+03  0.11485846419E+04  0.46999998093E+01 0. -1.
       -5    1    3    3    0  502 -0.61744761838E+03  0.73130000596E+03  0.23931011198E+03  0.98657624128E+03  0.46999998093E+01 0.  1.
</event>
<event>
 5   0  0.5506332E-05  0.2094342E+04  0.7818609E-02  0.8563740E-01
       -2   -1    0    0    0  501  0.00000000000E+00  0.00000000000E+00  0.12654549149E+04  0.12654549149E+04  0.25500000920E-02 0.  1.
        2   -1    0    0  501    0  0.00000000000E+00  0.00000000000E+00 -0.86653983676E+03  0.86653983676E+03  0.25500000920E-02 0. -1.
    10030    2    1    2    0    0  0.00000000000E+00  0.00000000000E+00  0.39891507813E+03  0.21319947517E+04  0.20943419925E+04 0.  0.
        3    1    3    3  502    0  0.87647540439E+03  0.27573818850E+03 -0.31189436593E+03  0.97031891087E+03  0.10100000352E+00 0. -1.
       -3    1    3    3    0  502 -0.87647540439E+03 -0.27573818850E+03  0.71080944406E+03  0.11616758408E+04  0.10100000352E+00 0.  1.
</event>
<event>
 5   0  0.5462851E-05  0.2103915E+04  0.7818609E-02  0.8559521E-01
        2   -1    0    0  501    0  0.00000000000E+00  0.00000000000E+00  0.21186243074E+04  0.21186243074E+04  0.25500000920E-02 0. -1.
       -2   -1    0    0    0  501  0.00000000000E+00  0.00000000000E+00 -0.52232685220E+03  0.52232685220E+03  0.25500000920E-02 0.  1.
    10030    2    1    2    0    0  0.00000000000E+00  0.00000000000E+00  0.15962974552E+04  0.26409511596E+04  0.21039147943E+04 0.  0.
        1    1    3    3  502    0 -0.10192005000E+02 -0.32172382522E+03 -0.45899117901E+03  0.56060948896E+03  0.50400001928E-02 0.  1.
       -1    1    3    3    0  502  0.10192005000E+02  0.32172382522E+03  0.20552886342E+04  0.20803416706E+04  0.50400001928E-02 0. -1.
</event>
<event>
 5   0  0.2732159E-05  0.2109222E+04  0.7818609E-02  0.8557192E-01
        1   -1    0    0  501    0  0.00000000000E+00  0.00000000000E+00  0.12999851461E+04  0.12999851462E+04  0.50400001928E-02 0. -1.
       -1   -1    0    0    0  501  0.00000000000E+00  0.00000000000E+00 -0.85555177260E+03  0.85555177262E+03  0.50400001928E-02 0.  1.
    10030    2    1    2    0    0  0.00000000000E+00  0.00000000000E+00  0.44443337354E+03  0.21555369188E+04  0.21092222227E+04 0.  0.
        3    1    3    3  502    0  0.59792355336E+02  0.99033816106E+03  0.58764325164E+03  0.11531129175E+04  0.10100000352E+00 0.  1.
       -3    1    3    3    0  502 -0.59792355336E+02 -0.99033816106E+03 -0.14320987810E+03  0.10024240013E+04  0.10100000352E+00 0. -1.
</event>
<event>
 5   0  0.2732159E-05  0.2091618E+04  0.7818609E-02  0.8564945E-01
       -1   -1    0    0    0  501  0.00000000000E+00  0.00000000000E+00  0.11557377141E+04  0.11557377141E+04  0.50400001928E-02 0.  1.
        1   -1    0    0  501    0  0.00000000000E+00  0.00000000000E+00 -0.94633598305E+03  0.94633598307E+03  0.50400001928E-02 0. -1.
    10030    2    1    2    0    0  0.00000000000E+00  0.00000000000E+00  0.20940173103E+03  0.21020736972E+04  0.20916177336E+04 0.  0.
        3    1    3    3  502    0 -0.93069451751E+03 -0.37792775559E+03  0.39717888469E+03  0.10801725557E+04  0.10100000352E+00 0. -1.
       -3    1    3    3    0  502  0.93069451751E+03  0.37792775559E+03 -0.18777715366E+03  0.10219011415E+04  0.10100000352E+00 0.  1.
</event>
<event>
 5   0  0.5866610E-05  0.2098938E+04  0.7818609E-02  0.8561711E-01
       -2   -1    0    0    0  501  0.00000000000E+00  0.00000000000E+00  0.46733248605E+03  0.46733248606E+03  0.25500000920E-02 0. -1.
        2   -1    0    0  501    0  0.00000000000E+00  0.00000000000E+00 -0.23567491706E+04  0.23567491706E+04  0.25500000920E-02 0.  1.
    10030    2    1    2    0    0  0.00000000000E+00  0.00000000000E+00 -0.18894166845E+04  0.28240816567E+04  0.20989382544E+04 0.  0.
        5    1    3    3  502    0  0.23641949363E+02 -0.13668515363E+03  0.45492931030E+03  0.47563067643E+03  0.46999998093E+01 0. -1.
       -5    1    3    3    0  502 -0.23641949363E+02  0.13668515363E+03 -0.23443459948E+04  0.23484509802E+04  0.46999998093E+01 0.  1.
</event>
<event>
 5   0  0.2789662E-05  0.2105035E+04  0.7818609E-02  0.8559029E-01
       -1   -1    0    0    0  501  0.00000000000E+00  0.00000000000E+00  0.45362091637E+03  0.45362091640E+03  0.50400001928E-02 0. -1.
        1   -1    0    0  501    0  0.00000000000E+00  0.00000000000E+00 -0.24421116338E+04  0.24421116338E+04  0.50400001928E-02 0.  1.
    10030    2    1    2    0    0  0.00000000000E+00  0.00000000000E+00 -0.19884907175E+04  0.28957325502E+04  0.21050348380E+04 0.  0.
        4    1    3    3  502    0  0.41115443012E+03  0.27018005386E+03 -0.22741995490E+04  0.23268069169E+04  0.12699999809E+01 0.  1.
       -4    1    3    3    0  502 -0.41115443012E+03 -0.27018005386E+03  0.28570883157E+03  0.56892563331E+03  0.12699999809E+01 0. -1.
</event>
<event>
 5   0  0.5462851E-05  0.2103926E+04  0.7818609E-02  0.8559516E-01
       -2   -1    0    0    0  501  0.00000000000E+00  0.00000000000E+00  0.70419021117E+03  0.70419021118E+03  0.25500000920E-02 0.  1.
        2   -1    0    0  501    0  0.00000000000E+00  0.00000000000E+00 -0.15714878385E+04  0.15714878385E+04  0.25500000920E-02 0. -1.
    10030    2    1    2    0    0  0.00000000000E+00  0.00000000000E+00 -0.86729762730E+03  0.22756780497E+04  0.21039261896E+04 0.  0.
        1    1    3    3  502    0  0.17375230359E+03 -0.22879777293E+02 -0.15555869211E+04  0.15654277423E+04  0.50400001928E-02 0. -1.
       -1    1    3    3    0  502 -0.17375230359E+03  0.22879777293E+02  0.68828929376E+03  0.71025030739E+03  0.50400001928E-02 0.  1.
</event>
<event>
 5   0  0.5506332E-05  0.2108653E+04  0.7818609E-02  0.8557441E-01
       -2   -1    0    0    0  501  0.00000000000E+00  0.00000000000E+00  0.56023949650E+03  0.56023949651E+03  0.25500000920E-02 0.  1.
        2   -1    0    0  501    0  0.00000000000E+00  0.00000000000E+00 -0.19841592247E+04  0.19841592247E+04  0.25500000920E-02 0. -1.
    10030    2    1    2    0    0  0.00000000000E+00  0.00000000000E+00 -0.14239197282E+04  0.25443987212E+04  0.21086529966E+04 0.  0.
        3    1    3    3  502    0 -0.37874912724E+03 -0.59613452489E+03  0.23260395941E+03  0.74359389809E+03  0.10100000352E+00 0.  1.
       -3    1    3    3    0  502  0.37874912724E+03  0.59613452489E+03 -0.16565236876E+04  0.18008048231E+04  0.10100000352E+00 0. -1.
</event>
<event>
 5   0  0.2732159E-05  0.2096975E+04  0.7818609E-02  0.8562577E-01
        1   -1    0    0  501    0  0.00000000000E+00  0.00000000000E+00  0.21098457823E+04  0.21098457823E+04  0.50400001928E-02 0.  1.
       -1   -1    0    0    0  501  0.00000000000E+00  0.00000000000E+00 -0.52104548146E+03  0.52104548148E+03  0.50400001928E-02 0. -1.
    10030    2    1    2    0    0  0.00000000000E+00  0.00000000000E+00  0.15888003008E+04  0.26308912638E+04  0.20969745935E+04 0.  0.
        3    1    3    3  502    0  0.32983395905E+03 -0.57697185113E+03 -0.22302716372E+03  0.70101931750E+03  0.10100000352E+00 0. -1.
       -3    1    3    3    0  502 -0.32983395905E+03  0.57697185113E+03  0.18118274646E+04  0.19298719463E+04  0.10100000352E+00 0.  1.
</event>
<event>
 5   0  0.5506332E-05  0.2102856E+04  0.7818609E-02  0.8559986E-01
        2   -1    0    0  501    0  0.00000000000E+00  0.00000000000E+00  0.64266323115E+03  0.64266323115E+03  0.25500000920E-02 0. -1.
       -2   -1    0    0    0  501  0.00000000000E+00  0.00000000000E+00 -0.17201865622E+04  0.17201865622E+04  0.25500000920E-02 0.  1.
    10030    2    1    2    0    0  0.00000000000E+00  0.00000000000E+00 -0.10775233310E+04  0.23628497933E+04  0.21028558241E+04 0.  0.
        3    1    3    3  502    0  0.37767605773E+03  0.95558757243E+03 -0.28822849649E+03  0.10671750042E+04  0.10100000352E+00 0.  1.
       -3    1    3    3    0  502 -0.37767605773E+03 -0.95558757243E+03 -0.78929483452E+03  0.12956747891E+04  0.10100000352E+00 0. -1.
</event>
<event>
 5   0  0.5462851E-05  0.2099523E+04  0.7818609E-02  0.8561453E-01
        2   -1    0    0  501    0  0.00000000000E+00  0.00000000000E+00  0.94907715367E+03  0.94907715367E+03  0.25500000920E-02 0. -1.
       -2   -1    0    0    0  501  0.00000000000E+00  0.00000000000E+00 -0.11611276534E+04  0.11611276534E+04  0.25500000920E-02 0.  1.
    10030    2    1    2    0    0  0.00000000000E+00  0.00000000000E+00 -0.21205049975E+03  0.21102048071E+04  0.20995234968E+04 0.  0.
        1    1    3    3  502    0 -0.31196407735E+03 -0.36572012347E+03 -0.10440077362E+04  0.11493584939E+04  0.50400001928E-02 0.  1.
       -1    1    3    3    0  502  0.31196407735E+03  0.36572012347E+03  0.83195723644E+03  0.96084631318E+03  0.50400001928E-02 0. -1.
</event>
<event>
 5   0  0.2699285E-05  0.2323501E+04  0.7818609E-02  0.8468712E-01
       -1   -1    0    0    0  501  0.00000000000E+00  0.00000000000E+00  0.63477102982E+03  0.63477102984E+03  0.50400001928E-02 0.  1.
        1   -1    0    0  501    0  0.00000000000E+00  0.00000000000E+00 -0.21262222095E+04  0.21262222095E+04  0.50400001928E-02 0. -1.
    10030    2    1    2    0    0  0.00000000000E+00  0.00000000000E+00 -0.14914511797E+04  0.27609932394E+04  0.23235010322E+04 0.  0.
        2    1    3    3  502    0 -0.92546079055E+03  0.28202208028E+03  0.18530763269E+02  0.96765568143E+03  0.25500000920E-02 0.  1.
       -2    1    3    3    0  502  0.92546079055E+03 -0.28202208028E+03 -0.15099819430E+04  0.17933375580E+04  0.25500000920E-02 0. -1.
</event>
<event>
 5   0  0.5967046E-05  0.1891169E+04  0.7818609E-02  0.8659265E-01
        2   -1    0    0  501    0  0.00000000000E+00  0.00000000000E+00  0.12869255789E+04  0.12869255789E+04  0.25500000920E-02 0. -1.
       -2   -1    0    0    0  501  0.00000000000E+00  0.00000000000E+00 -0.69477970908E+03  0.69477970909E+03  0.25500000920E-02 0.  1.
    10030    2    1    2    0    0  0.00000000000E+00  0.00000000000E+00  0.59214586983E+03  0.19817052880E+04  0.18911687173E+04 0.  0.
        4    1    3    3  502    0 -0.40191599287E+03 -0.38915859776E+03  0.10948983986E+04  0.12295466627E+04  0.12699999809E+01 0. -1.
       -4    1    3    3    0  502  0.40191599287E+03  0.38915859776E+03 -0.50275252878E+03  0.75215862531E+03  0.12699999809E+01 0.  1.
</event>
<event>
 5   0  0.5954140E-05  0.2105380E+04  0.7818609E-02  0.8558877E-01
        2   -1    0    0  501    0  0.00000000000E+00  0.00000000000E+00  0.17433404062E+04  0.17433404062E+04  0.25500000920E-02 0.  1.
       -2   -1    0    0    0  501  0.00000000000E+00  0.00000000000E+00 -0.63565124625E+03  0.63565124625E+03  0.25500000920E-02 0. -1.
    10030    2    1    2    0    0  0.00000000000E+00  0.00000000000E+00  0.11076891599E+04  0.23789916524E+04  0.21053802524E+04 0.  0.
        2    1    3    3  502    0  0.70070420356E+03  0.71280801901E+03  0.92703001310E+03  0.13632557713E+04  0.25500000920E-02 0.  1.
       -2    1    3    3    0  502 -0.70070420356E+03 -0.71280801901E+03  0.18065914684E+03  0.10157358811E+04  0.25500000920E-02 0. -1.
</event>
<event>
 5   0  0.2732159E-05  0.2130381E+04  0.7818609E-02  0.8547977E-01
       -1   -1    0    0    0  501  0.00000000000E+00  0.00000000000E+00  0.72172104459E+03  0.72172104460E+03  0.50400001928E-02 0.  1.
        1   -1    0    0  501    0  0.00000000000E+00  0.00000000000E+00 -0.15721181115E+04  0.15721181115E+04  0.50400001928E-02 0. -1.
    10030    2    1    2    0    0  0.00000000000E+00  0.00000000000E+00 -0.85039706688E+03  0.22938391561E+04  0.21303809290E+04 0.  0.
        3    1    3    3  502    0 -0.60946299485E+02  0.84329341567E+03  0.27241143430E+03  0.88829400317E+03  0.10100000352E+00 0.  1.
       -3    1    3    3    0  502  0.60946299485E+02 -0.84329341567E+03 -0.11228085012E+04  0.14055451529E+04  0.10100000352E+00 0. -1.
</event>
<event>
 5   0  0.2789662E-05  0.2154312E+04  0.7818609E-02  0.8537689E-01
       -1   -1    0    0    0  501  0.00000000000E+00  0.00000000000E+00  0.17257498552E+04  0.17257498552E+04  0.50400001928E-02 0. -1.
        1   -1    0    0  501    0  0.00000000000E+00  0.00000000000E+00 -0.67232494506E+03  0.67232494507E+03  0.50400001928E-02 0.  1.
    10030    2    1    2    0    0  0.00000000000E+00  0.00000000000E+00  0.10534249102E+04  0.23980748003E+04  0.21543116549E+04 0.  0.
        4    1    3    3  502    0 -0.10284943576E+04 -0.19167560538E+03  0.24133970837E+03  0.10736790252E+04  0.12699999809E+01 0.  1.
       -4    1    3    3    0  502  0.10284943576E+04  0.19167560538E+03  0.81208520181E+03  0.13243957752E+04  0.12699999809E+01 0. -1.
</event>
<event>
 5   0  0.2604390E-05  0.2098628E+04  0.7818609E-02  0.8561848E-01
        1   -1    0    0  501    0  0.00000000000E+00  0.00000000000E+00  0.20658293480E+04  0.20658293480E+04  0.50400001928E-02 0. -1.
       -1   -1    0    0    0  501  0.00000000000E+00  0.00000000000E+00 -0.53298694825E+03  0.53298694827E+03  0.50400001928E-02 0.  1.
    10030    2    1    2    0    0  0.00000000000E+00  0.00000000000E+00  0.15328423997E+04  0.25988162962E+04  0.20986281994E+04 0.  0.
        5    1    3    3  502    0  0.25114830517E+03  0.35849580681E+03 -0.41451894202E+03  0.60286213846E+03  0.46999998093E+01 0.  1.
       -5    1    3    3    0  502 -0.25114830517E+03 -0.35849580681E+03  0.19473613417E+04  0.19959541578E+04  0.46999998093E+01 0. -1.
</event>
<event>
 5   0  0.2789662E-05  0.2106118E+04  0.7818609E-02  0.8558553E-01
       -1   -1    0    0    0  501  0.00000000000E+00  0.00000000000E+00  0.43973852528E+03  0.43973852531E+03  0.50400001928E-02 0. -1.
        1   -1    0    0  501    0  0.00000000000E+00  0.00000000000E+00 -0.25218018343E+04  0.25218018343E+04  0.50400001928E-02 0.  1.
    10030    2    1    2    0    0  0.00000000000E+00  0.00000000000E+00 -0.20820633090E+04  0.29615403596E+04  0.21061181541E+04 0.  0.
        4    1    3    3  502    0  0.63830225684E+03 -0.43985411009E+03 -0.20432902125E+04  0.21853919362E+04  0.12699999809E+01 0. -1.
       -4    1    3    3    0  502 -0.63830225684E+03  0.43985411009E+03 -0.38773096464E+02  0.77614842340E+03  0.12699999809E+01 0.  1.
</event>
<event>
 5   0  0.2602060E-05  0.2110206E+04  0.7818609E-02  0.8556761E-01
        1   -1    0    0  501    0  0.00000000000E+00  0.00000000000E+00  0.17218772336E+04  0.17218772336E+04  0.50400001928E-02 0. -1.
       -1   -1    0    0    0  501  0.00000000000E+00  0.00000000000E+00 -0.64652841959E+03  0.64652841961E+03  0.50400001928E-02 0.  1.
    10030    2    1    2    0    0  0.00000000000E+00  0.00000000000E+00  0.10753488140E+04  0.23684056532E+04  0.21102062142E+04 0.  0.
        1    1    3    3  502    0 -0.10320089881E+04  0.10153054160E+03  0.31919904977E+03  0.10850064681E+04  0.50400001928E-02 0.  1.
       -1    1    3    3    0  502  0.10320089881E+04 -0.10153054160E+03  0.75614976426E+03  0.12833991851E+04  0.50400001928E-02 0. -1.
</event>
<event>
 5   0  0.5866610E-05  0.2086955E+04  0.7818609E-02  0.8567011E-01
       -2   -1    0    0    0  501  0.00000000000E+00  0.00000000000E+00  0.11793530465E+04  0.11793530465E+04  0.25500000920E-02 0. -1.
        2   -1    0    0  501    0  0.00000000000E+00  0.00000000000E+00 -0.92325677009E+03  0.92325677010E+03  0.25500000920E-02 0.  1.
    10030    2    1    2    0    0  0.00000000000E+00  0.00000000000E+00  0.25609627637E+03  0.21026098166E+04  0.20869553752E+04 0.  0.
        5    1    3    3  502    0 -0.97585241351E+03 -0.31210575570E+03  0.32733393917E+03  0.10755777673E+04  0.46999998093E+01 0. -1.
       -5    1    3    3    0  502  0.97585241351E+03  0.31210575570E+03 -0.71237662805E+02  0.10270320493E+04  0.46999998093E+01 0.  1.
</event>
<event>
 5   0  0.2789662E-05  0.2128613E+04  0.7818609E-02  0.8548743E-01
        1   -1    0    0  501    0  0.00000000000E+00  0.00000000000E+00  0.13771702643E+04  0.13771702643E+04  0.50400001928E-02 0. -1.
       -1   -1    0    0    0  501  0.00000000000E+00  0.00000000000E+00 -0.82251889392E+03  0.82251889394E+03  0.50400001928E-02 0.  1.
    10030    2    1    2    0    0  0.00000000000E+00  0.00000000000E+00  0.55465137040E+03  0.21996891583E+04  0.21286132223E+04 0.  0.
        4    1    3    3  502    0 -0.71553322627E+03  0.59551316298E+03 -0.25577095722E+03  0.96542432154E+03  0.12699999809E+01 0.  1.
       -4    1    3    3    0  502  0.71553322627E+03 -0.59551316298E+03  0.81042232762E+03  0.12342648367E+04  0.12699999809E+01 0. -1.
</event>
<event>
 5   0  0.2017750E-05  0.2122888E+04  0.7818609E-02  0.8551227E-01
       -4   -1    0    0    0  501  0.00000000000E+00  0.00000000000E+00  0.15805563097E+04  0.15805568199E+04  0.12699999809E+01 0. -1.
        4   -1    0    0  501    0  0.00000000000E+00  0.00000000000E+00 -0.71282600498E+03  0.71282713632E+03  0.12699999809E+01 0.  1.
    10030    2    1    2    0    0  0.00000000000E+00  0.00000000000E+00  0.86773030469E+03  0.22933839562E+04  0.21228881480E+04 0.  0.
        5    1    3    3  502    0  0.96401316029E+03 -0.98325834020E+02 -0.34113841972E+02  0.96962631310E+03  0.46999998093E+01 0.  1.
       -5    1    3    3    0  502 -0.96401316029E+03  0.98325834020E+02  0.90184414666E+03  0.13237576431E+04  0.46999998093E+01 0. -1.
</event>
<event>
 5   0  0.5506332E-05  0.2102602E+04  0.7818609E-02  0.8560098E-01
       -2   -1    0    0    0  501  0.00000000000E+00  0.00000000000E+00  0.63320967442E+03  0.63320967443E+03  0.25500000920E-02 0.  1.
        2   -1    0    0  501    0  0.00000000000E+00  0.00000000000E+00 -0.17454475172E+04  0.17454475172E+04  0.25500000920E-02 0. -1.
    10030    2    1    2    0    0  0.00000000000E+00  0.00000000000E+00 -0.11122378428E+04  0.23786571916E+04  0.21026024390E+04 0.  0.
        3    1    3    3  502    0 -0.28722118584E+03 -0.98546494396E+03 -0.29914606682E+03  0.10691704938E+04  0.10100000352E+00 0.  1.
       -3    1    3    3    0  502  0.28722118584E+03  0.98546494396E+03 -0.81309177595E+03  0.13094866978E+04  0.10100000352E+00 0. -1.
</event>
<event>
 5   0  0.5506332E-05  0.2061081E+04  0.7818609E-02  0.8578584E-01
        2   -1    0    0  501    0  0.00000000000E+00  0.00000000000E+00  0.14022866873E+04  0.14022866874E+04  0.25500000920E-02 0.  1.
       -2   -1    0    0    0  501  0.00000000000E+00  0.00000000000E+00 -0.75734430570E+03  0.75734430570E+03  0.25500000920E-02 0. -1.
    10030    2    1    2    0    0  0.00000000000E+00  0.00000000000E+00  0.64494238165E+03  0.21596309931E+04  0.20610811121E+04 0.  0.
        3    1    3    3  502    0  0.62069137874E+03 -0.82252581441E+03  0.30738395478E+03  0.10753099129E+04  0.10100000352E+00 0. -1.
       -3    1    3    3    0  502 -0.62069137874E+03  0.82252581441E+03  0.33755842687E+03  0.10843210801E+04  0.10100000352E+00 0.  1.
</event>
<event>
 5   0  0.2604390E-05  0.2120785E+04  0.7818609E-02  0.8552142E-01
        1   -1    0    0  501    0  0.00000000000E+00  0.00000000000E+00  0.17835007770E+04  0.17835007770E+04  0.50400001928E-02 0. -1.
       -1   -1    0    0    0  501  0.00000000000E+00  0.00000000000E+00 -0.63046358618E+03  0.63046358620E+03  0.50400001928E-02 0.  1.
    10030    2    1    2    0    0  0.00000000000E+00  0.00000000000E+00  0.11530371908E+04  0.24139643632E+04  0.21207850394E+04 0.  0.
        5    1    3    3  502    0  0.90903758976E+02  0.33967882595E+03 -0.56215764590E+03  0.66309011984E+03  0.46999998093E+01 0.  1.
       -5    1    3    3    0  502 -0.90903758976E+02 -0.33967882595E+03  0.17151948367E+04  0.17508742433E+04  0.46999998093E+01 0. -1.
</event>
<event>
 5   0  0.5866610E-05  0.2082792E+04  0.7818609E-02  0.8568862E-01
        2   -1    0    0  501    0  0.00000000000E+00  0.00000000000E+00  0.13332133990E+04  0.13332133990E+04  0.25500000920E-02 0.  1.
       -2   -1    0    0    0  501  0.00000000000E+00  0.00000000000E+00 -0.81345267812E+03  0.81345267813E+03  0.25500000920E-02 0. -1.
    10030    2    1    2    0    0  0.00000000000E+00  0.00000000000E+00  0.51976072092E+03  0.21466660772E+04  0.20827923660E+04 0.  0.
        5    1    3    3  502    0 -0.60037175652E+03  0.83416582987E+03  0.86786408652E+02  0.10314227303E+04  0.46999998093E+01 0. -1.
       -5    1    3    3    0  502  0.60037175652E+03 -0.83416582987E+03  0.43297431227E+03  0.11152433469E+04  0.46999998093E+01 0.  1.
</event>
<event>
 5   0  0.5506332E-05  0.2082029E+04  0.7818609E-02  0.8569201E-01
        2   -1    0    0  501    0  0.00000000000E+00  0.00000000000E+00  0.12781513426E+04  0.12781513426E+04  0.25500000920E-02 0. -1.
       -2   -1    0    0    0  501  0.00000000000E+00  0.00000000000E+00 -0.84787392048E+03  0.84787392049E+03  0.25500000920E-02 0.  1.
    10030    2    1    2    0    0  0.00000000000E+00  0.00000000000E+00  0.43027742210E+03  0.21260252631E+04  0.20820290006E+04 0.  0.
        3    1    3    3  502    0 -0.10419360500E+02 -0.22550438593E+03 -0.82257924086E+03  0.85299320563E+03  0.10100000352E+00 0.  1.
       -3    1    3    3    0  502  0.10419360500E+02  0.22550438593E+03  0.12528566630E+04  0.12730320574E+04  0.10100000352E+00 0. -1.
</event>
<event>
 5   0  0.2732159E-05  0.2132942E+04  0.7818609E-02  0.8546869E-01
        1   -1    0    0  501    0  0.00000000000E+00  0.00000000000E+00  0.17226185843E+04  0.17226185843E+04  0.50400001928E-02 0.  1.
       -1   -1    0    0    0  501  0.00000000000E+00  0.00000000000E+00 -0.66025096034E+03  0.66025096036E+03  0.50400001928E-02 0. -1.
    10030    2    1    2    0    0  0.00000000000E+00  0.00000000000E+00  0.10623676240E+04  0.23828695447E+04  0.21329421695E+04 0.  0.
        3    1    3    3  502    0  0.74694904078E+03  0.48503425143E+03  0.11865852010E+04  0.14836359203E+04  0.10100000352E+00 0. -1.
       -3    1    3    3    0  502 -0.74694904078E+03 -0.48503425143E+03 -0.12421757702E+03  0.89923362438E+03  0.10100000352E+00 0.  1.
</event>
<event>
 5   0  0.2732159E-05  0.2103487E+04  0.7818609E-02  0.8559709E-01
       -1   -1    0    0    0  501  0.00000000000E+00  0.00000000000E+00  0.62946458992E+03  0.62946458994E+03  0.50400001928E-02 0.  1.
        1   -1    0    0  501    0  0.00000000000E+00  0.00000000000E+00 -0.17573102847E+04  0.17573102847E+04  0.50400001928E-02 0. -1.
    10030    2    1    2    0    0  0.00000000000E+00  0.00000000000E+00 -0.11278456948E+04  0.23867748747E+04  0.21034871977E+04 0.  0.
        3    1    3    3  502    0  0.32586103307E+03  0.74141703395E+03  0.19747718679E+03  0.83359575371E+03  0.10100000352E+00 0.  1.
       -3    1    3    3    0  502 -0.32586103307E+03 -0.74141703395E+03 -0.13253228816E+04  0.15531791209E+04  0.10100000352E+00 0. -1.
</event>
<event>
 5   0  0.2789662E-05  0.2138195E+04  0.7818609E-02  0.8544603E-01
       -1   -1    0    0    0  501  0.00000000000E+00  0.00000000000E+00  0.58168737249E+03  0.58168737252E+03  0.50400001928E-02 0.  1.
        1   -1    0    0  501    0  0.00000000000E+00  0.00000000000E+00 -0.19649196360E+04  0.19649196360E+04  0.50400001928E-02 0. -1.
    10030    2    1    2    0    0  0.00000000000E+00  0.00000000000E+00 -0.13832322635E+04  0.25466070085E+04  0.21381945096E+04 0.  0.
        4    1    3    3  502    0  0.24611557024E+03  0.10320394165E+04 -0.53501284731E+03  0.11882418065E+04  0.12699999809E+01 0. -1.
       -4    1    3    3    0  502 -0.24611557024E+03 -0.10320394165E+04 -0.84821941614E+03  0.13583652020E+04  0.12699999809E+01 0.  1.
</event>
<event>
 5   0  0.5462851E-05  0.1886574E+04  0.7818609E-02  0.8661568E-01
        2   -1    0    0  501    0  0.00000000000E+00  0.00000000000E+00  0.80849630336E+03  0.80849630336E+03  0.25500000920E-02 0. -1.
       -2   -1    0    0    0  501  0.00000000000E+00  0.00000000000E+00 -0.11005501764E+04  0.11005501764E+04  0.25500000920E-02 0.  1.
    10030    2    1    2    0    0  0.00000000000E+00  0.00000000000E+00 -0.29205387302E+03  0.19090464797E+04  0.18865744080E+04 0.  0.
        1    1    3    3  502    0  0.34089013615E+03  0.87681496219E+03 -0.21598938174E+03  0.96522638582E+03  0.50400001928E-02 0. -1.
       -1    1    3    3    0  502 -0.34089013615E+03 -0.87681496219E+03 -0.76064491282E+02  0.94382009393E+03  0.50400001928E-02 0.  1.
</event>
<event>
 5   0  0.2017750E-05  0.2111112E+04  0.7818609E-02  0.8556364E-01
        4   -1    0    0  501    0  0.00000000000E+00  0.00000000000E+00  0.18015407343E+04  0.18015411820E+04  0.12699999809E+01 0. -1.
       -4   -1    0    0    0  501  0.00000000000E+00  0.00000000000E+00 -0.61846883055E+03  0.61847013450E+03  0.12699999809E+01 0.  1.
    10030    2    1    2    0    0  0.00000000000E+00  0.00000000000E+00  0.11830719038E+04  0.24200113165E+04  0.21111124182E+04 0.  0.
        1    1    3    3  502    0 -0.79900571189E+03  0.47699534499E+03  0.20368953386E+02  0.93077901839E+03  0.50400001928E-02 0. -1.
       -1    1    3    3    0  502  0.79900571189E+03 -0.47699534499E+03  0.11627029504E+04  0.14892322981E+04  0.50400001928E-02 0.  1.
</event>
<event>
 5   0  0.5954140E-05  0.2094032E+04  0.7818609E-02  0.8563877E-01
       -2   -1    0    0    0  501  0.00000000000E+00  0.00000000000E+00  0.44496756781E+03  0.44496756782E+03  0.25500000920E-02 0.  1.
        2   -1    0    0  501    0  0.00000000000E+00  0.00000000000E+00 -0.24636447226E+04  0.24636447226E+04  0.25500000920E-02 0. -1.
    10030    2    1    2    0    0  0.00000000000E+00  0.00000000000E+00 -0.20186771547E+04  0.29086122904E+04  0.20940315185E+04 0.  0.
        2    1    3    3  502    0  0.55002933018E+03  0.59567055837E+03 -0.19295309810E+04  0.20929513814E+04  0.25500000920E-02 0. -1.
       -2    1    3    3    0  502 -0.55002933018E+03 -0.59567055837E+03 -0.89146173746E+02  0.81566090900E+03  0.25500000920E-02 0.  1.
</event>
<event>
 5   0  0.5506332E-05  0.2098876E+04  0.7818609E-02  0.8561739E-01
        2   -1    0    0  501    0  0.00000000000E+00  0.00000000000E+00  0.11090518636E+04  0.11090518636E+04  0.25500000920E-02 0.  1.
       -2   -1    0    0    0  501  0.00000000000E+00  0.00000000000E+00 -0.99302881064E+03  0.99302881064E+03  0.25500000920E-02 0. -1.
    10030    2    1    2    0    0  0.00000000000E+00  0.00000000000E+00  0.11602305293E+03  0.21020806742E+04  0.20988763213E+04 0.  0.
        3    1    3    3  502    0  0.99590346493E+03 -0.32003191615E+03  0.14226072409E+03  0.10556904199E+04  0.10100000352E+00 0.  1.
       -3    1    3    3    0  502 -0.99590346493E+03  0.32003191615E+03 -0.26237671151E+02  0.10463902543E+04  0.10100000352E+00 0. -1.
</event>
<event>
 5   0  0.2789662E-05  0.2097519E+04  0.7818609E-02  0.8562337E-01
       -1   -1    0    0    0  501  0.00000000000E+00  0.00000000000E+00  0.12912841674E+04  0.12912841674E+04  0.50400001928E-02 0. -1.
        1   -1    0    0  501    0  0.00000000000E+00  0.00000000000E+00 -0.85178468974E+03  0.85178468975E+03  0.50400001928E-02 0.  1.
    10030    2    1    2    0    0  0.00000000000E+00  0.00000000000E+00  0.43949947762E+03  0.21430688571E+04  0.20975186139E+04 0.  0.
        4    1    3    3  502    0  0.31113042977E+03 -0.50737502115E+03  0.11020198640E+04  0.12524699397E+04  0.12699999809E+01 0. -1.
       -4    1    3    3    0  502 -0.31113042977E+03  0.50737502115E+03 -0.66252038636E+03  0.89059891739E+03  0.12699999809E+01 0.  1.
</event>
<event>
 5   0  0.2602060E-05  0.2104382E+04  0.7818609E-02  0.8559315E-01
       -1   -1    0    0    0  501  0.00000000000E+00  0.00000000000E+00  0.97776383922E+03  0.97776383923E+03  0.50400001928E-02 0.  1.
        1   -1    0    0  501    0  0.00000000000E+00  0.00000000000E+00 -0.11322838964E+04  0.11322838964E+04  0.50400001928E-02 0. -1.
    10030    2    1    2    0    0  0.00000000000E+00  0.00000000000E+00 -0.15452005718E+03  0.21100477356E+04  0.21043823318E+04 0.  0.
        1    1    3    3  502    0  0.69152471934E+03  0.29528546851E+03 -0.81524850176E+03  0.11090672049E+04  0.50400001928E-02 0. -1.
       -1    1    3    3    0  502 -0.69152471934E+03 -0.29528546851E+03  0.66072844458E+03  0.10009805307E+04  0.50400001928E-02 0.  1.
</event>
<event>
 5   0  0.5506332E-05  0.2098295E+04  0.7818609E-02  0.8561995E-01
       -2   -1    0    0    0  501  0.00000000000E+00  0.00000000000E+00  0.54750019685E+03  0.54750019685E+03  0.25500000920E-02 0. -1.
        2   -1    0    0  501    0  0.00000000000E+00  0.00000000000E+00 -0.20104301393E+04  0.20104301393E+04  0.25500000920E-02 0.  1.
    10030    2    1    2    0    0  0.00000000000E+00  0.00000000000E+00 -0.14629299425E+04  0.25579303362E+04  0.20982954006E+04 0.  0.
        3    1    3    3  502    0 -0.32109924494E+03 -0.85371006640E+03 -0.99453693800E+02  0.91750566755E+03  0.10100000352E+00 0. -1.
       -3    1    3    3    0  502  0.32109924494E+03  0.85371006640E+03 -0.13634762487E+04  0.16404246687E+04  0.10100000352E+00 0.  1.
</event>
<event>
 5   0  0.5866610E-05  0.2123724E+04  0.7818609E-02  0.8550864E-01
       -2   -1    0    0    0  501  0.00000000000E+00  0.00000000000E+00  0.92488261825E+03  0.92488261825E+03  0.25500000920E-02 0. -1.
        2   -1    0    0  501    0  0.00000000000E+00  0.00000000000E+00 -0.12191284690E+04  0.12191284690E+04  0.25500000920E-02 0.  1.
    10030    2    1    2    0    0  0.00000000000E+00  0.00000000000E+00 -0.29424585077E+03  0.21440110873E+04  0.21237238337E+04 0.  0.
        5    1    3    3  502    0 -0.74320910957E+03  0.38376338977E+03  0.51326230016E+03  0.98137373036E+03  0.46999998093E+01 0. -1.
       -5    1    3    3    0  502  0.74320910957E+03 -0.38376338977E+03 -0.80750815094E+03  0.11626373569E+04  0.46999998093E+01 0.  1.
</event>
<event>
 5   0  0.2732159E-05  0.2091015E+04  0.7818609E-02  0.8565212E-01
        1   -1    0    0  501    0  0.00000000000E+00  0.00000000000E+00  0.91561712760E+03  0.91561712761E+03  0.50400001928E-02 0.  1.
       -1   -1    0    0    0  501  0.00000000000E+00  0.00000000000E+00 -0.11938237463E+04  0.11938237463E+04  0.50400001928E-02 0. -1.
    10030    2    1    2    0    0  0.00000000000E+00  0.00000000000E+00 -0.27820661874E+03  0.21094408740E+04  0.20910145571E+04 0.  0.
        3    1    3    3  502    0  0.75825101839E+03 -0.41814346577E+03 -0.73018191213E+03  0.11326756817E+04  0.10100000352E+00 0. -1.
       -3    1    3    3    0  502 -0.75825101839E+03  0.41814346577E+03  0.45197529339E+03  0.97676519230E+03  0.10100000352E+00 0.  1.
</event>
<event>
 5   0  0.2789662E-05  0.2119879E+04  0.7818609E-02  0.8552537E-01
        1   -1    0    0  501    0  0.00000000000E+00  0.00000000000E+00  0.94141226807E+03  0.94141226808E+03  0.50400001928E-02 0. -1.
       -1   -1    0    0    0  501  0.00000000000E+00  0.00000000000E+00 -0.11933901844E+04  0.11933901844E+04  0.50400001928E-02 0.  1.
    10030    2    1    2    0    0  0.00000000000E+00  0.00000000000E+00 -0.25197791630E+03  0.21348024525E+04  0.21198793930E+04 0.  0.
        4    1    3    3  502    0  0.93136344546E+03  0.30726885629E+02 -0.63460729385E+03  0.11274351597E+04  0.12699999809E+01 0.  1.
       -4    1    3    3    0  502 -0.93136344546E+03 -0.30726885629E+02  0.38262937755E+03  0.10073672928E+04  0.12699999809E+01 0. -1.
</event>
<event>
 5   0  0.2699285E-05  0.2100389E+04  0.7818609E-02  0.8561072E-01
       -1   -1    0    0    0  501  0.00000000000E+00  0.00000000000E+00  0.76176893897E+03  0.76176893898E+03  0.50400001928E-02 0.  1.
        1   -1    0    0  501    0  0.00000000000E+00  0.00000000000E+00 -0.14478261259E+04  0.14478261259E+04  0.50400001928E-02 0. -1.
    10030    2    1    2    0    0  0.00000000000E+00  0.00000000000E+00 -0.68605718692E+03  0.22095950649E+04  0.21003894608E+04 0.  0.
        2    1    3    3  502    0 -0.53468391292E+03 -0.12777793800E+03  0.59831113365E+03  0.81252095408E+03  0.25500000920E-02 0.  1.
       -2    1    3    3    0  502  0.53468391292E+03  0.12777793800E+03 -0.12843683206E+04  0.13970741108E+04  0.25500000920E-02 0. -1.
</event>
<event>
 5   0  0.5967046E-05  0.2067898E+04  0.7818609E-02  0.8575518E-01
        2   -1    0    0  501    0  0.00000000000E+00  0.00000000000E+00  0.23149699109E+04  0.23149699109E+04  0.25500000920E-02 0.  1.
       -2   -1    0    0    0  501  0.00000000000E+00  0.00000000000E+00 -0.46179885767E+03  0.46179885768E+03  0.25500000920E-02 0. -1.
    10030    2    1    2    0    0  0.00000000000E+00  0.00000000000E+00  0.18531710532E+04  0.27767687685E+04  0.20678979282E+04 0.  0.
        4    1    3    3  502    0 -0.47926282634E+03 -0.42827963048E+03  0.20141129297E+04  0.21141827748E+04  0.12699999809E+01 0.  1.
       -4    1    3    3    0  502  0.47926282634E+03  0.42827963048E+03 -0.16094187654E+03  0.66258599376E+03  0.12699999809E+01 0. -1.
</event>
<event>
 5   0  0.2604390E-05  0.2109626E+04  0.7818609E-02  0.8557015E-01
        1   -1    0    0  501    0  0.00000000000E+00  0.00000000000E+00  0.95323508246E+03  0.95323508247E+03  0.50400001928E-02 0. -1.
       -1   -1    0    0    0  501  0.00000000000E+00  0.00000000000E+00 -0.11672149071E+04  0.11672149071E+04  0.50400001928E-02 0.  1.
    10030    2    1    2    0    0  0.00000000000E+00  0.00000000000E+00 -0.21397982463E+03  0.21204499896E+04  0.21096257471E+04 0.  0.
        5    1    3    3  502    0  0.45507312045E+03  0.18052253869E+03  0.83211015758E+03  0.96545809660E+03  0.46999998093E+01 0. -1.
       -5    1    3    3    0  502 -0.45507312045E+03 -0.18052253869E+03 -0.10460899822E+04  0.11549918930E+04  0.46999998093E+01 0.  1.
</event>
<event>
 5   0  0.5866610E-05  0.2085219E+04  0.7818609E-02  0.8567783E-01
        2   -1    0    0  501    0  0.00000000000E+00  0.00000000000E+00  0.25936922954E+04  0.25936922954E+04  0.25500000920E-02 0.  1.
       -2   -1    0    0    0  501  0.00000000000E+00  0.00000000000E+00 -0.41910697780E+03  0.41910697781E+03  0.25500000920E-02 0. -1.
    10030    2    1    2    0    0  0.00000000000E+00  0.00000000000E+00  0.21745853176E+04  0.30127992732E+04  0.20852189710E+04 0.  0.
        5    1    3    3  502    0 -0.90718699999E+03 -0.47357888292E+03  0.79923992050E+03  0.12984882563E+04  0.46999998093E+01 0. -1.
       -5    1    3    3    0  502  0.90718699999E+03  0.47357888292E+03  0.13753453971E+04  0.17143110169E+04  0.46999998093E+01 0.  1.
</event>
<event>
 5   0  0.2699285E-05  0.2145191E+04  0.7818609E-02  0.8541594E-01
        1   -1    0    0  501    0  0.00000000000E+00  0.00000000000E+00  0.14549167826E+04  0.14549167826E+04  0.50400001928E-02 0. -1.
       -1   -1    0    0    0  501  0.00000000000E+00  0.00000000000E+00 -0.79074016369E+03  0.79074016371E+03  0.50400001928E-02 0.  1.
    10030    2    1    2    0    0  0.00000000000E+00  0.00000000000E+00  0.66417661893E+03  0.22456569463E+04  0.21451910263E+04 0.  0.
        2    1    3    3  502    0  0.10965140895E+03  0.32550779775E+03  0.13957873439E+04  0.14374286303E+04  0.25500000920E-02 0. -1.
       -2    1    3    3    0  502 -0.10965140895E+03 -0.32550779775E+03 -0.73161072498E+03  0.80822831600E+03  0.25500000920E-02 0.  1.
</event>
<event>
 5   0  0.5462851E-05  0.2080157E+04  0.7818609E-02  0.8570035E-01
        2   -1    0    0  501    0  0.00000000000E+00  0.00000000000E+00  0.20232646476E+04  0.20232646476E+04  0.25500000920E-02 0.  1.
       -2   -1    0    0    0  501  0.00000000000E+00  0.00000000000E+00 -0.53466223707E+03  0.53466223708E+03  0.25500000920E-02 0. -1.
    10030    2    1    2    0    0  0.00000000000E+00  0.00000000000E+00  0.14886024106E+04  0.25579268847E+04  0.20801569198E+04 0.  0.
        1    1    3    3  502    0  0.10364496247E+04 -0.85239000355E+02  0.76449534050E+03  0.12907155525E+04  0.50400001928E-02 0. -1.
       -1    1    3    3    0  502 -0.10364496247E+04  0.85239000355E+02  0.72410707007E+03  0.12672113323E+04  0.50400001928E-02 0.  1.
</event>
<event>
 5   0  0.2604390E-05  0.2237008E+04  0.7818609E-02  0.8503180E-01
        1   -1    0    0  501    0  0.00000000000E+00  0.00000000000E+00  0.10276459326E+04  0.10276459326E+04  0.50400001928E-02 0.  1.
       -1   -1    0    0    0  501  0.00000000000E+00  0.00000000000E+00 -0.12173953862E+04  0.12173953862E+04  0.50400001928E-02 0. -1.
    10030    2    1    2    0    0  0.00000000000E+00  0.00000000000E+00 -0.18974945364E+03  0.22450413188E+04  0.22370081958E+04 0.  0.
        5    1    3    3  502    0  0.11000426789E+04 -0.13584861297E+03  0.55598965051E+02  0.11098027194E+04  0.46999998093E+01 0.  1.
       -5    1    3    3    0  502 -0.11000426789E+04  0.13584861297E+03 -0.24534841869E+03  0.11352385994E+04  0.46999998093E+01 0. -1.
</event>
<event>
 5   0  0.2699285E-05  0.2100682E+04  0.7818609E-02  0.8560943E-01
        1   -1    0    0  501    0  0.00000000000E+00  0.00000000000E+00  0.99980517765E+03  0.99980517767E+03  0.50400001928E-02 0.  1.
       -1   -1    0    0    0  501  0.00000000000E+00  0.00000000000E+00 -0.11034310509E+04  0.11034310509E+04  0.50400001928E-02 0. -1.
    10030    2    1    2    0    0  0.00000000000E+00  0.00000000000E+00 -0.10362587322E+03  0.21032362285E+04  0.21006818682E+04 0.  0.
        2    1    3    3  502    0 -0.72297029781E+03 -0.51226889135E+03 -0.61651170924E+03  0.10794406682E+04  0.25500000920E-02 0. -1.
       -2    1    3    3    0  502  0.72297029781E+03  0.51226889135E+03  0.51288583602E+03  0.10237955603E+04  0.25500000920E-02 0.  1.
</event>
<event>
 5   0  0.5954140E-05  0.2110694E+04  0.7818609E-02  0.8556547E-01
        2   -1    0    0  501    0  0.00000000000E+00  0.00000000000E+00  0.26246774138E+04  0.26246774138E+04  0.25500000920E-02 0. -1.
       -2   -1    0    0    0  501  0.00000000000E+00  0.00000000000E+00 -0.42434072039E+03  0.42434072039E+03  0.25500000920E-02 0.  1.
    10030    2    1    2    0    0  0.00000000000E+00  0.00000000000E+00  0.22003366934E+04  0.30490181342E+04  0.21106942029E+04 0.  0.
        2    1    3    3  502    0 -0.13948190283E+03 -0.63339708347E+03 -0.10247238761E+03  0.65661834942E+03  0.25500000920E-02 0.  1.
       -2    1    3    3    0  502  0.13948190283E+03  0.63339708347E+03  0.23028090810E+04  0.23923997848E+04  0.25500000920E-02 0. -1.
</event>
<event>
 5   0  0.5954140E-05  0.2105286E+04  0.7818609E-02  0.8558918E-01
        2   -1    0    0  501    0  0.00000000000E+00  0.00000000000E+00  0.11406449605E+04  0.11406449605E+04  0.25500000920E-02 0.  1.
       -2   -1    0    0    0  501  0.00000000000E+00  0.00000000000E+00 -0.97143072399E+03  0.97143072399E+03  0.25500000920E-02 0. -1.
    10030    2    1    2    0    0  0.00000000000E+00  0.00000000000E+00  0.16921423647E+03  0.21120756845E+04  0.21052862606E+04 0.  0.
        2    1    3    3  502    0 -0.36133859410E+03 -0.87113123947E+03 -0.38447145281E+03  0.10184564370E+04  0.25500000920E-02 0. -1.
       -2    1    3    3    0  502  0.36133859410E+03  0.87113123947E+03  0.55368568929E+03  0.10936192475E+04  0.25500000920E-02 0.  1.
</event>
<event>
 5   0  0.5967046E-05  0.2069066E+04  0.7818609E-02  0.8574994E-01
        2   -1    0    0  501    0  0.00000000000E+00  0.00000000000E+00  0.87424717013E+03  0.87424717013E+03  0.25500000920E-02 0. -1.
       -2   -1    0    0    0  501  0.00000000000E+00  0.00000000000E+00 -0.12242061302E+04  0.12242061302E+04  0.25500000920E-02 0.  1.
    10030    2    1    2    0    0  0.00000000000E+00  0.00000000000E+00 -0.34995896009E+03  0.20984533004E+04  0.20690662097E+04 0.  0.
        4    1    3    3  502    0 -0.57511817731E+03 -0.24960903324E+02 -0.10467654354E+04  0.11946143537E+04  0.12699999809E+01 0.  1.
       -4    1    3    3    0  502  0.57511817731E+03  0.24960903324E+02  0.69680647527E+03  0.90383894663E+03  0.12699999809E+01 0. -1.
</event>
<event>
 5   0  0.5954140E-05  0.2101583E+04  0.7818609E-02  0.8560546E-01
        2   -1    0    0  501    0  0.00000000000E+00  0.00000000000E+00  0.11013273637E+04  0.11013273637E+04  0.25500000920E-02 0. -1.
       -2   -1    0    0    0  501  0.00000000000E+00  0.00000000000E+00 -0.10025745023E+04  0.10025745023E+04  0.25500000920E-02 0.  1.
    10030    2    1    2    0    0  0.00000000000E+00  0.00000000000E+00  0.98752861424E+02  0.21039018660E+04  0.21015829591E+04 0.  0.
        2    1    3    3  502    0 -0.67612916219E+03  0.77211962967E+03  0.27510997060E+03  0.10625464048E+04  0.25500000920E-02 0.  1.
       -2    1    3    3    0  502  0.67612916219E+03 -0.77211962967E+03 -0.17635710918E+03  0.10413554611E+04  0.25500000920E-02 0. -1.
</event>
<event>
 5   0  0.5954140E-05  0.2072124E+04  0.7818609E-02  0.8573623E-01
        2   -1    0    0  501    0  0.00000000000E+00  0.00000000000E+00  0.94537765873E+03  0.94537765874E+03  0.25500000920E-02 0. -1.
       -2   -1    0    0    0  501  0.00000000000E+00  0.00000000000E+00 -0.11354453551E+04  0.11354453551E+04  0.25500000920E-02 0.  1.
    10030    2    1    2    0    0  0.00000000000E+00  0.00000000000E+00 -0.19006769635E+03  0.20808230138E+04  0.20721241965E+04 0.  0.
        2    1    3    3  502    0 -0.95629704031E+00  0.69695225798E+03  0.67478811750E+03  0.97009399954E+03  0.25500000920E-02 0. -1.
       -2    1    3    3    0  502  0.95629704031E+00 -0.69695225798E+03 -0.86485581385E+03  0.11107290143E+04  0.25500000920E-02 0.  1.
</event>
<event>
 5   0  0.5506332E-05  0.2331128E+04  0.7818609E-02  0.8465748E-01
        2   -1    0    0  501    0  0.00000000000E+00  0.00000000000E+00  0.87146074187E+03  0.87146074188E+03  0.25500000920E-02 0.  1.
       -2   -1    0    0    0  501  0.00000000000E+00  0.00000000000E+00 -0.15589218419E+04  0.15589218419E+04  0.25500000920E-02 0. -1.
    10030    2    1    2    0    0  0.00000000000E+00  0.00000000000E+00 -0.68746110002E+03  0.24303825838E+04  0.23311277827E+04 0.  0.
        3    1    3    3  502    0 -0.11469276654E+04 -0.42170707512E+02 -0.55565293069E+03  0.12751359253E+04  0.10100000352E+00 0. -1.
       -3    1    3    3    0  502  0.11469276654E+04  0.42170707512E+02 -0.13180816934E+03  0.11552466585E+04  0.10100000352E+00 0.  1.
</event>
<event>
 5   0  0.2789662E-05  0.2092795E+04  0.7818609E-02  0.8564424E-01
        1   -1    0    0  501    0  0.00000000000E+00  0.00000000000E+00  0.14731398921E+04  0.14731398921E+04  0.50400001928E-02 0.  1.
       -1   -1    0    0    0  501  0.00000000000E+00  0.00000000000E+00 -0.74327505498E+03  0.74327505499E+03  0.50400001928E-02 0. -1.
    10030    2    1    2    0    0  0.00000000000E+00  0.00000000000E+00  0.72986483714E+03  0.22164149471E+04  0.20927953883E+04 0.  0.
        4    1    3    3  502    0  0.49772565414E+02  0.61077394120E+03  0.12632230785E+04  0.14040143427E+04  0.12699999809E+01 0.  1.
       -4    1    3    3    0  502 -0.49772565414E+02 -0.61077394120E+03 -0.53335824137E+03  0.81240060442E+03  0.12699999809E+01 0. -1.
</event>
<event>
 5   0  0.2602060E-05  0.2103633E+04  0.7818609E-02  0.8559645E-01
       -1   -1    0    0    0  501  0.00000000000E+00  0.00000000000E+00  0.11093152497E+04  0.11093152497E+04  0.50400001928E-02 0.  1.
        1   -1    0    0  501    0  0.00000000000E+00  0.00000000000E+00 -0.99729836750E+03  0.99729836751E+03  0.50400001928E-02 0. -1.
    10030    2    1    2    0    0  0.00000000000E+00  0.00000000000E+00  0.11201688218E+03  0.21066136172E+04  0.21036333213E+04 0.  0.
        1    1    3    3  502    0  0.21694714362E+03 -0.43152644975E+03  0.99169675918E+03  0.11030610147E+04  0.50400001928E-02 0.  1.
       -1    1    3    3    0  502 -0.21694714362E+03  0.43152644975E+03 -0.87967987701E+03  0.10035526025E+04  0.50400001928E-02 0. -1.
</event>
<event>
 5   0  0.2732159E-05  0.2099005E+04  0.7818609E-02  0.8561682E-01
        1   -1    0    0  501    0  0.00000000000E+00  0.00000000000E+00  0.22803148885E+04  0.22803148885E+04  0.50400001928E-02 0. -1.
       -1   -1    0    0    0  501  0.00000000000E+00  0.00000000000E+00 -0.48302765395E+03  0.48302765397E+03  0.50400001928E-02 0.  1.
    10030    2    1    2    0    0  0.00000000000E+00  0.00000000000E+00  0.17972872346E+04  0.27633425425E+04  0.20990046698E+04 0.  0.
        3    1    3    3  502    0 -0.51013837416E+03  0.37803140407E+02 -0.30779533202E+03  0.59699934240E+03  0.10100000352E+00 0.  1.
       -3    1    3    3    0  502  0.51013837416E+03 -0.37803140407E+02  0.21050825666E+04  0.21663432001E+04  0.10100000352E+00 0. -1.
</event>
<event>
 5   0  0.2699285E-05  0.2101412E+04  0.7818609E-02  0.8560622E-01
       -1   -1    0    0    0  501  0.00000000000E+00  0.00000000000E+00  0.58494525265E+03  0.58494525267E+03  0.50400001928E-02 0.  1.
        1   -1    0    0  501    0  0.00000000000E+00  0.00000000000E+00 -0.18873277113E+04  0.18873277113E+04  0.50400001928E-02 0. -1.
    10030    2    1    2    0    0  0.00000000000E+00  0.00000000000E+00 -0.13023824586E+04  0.24722729639E+04  0.21014122727E+04 0.  0.
        2    1    3    3  502    0  0.54822980185E+03 -0.74137276714E+03 -0.58503772878E+02  0.92391135232E+03  0.25500000920E-02 0.  1.
       -2    1    3    3    0  502 -0.54822980185E+03  0.74137276714E+03 -0.12438786857E+04  0.15483616116E+04  0.25500000920E-02 0. -1.
</event>
<event>
 5   0  0.2732159E-05  0.2095558E+04  0.7818609E-02  0.8563203E-01
        1   -1    0    0  501    0  0.00000000000E+00  0.00000000000E+00  0.87608778957E+03  0.87608778958E+03  0.50400001928E-02 0.  1.
       -1   -1    0    0    0  501  0.00000000000E+00  0.00000000000E+00 -0.12531173593E+04  0.12531173593E+04  0.50400001928E-02 0. -1.
    10030    2    1    2    0    0  0.00000000000E+00  0.00000000000E+00 -0.37702956973E+03  0.21292051489E+04  0.20955579853E+04 0.  0.
        3    1    3    3  502    0  0.75068150389E+02  0.17093340769E+03  0.85905237038E+03  0.87910434098E+03  0.10100000352E+00 0.  1.
       -3    1    3    3    0  502 -0.75068150389E+02 -0.17093340769E+03 -0.12360819401E+04  0.12501008079E+04  0.10100000352E+00 0. -1.
</event>
<event>
 5   0  0.5967046E-05  0.2105988E+04  0.7818609E-02  0.8558610E-01
       -2   -1    0    0    0  501  0.00000000000E+00  0.00000000000E+00  0.62209174151E+03  0.62209174151E+03  0.25500000920E-02 0.  1.
        2   -1    0    0  501    0  0.00000000000E+00  0.00000000000E+00 -0.17823674898E+04  0.17823674898E+04  0.25500000920E-02 0. -1.
    10030    2    1    2    0    0  0.00000000000E+00  0.00000000000E+00 -0.11602757483E+04  0.24044592313E+04  0.21059877452E+04 0.  0.
        4    1    3    3  502    0 -0.28441354065E+02 -0.62537834425E+03  0.38655180459E+03  0.73575192464E+03  0.12699999809E+01 0.  1.
       -4    1    3    3    0  502  0.28441354065E+02  0.62537834425E+03 -0.15468275529E+04  0.16687073067E+04  0.12699999809E+01 0. -1.
</event>
<event>
 5   0  0.5967046E-05  0.2029119E+04  0.7818609E-02  0.8593126E-01
       -2   -1    0    0    0  501  0.00000000000E+00  0.00000000000E+00  0.13446664076E+04  0.13446664076E+04  0.25500000920E-02 0. -1.
        2   -1    0    0  501    0  0.00000000000E+00  0.00000000000E+00 -0.76549181852E+03  0.76549181852E+03  0.25500000920E-02 0.  1.
    10030    2    1    2    0    0  0.00000000000E+00  0.00000000000E+00  0.57917458906E+03  0.21101582261E+04  0.20291191524E+04 0.  0.
        4    1    3    3  502    0  0.95344866687E+03  0.20600348393E+03  0.57970527052E+03  0.11347077198E+04  0.12699999809E+01 0. -1.
       -4    1    3    3    0  502 -0.95344866687E+03 -0.20600348393E+03 -0.53068146553E+00  0.97545050632E+03  0.12699999809E+01 0.  1.
</event>
<event>
 5   0  0.5954140E-05  0.2045820E+04  0.7818609E-02  0.8585493E-01
       -2   -1    0    0    0  501  0.00000000000E+00  0.00000000000E+00  0.91807479840E+03  0.91807479840E+03  0.25500000920E-02 0.  1.
        2   -1    0    0  501    0  0.00000000000E+00  0.00000000000E+00 -0.11397158460E+04  0.11397158460E+04  0.25500000920E-02 0. -1.
    10030    2    1    2    0    0  0.00000000000E+00  0.00000000000E+00 -0.22164104759E+03  0.20577906444E+04  0.20458195380E+04 0.  0.
        2    1    3    3  502    0  0.70321160153E+03 -0.59708411462E+03 -0.55536637532E+03  0.10767765819E+04  0.25500000920E-02 0. -1.
       -2    1    3    3    0  502 -0.70321160153E+03  0.59708411462E+03  0.33372532773E+03  0.98101406251E+03  0.25500000920E-02 0.  1.
</event>
<event>
 5   0  0.2017750E-05  0.2097011E+04  0.7818609E-02  0.8562561E-01
       -3   -1    0    0    0  501  0.00000000000E+00  0.00000000000E+00  0.11061071651E+04  0.11061071697E+04  0.10100000352E+00 0. -1.
        3   -1    0    0  501    0  0.00000000000E+00  0.00000000000E+00 -0.99390348295E+03  0.99390348808E+03  0.10100000352E+00 0.  1.
    10030    2    1    2    0    0  0.00000000000E+00  0.00000000000E+00  0.11220368214E+03  0.21000106578E+04  0.20970109910E+04 0.  0.
        3    1    3    3  502    0  0.42304625567E+03 -0.31643975019E+03 -0.85087659114E+03  0.10015454226E+04  0.10100000352E+00 0.  1.
       -3    1    3    3    0  502 -0.42304625567E+03  0.31643975019E+03  0.96308027328E+03  0.10984652352E+04  0.10100000352E+00 0. -1.
</event>
<event>
 5   0  0.2789662E-05  0.1959835E+04  0.7818609E-02  0.8625633E-01
        1   -1    0    0  501    0  0.00000000000E+00  0.00000000000E+00  0.17637374531E+04  0.17637374531E+04  0.50400001928E-02 0.  1.
       -1   -1    0    0    0  501  0.00000000000E+00  0.00000000000E+00 -0.54443374366E+03  0.54443374369E+03  0.50400001928E-02 0. -1.
    10030    2    1    2    0    0  0.00000000000E+00  0.00000000000E+00  0.12193037094E+04  0.23081711968E+04  0.19598348751E+04 0.  0.
        4    1    3    3  502    0  0.72321455332E+03 -0.61941743543E+03  0.33719117387E+03  0.10101567948E+04  0.12699999809E+01 0.  1.
       -4    1    3    3    0  502 -0.72321455332E+03  0.61941743543E+03  0.88211253555E+03  0.12980144020E+04  0.12699999809E+01 0. -1.
</event>
<event>
 5   0  0.2732159E-05  0.2089110E+04  0.7818609E-02  0.8566056E-01
        1   -1    0    0  501    0  0.00000000000E+00  0.00000000000E+00  0.79643572161E+03  0.79643572162E+03  0.50400001928E-02 0. -1.
       -1   -1    0    0    0  501  0.00000000000E+00  0.00000000000E+00 -0.13699724392E+04  0.13699724392E+04  0.50400001928E-02 0.  1.
    10030    2    1    2    0    0  0.00000000000E+00  0.00000000000E+00 -0.57353671759E+03  0.21664081608E+04  0.20891098470E+04 0.  0.
        3    1    3    3  502    0 -0.38411583714E+03 -0.90511098825E+03 -0.65241085903E+03  0.11800045833E+04  0.10100000352E+00 0. -1.
       -3    1    3    3    0  502  0.38411583714E+03  0.90511098825E+03  0.78874141441E+02  0.98640357754E+03  0.10100000352E+00 0.  1.
</event>
<event>
 5   0  0.2789662E-05  0.2097935E+04  0.7818609E-02  0.8562154E-01
       -1   -1    0    0    0  501  0.00000000000E+00  0.00000000000E+00  0.32775730159E+04  0.32775730159E+04  0.50400001928E-02 0.  1.
        1   -1    0    0  501    0  0.00000000000E+00  0.00000000000E+00 -0.33571577610E+03  0.33571577613E+03  0.50400001928E-02 0. -1.
    10030    2    1    2    0    0  0.00000000000E+00  0.00000000000E+00  0.29418572398E+04  0.36132887920E+04  0.20979351456E+04 0.  0.
        4    1    3    3  502    0  0.61438386202E+03 -0.25084216560E+03  0.28700761523E+04  0.29457983731E+04  0.12699999809E+01 0.  1.
       -4    1    3    3    0  502 -0.61438386202E+03  0.25084216560E+03  0.71781087482E+02  0.66749041893E+03  0.12699999809E+01 0. -1.
</event>
<event>
 5   0  0.2789662E-05  0.1994990E+04  0.7818609E-02  0.8608967E-01
       -1   -1    0    0    0  501  0.00000000000E+00  0.00000000000E+00  0.12192196827E+04  0.12192196827E+04  0.50400001928E-02 0.  1.
        1   -1    0    0  501    0  0.00000000000E+00  0.00000000000E+00 -0.81609252134E+03  0.81609252135E+03  0.50400001928E-02 0. -1.
    10030    2    1    2    0    0  0.00000000000E+00  0.00000000000E+00  0.40312716133E+03  0.20353122040E+04  0.19949897894E+04 0.  0.
        4    1    3    3  502    0 -0.18220707592E+03  0.36009611970E+02  0.12014223709E+04  0.12156946315E+04  0.12699999809E+01 0.  1.
       -4    1    3    3    0  502  0.18220707592E+03 -0.36009611970E+02 -0.79829520961E+03  0.81961757257E+03  0.12699999809E+01 0. -1.
</event>
<event>
 5   0  0.5462851E-05  0.2102856E+04  0.7818609E-02  0.8559986E-01
       -2   -1    0    0    0  501  0.00000000000E+00  0.00000000000E+00  0.11307807237E+04  0.11307807237E+04  0.25500000920E-02 0. -1.
        2   -1    0    0  501    0  0.00000000000E+00  0.00000000000E+00 -0.97764421249E+03  0.97764421249E+03  0.25500000920E-02 0.  1.
    10030    2    1    2    0    0  0.00000000000E+00  0.00000000000E+00  0.15313651123E+03  0.21084249362E+04  0.21028563718E+04 0.  0.
        1    1    3    3  502    0 -0.56735462107E+03  0.26625225672E+03 -0.76989461854E+03  0.99273322395E+03  0.50400001928E-02 0.  1.
       -1    1    3    3    0  502  0.56735462107E+03 -0.26625225672E+03  0.92303112977E+03  0.11156917123E+04  0.50400001928E-02 0. -1.
</event>
<event>
 5   0  0.5954140E-05  0.2106753E+04  0.7818609E-02  0.8558275E-01
        2   -1    0    0  501    0  0.00000000000E+00  0.00000000000E+00  0.15020606204E+04  0.15020606204E+04  0.25500000920E-02 0. -1.
       -2   -1    0    0    0  501  0.00000000000E+00  0.00000000000E+00 -0.73871957492E+03  0.73871957492E+03  0.25500000920E-02 0.  1.
    10030    2    1    2    0    0  0.00000000000E+00  0.00000000000E+00  0.76334104549E+03  0.22407801953E+04  0.21067525560E+04 0.  0.
        2    1    3    3  502    0  0.15175994703E+03 -0.49160367052E+03 -0.59598856241E+03  0.78734212190E+03  0.25500000920E-02 0.  1.
       -2    1    3    3    0  502 -0.15175994703E+03  0.49160367052E+03  0.13593296079E+04  0.14534380734E+04  0.25500000920E-02 0. -1.
</event>
<event>
 5   0  0.5506332E-05  0.2077512E+04  0.7818609E-02  0.8571215E-01
       -2   -1    0    0    0  501  0.00000000000E+00  0.00000000000E+00  0.19697200713E+04  0.19697200713E+04  0.25500000920E-02 0.  1.
        2   -1    0    0  501    0  0.00000000000E+00  0.00000000000E+00 -0.54780078807E+03  0.54780078808E+03  0.25500000920E-02 0. -1.
    10030    2    1    2    0    0  0.00000000000E+00  0.00000000000E+00  0.14219192832E+04  0.25175208594E+04  0.20775121731E+04 0.  0.
        3    1    3    3  502    0  0.33061619943E+03 -0.26315258415E+03 -0.43894332157E+03  0.60928450138E+03  0.10100000352E+00 0. -1.
       -3    1    3    3    0  502 -0.33061619943E+03  0.26315258415E+03  0.18608626048E+04  0.19082363580E+04  0.10100000352E+00 0.  1.
</event>
<event>
 5   0  0.5866610E-05  0.2094249E+04  0.7818609E-02  0.8563781E-01
       -2   -1    0    0    0  501  0.00000000000E+00  0.00000000000E+00  0.80359254617E+03  0.80359254618E+03  0.25500000920E-02 0. -1.
        2   -1    0    0  501    0  0.00000000000E+00  0.00000000000E+00 -0.13644598811E+04  0.13644598811E+04  0.25500000920E-02 0.  1.
    10030    2    1    2    0    0  0.00000000000E+00  0.00000000000E+00 -0.56086733491E+03  0.21680524273E+04  0.20942490683E+04 0.  0.
        5    1    3    3  502    0 -0.95105915381E+03 -0.35970460976E+03 -0.21526587753E+02  0.10170478869E+04  0.46999998093E+01 0. -1.
       -5    1    3    3    0  502  0.95105915381E+03  0.35970460976E+03 -0.53934074716E+03  0.11510045403E+04  0.46999998093E+01 0.  1.
</event>
<event>
 5   0  0.2604390E-05  0.2134366E+04  0.7818609E-02  0.8546254E-01
       -1   -1    0    0    0  501  0.00000000000E+00  0.00000000000E+00  0.20568158425E+04  0.20568158425E+04  0.50400001928E-02 0.  1.
        1   -1    0    0  501    0  0.00000000000E+00  0.00000000000E+00 -0.55371022636E+03  0.55371022638E+03  0.50400001928E-02 0. -1.
    10030    2    1    2    0    0  0.00000000000E+00  0.00000000000E+00  0.15031056161E+04  0.26105260689E+04  0.21343663844E+04 0.  0.
        5    1    3    3  502    0 -0.84909366274E+03 -0.63905737088E+03  0.63231857792E+03  0.12366095768E+04  0.46999998093E+01 0.  1.
       -5    1    3    3    0  502  0.84909366274E+03  0.63905737088E+03  0.87078703822E+03  0.13739164921E+04  0.46999998093E+01 0. -1.
</event>
<event>
 5   0  0.2699285E-05  0.2109688E+04  0.7818609E-02  0.8556988E-01
       -1   -1    0    0    0  501  0.00000000000E+00  0.00000000000E+00  0.44591665659E+03  0.44591665661E+03  0.50400001928E-02 0.  1.
        1   -1    0    0  501    0  0.00000000000E+00  0.00000000000E+00 -0.24952996875E+04  0.24952996875E+04  0.50400001928E-02 0. -1.
    10030    2    1    2    0    0  0.00000000000E+00  0.00000000000E+00 -0.20493830309E+04  0.29412163441E+04  0.21096878384E+04 0.  0.
        2    1    3    3  502    0 -0.93614958160E+03  0.63810653865E+02 -0.16965605527E+04  0.19387536067E+04  0.25500000920E-02 0. -1.
       -2    1    3    3    0  502  0.93614958160E+03 -0.63810653865E+02 -0.35282247822E+03  0.10024627374E+04  0.25500000920E-02 0.  1.
</event>
<event>
 5   0  0.2604390E-05  0.2096767E+04  0.7818609E-02  0.8562669E-01
       -1   -1    0    0    0  501  0.00000000000E+00  0.00000000000E+00  0.63783228503E+03  0.63783228505E+03  0.50400001928E-02 0.  1.
        1   -1    0    0  501    0  0.00000000000E+00  0.00000000000E+00 -0.17231920289E+04  0.17231920289E+04  0.50400001928E-02 0. -1.
    10030    2    1    2    0    0  0.00000000000E+00  0.00000000000E+00 -0.10853597439E+04  0.23610243140E+04  0.20967665672E+04 0.  0.
        5    1    3    3  502    0 -0.10086507724E+04 -0.86503867413E+02 -0.23589866272E+03  0.10394852422E+04  0.46999998093E+01 0.  1.
       -5    1    3    3    0  502  0.10086507724E+04  0.86503867413E+02 -0.84946108115E+03  0.13215390717E+04  0.46999998093E+01 0. -1.
</event>
<event>
 5   0  0.5954140E-05  0.2095939E+04  0.7818609E-02  0.8563034E-01
       -2   -1    0    0    0  501  0.00000000000E+00  0.00000000000E+00  0.64036762959E+03  0.64036762960E+03  0.25500000920E-02 0.  1.
        2   -1    0    0  501    0  0.00000000000E+00  0.00000000000E+00 -0.17150151046E+04  0.17150151046E+04  0.25500000920E-02 0. -1.
    10030    2    1    2    0    0  0.00000000000E+00  0.00000000000E+00 -0.10746474750E+04  0.23553827342E+04  0.20959390805E+04 0.  0.
        2    1    3    3  502    0  0.42450175803E+03 -0.90146191148E+03 -0.90217268840E+03  0.13441543364E+04  0.25500000920E-02 0. -1.
       -2    1    3    3    0  502 -0.42450175803E+03  0.90146191148E+03 -0.17247478658E+03  0.10112283978E+04  0.25500000920E-02 0.  1.
</event>
<event>
 5   0  0.5462851E-05  0.2099896E+04  0.7818609E-02  0.8561289E-01
        2   -1    0    0  501    0  0.00000000000E+00  0.00000000000E+00  0.24308114914E+04  0.24308114914E+04  0.25500000920E-02 0.  1.
       -2   -1    0    0    0  501  0.00000000000E+00  0.00000000000E+00 -0.45350717236E+03  0.45350717237E+03  0.25500000920E-02 0. -1.
    10030    2    1    2    0    0  0.00000000000E+00  0.00000000000E+00  0.19773043190E+04  0.28843186638E+04  0.20998956603E+04 0.  0.
        1    1    3    3  502    0 -0.81242679468E+03  0.22597240619E+03  0.18478529903E+04  0.20311724444E+04  0.50400001928E-02 0.  1.
       -1    1    3    3    0  502  0.81242679468E+03 -0.22597240619E+03  0.12945132872E+03  0.85314621936E+03  0.50400001928E-02 0. -1.
</event>
<event>
 5   0  0.5462851E-05  0.2103494E+04  0.7818609E-02  0.8559706E-01
       -2   -1    0    0    0  501  0.00000000000E+00  0.00000000000E+00  0.92121324601E+03  0.92121324601E+03  0.25500000920E-02 0.  1.
        2   -1    0    0  501    0  0.00000000000E+00  0.00000000000E+00 -0.12007767269E+04  0.12007767269E+04  0.25500000920E-02 0. -1.
    10030    2    1    2    0    0  0.00000000000E+00  0.00000000000E+00 -0.27956348086E+03  0.21219899729E+04  0.21034936903E+04 0.  0.
        1    1    3    3  502    0  0.27606880373E+03  0.54884709105E+03 -0.10009415307E+04  0.11744492589E+04  0.50400001928E-02 0. -1.
       -1    1    3    3    0  502 -0.27606880373E+03 -0.54884709105E+03  0.72137804989E+03  0.94754071397E+03  0.50400001928E-02 0.  1.
</event>
<event>
 5   0  0.5506332E-05  0.2094231E+04  0.7818609E-02  0.8563789E-01
        2   -1    0    0  501    0  0.00000000000E+00  0.00000000000E+00  0.20838377884E+04  0.20838377884E+04  0.25500000920E-02 0.  1.
       -2   -1    0    0    0  501  0.00000000000E+00  0.00000000000E+00 -0.52616917429E+03  0.52616917430E+03  0.25500000920E-02 0. -1.
    10030    2    1    2    0    0  0.00000000000E+00  0.00000000000E+00  0.15576686142E+04  0.26100069627E+04  0.20942313230E+04 0.  0.
        3    1    3    3  502    0  0.53093226976E+03  0.31993140031E+03  0.18306020226E+04  0.19327050865E+04  0.10100000352E+00 0.  1.
       -3    1    3    3    0  502 -0.53093226976E+03 -0.31993140031E+03 -0.27293340842E+03  0.67730187628E+03  0.10100000352E+00 0. -1.
</event>
<event>
 5   0  0.2789662E-05  0.2075342E+04  0.7818609E-02  0.8572184E-01
       -1   -1    0    0    0  501  0.00000000000E+00  0.00000000000E+00  0.83654830100E+03  0.83654830102E+03  0.50400001928E-02 0. -1.
        1   -1    0    0  501    0  0.00000000000E+00  0.00000000000E+00 -0.12871471718E+04  0.12871471718E+04  0.50400001928E-02 0.  1.
    10030    2    1    2    0    0  0.00000000000E+00  0.00000000000E+00 -0.45059887081E+03  0.21236954728E+04  0.20753416873E+04 0.  0.
        4    1    3    3  502    0  0.49439954839E+03 -0.62751917134E+03  0.45235950220E+03  0.91806424393E+03  0.12699999809E+01 0. -1.
       -4    1    3    3    0  502 -0.49439954839E+03  0.62751917134E+03 -0.90295837301E+03  0.12056312289E+04  0.12699999809E+01 0.  1.
</event>
<event>
 5   0  0.5506332E-05  0.2087166E+04  0.7818609E-02  0.8566918E-01
        2   -1    0    0  501    0  0.00000000000E+00  0.00000000000E+00  0.13920312407E+04  0.13920312407E+04  0.25500000920E-02 0. -1.
       -2   -1    0    0    0  501  0.00000000000E+00  0.00000000000E+00 -0.78235726494E+03  0.78235726495E+03  0.25500000920E-02 0.  1.
    10030    2    1    2    0    0  0.00000000000E+00  0.00000000000E+00  0.60967397575E+03  0.21743885056E+04  0.20871662648E+04 0.  0.
        3    1    3    3  502    0  0.47927482626E+03  0.84746340215E+03 -0.86586557686E+02  0.97744351205E+03  0.10100000352E+00 0.  1.
       -3    1    3    3    0  502 -0.47927482626E+03 -0.84746340215E+03  0.69626053343E+03  0.11969449936E+04  0.10100000352E+00 0. -1.
</event>
<event>
 5   0  0.2699285E-05  0.2105340E+04  0.7818609E-02  0.8558895E-01
        1   -1    0    0  501    0  0.00000000000E+00  0.00000000000E+00  0.10284554454E+04  0.10284554454E+04  0.50400001928E-02 0. -1.
       -1   -1    0    0    0  501  0.00000000000E+00  0.00000000000E+00 -0.10774544687E+04  0.10774544687E+04  0.50400001928E-02 0.  1.
    10030    2    1    2    0    0  0.00000000000E+00  0.00000000000E+00 -0.48999023312E+02  0.21059099141E+04  0.21053397973E+04 0.  0.
        2    1    3    3  502    0 -0.62173790343E+03 -0.26493413712E+03 -0.83179042560E+03  0.10717385081E+04  0.25500000920E-02 0.  1.
       -2    1    3    3    0  502  0.62173790343E+03  0.26493413712E+03  0.78279140228E+03  0.10341714060E+04  0.25500000920E-02 0. -1.
</event>
<event>
 5   0  0.2017750E-05  0.2197761E+04  0.7818609E-02  0.8519361E-01
        4   -1    0    0  501    0  0.00000000000E+00  0.00000000000E+00  0.20767993380E+04  0.20767997263E+04  0.12699999809E+01 0.  1.
       -4   -1    0    0    0  501  0.00000000000E+00  0.00000000000E+00 -0.58144076772E+03  0.58144215470E+03  0.12699999809E+01 0. -1.
    10030    2    1    2    0    0  0.00000000000E+00  0.00000000000E+00  0.14953585703E+04  0.26582418810E+04  0.21977608251E+04 0.  0.
        2    1    3    3  502    0 -0.84047220593E+02 -0.25672306195E+03  0.20360155650E+04  0.20538573579E+04  0.25500000920E-02 0.  1.
       -2    1    3    3    0  502  0.84047220593E+02  0.25672306195E+03 -0.54065699470E+03  0.60438452309E+03  0.25500000920E-02 0. -1.
</event>
<event>
 5   0  0.5506332E-05  0.2135731E+04  0.7818609E-02  0.8545665E-01
       -2   -1    0    0    0  501  0.00000000000E+00  0.00000000000E+00  0.81615822356E+03  0.81615822357E+03  0.25500000920E-02 0.  1.
        2   -1    0    0  501    0  0.00000000000E+00  0.00000000000E+00 -0.13972000165E+04  0.13972000165E+04  0.25500000920E-02 0. -1.
    10030    2    1    2    0    0  0.00000000000E+00  0.00000000000E+00 -0.58104179297E+03  0.22133582401E+04  0.21357305855E+04 0.  0.
        3    1    3    3  502    0  0.61370452927E+03 -0.21386655571E+03  0.58760465683E+03  0.87615717530E+03  0.10100000352E+00 0.  1.
       -3    1    3    3    0  502 -0.61370452927E+03  0.21386655571E+03 -0.11686464498E+04  0.13372010648E+04  0.10100000352E+00 0. -1.
</event>
<event>
 5   0  0.2699285E-05  0.2100897E+04  0.7818609E-02  0.8560849E-01
        1   -1    0    0  501    0  0.00000000000E+00  0.00000000000E+00  0.20275297137E+04  0.20275297137E+04  0.50400001928E-02 0.  1.
       -1   -1    0    0    0  501  0.00000000000E+00  0.00000000000E+00 -0.54422955222E+03  0.54422955224E+03  0.50400001928E-02 0. -1.
    10030    2    1    2    0    0  0.00000000000E+00  0.00000000000E+00  0.14833001615E+04  0.25717592660E+04  0.21008965593E+04 0.  0.
        2    1    3    3  502    0  0.54802970137E+03  0.77089318819E+03  0.18225226787E+03  0.96323867775E+03  0.25500000920E-02 0.  1.
       -2    1    3    3    0  502 -0.54802970137E+03 -0.77089318819E+03  0.13010478936E+04  0.16085205882E+04  0.25500000920E-02 0. -1.
</event>
<event>
 5   0  0.2699285E-05  0.2137084E+04  0.7818609E-02  0.8545081E-01
        1   -1    0    0  501    0  0.00000000000E+00  0.00000000000E+00  0.26261132307E+04  0.26261132307E+04  0.50400001928E-02 0. -1.
       -1   -1    0    0    0  501  0.00000000000E+00  0.00000000000E+00 -0.43478003149E+03  0.43478003152E+03  0.50400001928E-02 0.  1.
    10030    2    1    2    0    0  0.00000000000E+00  0.00000000000E+00  0.21913331992E+04  0.30608932622E+04  0.21370836139E+04 0.  0.
        2    1    3    3  502    0 -0.81217229318E+03  0.67023102306E+03  0.13556478869E+04  0.17165706078E+04  0.25500000920E-02 0.  1.
       -2    1    3    3    0  502  0.81217229318E+03 -0.67023102306E+03  0.83568531225E+03  0.13443226544E+04  0.25500000920E-02 0. -1.
</event>
<event>
 5   0  0.2017750E-05  0.2099550E+04  0.7818609E-02  0.8561442E-01
        3   -1    0    0  501    0  0.00000000000E+00  0.00000000000E+00  0.17510839115E+04  0.17510839144E+04  0.10100000352E+00 0.  1.
       -3   -1    0    0    0  501  0.00000000000E+00  0.00000000000E+00 -0.62934007465E+03  0.62934008275E+03  0.10100000352E+00 0. -1.
    10030    2    1    2    0    0  0.00000000000E+00  0.00000000000E+00  0.11217438369E+04  0.23804239972E+04  0.20995497543E+04 0.  0.
        2    1    3    3  502    0 -0.32330756299E+03 -0.63002000876E+03  0.14395130323E+04  0.16042601915E+04  0.25500000920E-02 0.  1.
       -2    1    3    3    0  502  0.32330756299E+03  0.63002000876E+03 -0.31776919545E+03  0.77616380572E+03  0.25500000920E-02 0. -1.
</event>
<event>
 5   0  0.5954140E-05  0.2098733E+04  0.7818609E-02  0.8561802E-01
       -2   -1    0    0    0  501  0.00000000000E+00  0.00000000000E+00  0.96014475169E+03  0.96014475169E+03  0.25500000920E-02 0. -1.
        2   -1    0    0  501    0  0.00000000000E+00  0.00000000000E+00 -0.11468793729E+04  0.11468793729E+04  0.25500000920E-02 0.  1.
    10030    2    1    2    0    0  0.00000000000E+00  0.00000000000E+00 -0.18673462122E+03  0.21070241246E+04  0.20987331519E+04 0.  0.
        2    1    3    3  502    0 -0.58586598838E+02 -0.70573306280E+03 -0.87081572919E+03  0.11224132838E+04  0.25500000920E-02 0.  1.
       -2    1    3    3    0  502  0.58586598838E+02  0.70573306280E+03  0.68408110797E+03  0.98461084078E+03  0.25500000920E-02 0. -1.
</event>
<event>
 5   0  0.5954140E-05  0.2103631E+04  0.7818609E-02  0.8559646E-01
        2   -1    0    0  501    0  0.00000000000E+00  0.00000000000E+00  0.16421886392E+04  0.16421886392E+04  0.25500000920E-02 0.  1.
       -2   -1    0    0    0  501  0.00000000000E+00  0.00000000000E+00 -0.67368365671E+03  0.67368365671E+03  0.25500000920E-02 0. -1.
    10030    2    1    2    0    0  0.00000000000E+00  0.00000000000E+00  0.96850498252E+03  0.23158722959E+04  0.21036308112E+04 0.  0.
        2    1    3    3  502    0 -0.73324869400E+03 -0.75222044839E+03  0.42572476055E+03  0.11334596693E+04  0.25500000920E-02 0.  1.
       -2    1    3    3    0  502  0.73324869400E+03  0.75222044839E+03  0.54278022197E+03  0.11824126266E+04  0.25500000920E-02 0. -1.
</event>
<event>
 5   0  0.2732159E-05  0.2101164E+04  0.7818609E-02  0.8560731E-01
        1   -1    0    0  501    0  0.00000000000E+00  0.00000000000E+00  0.18752579648E+04  0.18752579648E+04  0.50400001928E-02 0.  1.
       -1   -1    0    0    0  501  0.00000000000E+00  0.00000000000E+00 -0.58857080934E+03  0.58857080937E+03  0.50400001928E-02 0. -1.
    10030    2    1    2    0    0  0.00000000000E+00  0.00000000000E+00  0.12866871555E+04  0.24638287742E+04  0.21011635806E+04 0.  0.
        3    1    3    3  502    0  0.95045666245E+03 -0.42209570502E+03  0.46867137570E+03  0.11406951915E+04  0.10100000352E+00 0. -1.
       -3    1    3    3    0  502 -0.95045666245E+03  0.42209570502E+03  0.81801577978E+03  0.13231335827E+04  0.10100000352E+00 0.  1.
</event>
<event>
 5   0  0.5967046E-05  0.2097190E+04  0.7818609E-02  0.8562482E-01
       -2   -1    0    0    0  501  0.00000000000E+00  0.00000000000E+00  0.60349583509E+03  0.60349583510E+03  0.25500000920E-02 0.  1.
        2   -1    0    0  501    0  0.00000000000E+00  0.00000000000E+00 -0.18219706567E+04  0.18219706567E+04  0.25500000920E-02 0. -1.
    10030    2    1    2    0    0  0.00000000000E+00  0.00000000000E+00 -0.12184748216E+04  0.24254664917E+04  0.20971902183E+04 0.  0.
        4    1    3    3  502    0  0.10144034817E+03  0.86928631799E+03 -0.12772294486E+04  0.15483105387E+04  0.12699999809E+01 0. -1.
       -4    1    3    3    0  502 -0.10144034817E+03 -0.86928631799E+03  0.58754627059E+02  0.87715595306E+03  0.12699999809E+01 0.  1.
</event>
<event>
 5   0  0.2602060E-05  0.2173937E+04  0.7818609E-02  0.8529355E-01
       -1   -1    0    0    0  501  0.00000000000E+00  0.00000000000E+00  0.65505697027E+03  0.65505697028E+03  0.50400001928E-02 0. -1.
        1   -1    0    0  501    0  0.00000000000E+00  0.00000000000E+00 -0.18036601888E+04  0.18036601888E+04  0.50400001928E-02 0.  1.
    10030    2    1    2    0    0  0.00000000000E+00  0.00000000000E+00 -0.11486032185E+04  0.24587171590E+04  0.21739366860E+04 0.  0.
        1    1    3    3  502    0 -0.68527847496E+03 -0.38879195717E+03  0.27261428295E+03  0.83371717116E+03  0.50400001928E-02 0. -1.
       -1    1    3    3    0  502  0.68527847496E+03  0.38879195717E+03 -0.14212175014E+04  0.16249999879E+04  0.50400001928E-02 0.  1.
</event>
<event>
 5   0  0.5954140E-05  0.2111442E+04  0.7818609E-02  0.8556220E-01
       -2   -1    0    0    0  501  0.00000000000E+00  0.00000000000E+00  0.59202393381E+03  0.59202393382E+03  0.25500000920E-02 0.  1.
        2   -1    0    0  501    0  0.00000000000E+00  0.00000000000E+00 -0.18826044062E+04  0.18826044062E+04  0.25500000920E-02 0. -1.
    10030    2    1    2    0    0  0.00000000000E+00  0.00000000000E+00 -0.12905804724E+04  0.24746283400E+04  0.21114420346E+04 0.  0.
        2    1    3    3  502    0 -0.54491117867E+02  0.68141791359E+03 -0.15881908383E+04  0.17290603788E+04  0.25500000920E-02 0. -1.
       -2    1    3    3    0  502  0.54491117867E+02 -0.68141791359E+03  0.29761036587E+03  0.74556796120E+03  0.25500000920E-02 0.  1.
</event>
<event>
 5   0  0.2604390E-05  0.2109079E+04  0.7818609E-02  0.8557255E-01
        1   -1    0    0  501    0  0.00000000000E+00  0.00000000000E+00  0.12138547167E+04  0.12138547167E+04  0.50400001928E-02 0. -1.
       -1   -1    0    0    0  501  0.00000000000E+00  0.00000000000E+00 -0.91613369475E+03  0.91613369477E+03  0.50400001928E-02 0.  1.
    10030    2    1    2    0    0  0.00000000000E+00  0.00000000000E+00  0.29772102193E+03  0.21299884115E+04  0.21090786676E+04 0.  0.
        5    1    3    3  502    0  0.78339827280E+03  0.68530711669E+03  0.31986858864E+03  0.10888970117E+04  0.46999998093E+01 0. -1.
       -5    1    3    3    0  502 -0.78339827280E+03 -0.68530711669E+03 -0.22147566713E+02  0.10410913998E+04  0.46999998093E+01 0.  1.
</event>
<event>
 5   0  0.5462851E-05  0.2070534E+04  0.7818609E-02  0.8574336E-01
       -2   -1    0    0    0  501  0.00000000000E+00  0.00000000000E+00  0.50244227897E+03  0.50244227897E+03  0.25500000920E-02 0.  1.
        2   -1    0    0  501    0  0.00000000000E+00  0.00000000000E+00 -0.21331362432E+04  0.21331362432E+04  0.25500000920E-02 0. -1.
    10030    2    1    2    0    0  0.00000000000E+00  0.00000000000E+00 -0.16306939642E+04  0.26355785222E+04  0.20705340716E+04 0.  0.
        1    1    3    3  502    0 -0.10320872796E+04  0.40994101292E+02 -0.90438768161E+03  0.13728808207E+04  0.50400001928E-02 0.  1.
       -1    1    3    3    0  502  0.10320872796E+04 -0.40994101292E+02 -0.72630628263E+03  0.12626977015E+04  0.50400001928E-02 0. -1.
</event>
<event>
 5   0  0.2017750E-05  0.2095180E+04  0.7818609E-02  0.8563369E-01
       -4   -1    0    0    0  501  0.00000000000E+00  0.00000000000E+00  0.18745277101E+04  0.18745281404E+04  0.12699999809E+01 0.  1.
        4   -1    0    0  501    0  0.00000000000E+00  0.00000000000E+00 -0.58545031556E+03  0.58545169305E+03  0.12699999809E+01 0. -1.
    10030    2    1    2    0    0  0.00000000000E+00  0.00000000000E+00  0.12890773946E+04  0.24599798334E+04  0.20951802432E+04 0.  0.
        4    1    3    3  502    0 -0.96736980474E+03 -0.32792486921E+03  0.37143573356E+03  0.10868786391E+04  0.12699999809E+01 0. -1.
       -4    1    3    3    0  502  0.96736980474E+03  0.32792486921E+03  0.91764166102E+03  0.13731011943E+04  0.12699999809E+01 0.  1.
</event>
<event>
 5   0  0.2602060E-05  0.2102040E+04  0.7818609E-02  0.8560345E-01
       -1   -1    0    0    0  501  0.00000000000E+00  0.00000000000E+00  0.11553841727E+04  0.11553841727E+04  0.50400001928E-02 0. -1.
        1   -1    0    0  501    0  0.00000000000E+00  0.00000000000E+00 -0.95608268295E+03  0.95608268296E+03  0.50400001928E-02 0.  1.
    10030    2    1    2    0    0  0.00000000000E+00  0.00000000000E+00  0.19930148974E+03  0.21114668557E+04  0.21020397710E+04 0.  0.
        1    1    3    3  502    0  0.27726089407E+03  0.58974154246E+03  0.92795430556E+03  0.11339170532E+04  0.50400001928E-02 0. -1.
       -1    1    3    3    0  502 -0.27726089407E+03 -0.58974154246E+03 -0.72865281582E+03  0.97754980247E+03  0.50400001928E-02 0.  1.
</event>
<event>
 5   0  0.2789662E-05  0.2123395E+04  0.7818609E-02  0.8551007E-01
        1   -1    0    0  501    0  0.00000000000E+00  0.00000000000E+00  0.24142945451E+04  0.24142945451E+04  0.50400001928E-02 0.  1.
       -1   -1    0    0    0  501  0.00000000000E+00  0.00000000000E+00 -0.46688637601E+03  0.46688637604E+03  0.50400001928E-02 0. -1.
    10030    2    1    2    0    0  0.00000000000E+00  0.00000000000E+00  0.19474081690E+04  0.28811809211E+04  0.21233946697E+04 0.  0.
        4    1    3    3  502    0  0.33000896127E+03  0.96263609403E+03  0.13844260001E+04  0.17181999671E+04  0.12699999809E+01 0.  1.
       -4    1    3    3    0  502 -0.33000896127E+03 -0.96263609403E+03  0.56298216890E+03  0.11629809540E+04  0.12699999809E+01 0. -1.
</event>
<event>
 5   0  0.2789662E-05  0.2110742E+04  0.7818609E-02  0.8556526E-01
       -1   -1    0    0    0  501  0.00000000000E+00  0.00000000000E+00  0.14615015267E+04  0.14615015267E+04  0.50400001928E-02 0.  1.
        1   -1    0    0  501    0  0.00000000000E+00  0.00000000000E+00 -0.76209833318E+03  0.76209833320E+03  0.50400001928E-02 0. -1.
    10030    2    1    2    0    0  0.00000000000E+00  0.00000000000E+00  0.69940319348E+03  0.22235998599E+04  0.21107419335E+04 0.  0.
        4    1    3    3  502    0 -0.10174691907E+03  0.30986420233E+03  0.14070805580E+04  0.14443841487E+04  0.12699999809E+01 0.  1.
       -4    1    3    3    0  502  0.10174691907E+03 -0.30986420233E+03 -0.70767736450E+03  0.77921571118E+03  0.12699999809E+01 0. -1.
</event>
<event>
 5   0  0.5954140E-05  0.2074931E+04  0.7818609E-02  0.8572368E-01
        2   -1    0    0  501    0  0.00000000000E+00  0.00000000000E+00  0.11172425768E+04  0.11172425768E+04  0.25500000920E-02 0.  1.
       -2   -1    0    0    0  501  0.00000000000E+00  0.00000000000E+00 -0.96338502150E+03  0.96338502151E+03  0.25500000920E-02 0. -1.
    10030    2    1    2    0    0  0.00000000000E+00  0.00000000000E+00  0.15385755533E+03  0.20806275983E+04  0.20749310966E+04 0.  0.
        2    1    3    3  502    0  0.10365053030E+04 -0.44436345985E+02  0.72802644455E+02  0.10400086812E+04  0.25500000920E-02 0.  1.
       -2    1    3    3    0  502 -0.10365053030E+04  0.44436345985E+02  0.81054910875E+02  0.10406189171E+04  0.25500000920E-02 0. -1.
</event>
<event>
 5   0  0.5954140E-05  0.2099828E+04  0.7818609E-02  0.8561319E-01
       -2   -1    0    0    0  501  0.00000000000E+00  0.00000000000E+00  0.50561037357E+03  0.50561037358E+03  0.25500000920E-02 0. -1.
        2   -1    0    0  501    0  0.00000000000E+00  0.00000000000E+00 -0.21801749204E+04  0.21801749204E+04  0.25500000920E-02 0.  1.
    10030    2    1    2    0    0  0.00000000000E+00  0.00000000000E+00 -0.16745645468E+04  0.26857852940E+04  0.20998276653E+04 0.  0.
        2    1    3    3  502    0 -0.99522206257E+03 -0.28397958128E+03 -0.61132906292E+03  0.12020127202E+04  0.25500000920E-02 0. -1.
       -2    1    3    3    0  502  0.99522206257E+03  0.28397958128E+03 -0.10632354839E+04  0.14837725738E+04  0.25500000920E-02 0.  1.
</event>
<event>
 5   0  0.5967046E-05  0.2058901E+04  0.7818609E-02  0.8579567E-01
        2   -1    0    0  501    0  0.00000000000E+00  0.00000000000E+00  0.87703075320E+03  0.87703075320E+03  0.25500000920E-02 0. -1.
       -2   -1    0    0    0  501  0.00000000000E+00  0.00000000000E+00 -0.12083599267E+04  0.12083599267E+04  0.25500000920E-02 0.  1.
    10030    2    1    2    0    0  0.00000000000E+00  0.00000000000E+00 -0.33132917347E+03  0.20853906799E+04  0.20589014708E+04 0.  0.
        4    1    3    3  502    0  0.31860779782E+03 -0.96527077486E+03 -0.75522519324E+00  0.10164943585E+04  0.12699999809E+01 0. -1.
       -4    1    3    3    0  502 -0.31860779782E+03  0.96527077486E+03 -0.33057394828E+03  0.10688963214E+04  0.12699999809E+01 0.  1.
</event>
<event>
 5   0  0.5866610E-05  0.2142790E+04  0.7818609E-02  0.8542625E-01
        2   -1    0    0  501    0  0.00000000000E+00  0.00000000000E+00  0.17737499697E+04  0.17737499697E+04  0.25500000920E-02 0.  1.
       -2   -1    0    0    0  501  0.00000000000E+00  0.00000000000E+00 -0.64715305835E+03  0.64715305835E+03  0.25500000920E-02 0. -1.
    10030    2    1    2    0    0  0.00000000000E+00  0.00000000000E+00  0.11265969113E+04  0.24209030280E+04  0.21427904402E+04 0.  0.
        5    1    3    3  502    0  0.10453464451E+04 -0.48175068248E+02  0.30370331478E+03  0.10896457318E+04  0.46999998093E+01 0. -1.
       -5    1    3    3    0  502 -0.10453464451E+04  0.48175068248E+02  0.82289359652E+03  0.13312572962E+04  0.46999998093E+01 0.  1.
</event>
<event>
 5   0  0.5954140E-05  0.2098876E+04  0.7818609E-02  0.8561739E-01
       -2   -1    0    0    0  501  0.00000000000E+00  0.00000000000E+00  0.16241977049E+04  0.16241977049E+04  0.25500000920E-02 0.  1.
        2   -1    0    0  501    0  0.00000000000E+00  0.00000000000E+00 -0.67807007396E+03  0.67807007396E+03  0.25500000920E-02 0. -1.
    10030    2    1    2    0    0  0.00000000000E+00  0.00000000000E+00  0.94612763096E+03  0.23022677789E+04  0.20988757542E+04 0.  0.
        2    1    3    3  502    0  0.43633491954E+03 -0.49838988149E+03  0.13659064112E+04  0.15180516988E+04  0.25500000920E-02 0.  1.
       -2    1    3    3    0  502 -0.43633491954E+03  0.49838988149E+03 -0.41977878023E+03  0.78421608012E+03  0.25500000920E-02 0. -1.
</event>
<event>
 5   0  0.5462851E-05  0.2108105E+04  0.7818609E-02  0.8557682E-01
        2   -1    0    0  501    0  0.00000000000E+00  0.00000000000E+00  0.19932020778E+04  0.19932020778E+04  0.25500000920E-02 0.  1.
       -2   -1    0    0    0  501  0.00000000000E+00  0.00000000000E+00 -0.55740768237E+03  0.55740768237E+03  0.25500000920E-02 0. -1.
    10030    2    1    2    0    0  0.00000000000E+00  0.00000000000E+00  0.14357943955E+04  0.25506097602E+04  0.21081045047E+04 0.  0.
        1    1    3    3  502    0 -0.63506525721E+03 -0.12698692766E+03 -0.28828596730E+03  0.70890222153E+03  0.50400001928E-02 0. -1.
       -1    1    3    3    0  502  0.63506525721E+03  0.12698692766E+03  0.17240803628E+04  0.18417075387E+04  0.50400001928E-02 0.  1.
</event>
<event>
 5   0  0.5967046E-05  0.2097808E+04  0.7818609E-02  0.8562210E-01
        2   -1    0    0  501    0  0.00000000000E+00  0.00000000000E+00  0.99373496411E+03  0.99373496412E+03  0.25500000920E-02 0. -1.
       -2   -1    0    0    0  501  0.00000000000E+00  0.00000000000E+00 -0.11071354998E+04  0.11071354998E+04  0.25500000920E-02 0.  1.
    10030    2    1    2    0    0  0.00000000000E+00  0.00000000000E+00 -0.11340053569E+03  0.21008704639E+04  0.20978076710E+04 0.  0.
        4    1    3    3  502    0 -0.64821247075E+03 -0.71031644851E+03 -0.47620178251E+03  0.10730790348E+04  0.12699999809E+01 0.  1.
       -4    1    3    3    0  502  0.64821247075E+03  0.71031644851E+03  0.36280124682E+03  0.10277914292E+04  0.12699999809E+01 0. -1.
</event>
<event>
 5   0  0.5967046E-05  0.1938403E+04  0.7818609E-02  0.8635973E-01
        2   -1    0    0  501    0  0.00000000000E+00  0.00000000000E+00  0.17247032692E+04  0.17247032692E+04  0.25500000920E-02 0.  1.
       -2   -1    0    0    0  501  0.00000000000E+00  0.00000000000E+00 -0.54464531919E+03  0.54464531920E+03  0.25500000920E-02 0. -1.
    10030    2    1    2    0    0  0.00000000000E+00  0.00000000000E+00  0.11800579500E+04  0.22693485884E+04  0.19384030155E+04 0.  0.
        4    1    3    3  502    0 -0.78569719029E+03 -0.55703482480E+03  0.46316753678E+03  0.10687065317E+04  0.12699999809E+01 0. -1.
       -4    1    3    3    0  502  0.78569719029E+03  0.55703482480E+03  0.71689041325E+03  0.12006420567E+04  0.12699999809E+01 0.  1.
</event>
<event>
 5   0  0.5866610E-05  0.2106212E+04  0.7818609E-02  0.8558512E-01
       -2   -1    0    0    0  501  0.00000000000E+00  0.00000000000E+00  0.54609264206E+03  0.54609264207E+03  0.25500000920E-02 0.  1.
        2   -1    0    0  501    0  0.00000000000E+00  0.00000000000E+00 -0.20308497157E+04  0.20308497157E+04  0.25500000920E-02 0. -1.
    10030    2    1    2    0    0  0.00000000000E+00  0.00000000000E+00 -0.14847570736E+04  0.25769423577E+04  0.21062118477E+04 0.  0.
        5    1    3    3  502    0 -0.41544338199E+03  0.63605567799E+03 -0.16346504476E+04  0.18025715533E+04  0.46999998093E+01 0. -1.
       -5    1    3    3    0  502  0.41544338199E+03 -0.63605567799E+03  0.14989337397E+03  0.77437080440E+03  0.46999998093E+01 0.  1.
</event>
<event>
 5   0  0.2789662E-05  0.2098915E+04  0.7818609E-02  0.8561722E-01
        1   -1    0    0  501    0  0.00000000000E+00  0.00000000000E+00  0.22989743365E+04  0.22989743365E+04  0.50400001928E-02 0. -1.
       -1   -1    0    0    0  501  0.00000000000E+00  0.00000000000E+00 -0.47906622266E+03  0.47906622269E+03  0.50400001928E-02 0.  1.
    10030    2    1    2    0    0  0.00000000000E+00  0.00000000000E+00  0.18199081138E+04  0.27780405592E+04  0.20989149115E+04 0.  0.
        4    1    3    3  502    0  0.49923367210E+03 -0.11484332105E+02 -0.31173817012E+03  0.58868365771E+03  0.12699999809E+01 0.  1.
       -4    1    3    3    0  502 -0.49923367210E+03  0.11484332105E+02  0.21316462840E+04  0.21893569015E+04  0.12699999809E+01 0. -1.
</event>
<event>
 5   0  0.5866610E-05  0.2137624E+04  0.7818609E-02  0.8544848E-01
       -2   -1    0    0    0  501  0.00000000000E+00  0.00000000000E+00  0.58051661085E+03  0.58051661086E+03  0.25500000920E-02 0.  1.
        2   -1    0    0  501    0  0.00000000000E+00  0.00000000000E+00 -0.19678327268E+04  0.19678327268E+04  0.25500000920E-02 0. -1.
    10030    2    1    2    0    0  0.00000000000E+00  0.00000000000E+00 -0.13873161160E+04  0.25483493377E+04  0.21376244622E+04 0.  0.
        5    1    3    3  502    0  0.36156247200E+03 -0.18825711115E+03 -0.18715084533E+04  0.19153939913E+04  0.46999998093E+01 0. -1.
       -5    1    3    3    0  502 -0.36156247200E+03  0.18825711115E+03  0.48419233730E+03  0.63295534642E+03  0.46999998093E+01 0.  1.
</event>
<event>
 5   0  0.5506332E-05  0.2127582E+04  0.7818609E-02  0.8549190E-01
       -2   -1    0    0    0  501  0.00000000000E+00  0.00000000000E+00  0.80495692876E+03  0.80495692877E+03  0.25500000920E-02 0. -1.
        2   -1    0    0  501    0  0.00000000000E+00  0.00000000000E+00 -0.14058527142E+04  0.14058527142E+04  0.25500000920E-02 0.  1.
    10030    2    1    2    0    0  0.00000000000E+00  0.00000000000E+00 -0.60089578541E+03  0.22108096429E+04  0.21275816159E+04 0.  0.
        3    1    3    3  502    0  0.30851409040E+02 -0.95735667145E+03 -0.78133337775E+03  0.12361090013E+04  0.10100000352E+00 0.  1.
       -3    1    3    3    0  502 -0.30851409040E+02  0.95735667145E+03  0.18043759234E+03  0.97470064160E+03  0.10100000352E+00 0. -1.
</event>
<event>
 5   0  0.2017750E-05  0.1901119E+04  0.7818609E-02  0.8654300E-01
       -4   -1    0    0    0  501  0.00000000000E+00  0.00000000000E+00  0.10313721975E+04  0.10313729795E+04  0.12699999809E+01 0.  1.
        4   -1    0    0  501    0  0.00000000000E+00  0.00000000000E+00 -0.87607735662E+03  0.87607827714E+03  0.12699999809E+01 0. -1.
    10030    2    1    2    0    0  0.00000000000E+00  0.00000000000E+00  0.15529484092E+03  0.19074512566E+04  0.19011190938E+04 0.  0.
        5    1    3    3  502    0 -0.87994958271E+03  0.29013286249E+03 -0.13531651341E+03  0.93638720346E+03  0.46999998093E+01 0. -1.
       -5    1    3    3    0  502  0.87994958271E+03 -0.29013286249E+03  0.29061135433E+03  0.97106405313E+03  0.46999998093E+01 0.  1.
</event>
<event>
 5   0  0.2602060E-05  0.2087423E+04  0.7818609E-02  0.8566804E-01
       -1   -1    0    0    0  501  0.00000000000E+00  0.00000000000E+00  0.69920228879E+03  0.69920228881E+03  0.50400001928E-02 0.  1.
        1   -1    0    0  501    0  0.00000000000E+00  0.00000000000E+00 -0.15579657802E+04  0.15579657803E+04  0.50400001928E-02 0. -1.
    10030    2    1    2    0    0  0.00000000000E+00  0.00000000000E+00 -0.85876349145E+03  0.22571680691E+04  0.20874225633E+04 0.  0.
        1    1    3    3  502    0  0.37565261759E+03 -0.16476158995E+03 -0.14671498227E+04  0.15234138876E+04  0.50400001928E-02 0. -1.
       -1    1    3    3    0  502 -0.37565261759E+03  0.16476158995E+03  0.60838633130E+03  0.73375418143E+03  0.50400001928E-02 0.  1.
</event>
<event>
 5   0  0.2604390E-05  0.2097415E+04  0.7818609E-02  0.8562383E-01
       -1   -1    0    0    0  501  0.00000000000E+00  0.00000000000E+00  0.43637848546E+03  0.43637848549E+03  0.50400001928E-02 0.  1.
        1   -1    0    0  501    0  0.00000000000E+00  0.00000000000E+00 -0.25202607516E+04  0.25202607516E+04  0.50400001928E-02 0. -1.
    10030    2    1    2    0    0  0.00000000000E+00  0.00000000000E+00 -0.20838822662E+04  0.29566392371E+04  0.20974151423E+04 0.  0.
        5    1    3    3  502    0  0.10127012749E+02  0.90087406242E+03 -0.17985599881E+04  0.20115955741E+04  0.46999998093E+01 0. -1.
       -5    1    3    3    0  502 -0.10127012749E+02 -0.90087406242E+03 -0.28532227804E+03  0.94504366305E+03  0.46999998093E+01 0.  1.
</event>
<event>
 5   0  0.2604390E-05  0.2123415E+04  0.7818609E-02  0.8550999E-01
        1   -1    0    0  501    0  0.00000000000E+00  0.00000000000E+00  0.90667076491E+03  0.90667076493E+03  0.50400001928E-02 0. -1.
       -1   -1    0    0    0  501  0.00000000000E+00  0.00000000000E+00 -0.12432546190E+04  0.12432546190E+04  0.50400001928E-02 0.  1.
    10030    2    1    2    0    0  0.00000000000E+00  0.00000000000E+00 -0.33658385405E+03  0.21499253839E+04  0.21234148124E+04 0.  0.
        5    1    3    3  502    0 -0.63816744590E+03 -0.55861676461E+03 -0.81492833379E+03  0.11761975420E+04  0.46999998093E+01 0.  1.
       -5    1    3    3    0  502  0.63816744590E+03  0.55861676461E+03  0.47834447974E+03  0.97372784186E+03  0.46999998093E+01 0. -1.
</event>
<event>
 5   0  0.5462851E-05  0.2076425E+04  0.7818609E-02  0.8571700E-01
       -2   -1    0    0    0  501  0.00000000000E+00  0.00000000000E+00  0.10903256856E+04  0.10903256856E+04  0.25500000920E-02 0.  1.
        2   -1    0    0  501    0  0.00000000000E+00  0.00000000000E+00 -0.98859008908E+03  0.98859008908E+03  0.25500000920E-02 0. -1.
    10030    2    1    2    0    0  0.00000000000E+00  0.00000000000E+00  0.10173559652E+03  0.20789157747E+04  0.20764249726E+04 0.  0.
        1    1    3    3  502    0  0.93600073754E+03 -0.27383660551E+03  0.40738665349E+03  0.10569047983E+04  0.50400001928E-02 0.  1.
       -1    1    3    3    0  502 -0.93600073754E+03  0.27383660551E+03 -0.30565105697E+03  0.10220109764E+04  0.50400001928E-02 0. -1.
</event>
<event>
 5   0  0.5462851E-05  0.2103112E+04  0.7818609E-02  0.8559874E-01
       -2   -1    0    0    0  501  0.00000000000E+00  0.00000000000E+00  0.12780390634E+04  0.12780390634E+04  0.25500000920E-02 0. -1.
        2   -1    0    0  501    0  0.00000000000E+00  0.00000000000E+00 -0.86520815126E+03  0.86520815126E+03  0.25500000920E-02 0.  1.
    10030    2    1    2    0    0  0.00000000000E+00  0.00000000000E+00  0.41283091214E+03  0.21432472147E+04  0.21031118042E+04 0.  0.
        1    1    3    3  502    0 -0.73203592741E+03  0.73606634626E+03  0.35587245905E+02  0.10387187864E+04  0.50400001928E-02 0. -1.
       -1    1    3    3    0  502  0.73203592741E+03 -0.73606634626E+03  0.37724366624E+03  0.11045284283E+04  0.50400001928E-02 0.  1.
</event>
<event>
 5   0  0.2602060E-05  0.1924714E+04  0.7818609E-02  0.8642651E-01
       -1   -1    0    0    0  501  0.00000000000E+00  0.00000000000E+00  0.48976951037E+03  0.48976951039E+03  0.50400001928E-02 0.  1.
        1   -1    0    0  501    0  0.00000000000E+00  0.00000000000E+00 -0.18909535329E+04  0.18909535329E+04  0.50400001928E-02 0. -1.
    10030    2    1    2    0    0  0.00000000000E+00  0.00000000000E+00 -0.14011840226E+04  0.23807230433E+04  0.19247144058E+04 0.  0.
        1    1    3    3  502    0 -0.87603239197E+02  0.61710757029E+01 -0.18859867708E+04  0.18880303253E+04  0.50400001928E-02 0. -1.
       -1    1    3    3    0  502  0.87603239197E+02 -0.61710757029E+01  0.48480274822E+03  0.49269271803E+03  0.50400001928E-02 0.  1.
</event>
<event>
 5   0  0.5954140E-05  0.2108871E+04  0.7818609E-02  0.8557346E-01
        2   -1    0    0  501    0  0.00000000000E+00  0.00000000000E+00  0.11016413580E+04  0.11016413580E+04  0.25500000920E-02 0.  1.
       -2   -1    0    0    0  501  0.00000000000E+00  0.00000000000E+00 -0.10092524670E+04  0.10092524670E+04  0.25500000920E-02 0. -1.
    10030    2    1    2    0    0  0.00000000000E+00  0.00000000000E+00  0.92388891011E+02  0.21108938250E+04  0.21088710329E+04 0.  0.
        2    1    3    3  502    0  0.32908135654E+03  0.36888958619E+03 -0.88607434387E+03  0.10146436857E+04  0.25500000920E-02 0. -1.
       -2    1    3    3    0  502 -0.32908135654E+03 -0.36888958619E+03  0.97846323488E+03  0.10962501394E+04  0.25500000920E-02 0.  1.
</event>
<event>
 5   0  0.5866610E-05  0.2097580E+04  0.7818609E-02  0.8562310E-01
        2   -1    0    0  501    0  0.00000000000E+00  0.00000000000E+00  0.17294205563E+04  0.17294205563E+04  0.25500000920E-02 0.  1.
       -2   -1    0    0    0  501  0.00000000000E+00  0.00000000000E+00 -0.63602853461E+03  0.63602853461E+03  0.25500000920E-02 0. -1.
    10030    2    1    2    0    0  0.00000000000E+00  0.00000000000E+00  0.10933920217E+04  0.23654490910E+04  0.20975803414E+04 0.  0.
        5    1    3    3  502    0 -0.23853193739E+03 -0.10315587934E+03 -0.59913091325E+03  0.65308388574E+03  0.46999998093E+01 0. -1.
       -5    1    3    3    0  502  0.23853193739E+03  0.10315587934E+03  0.16925229350E+04  0.17123652052E+04  0.46999998093E+01 0.  1.
</event>
<event>
 5   0  0.5866610E-05  0.2012733E+04  0.7818609E-02  0.8600691E-01
       -2   -1    0    0    0  501  0.00000000000E+00  0.00000000000E+00  0.10445707238E+04  0.10445707238E+04  0.25500000920E-02 0. -1.
        2   -1    0    0  501    0  0.00000000000E+00  0.00000000000E+00 -0.96955979516E+03  0.96955979516E+03  0.25500000920E-02 0.  1.
    10030    2    1    2    0    0  0.00000000000E+00  0.00000000000E+00  0.75010928649E+02  0.20141305190E+04  0.20127332431E+04 0.  0.
        5    1    3    3  502    0 -0.67401233218E+03  0.21669959076E+03  0.75319449076E+03  0.10337191918E+04  0.46999998093E+01 0. -1.
       -5    1    3    3    0  502  0.67401233218E+03 -0.21669959076E+03 -0.67818356211E+03  0.98041132719E+03  0.46999998093E+01 0.  1.
</event>
<event>
 5   0  0.2602060E-05  0.2094558E+04  0.7818609E-02  0.8563644E-01
        1   -1    0    0  501    0  0.00000000000E+00  0.00000000000E+00  0.13829510061E+04  0.13829510061E+04  0.50400001928E-02 0. -1.
       -1   -1    0    0    0  501  0.00000000000E+00  0.00000000000E+00 -0.79308181058E+03  0.79308181060E+03  0.50400001928E-02 0.  1.
    10030    2    1    2    0    0  0.00000000000E+00  0.00000000000E+00  0.58986919551E+03  0.21760328167E+04  0.20945579848E+04 0.  0.
        1    1    3    3  502    0  0.57260402509E+03  0.47429633292E+03  0.10611606206E+04  0.12957215147E+04  0.50400001928E-02 0. -1.
       -1    1    3    3    0  502 -0.57260402509E+03 -0.47429633292E+03 -0.47129142511E+03  0.88031130197E+03  0.50400001928E-02 0.  1.
</event>
<event>
 5   0  0.2789662E-05  0.2106065E+04  0.7818609E-02  0.8558576E-01
       -1   -1    0    0    0  501  0.00000000000E+00  0.00000000000E+00  0.93716787695E+03  0.93716787696E+03  0.50400001928E-02 0. -1.
        1   -1    0    0  501    0  0.00000000000E+00  0.00000000000E+00 -0.11832220523E+04  0.11832220523E+04  0.50400001928E-02 0.  1.
    10030    2    1    2    0    0  0.00000000000E+00  0.00000000000E+00 -0.24605417537E+03  0.21203899293E+04  0.21060652400E+04 0.  0.
        4    1    3    3  502    0 -0.94180919182E+03  0.46749165332E+03 -0.18106539142E+03  0.10669298424E+04  0.12699999809E+01 0.  1.
       -4    1    3    3    0  502  0.94180919182E+03 -0.46749165332E+03 -0.64988783954E+02  0.10534600869E+04  0.12699999809E+01 0. -1.
</event>
<event>
 5   0  0.5506332E-05  0.2095981E+04  0.7818609E-02  0.8563016E-01
       -2   -1    0    0    0  501  0.00000000000E+00  0.00000000000E+00  0.46569220153E+03  0.46569220153E+03  0.25500000920E-02 0. -1.
        2   -1    0    0  501    0  0.00000000000E+00  0.00000000000E+00 -0.23583904767E+04  0.23583904767E+04  0.25500000920E-02 0.  1.
    10030    2    1    2    0    0  0.00000000000E+00  0.00000000000E+00 -0.18926982752E+04  0.28240826782E+04  0.20959809667E+04 0.  0.
        3    1    3    3  502    0  0.35249030324E+03  0.98206563606E+03 -0.81445918583E+03  0.13236487839E+04  0.10100000352E+00 0.  1.
       -3    1    3    3    0  502 -0.35249030324E+03 -0.98206563606E+03 -0.10782390893E+04  0.15004338944E+04  0.10100000352E+00 0. -1.
</event>
<event>
 5   0  0.5462851E-05  0.2098897E+04  0.7818609E-02  0.8561729E-01
        2   -1    0    0  501    0  0.00000000000E+00  0.00000000000E+00  0.12541776558E+04  0.12541776558E+04  0.25500000920E-02 0. -1.
       -2   -1    0    0    0  501  0.00000000000E+00  0.00000000000E+00 -0.87813917296E+03  0.87813917296E+03  0.25500000920E-02 0.  1.
    10030    2    1    2    0    0  0.00000000000E+00  0.00000000000E+00  0.37603848280E+03  0.21323168287E+04  0.20988973575E+04 0.  0.
        1    1    3    3  502    0 -0.27710164924E+02 -0.62223713581E+03  0.10460952389E+04  0.12174818912E+04  0.50400001928E-02 0. -1.
       -1    1    3    3    0  502  0.27710164924E+02  0.62223713581E+03 -0.67005675615E+03  0.91483493752E+03  0.50400001928E-02 0.  1.
</event>
<event>
 5   0  0.5866610E-05  0.2100639E+04  0.7818609E-02  0.8560962E-01
        2   -1    0    0  501    0  0.00000000000E+00  0.00000000000E+00  0.18663423134E+04  0.18663423134E+04  0.25500000920E-02 0.  1.
       -2   -1    0    0    0  501  0.00000000000E+00  0.00000000000E+00 -0.59108716320E+03  0.59108716320E+03  0.25500000920E-02 0. -1.
    10030    2    1    2    0    0  0.00000000000E+00  0.00000000000E+00  0.12752551502E+04  0.24574294766E+04  0.21006389348E+04 0.  0.
        5    1    3    3  502    0 -0.54226851793E+03  0.48342169914E+03 -0.24976037675E+03  0.76821482707E+03  0.46999998093E+01 0. -1.
       -5    1    3    3    0  502  0.54226851793E+03 -0.48342169914E+03  0.15250155269E+04  0.16892146495E+04  0.46999998093E+01 0.  1.
</event>
<event>
 5   0  0.2699285E-05  0.2099563E+04  0.7818609E-02  0.8561436E-01
       -1   -1    0    0    0  501  0.00000000000E+00  0.00000000000E+00  0.10025137391E+04  0.10025137391E+04  0.50400001928E-02 0. -1.
        1   -1    0    0  501    0  0.00000000000E+00  0.00000000000E+00 -0.10992774134E+04  0.10992774134E+04  0.50400001928E-02 0.  1.
    10030    2    1    2    0    0  0.00000000000E+00  0.00000000000E+00 -0.96763674280E+02  0.21017911525E+04  0.20995625354E+04 0.  0.
        2    1    3    3  502    0  0.13711079490E+03 -0.48997704675E+03 -0.96759604795E+03  0.10932149781E+04  0.25500000920E-02 0.  1.
       -2    1    3    3    0  502 -0.13711079490E+03  0.48997704675E+03  0.87083237367E+03  0.10085761743E+04  0.25500000920E-02 0. -1.
</event>
<event>
 5   0  0.5506332E-05  0.2071719E+04  0.7818609E-02  0.8573805E-01
       -2   -1    0    0    0  501  0.00000000000E+00  0.00000000000E+00  0.83290132647E+03  0.83290132647E+03  0.25500000920E-02 0.  1.
        2   -1    0    0  501    0  0.00000000000E+00  0.00000000000E+00 -0.12882740068E+04  0.12882740068E+04  0.25500000920E-02 0. -1.
    10030    2    1    2    0    0  0.00000000000E+00  0.00000000000E+00 -0.45537268034E+03  0.21211753333E+04  0.20717192176E+04 0.  0.
        3    1    3    3  502    0 -0.75706836985E+03 -0.68962384550E+03 -0.38719874602E+03  0.10948316967E+04  0.10100000352E+00 0. -1.
       -3    1    3    3    0  502  0.75706836985E+03  0.68962384550E+03 -0.68173934323E+02  0.10263436366E+04  0.10100000352E+00 0.  1.
</event>
<event>
 5   0  0.5967046E-05  0.2088340E+04  0.7818609E-02  0.8566397E-01
        2   -1    0    0  501    0  0.00000000000E+00  0.00000000000E+00  0.59068807802E+03  0.59068807802E+03  0.25500000920E-02 0.  1.
       -2   -1    0    0    0  501  0.00000000000E+00  0.00000000000E+00 -0.18457981694E+04  0.18457981694E+04  0.25500000920E-02 0. -1.
    10030    2    1    2    0    0  0.00000000000E+00  0.00000000000E+00 -0.12551100914E+04  0.24364862475E+04  0.20883399849E+04 0.  0.
        4    1    3    3  502    0 -0.70613475931E+03  0.14749818922E+03  0.25321976963E+03  0.76452853365E+03  0.12699999809E+01 0.  1.
       -4    1    3    3    0  502  0.70613475931E+03 -0.14749818922E+03 -0.15083298611E+04  0.16719577138E+04  0.12699999809E+01 0. -1.
</event>
<event>
 5   0  0.2017750E-05  0.2095294E+04  0.7818609E-02  0.8563319E-01
       -3   -1    0    0    0  501  0.00000000000E+00  0.00000000000E+00  0.59991958853E+03  0.59991959703E+03  0.10100000352E+00 0.  1.
        3   -1    0    0  501    0  0.00000000000E+00  0.00000000000E+00 -0.18295184545E+04  0.18295184573E+04  0.10100000352E+00 0. -1.
    10030    2    1    2    0    0  0.00000000000E+00  0.00000000000E+00 -0.12295988659E+04  0.24294380543E+04  0.20952937475E+04 0.  0.
        3    1    3    3  502    0 -0.57040282071E+03  0.86454246985E+03 -0.79728638703E+03  0.13070802015E+04  0.10100000352E+00 0. -1.
       -3    1    3    3    0  502  0.57040282071E+03 -0.86454246985E+03 -0.43231247890E+03  0.11223578528E+04  0.10100000352E+00 0.  1.
</event>
<event>
 5   0  0.5506332E-05  0.2094395E+04  0.7818609E-02  0.8563717E-01
       -2   -1    0    0    0  501  0.00000000000E+00  0.00000000000E+00  0.94853913741E+03  0.94853913741E+03  0.25500000920E-02 0. -1.
        2   -1    0    0  501    0  0.00000000000E+00  0.00000000000E+00 -0.11561172458E+04  0.11561172458E+04  0.25500000920E-02 0.  1.
    10030    2    1    2    0    0  0.00000000000E+00  0.00000000000E+00 -0.20757810838E+03  0.21046563832E+04  0.20943948578E+04 0.  0.
        3    1    3    3  502    0  0.17433910421E+03 -0.27763984904E+03 -0.11032193132E+04  0.11509000270E+04  0.10100000352E+00 0.  1.
       -3    1    3    3    0  502 -0.17433910421E+03  0.27763984904E+03  0.89564120479E+03  0.95375635618E+03  0.10100000352E+00 0. -1.
</event>
<event>
 5   0  0.5967046E-05  0.2091782E+04  0.7818609E-02  0.8564872E-01
        2   -1    0    0  501    0  0.00000000000E+00  0.00000000000E+00  0.23244353039E+04  0.23244353039E+04  0.25500000920E-02 0.  1.
       -2   -1    0    0    0  501  0.00000000000E+00  0.00000000000E+00 -0.47060358074E+03  0.47060358075E+03  0.25500000920E-02 0. -1.
    10030    2    1    2    0    0  0.00000000000E+00  0.00000000000E+00  0.18538317231E+04  0.27950388846E+04  0.20917816112E+04 0.  0.
        4    1    3    3  502    0  0.25166575400E+03 -0.44306415893E+03 -0.29352904708E+03  0.58804967056E+03  0.12699999809E+01 0. -1.
       -4    1    3    3    0  502 -0.25166575400E+03  0.44306415893E+03  0.21473607702E+04  0.22069892141E+04  0.12699999809E+01 0.  1.
</event>
<event>
 5   0  0.5462851E-05  0.2040188E+04  0.7818609E-02  0.8588059E-01
       -2   -1    0    0    0  501  0.00000000000E+00  0.00000000000E+00  0.53331843689E+03  0.53331843690E+03  0.25500000920E-02 0. -1.
        2   -1    0    0  501    0  0.00000000000E+00  0.00000000000E+00 -0.19511643109E+04  0.19511643109E+04  0.25500000920E-02 0.  1.
    10030    2    1    2    0    0  0.00000000000E+00  0.00000000000E+00 -0.14178458740E+04  0.24844827478E+04  0.20401881290E+04 0.  0.
        1    1    3    3  502    0 -0.59887465747E+03 -0.24435820856E+03 -0.16695200586E+04  0.17904354262E+04  0.50400001928E-02 0.  1.
       -1    1    3    3    0  502  0.59887465747E+03  0.24435820856E+03  0.25167418453E+03  0.69404732161E+03  0.50400001928E-02 0. -1.
</event>
<event>
 5   0  0.2789662E-05  0.2113180E+04  0.7818609E-02  0.8555460E-01
        1   -1    0    0  501    0  0.00000000000E+00  0.00000000000E+00  0.19959492983E+04  0.19959492983E+04  0.50400001928E-02 0.  1.
       -1   -1    0    0    0  501  0.00000000000E+00  0.00000000000E+00 -0.55932388859E+03  0.55932388861E+03  0.50400001928E-02 0. -1.
    10030    2    1    2    0    0  0.00000000000E+00  0.00000000000E+00  0.14366254097E+04  0.25552731869E+04  0.21131797112E+04 0.  0.
        4    1    3    3  502    0 -0.10120030140E+04  0.27378232463E+03  0.55938744003E+03  0.11882856486E+04  0.12699999809E+01 0. -1.
       -4    1    3    3    0  502  0.10120030140E+04 -0.27378232463E+03  0.87723796964E+03  0.13669875383E+04  0.12699999809E+01 0.  1.
</event>
<event>
 5   0  0.5506332E-05  0.2092553E+04  0.7818609E-02  0.8564531E-01
        2   -1    0    0  501    0  0.00000000000E+00  0.00000000000E+00  0.12268665034E+04  0.12268665034E+04  0.25500000920E-02 0.  1.
       -2   -1    0    0    0  501  0.00000000000E+00  0.00000000000E+00 -0.89226837072E+03  0.89226837073E+03  0.25500000920E-02 0. -1.
    10030    2    1    2    0    0  0.00000000000E+00  0.00000000000E+00  0.33459813269E+03  0.21191348741E+04  0.20925526766E+04 0.  0.
        3    1    3    3  502    0 -0.22322045428E+03  0.14571699490E+03 -0.85730107865E+03  0.89778948728E+03  0.10100000352E+00 0. -1.
       -3    1    3    3    0  502  0.22322045428E+03 -0.14571699490E+03  0.11918992113E+04  0.12213453869E+04  0.10100000352E+00 0.  1.
</event>
<event>
 5   0  0.5866610E-05  0.2092726E+04  0.7818609E-02  0.8564454E-01
       -2   -1    0    0    0  501  0.00000000000E+00  0.00000000000E+00  0.48140950570E+03  0.48140950570E+03  0.25500000920E-02 0.  1.
        2   -1    0    0  501    0  0.00000000000E+00  0.00000000000E+00 -0.22743127959E+04  0.22743127959E+04  0.25500000920E-02 0. -1.
    10030    2    1    2    0    0  0.00000000000E+00  0.00000000000E+00 -0.17929032902E+04  0.27557223016E+04  0.20927262591E+04 0.  0.
        5    1    3    3  502    0 -0.93019347786E+03 -0.39174257214E+03 -0.53311818812E+03  0.11414724007E+04  0.46999998093E+01 0.  1.
       -5    1    3    3    0  502  0.93019347786E+03  0.39174257214E+03 -0.12597851020E+04  0.16142499009E+04  0.46999998093E+01 0. -1.
</event>
<event>
 5   0  0.2732159E-05  0.2110549E+04  0.7818609E-02  0.8556611E-01
       -1   -1    0    0    0  501  0.00000000000E+00  0.00000000000E+00  0.79916676132E+03  0.79916676134E+03  0.50400001928E-02 0.  1.
        1   -1    0    0  501    0  0.00000000000E+00  0.00000000000E+00 -0.13934568713E+04  0.13934568713E+04  0.50400001928E-02 0. -1.
    10030    2    1    2    0    0  0.00000000000E+00  0.00000000000E+00 -0.59429010999E+03  0.21926236327E+04  0.21105491370E+04 0.  0.
        3    1    3    3  502    0  0.38085050589E+02  0.28238407949E+03 -0.13527353533E+04  0.13824196851E+04  0.10100000352E+00 0. -1.
       -3    1    3    3    0  502 -0.38085050589E+02 -0.28238407949E+03  0.75844524329E+03  0.81020394760E+03  0.10100000352E+00 0.  1.
</event>
<event>
 5   0  0.2789662E-05  0.2110364E+04  0.7818609E-02  0.8556692E-01
        1   -1    0    0  501    0  0.00000000000E+00  0.00000000000E+00  0.15230487985E+04  0.15230487985E+04  0.50400001928E-02 0. -1.
       -1   -1    0    0    0  501  0.00000000000E+00  0.00000000000E+00 -0.73103965603E+03  0.73103965605E+03  0.50400001928E-02 0.  1.
    10030    2    1    2    0    0  0.00000000000E+00  0.00000000000E+00  0.79200914250E+03  0.22540884546E+04  0.21103640158E+04 0.  0.
        4    1    3    3  502    0 -0.31965715359E+03  0.29561094546E+03 -0.63062124521E+03  0.76632323123E+03  0.12699999809E+01 0.  1.
       -4    1    3    3    0  502  0.31965715359E+03 -0.29561094546E+03  0.14226303877E+04  0.14877652234E+04  0.12699999809E+01 0. -1.
</event>
<event>
 5   0  0.5967046E-05  0.2114520E+04  0.7818609E-02  0.8554874E-01
       -2   -1    0    0    0  501  0.00000000000E+00  0.00000000000E+00  0.59065798237E+03  0.59065798237E+03  0.25500000920E-02 0.  1.
        2   -1    0    0  501    0  0.00000000000E+00  0.00000000000E+00 -0.18924636688E+04  0.18924636688E+04  0.25500000920E-02 0. -1.
    10030    2    1    2    0    0  0.00000000000E+00  0.00000000000E+00 -0.13018056864E+04  0.24831216512E+04  0.21145200612E+04 0.  0.
        4    1    3    3  502    0  0.55978973830E+03  0.29562217251E+03 -0.16452955281E+04  0.17628828684E+04  0.12699999809E+01 0. -1.
       -4    1    3    3    0  502 -0.55978973830E+03 -0.29562217251E+03  0.34348984167E+03  0.72023878278E+03  0.12699999809E+01 0.  1.
</event>
<event>
 5   0  0.2732159E-05  0.2091497E+04  0.7818609E-02  0.8564998E-01
        1   -1    0    0  501    0  0.00000000000E+00  0.00000000000E+00  0.19422007697E+04  0.19422007697E+04  0.50400001928E-02 0. -1.
       -1   -1    0    0    0  501  0.00000000000E+00  0.00000000000E+00 -0.56306759304E+03  0.56306759306E+03  0.50400001928E-02 0.  1.
    10030    2    1    2    0    0  0.00000000000E+00  0.00000000000E+00  0.13791331766E+04  0.25052683627E+04  0.20914973704E+04 0.  0.
        3    1    3    3  502    0 -0.48486105257E+03 -0.85575971308E+03  0.26408160781E+03  0.10184075965E+04  0.10100000352E+00 0.  1.
       -3    1    3    3    0  502  0.48486105257E+03  0.85575971308E+03  0.11150515688E+04  0.14868607662E+04  0.10100000352E+00 0. -1.
</event>
<event>
 5   0  0.5866610E-05  0.2090650E+04  0.7818609E-02  0.8565373E-01
       -2   -1    0    0    0  501  0.00000000000E+00  0.00000000000E+00  0.62884293368E+03  0.62884293369E+03  0.25500000920E-02 0.  1.
        2   -1    0    0  501    0  0.00000000000E+00  0.00000000000E+00 -0.17376427315E+04  0.17376427315E+04  0.25500000920E-02 0. -1.
    10030    2    1    2    0    0  0.00000000000E+00  0.00000000000E+00 -0.11087997978E+04  0.23664856652E+04  0.20906499975E+04 0.  0.
        5    1    3    3  502    0 -0.51854208415E+03  0.35300307791E+03  0.39209582948E+03  0.73976908259E+03  0.46999998093E+01 0.  1.
       -5    1    3    3    0  502  0.51854208415E+03 -0.35300307791E+03 -0.15008956273E+04  0.16267165826E+04  0.46999998093E+01 0. -1.
</event>
<event>
 5   0  0.5954140E-05  0.2112127E+04  0.7818609E-02  0.8555920E-01
       -2   -1    0    0    0  501  0.00000000000E+00  0.00000000000E+00  0.95660645878E+03  0.95660645878E+03  0.25500000920E-02 0.  1.
        2   -1    0    0  501    0  0.00000000000E+00  0.00000000000E+00 -0.11658612413E+04  0.11658612413E+04  0.25500000920E-02 0. -1.
    10030    2    1    2    0    0  0.00000000000E+00  0.00000000000E+00 -0.20925478252E+03  0.21224677001E+04  0.21121272627E+04 0.  0.
        2    1    3    3  502    0 -0.40402788752E+03 -0.38751091371E+03 -0.10044817381E+04  0.11499507835E+04  0.25500000920E-02 0. -1.
       -2    1    3    3    0  502  0.40402788752E+03  0.38751091371E+03  0.79522695562E+03  0.97251691661E+03  0.25500000920E-02 0.  1.
</event>
<event>
 5   0  0.5866610E-05  0.2122539E+04  0.7818609E-02  0.8551379E-01
        2   -1    0    0  501    0  0.00000000000E+00  0.00000000000E+00  0.10977036934E+04  0.10977036934E+04  0.25500000920E-02 0.  1.
       -2   -1    0    0    0  501  0.00000000000E+00  0.00000000000E+00 -0.10260444196E+04  0.10260444196E+04  0.25500000920E-02 0. -1.
    10030    2    1    2    0    0  0.00000000000E+00  0.00000000000E+00  0.71659273787E+02  0.21237481130E+04  0.21225388091E+04 0.  0.
        5    1    3    3  502    0 -0.37565201453E+03 -0.96094193934E+03 -0.21280099676E+03  0.10534847892E+04  0.46999998093E+01 0. -1.
       -5    1    3    3    0  502  0.37565201453E+03  0.96094193934E+03  0.28446027055E+03  0.10702633238E+04  0.46999998093E+01 0.  1.
</event>
<event>
 5   0  0.2604390E-05  0.2287115E+04  0.7818609E-02  0.8483019E-01
        1   -1    0    0  501    0  0.00000000000E+00  0.00000000000E+00  0.13749387119E+04  0.13749387119E+04  0.50400001928E-02 0. -1.
       -1   -1    0    0    0  501  0.00000000000E+00  0.00000000000E+00 -0.95111450612E+03  0.95111450613E+03  0.50400001928E-02 0.  1.
    10030    2    1    2    0    0  0.00000000000E+00  0.00000000000E+00  0.42382420580E+03  0.23260532181E+04  0.22871153482E+04 0.  0.
        5    1    3    3  502    0  0.40821690720E+03 -0.18929868468E+03  0.12811081071E+04  0.13578420775E+04  0.46999998093E+01 0. -1.
       -5    1    3    3    0  502 -0.40821690720E+03  0.18929868468E+03 -0.85728390128E+03  0.96821114058E+03  0.46999998093E+01 0.  1.
</event>
<event>
 5   0  0.2789662E-05  0.2099979E+04  0.7818609E-02  0.8561253E-01
       -1   -1    0    0    0  501  0.00000000000E+00  0.00000000000E+00  0.82726893345E+03  0.82726893346E+03  0.50400001928E-02 0.  1.
        1   -1    0    0  501    0  0.00000000000E+00  0.00000000000E+00 -0.13326713739E+04  0.13326713740E+04  0.50400001928E-02 0. -1.
    10030    2    1    2    0    0  0.00000000000E+00  0.00000000000E+00 -0.50540244050E+03  0.21599403074E+04  0.20999786915E+04 0.  0.
        4    1    3    3  502    0 -0.88917765592E+02  0.72406624929E+02 -0.13262109381E+04  0.13311597025E+04  0.12699999809E+01 0. -1.
       -4    1    3    3    0  502  0.88917765592E+02 -0.72406624929E+02  0.82080849762E+03  0.82878060488E+03  0.12699999809E+01 0.  1.
</event>
<event>
 5   0  0.5506332E-05  0.2079477E+04  0.7818609E-02  0.8570338E-01
        2   -1    0    0  501    0  0.00000000000E+00  0.00000000000E+00  0.16343929219E+04  0.16343929219E+04  0.25500000920E-02 0.  1.
       -2   -1    0    0    0  501  0.00000000000E+00  0.00000000000E+00 -0.66144223047E+03  0.66144223048E+03  0.25500000920E-02 0. -1.
    10030    2    1    2    0    0  0.00000000000E+00  0.00000000000E+00  0.97295069140E+03  0.22958351524E+04  0.20794773379E+04 0.  0.
        3    1    3    3  502    0 -0.62849594891E+03  0.81547627477E+03  0.64664846246E+03  0.12157972515E+04  0.10100000352E+00 0. -1.
       -3    1    3    3    0  502  0.62849594891E+03 -0.81547627477E+03  0.32630222894E+03  0.10800379009E+04  0.10100000352E+00 0.  1.
</event>
<event>
 5   0  0.2699285E-05  0.2112185E+04  0.7818609E-02  0.8555895E-01
       -1   -1    0    0    0  501  0.00000000000E+00  0.00000000000E+00  0.13020554694E+04  0.13020554695E+04  0.50400001928E-02 0.  1.
        1   -1    0    0  501    0  0.00000000000E+00  0.00000000000E+00 -0.85659251195E+03  0.85659251196E+03  0.50400001928E-02 0. -1.
    10030    2    1    2    0    0  0.00000000000E+00  0.00000000000E+00  0.44546295749E+03  0.21586479814E+04  0.21121846182E+04 0.  0.
        2    1    3    3  502    0 -0.16543308441E+03  0.13471629874E+03  0.12798024969E+04  0.12974633011E+04  0.25500000920E-02 0.  1.
       -2    1    3    3    0  502  0.16543308441E+03 -0.13471629874E+03 -0.83433953943E+03  0.86118468032E+03  0.25500000920E-02 0. -1.
</event>
<event>
 5   0  0.5967046E-05  0.2182588E+04  0.7818609E-02  0.8525710E-01
        2   -1    0    0  501    0  0.00000000000E+00  0.00000000000E+00  0.22328874854E+04  0.22328874854E+04  0.25500000920E-02 0. -1.
       -2   -1    0    0    0  501  0.00000000000E+00  0.00000000000E+00 -0.53335549920E+03  0.53335549920E+03  0.25500000920E-02 0.  1.
    10030    2    1    2    0    0  0.00000000000E+00  0.00000000000E+00  0.16995319862E+04  0.27662429846E+04  0.21825882062E+04 0.  0.
        4    1    3    3  502    0 -0.34758745075E+03 -0.76605326137E+03 -0.31307019481E+02  0.84180542737E+03  0.12699999809E+01 0.  1.
       -4    1    3    3    0  502  0.34758745075E+03  0.76605326137E+03  0.17308390056E+04  0.19244375572E+04  0.12699999809E+01 0. -1.
</event>
<event>
 5   0  0.2789662E-05  0.2131831E+04  0.7818609E-02  0.8547350E-01
       -1   -1    0    0    0  501  0.00000000000E+00  0.00000000000E+00  0.11215012656E+04  0.11215012656E+04  0.50400001928E-02 0.  1.
        1   -1    0    0  501    0  0.00000000000E+00  0.00000000000E+00 -0.10130847648E+04  0.10130847649E+04  0.50400001928E-02 0. -1.
    10030    2    1    2    0    0  0.00000000000E+00  0.00000000000E+00  0.10841650075E+03  0.21345860305E+04  0.21318309933E+04 0.  0.
        4    1    3    3  502    0 -0.47137350645E+03 -0.43910837083E+03  0.90452011410E+03  0.11104807039E+04  0.12699999809E+01 0.  1.
       -4    1    3    3    0  502  0.47137350645E+03  0.43910837083E+03 -0.79610361335E+03  0.10241053266E+04  0.12699999809E+01 0. -1.
</event>
<event>
 5   0  0.2602060E-05  0.2030884E+04  0.7818609E-02  0.8592316E-01
        1   -1    0    0  501    0  0.00000000000E+00  0.00000000000E+00  0.13648165883E+04  0.13648165883E+04  0.50400001928E-02 0.  1.
       -1   -1    0    0    0  501  0.00000000000E+00  0.00000000000E+00 -0.75550252194E+03  0.75550252196E+03  0.50400001928E-02 0. -1.
    10030    2    1    2    0    0  0.00000000000E+00  0.00000000000E+00  0.60931406637E+03  0.21203191103E+04  0.20308839204E+04 0.  0.
        1    1    3    3  502    0  0.42702910483E+03 -0.17076794495E+03  0.12498465805E+04  0.13317777676E+04  0.50400001928E-02 0.  1.
       -1    1    3    3    0  502 -0.42702910483E+03  0.17076794495E+03 -0.64053251416E+03  0.78854134268E+03  0.50400001928E-02 0. -1.
</event>
<event>
 5   0  0.2604390E-05  0.2100755E+04  0.7818609E-02  0.8560911E-01
       -1   -1    0    0    0  501  0.00000000000E+00  0.00000000000E+00  0.12546332903E+04  0.12546332903E+04  0.50400001928E-02 0. -1.
        1   -1    0    0  501    0  0.00000000000E+00  0.00000000000E+00 -0.87937467469E+03  0.87937467470E+03  0.50400001928E-02 0.  1.
    10030    2    1    2    0    0  0.00000000000E+00  0.00000000000E+00  0.37525861561E+03  0.21340079650E+04  0.21007548563E+04 0.  0.
        5    1    3    3  502    0  0.94790295635E+03  0.36363659258E+03  0.46118563182E+03  0.11151080051E+04  0.46999998093E+01 0.  1.
       -5    1    3    3    0  502 -0.94790295635E+03 -0.36363659258E+03 -0.85927016210E+02  0.10188999599E+04  0.46999998093E+01 0. -1.
</event>
<event>
 5   0  0.2732159E-05  0.2103051E+04  0.7818609E-02  0.8559901E-01
       -1   -1    0    0    0  501  0.00000000000E+00  0.00000000000E+00  0.96548403265E+03  0.96548403267E+03  0.50400001928E-02 0.  1.
        1   -1    0    0  501    0  0.00000000000E+00  0.00000000000E+00 -0.11452342627E+04  0.11452342627E+04  0.50400001928E-02 0. -1.
    10030    2    1    2    0    0  0.00000000000E+00  0.00000000000E+00 -0.17975023005E+03  0.21107182954E+04  0.21030505408E+04 0.  0.
        3    1    3    3  502    0 -0.11247522568E+03  0.55409185334E+03 -0.97969486099E+03  0.11311368128E+04  0.10100000352E+00 0. -1.
       -3    1    3    3    0  502  0.11247522568E+03 -0.55409185334E+03  0.79994463094E+03  0.97958148262E+03  0.10100000352E+00 0.  1.
</event>
<event>
 5   0  0.5954140E-05  0.2121109E+04  0.7818609E-02  0.8552001E-01
       -2   -1    0    0    0  501  0.00000000000E+00  0.00000000000E+00  0.51624752759E+03  0.51624752760E+03  0.25500000920E-02 0. -1.
        2   -1    0    0  501    0  0.00000000000E+00  0.00000000000E+00 -0.21787523522E+04  0.21787523522E+04  0.25500000920E-02 0.  1.
    10030    2    1    2    0    0  0.00000000000E+00  0.00000000000E+00 -0.16625048246E+04  0.26949998798E+04  0.21211086866E+04 0.  0.
        2    1    3    3  502    0 -0.29418566254E+03  0.84556528071E+03 -0.10887381405E+03  0.90187546556E+03  0.25500000920E-02 0. -1.
       -2    1    3    3    0  502  0.29418566254E+03 -0.84556528071E+03 -0.15536310106E+04  0.17931244143E+04  0.25500000920E-02 0.  1.
</event>
<event>
 5   0  0.2789662E-05  0.2100908E+04  0.7818609E-02  0.8560844E-01
        1   -1    0    0  501    0  0.00000000000E+00  0.00000000000E+00  0.16537934976E+04  0.16537934976E+04  0.50400001928E-02 0. -1.
       -1   -1    0    0    0  501  0.00000000000E+00  0.00000000000E+00 -0.66722563152E+03  0.66722563154E+03  0.50400001928E-02 0.  1.
    10030    2    1    2    0    0  0.00000000000E+00  0.00000000000E+00  0.98656786608E+03  0.23210191292E+04  0.21009078141E+04 0.  0.
        4    1    3    3  502    0 -0.17187192211E+03  0.92715306280E+02 -0.64699444589E+03  0.67582505987E+03  0.12699999809E+01 0.  1.
       -4    1    3    3    0  502  0.17187192211E+03 -0.92715306280E+02  0.16335623120E+04  0.16451940693E+04  0.12699999809E+01 0. -1.
</event>
<event>
 5   0  0.5866610E-05  0.2098156E+04  0.7818609E-02  0.8562056E-01
        2   -1    0    0  501    0  0.00000000000E+00  0.00000000000E+00  0.86494081104E+03  0.86494081104E+03  0.25500000920E-02 0. -1.
       -2   -1    0    0    0  501  0.00000000000E+00  0.00000000000E+00 -0.12724163780E+04  0.12724163780E+04  0.25500000920E-02 0.  1.
    10030    2    1    2    0    0  0.00000000000E+00  0.00000000000E+00 -0.40747556699E+03  0.21373571891E+04  0.20981561944E+04 0.  0.
        5    1    3    3  502    0  0.44822696729E+03 -0.66699065788E+03 -0.89069525670E+03  0.11996433146E+04  0.46999998093E+01 0.  1.
       -5    1    3    3    0  502 -0.44822696729E+03  0.66699065788E+03  0.48321968971E+03  0.93771387450E+03  0.46999998093E+01 0. -1.
</event>
<event>
 5   0  0.5967046E-05  0.1983807E+04  0.7818609E-02  0.8614229E-01
       -2   -1    0    0    0  501  0.00000000000E+00  0.00000000000E+00  0.65476504086E+03  0.65476504087E+03  0.25500000920E-02 0.  1.
        2   -1    0    0  501    0  0.00000000000E+00  0.00000000000E+00 -0.15026351292E+04  0.15026351292E+04  0.25500000920E-02 0. -1.
    10030    2    1    2    0    0  0.00000000000E+00  0.00000000000E+00 -0.84787008829E+03  0.21574001700E+04  0.19838074017E+04 0.  0.
        4    1    3    3  502    0 -0.79918907706E+02 -0.84161345535E+03  0.14028097968E+03  0.85696009603E+03  0.12699999809E+01 0.  1.
       -4    1    3    3    0  502  0.79918907706E+02  0.84161345535E+03 -0.98815106797E+03  0.13004400740E+04  0.12699999809E+01 0. -1.
</event>
<event>
 5   0  0.2602060E-05  0.2099923E+04  0.7818609E-02  0.8561277E-01
       -1   -1    0    0    0  501  0.00000000000E+00  0.00000000000E+00  0.60940190061E+03  0.60940190063E+03  0.50400001928E-02 0.  1.
        1   -1    0    0  501    0  0.00000000000E+00  0.00000000000E+00 -0.18090175184E+04  0.18090175184E+04  0.50400001928E-02 0. -1.
    10030    2    1    2    0    0  0.00000000000E+00  0.00000000000E+00 -0.11996156178E+04  0.24184194191E+04  0.20999225833E+04 0.  0.
        1    1    3    3  502    0  0.37667485217E+03 -0.97893336369E+03 -0.54549289681E+03  0.11822677257E+04  0.50400001928E-02 0.  1.
       -1    1    3    3    0  502 -0.37667485217E+03  0.97893336369E+03 -0.65412272101E+03  0.12361516933E+04  0.50400001928E-02 0. -1.
</event>
<event>
 5   0  0.5866610E-05  0.2101635E+04  0.7818609E-02  0.8560523E-01
        2   -1    0    0  501    0  0.00000000000E+00  0.00000000000E+00  0.16434055308E+04  0.16434055308E+04  0.25500000920E-02 0.  1.
       -2   -1    0    0    0  501  0.00000000000E+00  0.00000000000E+00 -0.67190819872E+03  0.67190819873E+03  0.25500000920E-02 0. -1.
    10030    2    1    2    0    0  0.00000000000E+00  0.00000000000E+00  0.97149733209E+03  0.23153137295E+04  0.21016352205E+04 0.  0.
        5    1    3    3  502    0 -0.66317992547E+03  0.81495257365E+03  0.50282455945E+03  0.11648218484E+04  0.46999998093E+01 0. -1.
       -5    1    3    3    0  502  0.66317992547E+03 -0.81495257365E+03  0.46867277264E+03  0.11504918812E+04  0.46999998093E+01 0.  1.
</event>
<event>
 5   0  0.5462851E-05  0.2083044E+04  0.7818609E-02  0.8568749E-01
        2   -1    0    0  501    0  0.00000000000E+00  0.00000000000E+00  0.12764114738E+04  0.12764114738E+04  0.25500000920E-02 0. -1.
       -2   -1    0    0    0  501  0.00000000000E+00  0.00000000000E+00 -0.84985803199E+03  0.84985803199E+03  0.25500000920E-02 0.  1.
    10030    2    1    2    0    0  0.00000000000E+00  0.00000000000E+00  0.42655344178E+03  0.21262695058E+04  0.20830444480E+04 0.  0.
        1    1    3    3  502    0 -0.72517777829E+03 -0.20992835277E+03 -0.51911886065E+03  0.91620800855E+03  0.50400001928E-02 0.  1.
       -1    1    3    3    0  502  0.72517777829E+03  0.20992835277E+03  0.94567230243E+03  0.12100614972E+04  0.50400001928E-02 0. -1.
</event>
<event>
 5   0  0.5506332E-05  0.2099035E+04  0.7818609E-02  0.8561669E-01
        2   -1    0    0  501    0  0.00000000000E+00  0.00000000000E+00  0.13130744241E+04  0.13130744241E+04  0.25500000920E-02 0.  1.
       -2   -1    0    0    0  501  0.00000000000E+00  0.00000000000E+00 -0.83886104631E+03  0.83886104631E+03  0.25500000920E-02 0. -1.
    10030    2    1    2    0    0  0.00000000000E+00  0.00000000000E+00  0.47421337779E+03  0.21519354704E+04  0.20990350024E+04 0.  0.
        3    1    3    3  502    0  0.67408263605E+03 -0.10230763515E+03  0.10551080797E+04  0.12562274167E+04  0.10100000352E+00 0.  1.
       -3    1    3    3    0  502 -0.67408263605E+03  0.10230763515E+03 -0.58089470196E+03  0.89570805366E+03  0.10100000352E+00 0. -1.
</event>
<event>
 5   0  0.2602060E-05  0.2316115E+04  0.7818609E-02  0.8471594E-01
        1   -1    0    0  501    0  0.00000000000E+00  0.00000000000E+00  0.21008203804E+04  0.21008203804E+04  0.50400001928E-02 0.  1.
       -1   -1    0    0    0  501  0.00000000000E+00  0.00000000000E+00 -0.63836835150E+03  0.63836835152E+03  0.50400001928E-02 0. -1.
    10030    2    1    2    0    0  0.00000000000E+00  0.00000000000E+00  0.14624520289E+04  0.27391887320E+04  0.23161150603E+04 0.  0.
        1    1    3    3  502    0  0.21631677416E+02  0.86348346188E+03 -0.18105715013E+03  0.88252666252E+03  0.50400001928E-02 0. -1.
       -1    1    3    3    0  502 -0.21631677416E+02 -0.86348346188E+03  0.16435091791E+04  0.18566620695E+04  0.50400001928E-02 0.  1.
</event>
<event>
 5   0  0.2699285E-05  0.2125194E+04  0.7818609E-02  0.8550226E-01
        1   -1    0    0  501    0  0.00000000000E+00  0.00000000000E+00  0.13595247536E+04  0.13595247537E+04  0.50400001928E-02 0. -1.
       -1   -1    0    0    0  501  0.00000000000E+00  0.00000000000E+00 -0.83052016510E+03  0.83052016512E+03  0.50400001928E-02 0.  1.
    10030    2    1    2    0    0  0.00000000000E+00  0.00000000000E+00  0.52900458855E+03  0.21900449188E+04  0.21251943185E+04 0.  0.
        2    1    3    3  502    0 -0.84582032303E+02 -0.76270603048E+03  0.10219401146E+04  0.12779813015E+04  0.25500000920E-02 0. -1.
       -2    1    3    3    0  502  0.84582032303E+02  0.76270603048E+03 -0.49293552606E+03  0.91206361728E+03  0.25500000920E-02 0.  1.
</event>
<event>
 5   0  0.5462851E-05  0.2103705E+04  0.7818609E-02  0.8559613E-01
        2   -1    0    0  501    0  0.00000000000E+00  0.00000000000E+00  0.84876207601E+03  0.84876207602E+03  0.25500000920E-02 0.  1.
       -2   -1    0    0    0  501  0.00000000000E+00  0.00000000000E+00 -0.13035378998E+04  0.13035378998E+04  0.25500000920E-02 0. -1.
    10030    2    1    2    0    0  0.00000000000E+00  0.00000000000E+00 -0.45477582378E+03  0.21522999758E+04  0.21037048595E+04 0.  0.
        1    1    3    3  502    0 -0.89496362451E+03 -0.31624588820E+03  0.23631696199E+03  0.97817026000E+03  0.50400001928E-02 0.  1.
       -1    1    3    3    0  502  0.89496362451E+03  0.31624588820E+03 -0.69109278576E+03  0.11741297158E+04  0.50400001928E-02 0. -1.
</event>
<event>
 5   0  0.5506332E-05  0.2088237E+04  0.7818609E-02  0.8566443E-01
       -2   -1    0    0    0  501  0.00000000000E+00  0.00000000000E+00  0.17063895388E+04  0.17063895388E+04  0.25500000920E-02 0. -1.
        2   -1    0    0  501    0  0.00000000000E+00  0.00000000000E+00 -0.63888336142E+03  0.63888336142E+03  0.25500000920E-02 0.  1.
    10030    2    1    2    0    0  0.00000000000E+00  0.00000000000E+00  0.10675061774E+04  0.23452729002E+04  0.20882374237E+04 0.  0.
        3    1    3    3  502    0 -0.25651635779E+03  0.83414655914E+03  0.11775307323E+04  0.14656670016E+04  0.10100000352E+00 0. -1.
       -3    1    3    3    0  502  0.25651635779E+03 -0.83414655914E+03 -0.11002455492E+03  0.87960589859E+03  0.10100000352E+00 0.  1.
</event>
<event>
 5   0  0.2604390E-05  0.2107649E+04  0.7818609E-02  0.8557881E-01
       -1   -1    0    0    0  501  0.00000000000E+00  0.00000000000E+00  0.66773949262E+03  0.66773949264E+03  0.50400001928E-02 0.  1.
        1   -1    0    0  501    0  0.00000000000E+00  0.00000000000E+00 -0.16631431102E+04  0.16631431102E+04  0.50400001928E-02 0. -1.
    10030    2    1    2    0    0  0.00000000000E+00  0.00000000000E+00 -0.99540361758E+03  0.23308826029E+04  0.21076492465E+04 0.  0.
        5    1    3    3  502    0 -0.45801575254E+03  0.18066477417E+03 -0.15281079915E+04  0.16054763510E+04  0.46999998093E+01 0. -1.
       -5    1    3    3    0  502  0.45801575254E+03 -0.18066477417E+03  0.53270437388E+03  0.72540625180E+03  0.46999998093E+01 0.  1.
</event>
<event>
 5   0  0.5506332E-05  0.2085806E+04  0.7818609E-02  0.8567522E-01
        2   -1    0    0  501    0  0.00000000000E+00  0.00000000000E+00  0.14040529636E+04  0.14040529636E+04  0.25500000920E-02 0.  1.
       -2   -1    0    0    0  501  0.00000000000E+00  0.00000000000E+00 -0.77464802221E+03  0.77464802221E+03  0.25500000920E-02 0. -1.
    10030    2    1    2    0    0  0.00000000000E+00  0.00000000000E+00  0.62940494143E+03  0.21787009858E+04  0.20858061764E+04 0.  0.
        3    1    3    3  502    0 -0.30907115049E+03 -0.99419663907E+03  0.37819541890E+03  0.11076929711E+04  0.10100000352E+00 0. -1.
       -3    1    3    3    0  502  0.30907115049E+03  0.99419663907E+03  0.25120952253E+03  0.10710080147E+04  0.10100000352E+00 0.  1.
</event>
<event>
 5   0  0.2789662E-05  0.2109022E+04  0.7818609E-02  0.8557279E-01
        1   -1    0    0  501    0  0.00000000000E+00  0.00000000000E+00  0.10266560233E+04  0.10266560233E+04  0.50400001928E-02 0.  1.
       -1   -1    0    0    0  501  0.00000000000E+00  0.00000000000E+00 -0.10831217317E+04  0.10831217317E+04  0.50400001928E-02 0. -1.
    10030    2    1    2    0    0  0.00000000000E+00  0.00000000000E+00 -0.56465708468E+02  0.21097777550E+04  0.21090220007E+04 0.  0.
        4    1    3    3  502    0 -0.45352201568E+02 -0.13907520972E+03  0.10164560252E+04  0.10269290142E+04  0.12699999809E+01 0.  1.
       -4    1    3    3    0  502  0.45352201568E+02  0.13907520972E+03 -0.10729217336E+04  0.10828487408E+04  0.12699999809E+01 0. -1.
</event>
<event>
 5   0  0.2789662E-05  0.2098653E+04  0.7818609E-02  0.8561837E-01
        1   -1    0    0  501    0  0.00000000000E+00  0.00000000000E+00  0.12124396718E+04  0.12124396718E+04  0.50400001928E-02 0. -1.
       -1   -1    0    0    0  501  0.00000000000E+00  0.00000000000E+00 -0.90815727932E+03  0.90815727934E+03  0.50400001928E-02 0.  1.
    10030    2    1    2    0    0  0.00000000000E+00  0.00000000000E+00  0.30428239251E+03  0.21205969512E+04  0.20986528191E+04 0.  0.
        4    1    3    3  502    0  0.75079213379E+03  0.48493431240E+03  0.70764792817E+03  0.11400075959E+04  0.12699999809E+01 0. -1.
       -4    1    3    3    0  502 -0.75079213379E+03 -0.48493431240E+03 -0.40336553566E+03  0.98058935532E+03  0.12699999809E+01 0.  1.
</event>
<event>
 5   0  0.5506332E-05  0.2089117E+04  0.7818609E-02  0.8566052E-01
        2   -1    0    0  501    0  0.00000000000E+00  0.00000000000E+00  0.20763768673E+04  0.20763768673E+04  0.25500000920E-02 0. -1.
       -2   -1    0    0    0  501  0.00000000000E+00  0.00000000000E+00 -0.52548400286E+03  0.52548400287E+03  0.25500000920E-02 0.  1.
    10030    2    1    2    0    0  0.00000000000E+00  0.00000000000E+00  0.15508928645E+04  0.26018608702E+04  0.20891173521E+04 0.  0.
        3    1    3    3  502    0  0.34342315446E+03  0.82881515576E+03  0.14417588273E+04  0.16980996884E+04  0.10100000352E+00 0. -1.
       -3    1    3    3    0  502 -0.34342315446E+03 -0.82881515576E+03  0.10913403715E+03  0.90376118178E+03  0.10100000352E+00 0.  1.
</event>
<event>
 5   0  0.2604390E-05  0.2095420E+04  0.7818609E-02  0.8563264E-01
        1   -1    0    0  501    0  0.00000000000E+00  0.00000000000E+00  0.88985890621E+03  0.88985890622E+03  0.50400001928E-02 0.  1.
       -1   -1    0    0    0  501  0.00000000000E+00  0.00000000000E+00 -0.12335619668E+04  0.12335619668E+04  0.50400001928E-02 0. -1.
    10030    2    1    2    0    0  0.00000000000E+00  0.00000000000E+00 -0.34370306055E+03  0.21234208730E+04  0.20954198649E+04 0.  0.
        5    1    3    3  502    0 -0.77302590108E+03  0.70170113961E+03 -0.26089194221E+03  0.10761227758E+04  0.46999998093E+01 0.  1.
       -5    1    3    3    0  502  0.77302590108E+03 -0.70170113961E+03 -0.82811118335E+02  0.10472980972E+04  0.46999998093E+01 0. -1.
</event>
<event>
 5   0  0.2602060E-05  0.2101933E+04  0.7818609E-02  0.8560392E-01
       -1   -1    0    0    0  501  0.00000000000E+00  0.00000000000E+00  0.94067341533E+03  0.94067341534E+03  0.50400001928E-02 0. -1.
        1   -1    0    0  501    0  0.00000000000E+00  0.00000000000E+00 -0.11741911766E+04  0.11741911767E+04  0.50400001928E-02 0.  1.
    10030    2    1    2    0    0  0.00000000000E+00  0.00000000000E+00 -0.23351776131E+03  0.21148645920E+04  0.21019328480E+04 0.  0.
        1    1    3    3  502    0 -0.89243032577E+03 -0.71484537401E+02 -0.67058929342E+03  0.11185847871E+04  0.50400001928E-02 0.  1.
       -1    1    3    3    0  502  0.89243032577E+03  0.71484537401E+02  0.43707153211E+03  0.99627980490E+03  0.50400001928E-02 0. -1.
</event>
<event>
 5   0  0.2789662E-05  0.2099185E+04  0.7818609E-02  0.8561602E-01
       -1   -1    0    0    0  501  0.00000000000E+00  0.00000000000E+00  0.66116996169E+03  0.66116996171E+03  0.50400001928E-02 0.  1.
        1   -1    0    0  501    0  0.00000000000E+00  0.00000000000E+00 -0.16662052545E+04  0.16662052545E+04  0.50400001928E-02 0. -1.
    10030    2    1    2    0    0  0.00000000000E+00  0.00000000000E+00 -0.10050352928E+04  0.23273752162E+04  0.20991854271E+04 0.  0.
        4    1    3    3  502    0  0.43003398727E+03 -0.63783065342E+03  0.28916692235E+03  0.82181280991E+03  0.12699999809E+01 0.  1.
       -4    1    3    3    0  502 -0.43003398727E+03  0.63783065342E+03 -0.12942022152E+04  0.15055624063E+04  0.12699999809E+01 0. -1.
</event>
<event>
 5   0  0.5954140E-05  0.2092441E+04  0.7818609E-02  0.8564581E-01
        2   -1    0    0  501    0  0.00000000000E+00  0.00000000000E+00  0.99878104181E+03  0.99878104181E+03  0.25500000920E-02 0.  1.
       -2   -1    0    0    0  501  0.00000000000E+00  0.00000000000E+00 -0.10959131299E+04  0.10959131299E+04  0.25500000920E-02 0. -1.
    10030    2    1    2    0    0  0.00000000000E+00  0.00000000000E+00 -0.97132088113E+02  0.20946941717E+04  0.20924409264E+04 0.  0.
        2    1    3    3  502    0 -0.26732279730E+03 -0.48722752599E+03  0.83879985857E+03  0.10061994548E+04  0.25500000920E-02 0.  1.
       -2    1    3    3    0  502  0.26732279730E+03  0.48722752599E+03 -0.93593194668E+03  0.10884947170E+04  0.25500000920E-02 0. -1.
</event>
<event>
 5   0  0.5954140E-05  0.2046240E+04  0.7818609E-02  0.8585302E-01
        2   -1    0    0  501    0  0.00000000000E+00  0.00000000000E+00  0.13075625234E+04  0.13075625234E+04  0.25500000920E-02 0. -1.
       -2   -1    0    0    0  501  0.00000000000E+00  0.00000000000E+00 -0.80055396116E+03  0.80055396116E+03  0.25500000920E-02 0.  1.
    10030    2    1    2    0    0  0.00000000000E+00  0.00000000000E+00  0.50700856220E+03  0.21081164845E+04  0.20462398271E+04 0.  0.
        2    1    3    3  502    0 -0.61399434400E+03  0.53313814792E+03 -0.38619795933E+03  0.90020786657E+03  0.25500000920E-02 0.  1.
       -2    1    3    3    0  502  0.61399434400E+03 -0.53313814792E+03  0.89320652153E+03  0.12079086180E+04  0.25500000920E-02 0. -1.
</event>
<event>
 5   0  0.5954140E-05  0.2076544E+04  0.7818609E-02  0.8571647E-01
       -2   -1    0    0    0  501  0.00000000000E+00  0.00000000000E+00  0.56335418031E+03  0.56335418031E+03  0.25500000920E-02 0. -1.
        2   -1    0    0  501    0  0.00000000000E+00  0.00000000000E+00 -0.19135544304E+04  0.19135544304E+04  0.25500000920E-02 0.  1.
    10030    2    1    2    0    0  0.00000000000E+00  0.00000000000E+00 -0.13502002501E+04  0.24769086107E+04  0.20765441364E+04 0.  0.
        2    1    3    3  502    0  0.38449265337E+03  0.82771420051E+03 -0.12655841098E+04  0.15603360334E+04  0.25500000920E-02 0.  1.
       -2    1    3    3    0  502 -0.38449265337E+03 -0.82771420051E+03 -0.84616140291E+02  0.91657257728E+03  0.25500000920E-02 0. -1.
</event>
<event>
 5   0  0.2699285E-05  0.1987348E+04  0.7818609E-02  0.8612559E-01
        1   -1    0    0  501    0  0.00000000000E+00  0.00000000000E+00  0.11266197779E+04  0.11266197780E+04  0.50400001928E-02 0.  1.
       -1   -1    0    0    0  501  0.00000000000E+00  0.00000000000E+00 -0.87641596390E+03  0.87641596392E+03  0.50400001928E-02 0. -1.
    10030    2    1    2    0    0  0.00000000000E+00  0.00000000000E+00  0.25020381404E+03  0.20030357419E+04  0.19873475375E+04 0.  0.
        2    1    3    3  502    0  0.35859911432E+03  0.80844094163E+03  0.58168733905E+03  0.10585510103E+04  0.25500000920E-02 0.  1.
       -2    1    3    3    0  502 -0.35859911432E+03 -0.80844094163E+03 -0.33148352502E+03  0.94448473162E+03  0.25500000920E-02 0. -1.
</event>
<event>
 5   0  0.2789662E-05  0.2099029E+04  0.7818609E-02  0.8561671E-01
       -1   -1    0    0    0  501  0.00000000000E+00  0.00000000000E+00  0.71137080358E+03  0.71137080360E+03  0.50400001928E-02 0. -1.
        1   -1    0    0  501    0  0.00000000000E+00  0.00000000000E+00 -0.15483920711E+04  0.15483920711E+04  0.50400001928E-02 0.  1.
    10030    2    1    2    0    0  0.00000000000E+00  0.00000000000E+00 -0.83702126748E+03  0.22597628747E+04  0.20990292155E+04 0.  0.
        4    1    3    3  502    0  0.34519505099E+03 -0.95182438068E+03 -0.71598460768E+03  0.12400664685E+04  0.12699999809E+01 0.  1.
       -4    1    3    3    0  502 -0.34519505099E+03  0.95182438068E+03 -0.12103665979E+03  0.10196964062E+04  0.12699999809E+01 0. -1.
</event>
<event>
 5   0  0.2732159E-05  0.2104337E+04  0.7818609E-02  0.8559335E-01
       -1   -1    0    0    0  501  0.00000000000E+00  0.00000000000E+00  0.60298408788E+03  0.60298408790E+03  0.50400001928E-02 0. -1.
        1   -1    0    0  501    0  0.00000000000E+00  0.00000000000E+00 -0.18359671445E+04  0.18359671445E+04  0.50400001928E-02 0.  1.
    10030    2    1    2    0    0  0.00000000000E+00  0.00000000000E+00 -0.12329830566E+04  0.24389512324E+04  0.21043374007E+04 0.  0.
        3    1    3    3  502    0 -0.85203777035E+03 -0.70220181356E+02  0.94351799415E+02  0.86011714796E+03  0.10100000352E+00 0. -1.
       -3    1    3    3    0  502  0.85203777035E+03  0.70220181356E+02 -0.13273348560E+04  0.15788340844E+04  0.10100000352E+00 0.  1.
</event>
<event>
 5   0  0.5866610E-05  0.2103431E+04  0.7818609E-02  0.8559733E-01
        2   -1    0    0  501    0  0.00000000000E+00  0.00000000000E+00  0.25017090744E+04  0.25017090744E+04  0.25500000920E-02 0.  1.
       -2   -1    0    0    0  501  0.00000000000E+00  0.00000000000E+00 -0.44214006294E+03  0.44214006295E+03  0.25500000920E-02 0. -1.
    10030    2    1    2    0    0  0.00000000000E+00  0.00000000000E+00  0.20595690115E+04  0.29438491374E+04  0.21034312992E+04 0.  0.
        5    1    3    3  502    0  0.34199515460E+03  0.47091920221E+03 -0.19620363566E+03  0.61420154463E+03  0.46999998093E+01 0. -1.
       -5    1    3    3    0  502 -0.34199515460E+03 -0.47091920221E+03  0.22557726471E+04  0.23296475927E+04  0.46999998093E+01 0.  1.
</event>
<event>
 5   0  0.2789662E-05  0.2112068E+04  0.7818609E-02  0.8555946E-01
       -1   -1    0    0    0  501  0.00000000000E+00  0.00000000000E+00  0.48082173034E+03  0.48082173037E+03  0.50400001928E-02 0. -1.
        1   -1    0    0  501    0  0.00000000000E+00  0.00000000000E+00 -0.23193799738E+04  0.23193799738E+04  0.50400001928E-02 0.  1.
    10030    2    1    2    0    0  0.00000000000E+00  0.00000000000E+00 -0.18385582434E+04  0.28002017041E+04  0.21120684576E+04 0.  0.
        4    1    3    3  502    0 -0.72104726415E+03  0.72126335475E+03 -0.12825527730E+04  0.16386193007E+04  0.12699999809E+01 0.  1.
       -4    1    3    3    0  502  0.72104726415E+03 -0.72126335475E+03 -0.55600547043E+03  0.11615824035E+04  0.12699999809E+01 0. -1.
</event>
<event>
 5   0  0.5866610E-05  0.2093200E+04  0.7818609E-02  0.8564245E-01
        2   -1    0    0  501    0  0.00000000000E+00  0.00000000000E+00  0.40679459199E+03  0.40679459200E+03  0.25500000920E-02 0. -1.
       -2   -1    0    0    0  501  0.00000000000E+00  0.00000000000E+00 -0.26926897471E+04  0.26926897471E+04  0.25500000920E-02 0.  1.
    10030    2    1    2    0    0  0.00000000000E+00  0.00000000000E+00 -0.22858951552E+04  0.30994843391E+04  0.20932000641E+04 0.  0.
        5    1    3    3  502    0  0.65364519959E+03  0.50964237016E+03 -0.20891878872E+04  0.22476021691E+04  0.46999998093E+01 0.  1.
       -5    1    3    3    0  502 -0.65364519959E+03 -0.50964237016E+03 -0.19670726795E+03  0.85188217007E+03  0.46999998093E+01 0. -1.
</event>
<event>
 5   0  0.2789662E-05  0.2080410E+04  0.7818609E-02  0.8569922E-01
        1   -1    0    0  501    0  0.00000000000E+00  0.00000000000E+00  0.15646178361E+04  0.15646178361E+04  0.50400001928E-02 0. -1.
       -1   -1    0    0    0  501  0.00000000000E+00  0.00000000000E+00 -0.69155968456E+03  0.69155968458E+03  0.50400001928E-02 0.  1.
    10030    2    1    2    0    0  0.00000000000E+00  0.00000000000E+00  0.87305815153E+03  0.22561775207E+04  0.20804101684E+04 0.  0.
        4    1    3    3  502    0  0.78710085165E+03  0.67058236625E+03  0.55930402455E+03  0.11755981734E+04  0.12699999809E+01 0. -1.
       -4    1    3    3    0  502 -0.78710085165E+03 -0.67058236625E+03  0.31375412698E+03  0.10805793472E+04  0.12699999809E+01 0.  1.
</event>
<event>
 5   0  0.2017750E-05  0.2099386E+04  0.7818609E-02  0.8561514E-01
       -3   -1    0    0    0  501  0.00000000000E+00  0.00000000000E+00  0.14449032782E+04  0.14449032817E+04  0.10100000352E+00 0.  1.
        3   -1    0    0  501    0  0.00000000000E+00  0.00000000000E+00 -0.76258041589E+03  0.76258042258E+03  0.10100000352E+00 0. -1.
    10030    2    1    2    0    0  0.00000000000E+00  0.00000000000E+00  0.68232286232E+03  0.22074837043E+04  0.20993855807E+04 0.  0.
        4    1    3    3  502    0 -0.66426701497E+03 -0.57554444608E+02  0.11936407693E+04  0.13672392184E+04  0.12699999809E+01 0.  1.
       -4    1    3    3    0  502  0.66426701497E+03  0.57554444608E+02 -0.51131790697E+03  0.84024448594E+03  0.12699999809E+01 0. -1.
</event>
<event>
 5   0  0.2732159E-05  0.2102529E+04  0.7818609E-02  0.8560130E-01
        1   -1    0    0  501    0  0.00000000000E+00  0.00000000000E+00  0.91337230162E+03  0.91337230163E+03  0.50400001928E-02 0.  1.
       -1   -1    0    0    0  501  0.00000000000E+00  0.00000000000E+00 -0.12099748301E+04  0.12099748301E+04  0.50400001928E-02 0. -1.
    10030    2    1    2    0    0  0.00000000000E+00  0.00000000000E+00 -0.29660252851E+03  0.21233471318E+04  0.21025294248E+04 0.  0.
        3    1    3    3  502    0  0.37066527405E+02  0.12765696820E+03 -0.12014531400E+04  0.12087844667E+04  0.10100000352E+00 0. -1.
       -3    1    3    3    0  502 -0.37066527405E+02 -0.12765696820E+03  0.90485061153E+03  0.91456266509E+03  0.10100000352E+00 0.  1.
</event>
<event>
 5   0  0.2732159E-05  0.2102318E+04  0.7818609E-02  0.8560223E-01
       -1   -1    0    0    0  501  0.00000000000E+00  0.00000000000E+00  0.98288021655E+03  0.98288021657E+03  0.50400001928E-02 0.  1.
        1   -1    0    0  501    0  0.00000000000E+00  0.00000000000E+00 -0.11241814467E+04  0.11241814467E+04  0.50400001928E-02 0. -1.
    10030    2    1    2    0    0  0.00000000000E+00  0.00000000000E+00 -0.14130123014E+03  0.21070616633E+04  0.21023184381E+04 0.  0.
        3    1    3    3  502    0  0.96273500424E+01  0.10150965911E+04  0.20276869095E+03  0.10351951156E+04  0.10100000352E+00 0.  1.
       -3    1    3    3    0  502 -0.96273500424E+01 -0.10150965911E+04 -0.34406992110E+03  0.10718665477E+04  0.10100000352E+00 0. -1.
</event>
<event>
 5   0  0.5967046E-05  0.2086778E+04  0.7818609E-02  0.8567090E-01
        2   -1    0    0  501    0  0.00000000000E+00  0.00000000000E+00  0.19455311448E+04  0.19455311448E+04  0.25500000920E-02 0. -1.
       -2   -1    0    0    0  501  0.00000000000E+00  0.00000000000E+00 -0.55957010372E+03  0.55957010373E+03  0.25500000920E-02 0.  1.
    10030    2    1    2    0    0  0.00000000000E+00  0.00000000000E+00  0.13859610411E+04  0.25051012485E+04  0.20867784401E+04 0.  0.
        4    1    3    3  502    0 -0.62532910554E+03  0.32335240359E+03  0.16174669134E+04  0.17640278048E+04  0.12699999809E+01 0. -1.
       -4    1    3    3    0  502  0.62532910554E+03 -0.32335240359E+03 -0.23150587237E+03  0.74107344372E+03  0.12699999809E+01 0.  1.
</event>
<event>
 5   0  0.5954140E-05  0.2091132E+04  0.7818609E-02  0.8565160E-01
        2   -1    0    0  501    0  0.00000000000E+00  0.00000000000E+00  0.90511708394E+03  0.90511708394E+03  0.25500000920E-02 0. -1.
       -2   -1    0    0    0  501  0.00000000000E+00  0.00000000000E+00 -0.12078090748E+04  0.12078090748E+04  0.25500000920E-02 0.  1.
    10030    2    1    2    0    0  0.00000000000E+00  0.00000000000E+00 -0.30269199083E+03  0.21129261587E+04  0.20911323513E+04 0.  0.
        2    1    3    3  502    0 -0.36748670399E+03  0.94936962701E+03  0.89591376993E+02  0.10219470540E+04  0.25500000920E-02 0.  1.
       -2    1    3    3    0  502  0.36748670399E+03 -0.94936962701E+03 -0.39228336782E+03  0.10909791047E+04  0.25500000920E-02 0. -1.
</event>
<event>
 5   0  0.2732159E-05  0.2104635E+04  0.7818609E-02  0.8559204E-01
        1   -1    0    0  501    0  0.00000000000E+00  0.00000000000E+00  0.17124747506E+04  0.17124747506E+04  0.50400001928E-02 0.  1.
       -1   -1    0    0    0  501  0.00000000000E+00  0.00000000000E+00 -0.64665001777E+03  0.64665001779E+03  0.50400001928E-02 0. -1.
    10030    2    1    2    0    0  0.00000000000E+00  0.00000000000E+00  0.10658247328E+04  0.23591247684E+04  0.21046347217E+04 0.  0.
        3    1    3    3  502    0 -0.22303852562E+03  0.41831264711E+02  0.16847216990E+04  0.16999362494E+04  0.10100000352E+00 0.  1.
       -3    1    3    3    0  502  0.22303852562E+03 -0.41831264711E+02 -0.61889696620E+03  0.65918851901E+03  0.10100000352E+00 0. -1.
</event>
<event>
 5   0  0.5506332E-05  0.2099719E+04  0.7818609E-02  0.8561367E-01
       -2   -1    0    0    0  501  0.00000000000E+00  0.00000000000E+00  0.41437917857E+03  0.41437917857E+03  0.25500000920E-02 0.  1.
        2   -1    0    0  501    0  0.00000000000E+00  0.00000000000E+00 -0.26598939784E+04  0.26598939784E+04  0.25500000920E-02 0. -1.
    10030    2    1    2    0    0  0.00000000000E+00  0.00000000000E+00 -0.22455147999E+04  0.30742731570E+04  0.20997187258E+04 0.  0.
        3    1    3    3  502    0  0.88247188826E+03  0.89857474376E+01 -0.29017087418E+03  0.92899759076E+03  0.10100000352E+00 0.  1.
       -3    1    3    3    0  502 -0.88247188826E+03 -0.89857474376E+01 -0.19553439257E+04  0.21452755662E+04  0.10100000352E+00 0. -1.
</event>
<event>
 5   0  0.2602060E-05  0.2065597E+04  0.7818609E-02  0.8576551E-01
       -1   -1    0    0    0  501  0.00000000000E+00  0.00000000000E+00  0.58301789130E+03  0.58301789133E+03  0.50400001928E-02 0.  1.
        1   -1    0    0  501    0  0.00000000000E+00  0.00000000000E+00 -0.18295716768E+04  0.18295716768E+04  0.50400001928E-02 0. -1.
    10030    2    1    2    0    0  0.00000000000E+00  0.00000000000E+00 -0.12465537855E+04  0.24125895681E+04  0.20655972706E+04 0.  0.
        1    1    3    3  502    0  0.27352406021E+03  0.99035751181E+03 -0.74605225829E+03  0.12697312254E+04  0.50400001928E-02 0. -1.
       -1    1    3    3    0  502 -0.27352406021E+03 -0.99035751181E+03 -0.50050152720E+03  0.11428583427E+04  0.50400001928E-02 0.  1.
</event>
<event>
 5   0  0.2789662E-05  0.2098967E+04  0.7818609E-02  0.8561699E-01
       -1   -1    0    0    0  501  0.00000000000E+00  0.00000000000E+00  0.43472553935E+03  0.43472553938E+03  0.50400001928E-02 0.  1.
        1   -1    0    0  501    0  0.00000000000E+00  0.00000000000E+00 -0.25335876343E+04  0.25335876343E+04  0.50400001928E-02 0. -1.
    10030    2    1    2    0    0  0.00000000000E+00  0.00000000000E+00 -0.20988620949E+04  0.29683131736E+04  0.20989666513E+04 0.  0.
        4    1    3    3  502    0  0.73114214094E+03  0.14849453934E+03 -0.20932385414E+04  0.22222215601E+04  0.12699999809E+01 0. -1.
       -4    1    3    3    0  502 -0.73114214094E+03 -0.14849453934E+03 -0.56235535566E+01  0.74609161349E+03  0.12699999809E+01 0.  1.
</event>
<event>
 5   0  0.2604390E-05  0.2120895E+04  0.7818609E-02  0.8552094E-01
        1   -1    0    0  501    0  0.00000000000E+00  0.00000000000E+00  0.29718531208E+04  0.29718531208E+04  0.50400001928E-02 0. -1.
       -1   -1    0    0    0  501  0.00000000000E+00  0.00000000000E+00 -0.37839995525E+03  0.37839995529E+03  0.50400001928E-02 0.  1.
    10030    2    1    2    0    0  0.00000000000E+00  0.00000000000E+00  0.25934531656E+04  0.33502530761E+04  0.21208951770E+04 0.  0.
        5    1    3    3  502    0 -0.10195470420E+03  0.33032372067E+03  0.28803263636E+04  0.29010016500E+04  0.46999998093E+01 0. -1.
       -5    1    3    3    0  502  0.10195470420E+03 -0.33032372067E+03 -0.28687319805E+03  0.44925142615E+03  0.46999998093E+01 0.  1.
</event>
<event>
 5   0  0.5506332E-05  0.2094427E+04  0.7818609E-02  0.8563702E-01
       -2   -1    0    0    0  501  0.00000000000E+00  0.00000000000E+00  0.90072461056E+03  0.90072461056E+03  0.25500000920E-02 0.  1.
        2   -1    0    0  501    0  0.00000000000E+00  0.00000000000E+00 -0.12175269931E+04  0.12175269931E+04  0.25500000920E-02 0. -1.
    10030    2    1    2    0    0  0.00000000000E+00  0.00000000000E+00 -0.31680238251E+03  0.21182516036E+04  0.20944273935E+04 0.  0.
        3    1    3    3  502    0 -0.83426836767E+03 -0.33954100477E+03  0.38187069507E+03  0.97832358715E+03  0.10100000352E+00 0.  1.
       -3    1    3    3    0  502  0.83426836767E+03  0.33954100477E+03 -0.69867307758E+03  0.11399280165E+04  0.10100000352E+00 0. -1.
</event>
<event>
 5   0  0.2602060E-05  0.2090144E+04  0.7818609E-02  0.8565598E-01
       -1   -1    0    0    0  501  0.00000000000E+00  0.00000000000E+00  0.11786085415E+04  0.11786085415E+04  0.50400001928E-02 0. -1.
        1   -1    0    0  501    0  0.00000000000E+00  0.00000000000E+00 -0.92666482672E+03  0.92666482674E+03  0.50400001928E-02 0.  1.
    10030    2    1    2    0    0  0.00000000000E+00  0.00000000000E+00  0.25194371476E+03  0.21052733682E+04  0.20901436122E+04 0.  0.
        1    1    3    3  502    0 -0.25128308652E+03 -0.29287914434E+03  0.11042145840E+04  0.11697056169E+04  0.50400001928E-02 0. -1.
       -1    1    3    3    0  502  0.25128308652E+03  0.29287914434E+03 -0.85227086921E+03  0.93556775131E+03  0.50400001928E-02 0.  1.
</event>
<event>
 5   0  0.5462851E-05  0.2126010E+04  0.7818609E-02  0.8549872E-01
        2   -1    0    0  501    0  0.00000000000E+00  0.00000000000E+00  0.20228056544E+04  0.20228056544E+04  0.25500000920E-02 0.  1.
       -2   -1    0    0    0  501  0.00000000000E+00  0.00000000000E+00 -0.55861982994E+03  0.55861982995E+03  0.25500000920E-02 0. -1.
    10030    2    1    2    0    0  0.00000000000E+00  0.00000000000E+00  0.14641858244E+04  0.25814254843E+04  0.21260097372E+04 0.  0.
        1    1    3    3  502    0 -0.70612698052E+03  0.65857480698E+02  0.16935666057E+04  0.18360611015E+04  0.50400001928E-02 0.  1.
       -1    1    3    3    0  502  0.70612698052E+03 -0.65857480698E+02 -0.22938078127E+03  0.74536438285E+03  0.50400001928E-02 0. -1.
</event>
<event>
 5   0  0.2789662E-05  0.2095271E+04  0.7818609E-02  0.8563329E-01
       -1   -1    0    0    0  501  0.00000000000E+00  0.00000000000E+00  0.61651324934E+03  0.61651324936E+03  0.50400001928E-02 0.  1.
        1   -1    0    0  501    0  0.00000000000E+00  0.00000000000E+00 -0.17802379484E+04  0.17802379484E+04  0.50400001928E-02 0. -1.
    10030    2    1    2    0    0  0.00000000000E+00  0.00000000000E+00 -0.11637246990E+04  0.23967511977E+04  0.20952711349E+04 0.  0.
        4    1    3    3  502    0  0.19446744705E+03  0.22026372664E+03  0.56841434619E+03  0.63986731366E+03  0.12699999809E+01 0.  1.
       -4    1    3    3    0  502 -0.19446744705E+03 -0.22026372664E+03 -0.17321390452E+04  0.17568838841E+04  0.12699999809E+01 0. -1.
</event>
<event>
 5   0  0.2604390E-05  0.2093517E+04  0.7818609E-02  0.8564105E-01
       -1   -1    0    0    0  501  0.00000000000E+00  0.00000000000E+00  0.42034135203E+03  0.42034135206E+03  0.50400001928E-02 0.  1.
        1   -1    0    0  501    0  0.00000000000E+00  0.00000000000E+00 -0.26066982647E+04  0.26066982647E+04  0.50400001928E-02 0. -1.
    10030    2    1    2    0    0  0.00000000000E+00  0.00000000000E+00 -0.21863569127E+04  0.30270396168E+04  0.20935167284E+04 0.  0.
        5    1    3    3  502    0  0.52697165845E+02  0.46621006828E+03 -0.24461313699E+04  0.24907247114E+04  0.46999998093E+01 0. -1.
       -5    1    3    3    0  502 -0.52697165845E+02 -0.46621006828E+03  0.25977445727E+03  0.53631490535E+03  0.46999998093E+01 0.  1.
</event>
<event>
 5   0  0.2699285E-05  0.2098920E+04  0.7818609E-02  0.8561719E-01
       -1   -1    0    0    0  501  0.00000000000E+00  0.00000000000E+00  0.67663240076E+03  0.67663240077E+03  0.50400001928E-02 0. -1.
        1   -1    0    0  501    0  0.00000000000E+00  0.00000000000E+00 -0.16277168289E+04  0.16277168289E+04  0.50400001928E-02 0.  1.
    10030    2    1    2    0    0  0.00000000000E+00  0.00000000000E+00 -0.95108442818E+03  0.23043492297E+04  0.20989196704E+04 0.  0.
        2    1    3    3  502    0 -0.84943419104E+03  0.32231310824E+03 -0.10522571464E+04  0.13902047643E+04  0.25500000920E-02 0.  1.
       -2    1    3    3    0  502  0.84943419104E+03 -0.32231310824E+03  0.10117271822E+03  0.91414446537E+03  0.25500000920E-02 0. -1.
</event>
<event>
 5   0  0.2789662E-05  0.2096347E+04  0.7818609E-02  0.8562854E-01
       -1   -1    0    0    0  501  0.00000000000E+00  0.00000000000E+00  0.65260580031E+03  0.65260580033E+03  0.50400001928E-02 0. -1.
        1   -1    0    0  501    0  0.00000000000E+00  0.00000000000E+00 -0.16835097080E+04  0.16835097080E+04  0.50400001928E-02 0.  1.
    10030    2    1    2    0    0  0.00000000000E+00  0.00000000000E+00 -0.10309039077E+04  0.23361155084E+04  0.20963474906E+04 0.  0.
        4    1    3    3  502    0  0.20174153862E+03 -0.96515689691E+03 -0.91170420575E+03  0.13429198248E+04  0.12699999809E+01 0.  1.
       -4    1    3    3    0  502 -0.20174153862E+03  0.96515689691E+03 -0.11919970196E+03  0.99319568359E+03  0.12699999809E+01 0. -1.
</event>
<event>
 5   0  0.2604390E-05  0.2105234E+04  0.7818609E-02  0.8558941E-01
        1   -1    0    0  501    0  0.00000000000E+00  0.00000000000E+00  0.17421092355E+04  0.17421092355E+04  0.50400001928E-02 0.  1.
       -1   -1    0    0    0  501  0.00000000000E+00  0.00000000000E+00 -0.63601200218E+03  0.63601200220E+03  0.50400001928E-02 0. -1.
    10030    2    1    2    0    0  0.00000000000E+00  0.00000000000E+00  0.11060972333E+04  0.23781212377E+04  0.21052338425E+04 0.  0.
        5    1    3    3  502    0  0.93127089048E+03 -0.37654068837E+03  0.90835408576E+03  0.13543181297E+04  0.46999998093E+01 0.  1.
       -5    1    3    3    0  502 -0.93127089048E+03  0.37654068837E+03  0.19774314754E+03  0.10238031079E+04  0.46999998093E+01 0. -1.
</event>
<event>
 5   0  0.5954140E-05  0.2135771E+04  0.7818609E-02  0.8545648E-01
       -2   -1    0    0    0  501  0.00000000000E+00  0.00000000000E+00  0.11406172298E+04  0.11406172298E+04  0.25500000920E-02 0.  1.
        2   -1    0    0  501    0  0.00000000000E+00  0.00000000000E+00 -0.99979163083E+03  0.99979163083E+03  0.25500000920E-02 0. -1.
    10030    2    1    2    0    0  0.00000000000E+00  0.00000000000E+00  0.14082559897E+03  0.21404088606E+04  0.21357711116E+04 0.  0.
        2    1    3    3  502    0 -0.75069235741E+03  0.70444409766E+03  0.35492900992E+03  0.10889238285E+04  0.25500000920E-02 0.  1.
       -2    1    3    3    0  502  0.75069235741E+03 -0.70444409766E+03 -0.21410341095E+03  0.10514850321E+04  0.25500000920E-02 0. -1.
</event>
<event>
 5   0  0.2602060E-05  0.2163476E+04  0.7818609E-02  0.8533786E-01
        1   -1    0    0  501    0  0.00000000000E+00  0.00000000000E+00  0.11107803066E+04  0.11107803067E+04  0.50400001928E-02 0.  1.
       -1   -1    0    0    0  501  0.00000000000E+00  0.00000000000E+00 -0.10534546846E+04  0.10534546846E+04  0.50400001928E-02 0. -1.
    10030    2    1    2    0    0  0.00000000000E+00  0.00000000000E+00  0.57325622051E+02  0.21642349913E+04  0.21634756459E+04 0.  0.
        1    1    3    3  502    0  0.10576284558E+04 -0.10402432548E+03  0.23061904988E+03  0.10874668533E+04  0.50400001928E-02 0.  1.
       -1    1    3    3    0  502 -0.10576284558E+04  0.10402432548E+03 -0.17329342783E+03  0.10767681380E+04  0.50400001928E-02 0. -1.
</event>
<event>
 5   0  0.2602060E-05  0.2103282E+04  0.7818609E-02  0.8559799E-01
       -1   -1    0    0    0  501  0.00000000000E+00  0.00000000000E+00  0.10312194024E+04  0.10312194024E+04  0.50400001928E-02 0.  1.
        1   -1    0    0  501    0  0.00000000000E+00  0.00000000000E+00 -0.10724673800E+04  0.10724673800E+04  0.50400001928E-02 0. -1.
    10030    2    1    2    0    0  0.00000000000E+00  0.00000000000E+00 -0.41247977620E+02  0.21036867825E+04  0.21032823593E+04 0.  0.
        1    1    3    3  502    0 -0.34245643700E+03 -0.57609540807E+03 -0.83120368325E+03  0.10677368091E+04  0.50400001928E-02 0. -1.
       -1    1    3    3    0  502  0.34245643700E+03  0.57609540807E+03  0.78995570563E+03  0.10359499734E+04  0.50400001928E-02 0.  1.
</event>
<event>
 5   0  0.2602060E-05  0.2101508E+04  0.7818609E-02  0.8560580E-01
        1   -1    0    0  501    0  0.00000000000E+00  0.00000000000E+00  0.16959081630E+04  0.16959081630E+04  0.50400001928E-02 0.  1.
       -1   -1    0    0    0  501  0.00000000000E+00  0.00000000000E+00 -0.65102794660E+03  0.65102794662E+03  0.50400001928E-02 0. -1.
    10030    2    1    2    0    0  0.00000000000E+00  0.00000000000E+00  0.10448802164E+04  0.23469361096E+04  0.21015076578E+04 0.  0.
        1    1    3    3  502    0  0.96874863118E+02  0.24533919713E+03 -0.61345210408E+03  0.66775710013E+03  0.50400001928E-02 0. -1.
       -1    1    3    3    0  502 -0.96874863118E+02 -0.24533919713E+03  0.16583323205E+04  0.16791790095E+04  0.50400001928E-02 0.  1.
</event>
<event>
 5   0  0.5967046E-05  0.2095431E+04  0.7818609E-02  0.8563259E-01
        2   -1    0    0  501    0  0.00000000000E+00  0.00000000000E+00  0.11589502698E+04  0.11589502698E+04  0.25500000920E-02 0. -1.
       -2   -1    0    0    0  501  0.00000000000E+00  0.00000000000E+00 -0.94715718015E+03  0.94715718016E+03  0.25500000920E-02 0.  1.
    10030    2    1    2    0    0  0.00000000000E+00  0.00000000000E+00  0.21179308965E+03  0.21061074500E+04  0.20954312869E+04 0.  0.
        4    1    3    3  502    0  0.10259793813E+04 -0.32907255519E+02 -0.10490970385E+03  0.10318547559E+04  0.12699999809E+01 0.  1.
       -4    1    3    3    0  502 -0.10259793813E+04  0.32907255519E+02  0.31670279351E+03  0.10742526941E+04  0.12699999809E+01 0. -1.
</event>
<event>
 5   0  0.2732159E-05  0.2097935E+04  0.7818609E-02  0.8562154E-01
        1   -1    0    0  501    0  0.00000000000E+00  0.00000000000E+00  0.79102627572E+03  0.79102627574E+03  0.50400001928E-02 0. -1.
       -1   -1    0    0    0  501  0.00000000000E+00  0.00000000000E+00 -0.13910189624E+04  0.13910189624E+04  0.50400001928E-02 0.  1.
    10030    2    1    2    0    0  0.00000000000E+00  0.00000000000E+00 -0.59999268666E+03  0.21820452381E+04  0.20979347457E+04 0.  0.
        3    1    3    3  502    0  0.10033864631E+04  0.30028610976E+03 -0.23955995201E+03  0.10744045434E+04  0.10100000352E+00 0. -1.
       -3    1    3    3    0  502 -0.10033864631E+04 -0.30028610976E+03 -0.36043273465E+03  0.11076406947E+04  0.10100000352E+00 0.  1.
</event>
<event>
 5   0  0.5967046E-05  0.2097110E+04  0.7818609E-02  0.8562517E-01
       -2   -1    0    0    0  501  0.00000000000E+00  0.00000000000E+00  0.85680715636E+03  0.85680715636E+03  0.25500000920E-02 0. -1.
        2   -1    0    0  501    0  0.00000000000E+00  0.00000000000E+00 -0.12832149500E+04  0.12832149500E+04  0.25500000920E-02 0.  1.
    10030    2    1    2    0    0  0.00000000000E+00  0.00000000000E+00 -0.42640779367E+03  0.21400221064E+04  0.20971101567E+04 0.  0.
        4    1    3    3  502    0 -0.91171877468E+03 -0.21991377877E+02 -0.74123911177E+03  0.11752241397E+04  0.12699999809E+01 0. -1.
       -4    1    3    3    0  502  0.91171877468E+03  0.21991377877E+02  0.31483131809E+03  0.96479796670E+03  0.12699999809E+01 0.  1.
</event>
<event>
 5   0  0.5506332E-05  0.2085309E+04  0.7818609E-02  0.8567743E-01
        2   -1    0    0  501    0  0.00000000000E+00  0.00000000000E+00  0.12870701587E+04  0.12870701587E+04  0.25500000920E-02 0. -1.
       -2   -1    0    0    0  501  0.00000000000E+00  0.00000000000E+00 -0.84465327591E+03  0.84465327591E+03  0.25500000920E-02 0.  1.
    10030    2    1    2    0    0  0.00000000000E+00  0.00000000000E+00  0.44241688278E+03  0.21317234346E+04  0.20853086351E+04 0.  0.
        3    1    3    3  502    0 -0.16065001470E+03  0.30751673299E+03  0.12263293164E+04  0.12744640328E+04  0.10100000352E+00 0. -1.
       -3    1    3    3    0  502  0.16065001470E+03 -0.30751673299E+03 -0.78391243362E+03  0.85725940186E+03  0.10100000352E+00 0.  1.
</event>
<event>
 5   0  0.5462851E-05  0.2090884E+04  0.7818609E-02  0.8565270E-01
        2   -1    0    0  501    0  0.00000000000E+00  0.00000000000E+00  0.17804005953E+04  0.17804005953E+04  0.25500000920E-02 0.  1.
       -2   -1    0    0    0  501  0.00000000000E+00  0.00000000000E+00 -0.61387820447E+03  0.61387820448E+03  0.25500000920E-02 0. -1.
    10030    2    1    2    0    0  0.00000000000E+00  0.00000000000E+00  0.11665223908E+04  0.23942787998E+04  0.20908841390E+04 0.  0.
        1    1    3    3  502    0 -0.94239954729E+03 -0.13232971345E+03  0.10788689081E+04  0.14386056376E+04  0.50400001928E-02 0.  1.
       -1    1    3    3    0  502  0.94239954729E+03  0.13232971345E+03  0.87653482763E+02  0.95567316216E+03  0.50400001928E-02 0. -1.
</event>
<event>
 5   0  0.5967046E-05  0.2086616E+04  0.7818609E-02  0.8567162E-01
       -2   -1    0    0    0  501  0.00000000000E+00  0.00000000000E+00  0.12697457917E+04  0.12697457917E+04  0.25500000920E-02 0. -1.
        2   -1    0    0  501    0  0.00000000000E+00  0.00000000000E+00 -0.85725186001E+03  0.85725186002E+03  0.25500000920E-02 0.  1.
    10030    2    1    2    0    0  0.00000000000E+00  0.00000000000E+00  0.41249393164E+03  0.21269976517E+04  0.20866163439E+04 0.  0.
        4    1    3    3  502    0  0.58246287555E+02 -0.10412659465E+04  0.23619108610E+03  0.10693059634E+04  0.12699999809E+01 0. -1.
       -4    1    3    3    0  502 -0.58246287555E+02  0.10412659465E+04  0.17630284554E+03  0.10576916883E+04  0.12699999809E+01 0.  1.
</event>
<event>
 5   0  0.2732159E-05  0.2127088E+04  0.7818609E-02  0.8549404E-01
       -1   -1    0    0    0  501  0.00000000000E+00  0.00000000000E+00  0.49349017852E+03  0.49349017854E+03  0.50400001928E-02 0. -1.
        1   -1    0    0  501    0  0.00000000000E+00  0.00000000000E+00 -0.22920946465E+04  0.22920946465E+04  0.50400001928E-02 0.  1.
    10030    2    1    2    0    0  0.00000000000E+00  0.00000000000E+00 -0.17986044680E+04  0.27855848251E+04  0.21270883351E+04 0.  0.
        3    1    3    3  502    0  0.30673664020E+03 -0.88106283635E+03 -0.15680421695E+04  0.18245863486E+04  0.10100000352E+00 0.  1.
       -3    1    3    3    0  502 -0.30673664020E+03  0.88106283635E+03 -0.23056229849E+03  0.96099847644E+03  0.10100000352E+00 0. -1.
</event>
<event>
 5   0  0.5506332E-05  0.2096508E+04  0.7818609E-02  0.8562783E-01
        2   -1    0    0  501    0  0.00000000000E+00  0.00000000000E+00  0.56508953975E+03  0.56508953976E+03  0.25500000920E-02 0.  1.
       -2   -1    0    0    0  501  0.00000000000E+00  0.00000000000E+00 -0.19445354054E+04  0.19445354054E+04  0.25500000920E-02 0. -1.
    10030    2    1    2    0    0  0.00000000000E+00  0.00000000000E+00 -0.13794458656E+04  0.25096249451E+04  0.20965081610E+04 0.  0.
        3    1    3    3  502    0  0.80653337674E+03  0.57455338428E+03 -0.27812409398E+03  0.10285721662E+04  0.10100000352E+00 0.  1.
       -3    1    3    3    0  502 -0.80653337674E+03 -0.57455338428E+03 -0.11013217716E+04  0.14810527790E+04  0.10100000352E+00 0. -1.
</event>
<event>
 5   0  0.2732159E-05  0.2112054E+04  0.7818609E-02  0.8555952E-01
        1   -1    0    0  501    0  0.00000000000E+00  0.00000000000E+00  0.16336196954E+04  0.16336196954E+04  0.50400001928E-02 0. -1.
       -1   -1    0    0    0  501  0.00000000000E+00  0.00000000000E+00 -0.68265143086E+03  0.68265143088E+03  0.50400001928E-02 0.  1.
    10030    2    1    2    0    0  0.00000000000E+00  0.00000000000E+00  0.95096826456E+03  0.23162711263E+04  0.21120538086E+04 0.  0.
        3    1    3    3  502    0 -0.62933503320E+03 -0.23359782021E+03 -0.41854621507E+03  0.79108246724E+03  0.10100000352E+00 0.  1.
       -3    1    3    3    0  502  0.62933503320E+03  0.23359782021E+03  0.13695144796E+04  0.15251886591E+04  0.10100000352E+00 0. -1.
</event>
<event>
 5   0  0.5967046E-05  0.2094845E+04  0.7818609E-02  0.8563518E-01
        2   -1    0    0  501    0  0.00000000000E+00  0.00000000000E+00  0.12571047688E+04  0.12571047688E+04  0.25500000920E-02 0. -1.
       -2   -1    0    0    0  501  0.00000000000E+00  0.00000000000E+00 -0.87271449693E+03  0.87271449693E+03  0.25500000920E-02 0.  1.
    10030    2    1    2    0    0  0.00000000000E+00  0.00000000000E+00  0.38439027190E+03  0.21298192658E+04  0.20948446777E+04 0.  0.
        4    1    3    3  502    0  0.67877950026E+03 -0.63745438002E+03 -0.29539730298E+03  0.97690883714E+03  0.12699999809E+01 0.  1.
       -4    1    3    3    0  502 -0.67877950026E+03  0.63745438002E+03  0.67978757488E+03  0.11529104286E+04  0.12699999809E+01 0. -1.
</event>
<event>
 5   0  0.5954140E-05  0.2125255E+04  0.7818609E-02  0.8550199E-01
       -2   -1    0    0    0  501  0.00000000000E+00  0.00000000000E+00  0.15186702206E+04  0.15186702206E+04  0.25500000920E-02 0. -1.
        2   -1    0    0  501    0  0.00000000000E+00  0.00000000000E+00 -0.74353016956E+03  0.74353016956E+03  0.25500000920E-02 0.  1.
    10030    2    1    2    0    0  0.00000000000E+00  0.00000000000E+00  0.77514005106E+03  0.22622003902E+04  0.21252549274E+04 0.  0.
        2    1    3    3  502    0  0.68636457295E+03  0.10847595676E+03  0.12433098515E+04  0.14243183447E+04  0.25500000920E-02 0. -1.
       -2    1    3    3    0  502 -0.68636457295E+03 -0.10847595676E+03 -0.46816980039E+03  0.83788204552E+03  0.25500000920E-02 0.  1.
</event>
<event>
 5   0  0.5462851E-05  0.2080496E+04  0.7818609E-02  0.8569884E-01
        2   -1    0    0  501    0  0.00000000000E+00  0.00000000000E+00  0.58324247572E+03  0.58324247573E+03  0.25500000920E-02 0. -1.
       -2   -1    0    0    0  501  0.00000000000E+00  0.00000000000E+00 -0.18553439483E+04  0.18553439483E+04  0.25500000920E-02 0.  1.
    10030    2    1    2    0    0  0.00000000000E+00  0.00000000000E+00 -0.12721014726E+04  0.24385864241E+04  0.20804955157E+04 0.  0.
        1    1    3    3  502    0  0.55124742465E+02 -0.10277510417E+04 -0.81305398317E+03  0.13116278895E+04  0.50400001928E-02 0.  1.
       -1    1    3    3    0  502 -0.55124742465E+02  0.10277510417E+04 -0.45904748944E+03  0.11269585345E+04  0.50400001928E-02 0. -1.
</event>
<event>
 5   0  0.5506332E-05  0.2098283E+04  0.7818609E-02  0.8562000E-01
        2   -1    0    0  501    0  0.00000000000E+00  0.00000000000E+00  0.11525096627E+04  0.11525096627E+04  0.25500000920E-02 0. -1.
       -2   -1    0    0    0  501  0.00000000000E+00  0.00000000000E+00 -0.95504413631E+03  0.95504413632E+03  0.25500000920E-02 0.  1.
    10030    2    1    2    0    0  0.00000000000E+00  0.00000000000E+00  0.19746552643E+03  0.21075537991E+04  0.20982827221E+04 0.  0.
        3    1    3    3  502    0 -0.23669195679E+03 -0.46570023238E+03  0.10125867231E+04  0.11393996976E+04  0.10100000352E+00 0. -1.
       -3    1    3    3    0  502  0.23669195679E+03  0.46570023238E+03 -0.81512119664E+03  0.96815410151E+03  0.10100000352E+00 0.  1.
</event>
<event>
 5   0  0.5954140E-05  0.2024081E+04  0.7818609E-02  0.8595444E-01
       -2   -1    0    0    0  501  0.00000000000E+00  0.00000000000E+00  0.19388607928E+04  0.19388607928E+04  0.25500000920E-02 0. -1.
        2   -1    0    0  501    0  0.00000000000E+00  0.00000000000E+00 -0.52826153602E+03  0.52826153603E+03  0.25500000920E-02 0.  1.
    10030    2    1    2    0    0  0.00000000000E+00  0.00000000000E+00  0.14105992568E+04  0.24671223288E+04  0.20240806116E+04 0.  0.
        2    1    3    3  502    0 -0.65413823486E+03  0.56849885116E+03  0.13423206844E+04  0.15977836506E+04  0.25500000920E-02 0. -1.
       -2    1    3    3    0  502  0.65413823486E+03 -0.56849885116E+03  0.68278572318E+02  0.86933867826E+03  0.25500000920E-02 0.  1.
</event>
<event>
 5   0  0.2699285E-05  0.2079569E+04  0.7818609E-02  0.8570297E-01
       -1   -1    0    0    0  501  0.00000000000E+00  0.00000000000E+00  0.13063980153E+04  0.13063980153E+04  0.50400001928E-02 0.  1.
        1   -1    0    0  501    0  0.00000000000E+00  0.00000000000E+00 -0.82758229652E+03  0.82758229654E+03  0.50400001928E-02 0. -1.
    10030    2    1    2    0    0  0.00000000000E+00  0.00000000000E+00  0.47881571875E+03  0.21339803118E+04  0.20795690608E+04 0.  0.
        2    1    3    3  502    0  0.82649640220E+03 -0.62877870219E+03  0.29265889036E+03  0.10789384530E+04  0.25500000920E-02 0. -1.
       -2    1    3    3    0  502 -0.82649640220E+03  0.62877870219E+03  0.18615682839E+03  0.10550418589E+04  0.25500000920E-02 0.  1.
</event>
<event>
 5   0  0.2699285E-05  0.2023380E+04  0.7818609E-02  0.8595767E-01
       -1   -1    0    0    0  501  0.00000000000E+00  0.00000000000E+00  0.11987566613E+04  0.11987566613E+04  0.50400001928E-02 0.  1.
        1   -1    0    0  501    0  0.00000000000E+00  0.00000000000E+00 -0.85381509894E+03  0.85381509895E+03  0.50400001928E-02 0. -1.
    10030    2    1    2    0    0  0.00000000000E+00  0.00000000000E+00  0.34494156233E+03  0.20525717602E+04  0.20233798826E+04 0.  0.
        2    1    3    3  502    0  0.89542867855E+03 -0.43164473792E+03 -0.18411009799E+02  0.99420755551E+03  0.25500000920E-02 0.  1.
       -2    1    3    3    0  502 -0.89542867855E+03  0.43164473792E+03  0.36335257213E+03  0.10583642047E+04  0.25500000920E-02 0. -1.
</event>
<event>
 5   0  0.2789662E-05  0.2075080E+04  0.7818609E-02  0.8572301E-01
        1   -1    0    0  501    0  0.00000000000E+00  0.00000000000E+00  0.81643555991E+03  0.81643555993E+03  0.50400001928E-02 0.  1.
       -1   -1    0    0    0  501  0.00000000000E+00  0.00000000000E+00 -0.13185230514E+04  0.13185230514E+04  0.50400001928E-02 0. -1.
    10030    2    1    2    0    0  0.00000000000E+00  0.00000000000E+00 -0.50208749148E+03  0.21349586113E+04  0.20750798594E+04 0.  0.
        4    1    3    3  502    0 -0.46719474954E+03  0.62438371403E+03  0.45307394502E+03  0.90188888944E+03  0.12699999809E+01 0.  1.
       -4    1    3    3    0  502  0.46719474954E+03 -0.62438371403E+03 -0.95516143649E+03  0.12330697219E+04  0.12699999809E+01 0. -1.
</event>
<event>
 5   0  0.2604390E-05  0.2111667E+04  0.7818609E-02  0.8556121E-01
       -1   -1    0    0    0  501  0.00000000000E+00  0.00000000000E+00  0.50347266973E+03  0.50347266975E+03  0.50400001928E-02 0. -1.
        1   -1    0    0  501    0  0.00000000000E+00  0.00000000000E+00 -0.22141896835E+04  0.22141896835E+04  0.50400001928E-02 0.  1.
    10030    2    1    2    0    0  0.00000000000E+00  0.00000000000E+00 -0.17107170138E+04  0.27176623533E+04  0.21116666321E+04 0.  0.
        5    1    3    3  502    0  0.14986387633E+03 -0.57458600411E+03  0.26818891115E+03  0.65157934253E+03  0.46999998093E+01 0. -1.
       -5    1    3    3    0  502 -0.14986387633E+03  0.57458600411E+03 -0.19789059250E+04  0.20660830108E+04  0.46999998093E+01 0.  1.
</event>
<event>
 5   0  0.2604390E-05  0.2079971E+04  0.7818609E-02  0.8570118E-01
       -1   -1    0    0    0  501  0.00000000000E+00  0.00000000000E+00  0.52418776838E+03  0.52418776840E+03  0.50400001928E-02 0.  1.
        1   -1    0    0  501    0  0.00000000000E+00  0.00000000000E+00 -0.20633243728E+04  0.20633243728E+04  0.50400001928E-02 0. -1.
    10030    2    1    2    0    0  0.00000000000E+00  0.00000000000E+00 -0.15391366044E+04  0.25875121412E+04  0.20799705752E+04 0.  0.
        5    1    3    3  502    0  0.59497409881E+03  0.26489990323E+03 -0.17782028408E+04  0.18937247873E+04  0.46999998093E+01 0. -1.
       -5    1    3    3    0  502 -0.59497409881E+03 -0.26489990323E+03  0.23906623643E+03  0.69378735387E+03  0.46999998093E+01 0.  1.
</event>
<event>
 5   0  0.5506332E-05  0.2111335E+04  0.7818609E-02  0.8556266E-01
       -2   -1    0    0    0  501  0.00000000000E+00  0.00000000000E+00  0.15524040063E+04  0.15524040063E+04  0.25500000920E-02 0.  1.
        2   -1    0    0  501    0  0.00000000000E+00  0.00000000000E+00 -0.71787639418E+03  0.71787639419E+03  0.25500000920E-02 0. -1.
    10030    2    1    2    0    0  0.00000000000E+00  0.00000000000E+00  0.83452761214E+03  0.22702804005E+04  0.21113353030E+04 0.  0.
        3    1    3    3  502    0 -0.98268860608E+03 -0.38408796652E+02  0.82992838962E+03  0.12868307093E+04  0.10100000352E+00 0.  1.
       -3    1    3    3    0  502  0.98268860608E+03  0.38408796652E+02  0.45992225169E+01  0.98344969126E+03  0.10100000352E+00 0. -1.
</event>
<event>
 5   0  0.5506332E-05  0.2097190E+04  0.7818609E-02  0.8562482E-01
        2   -1    0    0  501    0  0.00000000000E+00  0.00000000000E+00  0.27104595806E+04  0.27104595806E+04  0.25500000920E-02 0. -1.
       -2   -1    0    0    0  501  0.00000000000E+00  0.00000000000E+00 -0.40566990366E+03  0.40566990367E+03  0.25500000920E-02 0.  1.
    10030    2    1    2    0    0  0.00000000000E+00  0.00000000000E+00  0.23047896770E+04  0.31161294843E+04  0.20971903843E+04 0.  0.
        3    1    3    3  502    0 -0.69818514504E+03 -0.40763837295E+03  0.16017873180E+03  0.82418976952E+03  0.10100000352E+00 0.  1.
       -3    1    3    3    0  502  0.69818514504E+03  0.40763837295E+03  0.21446109452E+04  0.22919397148E+04  0.10100000352E+00 0. -1.
</event>
<event>
 5   0  0.2017750E-05  0.2111372E+04  0.7818609E-02  0.8556250E-01
        3   -1    0    0  501    0  0.00000000000E+00  0.00000000000E+00  0.10459390595E+04  0.10459390644E+04  0.10100000352E+00 0. -1.
       -3   -1    0    0    0  501  0.00000000000E+00  0.00000000000E+00 -0.10655241801E+04  0.10655241849E+04  0.10100000352E+00 0.  1.
    10030    2    1    2    0    0  0.00000000000E+00  0.00000000000E+00 -0.19585120653E+02  0.21114632493E+04  0.21113724153E+04 0.  0.
        4    1    3    3  502    0 -0.97509062903E+03  0.40228293297E+03 -0.52671708239E+02  0.10561293551E+04  0.12699999809E+01 0. -1.
       -4    1    3    3    0  502  0.97509062903E+03 -0.40228293297E+03  0.33086587586E+02  0.10553338942E+04  0.12699999809E+01 0.  1.
</event>
<event>
 5   0  0.5462851E-05  0.2119857E+04  0.7818609E-02  0.8552546E-01
       -2   -1    0    0    0  501  0.00000000000E+00  0.00000000000E+00  0.68586955504E+03  0.68586955505E+03  0.25500000920E-02 0.  1.
        2   -1    0    0  501    0  0.00000000000E+00  0.00000000000E+00 -0.16379913177E+04  0.16379913177E+04  0.25500000920E-02 0. -1.
    10030    2    1    2    0    0  0.00000000000E+00  0.00000000000E+00 -0.95212176269E+03  0.23238608728E+04  0.21198569539E+04 0.  0.
        1    1    3    3  502    0  0.28628217917E+03 -0.78064648420E+03  0.24452646769E+03  0.86669464798E+03  0.50400001928E-02 0.  1.
       -1    1    3    3    0  502 -0.28628217917E+03  0.78064648420E+03 -0.11966482304E+04  0.14571662248E+04  0.50400001928E-02 0. -1.
</event>
<event>
 5   0  0.2699285E-05  0.2074217E+04  0.7818609E-02  0.8572687E-01
        1   -1    0    0  501    0  0.00000000000E+00  0.00000000000E+00  0.22388810082E+04  0.22388810082E+04  0.50400001928E-02 0.  1.
       -1   -1    0    0    0  501  0.00000000000E+00  0.00000000000E+00 -0.48041596789E+03  0.48041596791E+03  0.50400001928E-02 0. -1.
    10030    2    1    2    0    0  0.00000000000E+00  0.00000000000E+00  0.17584650403E+04  0.27192969761E+04  0.20742171406E+04 0.  0.
        2    1    3    3  502    0  0.75526710791E+03  0.65305264839E+03  0.12469859498E+04  0.15974605238E+04  0.25500000920E-02 0.  1.
       -2    1    3    3    0  502 -0.75526710791E+03 -0.65305264839E+03  0.51147909048E+03  0.11218364524E+04  0.25500000920E-02 0. -1.
</event>
<event>
 5   0  0.5506332E-05  0.2097206E+04  0.7818609E-02  0.8562475E-01
       -2   -1    0    0    0  501  0.00000000000E+00  0.00000000000E+00  0.47006923246E+03  0.47006923247E+03  0.25500000920E-02 0. -1.
        2   -1    0    0  501    0  0.00000000000E+00  0.00000000000E+00 -0.23391633276E+04  0.23391633276E+04  0.25500000920E-02 0.  1.
    10030    2    1    2    0    0  0.00000000000E+00  0.00000000000E+00 -0.18690940951E+04  0.28092325601E+04  0.20972064372E+04 0.  0.
        3    1    3    3  502    0  0.34584564110E+03  0.70953993940E+03 -0.98835989177E+01  0.78940093033E+03  0.10100000352E+00 0. -1.
       -3    1    3    3    0  502 -0.34584564110E+03 -0.70953993940E+03 -0.18592104962E+04  0.20198316297E+04  0.10100000352E+00 0.  1.
</event>
<event>
 5   0  0.5967046E-05  0.2094956E+04  0.7818609E-02  0.8563469E-01
       -2   -1    0    0    0  501  0.00000000000E+00  0.00000000000E+00  0.11266159370E+04  0.11266159370E+04  0.25500000920E-02 0. -1.
        2   -1    0    0  501    0  0.00000000000E+00  0.00000000000E+00 -0.97389857144E+03  0.97389857145E+03  0.25500000920E-02 0.  1.
    10030    2    1    2    0    0  0.00000000000E+00  0.00000000000E+00  0.15271736558E+03  0.21005145085E+04  0.20949555142E+04 0.  0.
        4    1    3    3  502    0 -0.49575048152E+03  0.92254696949E+03  0.57692411342E+02  0.10489001278E+04  0.12699999809E+01 0. -1.
       -4    1    3    3    0  502  0.49575048152E+03 -0.92254696949E+03  0.95024954234E+02  0.10516143807E+04  0.12699999809E+01 0.  1.
</event>
<event>
 5   0  0.5866610E-05  0.2091029E+04  0.7818609E-02  0.8565205E-01
        2   -1    0    0  501    0  0.00000000000E+00  0.00000000000E+00  0.10348524395E+04  0.10348524395E+04  0.25500000920E-02 0. -1.
       -2   -1    0    0    0  501  0.00000000000E+00  0.00000000000E+00 -0.10562865611E+04  0.10562865611E+04  0.25500000920E-02 0.  1.
    10030    2    1    2    0    0  0.00000000000E+00  0.00000000000E+00 -0.21434121657E+02  0.20911390006E+04  0.20910291481E+04 0.  0.
        5    1    3    3  502    0  0.51115318879E+03  0.84526319614E+03  0.33183732870E+03  0.10420583265E+04  0.46999998093E+01 0. -1.
       -5    1    3    3    0  502 -0.51115318879E+03 -0.84526319614E+03 -0.35327145036E+03  0.10490806741E+04  0.46999998093E+01 0.  1.
</event>
<event>
 5   0  0.2602060E-05  0.2098624E+04  0.7818609E-02  0.8561850E-01
       -1   -1    0    0    0  501  0.00000000000E+00  0.00000000000E+00  0.98051834031E+03  0.98051834033E+03  0.50400001928E-02 0. -1.
        1   -1    0    0  501    0  0.00000000000E+00  0.00000000000E+00 -0.11229320328E+04  0.11229320328E+04  0.50400001928E-02 0.  1.
    10030    2    1    2    0    0  0.00000000000E+00  0.00000000000E+00 -0.14241369247E+03  0.21034503731E+04  0.20986237901E+04 0.  0.
        1    1    3    3  502    0  0.10216114895E+04 -0.10399266293E+03 -0.28745973750E+03  0.10663665459E+04  0.50400001928E-02 0. -1.
       -1    1    3    3    0  502 -0.10216114895E+04  0.10399266293E+03  0.14504604504E+03  0.10370838272E+04  0.50400001928E-02 0.  1.
</event>
<event>
 5   0  0.2732159E-05  0.2114460E+04  0.7818609E-02  0.8554900E-01
        1   -1    0    0  501    0  0.00000000000E+00  0.00000000000E+00  0.15647807666E+04  0.15647807666E+04  0.50400001928E-02 0.  1.
       -1   -1    0    0    0  501  0.00000000000E+00  0.00000000000E+00 -0.71430807313E+03  0.71430807314E+03  0.50400001928E-02 0. -1.
    10030    2    1    2    0    0  0.00000000000E+00  0.00000000000E+00  0.85047269347E+03  0.22790888397E+04  0.21144602472E+04 0.  0.
        3    1    3    3  502    0 -0.40267478225E+03 -0.96047126238E+03  0.62128661494E+03  0.12127032177E+04  0.10100000352E+00 0. -1.
       -3    1    3    3    0  502  0.40267478225E+03  0.96047126238E+03  0.22918607853E+03  0.10663856220E+04  0.10100000352E+00 0.  1.
</event>
<event>
 5   0  0.2789662E-05  0.2093819E+04  0.7818609E-02  0.8563971E-01
        1   -1    0    0  501    0  0.00000000000E+00  0.00000000000E+00  0.13387802290E+04  0.13387802290E+04  0.50400001928E-02 0. -1.
       -1   -1    0    0    0  501  0.00000000000E+00  0.00000000000E+00 -0.81867028341E+03  0.81867028343E+03  0.50400001928E-02 0.  1.
    10030    2    1    2    0    0  0.00000000000E+00  0.00000000000E+00  0.52010994558E+03  0.21574505124E+04  0.20938190844E+04 0.  0.
        4    1    3    3  502    0  0.80313160661E+03 -0.66730612148E+03  0.18226127346E+03  0.10599710477E+04  0.12699999809E+01 0.  1.
       -4    1    3    3    0  502 -0.80313160661E+03  0.66730612148E+03  0.33784867212E+03  0.10974794647E+04  0.12699999809E+01 0. -1.
</event>
<event>
 5   0  0.2604390E-05  0.2103229E+04  0.7818609E-02  0.8559822E-01
       -1   -1    0    0    0  501  0.00000000000E+00  0.00000000000E+00  0.87797442292E+03  0.87797442293E+03  0.50400001928E-02 0.  1.
        1   -1    0    0  501    0  0.00000000000E+00  0.00000000000E+00 -0.12595961485E+04  0.12595961486E+04  0.50400001928E-02 0. -1.
    10030    2    1    2    0    0  0.00000000000E+00  0.00000000000E+00 -0.38162172563E+03  0.21375705715E+04  0.21032291379E+04 0.  0.
        5    1    3    3  502    0 -0.52246966770E+03  0.41951062799E+03  0.63292115328E+03  0.92172392663E+03  0.46999998093E+01 0.  1.
       -5    1    3    3    0  502  0.52246966770E+03 -0.41951062799E+03 -0.10145428789E+04  0.12158466449E+04  0.46999998093E+01 0. -1.
</event>
<event>
 5   0  0.5506332E-05  0.2104508E+04  0.7818609E-02  0.8559260E-01
       -2   -1    0    0    0  501  0.00000000000E+00  0.00000000000E+00  0.43289181182E+03  0.43289181183E+03  0.25500000920E-02 0.  1.
        2   -1    0    0  501    0  0.00000000000E+00  0.00000000000E+00 -0.25577719460E+04  0.25577719460E+04  0.25500000920E-02 0. -1.
    10030    2    1    2    0    0  0.00000000000E+00  0.00000000000E+00 -0.21248801342E+04  0.29906637578E+04  0.21045080489E+04 0.  0.
        3    1    3    3  502    0  0.11759174221E+03  0.91337756275E+03 -0.17858665272E+04  0.20093296527E+04  0.10100000352E+00 0. -1.
       -3    1    3    3    0  502 -0.11759174221E+03 -0.91337756275E+03 -0.33901360692E+03  0.98133410511E+03  0.10100000352E+00 0.  1.
</event>
<event>
 5   0  0.2699285E-05  0.2106879E+04  0.7818609E-02  0.8558219E-01
       -1   -1    0    0    0  501  0.00000000000E+00  0.00000000000E+00  0.85355744147E+03  0.85355744149E+03  0.50400001928E-02 0.  1.
        1   -1    0    0  501    0  0.00000000000E+00  0.00000000000E+00 -0.13001285511E+04  0.13001285511E+04  0.50400001928E-02 0. -1.
    10030    2    1    2    0    0  0.00000000000E+00  0.00000000000E+00 -0.44657110964E+03  0.21536859926E+04  0.21068786388E+04 0.  0.
        2    1    3    3  502    0 -0.25171471809E+03  0.41364882807E+03 -0.11796283148E+04  0.12751425855E+04  0.25500000920E-02 0. -1.
       -2    1    3    3    0  502  0.25171471809E+03 -0.41364882807E+03  0.73305720512E+03  0.87854340715E+03  0.25500000920E-02 0.  1.
</event>
<event>
 5   0  0.2789662E-05  0.2096312E+04  0.7818609E-02  0.8562870E-01
       -1   -1    0    0    0  501  0.00000000000E+00  0.00000000000E+00  0.20880043092E+04  0.20880043092E+04  0.50400001928E-02 0.  1.
        1   -1    0    0  501    0  0.00000000000E+00  0.00000000000E+00 -0.52616298062E+03  0.52616298065E+03  0.50400001928E-02 0. -1.
    10030    2    1    2    0    0  0.00000000000E+00  0.00000000000E+00  0.15618413286E+04  0.26141672898E+04  0.20963115903E+04 0.  0.
        4    1    3    3  502    0 -0.36090197436E+03  0.34118692459E+03  0.19319588835E+04  0.19947745469E+04  0.12699999809E+01 0.  1.
       -4    1    3    3    0  502  0.36090197436E+03 -0.34118692459E+03 -0.37011755494E+03  0.61939274292E+03  0.12699999809E+01 0. -1.
</event>
<event>
 5   0  0.2732159E-05  0.2102014E+04  0.7818609E-02  0.8560357E-01
        1   -1    0    0  501    0  0.00000000000E+00  0.00000000000E+00  0.12389005367E+04  0.12389005367E+04  0.50400001928E-02 0. -1.
       -1   -1    0    0    0  501  0.00000000000E+00  0.00000000000E+00 -0.89160971554E+03  0.89160971556E+03  0.50400001928E-02 0.  1.
    10030    2    1    2    0    0  0.00000000000E+00  0.00000000000E+00  0.34729082116E+03  0.21305102523E+04  0.21020140391E+04 0.  0.
        3    1    3    3  502    0 -0.29533668718E+03 -0.40928259213E+03 -0.76074152118E+03  0.91294231541E+03  0.10100000352E+00 0.  1.
       -3    1    3    3    0  502  0.29533668718E+03  0.40928259213E+03  0.11080323423E+04  0.12175679369E+04  0.10100000352E+00 0. -1.
</event>
<event>
 5   0  0.2789662E-05  0.2085452E+04  0.7818609E-02  0.8567679E-01
       -1   -1    0    0    0  501  0.00000000000E+00  0.00000000000E+00  0.14518488281E+04  0.14518488281E+04  0.50400001928E-02 0. -1.
        1   -1    0    0  501    0  0.00000000000E+00  0.00000000000E+00 -0.74889190446E+03  0.74889190447E+03  0.50400001928E-02 0.  1.
    10030    2    1    2    0    0  0.00000000000E+00  0.00000000000E+00  0.70295692360E+03  0.22007407325E+04  0.20854523096E+04 0.  0.
        4    1    3    3  502    0  0.10351226910E+04  0.10596345421E+03  0.28014745825E+03  0.10775859364E+04  0.12699999809E+01 0. -1.
       -4    1    3    3    0  502 -0.10351226910E+04 -0.10596345421E+03  0.42280946535E+03  0.11231547961E+04  0.12699999809E+01 0.  1.
</event>
<event>
 5   0  0.5954140E-05  0.2103057E+04  0.7818609E-02  0.8559898E-01
        2   -1    0    0  501    0  0.00000000000E+00  0.00000000000E+00  0.10727886533E+04  0.10727886533E+04  0.25500000920E-02 0. -1.
       -2   -1    0    0    0  501  0.00000000000E+00  0.00000000000E+00 -0.10306893960E+04  0.10306893960E+04  0.25500000920E-02 0.  1.
    10030    2    1    2    0    0  0.00000000000E+00  0.00000000000E+00  0.42099257272E+02  0.21034780493E+04  0.21030567173E+04 0.  0.
        2    1    3    3  502    0 -0.88868052093E+03 -0.44318588421E+03 -0.32477257656E+03  0.10448176983E+04  0.25500000920E-02 0.  1.
       -2    1    3    3    0  502  0.88868052093E+03  0.44318588421E+03  0.36687183383E+03  0.10586603510E+04  0.25500000920E-02 0. -1.
</event>
<event>
 5   0  0.5866610E-05  0.2108027E+04  0.7818609E-02  0.8557716E-01
       -2   -1    0    0    0  501  0.00000000000E+00  0.00000000000E+00  0.15125891040E+04  0.15125891040E+04  0.25500000920E-02 0. -1.
        2   -1    0    0  501    0  0.00000000000E+00  0.00000000000E+00 -0.73446516620E+03  0.73446516620E+03  0.25500000920E-02 0.  1.
    10030    2    1    2    0    0  0.00000000000E+00  0.00000000000E+00  0.77812393783E+03  0.22470542702E+04  0.21080265726E+04 0.  0.
        5    1    3    3  502    0  0.10403100967E+04 -0.11764440741E+03  0.25922305442E+03  0.10785657077E+04  0.46999998093E+01 0.  1.
       -5    1    3    3    0  502 -0.10403100967E+04  0.11764440741E+03  0.51890088341E+03  0.11684885625E+04  0.46999998093E+01 0. -1.
</event>
<event>
 5   0  0.5506332E-05  0.2075448E+04  0.7818609E-02  0.8572137E-01
       -2   -1    0    0    0  501  0.00000000000E+00  0.00000000000E+00  0.57384116744E+03  0.57384116745E+03  0.25500000920E-02 0.  1.
        2   -1    0    0  501    0  0.00000000000E+00  0.00000000000E+00 -0.18766005326E+04  0.18766005326E+04  0.25500000920E-02 0. -1.
    10030    2    1    2    0    0  0.00000000000E+00  0.00000000000E+00 -0.13027593651E+04  0.24504417000E+04  0.20754475570E+04 0.  0.
        3    1    3    3  502    0 -0.57693751536E+03 -0.34325892388E+03  0.28291666173E+03  0.72850904808E+03  0.10100000352E+00 0.  1.
       -3    1    3    3    0  502  0.57693751536E+03  0.34325892388E+03 -0.15856760269E+04  0.17219326519E+04  0.10100000352E+00 0. -1.
</event>
<event>
 5   0  0.5866610E-05  0.1994202E+04  0.7818609E-02  0.8609336E-01
        2   -1    0    0  501    0  0.00000000000E+00  0.00000000000E+00  0.13347996550E+04  0.13347996550E+04  0.25500000920E-02 0. -1.
       -2   -1    0    0    0  501  0.00000000000E+00  0.00000000000E+00 -0.74483873540E+03  0.74483873540E+03  0.25500000920E-02 0.  1.
    10030    2    1    2    0    0  0.00000000000E+00  0.00000000000E+00  0.58996091960E+03  0.20796383904E+04  0.19942020831E+04 0.  0.
        5    1    3    3  502    0 -0.95527446364E+03  0.14315694763E+03  0.37111071351E+02  0.96666567858E+03  0.46999998093E+01 0.  1.
       -5    1    3    3    0  502  0.95527446364E+03 -0.14315694763E+03  0.55284984825E+03  0.11129727118E+04  0.46999998093E+01 0. -1.
</event>
<event>
 5   0  0.2789662E-05  0.2105222E+04  0.7818609E-02  0.8558947E-01
        1   -1    0    0  501    0  0.00000000000E+00  0.00000000000E+00  0.86252026202E+03  0.86252026203E+03  0.50400001928E-02 0.  1.
       -1   -1    0    0    0  501  0.00000000000E+00  0.00000000000E+00 -0.12845957867E+04  0.12845957867E+04  0.50400001928E-02 0. -1.
    10030    2    1    2    0    0  0.00000000000E+00  0.00000000000E+00 -0.42207552468E+03  0.21471160487E+04  0.21052219784E+04 0.  0.
        4    1    3    3  502    0 -0.95631812065E+03  0.21110186696E+03 -0.60456582612E+03  0.11509169375E+04  0.12699999809E+01 0. -1.
       -4    1    3    3    0  502  0.95631812065E+03 -0.21110186696E+03  0.18249030144E+03  0.99619911119E+03  0.12699999809E+01 0.  1.
</event>
<event>
 5   0  0.2604390E-05  0.2124662E+04  0.7818609E-02  0.8550457E-01
        1   -1    0    0  501    0  0.00000000000E+00  0.00000000000E+00  0.66398255900E+03  0.66398255902E+03  0.50400001928E-02 0.  1.
       -1   -1    0    0    0  501  0.00000000000E+00  0.00000000000E+00 -0.16996639527E+04  0.16996639527E+04  0.50400001928E-02 0. -1.
    10030    2    1    2    0    0  0.00000000000E+00  0.00000000000E+00 -0.10356813937E+04  0.23636465117E+04  0.21246620633E+04 0.  0.
        5    1    3    3  502    0 -0.10140381377E+04 -0.37602555578E+02 -0.86758791868E+03  0.13350723514E+04  0.46999998093E+01 0. -1.
       -5    1    3    3    0  502  0.10140381377E+04  0.37602555578E+02 -0.16809347503E+03  0.10285741603E+04  0.46999998093E+01 0.  1.
</event>
<event>
 5   0  0.2732159E-05  0.2115327E+04  0.7818609E-02  0.8554521E-01
        1   -1    0    0  501    0  0.00000000000E+00  0.00000000000E+00  0.60967766579E+03  0.60967766581E+03  0.50400001928E-02 0.  1.
       -1   -1    0    0    0  501  0.00000000000E+00  0.00000000000E+00 -0.18348261643E+04  0.18348261643E+04  0.50400001928E-02 0. -1.
    10030    2    1    2    0    0  0.00000000000E+00  0.00000000000E+00 -0.12251484985E+04  0.24445038301E+04  0.21153274290E+04 0.  0.
        3    1    3    3  502    0 -0.39440415826E+03  0.82152369830E+03 -0.12329540085E+04  0.15331769057E+04  0.10100000352E+00 0. -1.
       -3    1    3    3    0  502  0.39440415826E+03 -0.82152369830E+03  0.78055100240E+01  0.91132692439E+03  0.10100000352E+00 0.  1.
</event>
<event>
 5   0  0.2604390E-05  0.2147299E+04  0.7818609E-02  0.8540689E-01
       -1   -1    0    0    0  501  0.00000000000E+00  0.00000000000E+00  0.18878745300E+04  0.18878745300E+04  0.50400001928E-02 0.  1.
        1   -1    0    0  501    0  0.00000000000E+00  0.00000000000E+00 -0.61059320151E+03  0.61059320153E+03  0.50400001928E-02 0. -1.
    10030    2    1    2    0    0  0.00000000000E+00  0.00000000000E+00  0.12772813284E+04  0.24984677315E+04  0.21472990973E+04 0.  0.
        5    1    3    3  502    0  0.70367449943E+03 -0.76516837588E+03  0.95098296082E+03  0.14089113267E+04  0.46999998093E+01 0.  1.
       -5    1    3    3    0  502 -0.70367449943E+03  0.76516837588E+03  0.32629836762E+03  0.10895564048E+04  0.46999998093E+01 0. -1.
</event>
<event>
 5   0  0.5954140E-05  0.2121735E+04  0.7818609E-02  0.8551729E-01
        2   -1    0    0  501    0  0.00000000000E+00  0.00000000000E+00  0.22185355061E+04  0.22185355061E+04  0.25500000920E-02 0.  1.
       -2   -1    0    0    0  501  0.00000000000E+00  0.00000000000E+00 -0.50728972003E+03  0.50728972004E+03  0.25500000920E-02 0. -1.
    10030    2    1    2    0    0  0.00000000000E+00  0.00000000000E+00  0.17112457860E+04  0.27258252261E+04  0.21217353801E+04 0.  0.
        2    1    3    3  502    0 -0.41757974469E+03  0.61637667831E+03  0.18265370089E+04  0.19724427742E+04  0.25500000920E-02 0.  1.
       -2    1    3    3    0  502  0.41757974469E+03 -0.61637667831E+03 -0.11529122285E+03  0.75338245189E+03  0.25500000920E-02 0. -1.
</event>
<event>
 5   0  0.5506332E-05  0.2103896E+04  0.7818609E-02  0.8559529E-01
       -2   -1    0    0    0  501  0.00000000000E+00  0.00000000000E+00  0.62052725786E+03  0.62052725786E+03  0.25500000920E-02 0. -1.
        2   -1    0    0  501    0  0.00000000000E+00  0.00000000000E+00 -0.17833128047E+04  0.17833128047E+04  0.25500000920E-02 0.  1.
    10030    2    1    2    0    0  0.00000000000E+00  0.00000000000E+00 -0.11627855469E+04  0.24038400626E+04  0.21038956292E+04 0.  0.
        3    1    3    3  502    0 -0.45678105327E+03  0.54836966163E+03  0.30159432608E+03  0.77480149984E+03  0.10100000352E+00 0. -1.
       -3    1    3    3    0  502  0.45678105327E+03 -0.54836966163E+03 -0.14643798729E+04  0.16290385627E+04  0.10100000352E+00 0.  1.
</event>
<event>
 5   0  0.5506332E-05  0.2097555E+04  0.7818609E-02  0.8562321E-01
       -2   -1    0    0    0  501  0.00000000000E+00  0.00000000000E+00  0.67330646289E+03  0.67330646290E+03  0.25500000920E-02 0.  1.
        2   -1    0    0  501    0  0.00000000000E+00  0.00000000000E+00 -0.16336311141E+04  0.16336311141E+04  0.25500000920E-02 0. -1.
    10030    2    1    2    0    0  0.00000000000E+00  0.00000000000E+00 -0.96032465124E+03  0.23069375770E+04  0.20975551360E+04 0.  0.
        3    1    3    3  502    0  0.60995095734E+03 -0.50963937835E+03  0.27236191847E+03  0.84021038506E+03  0.10100000352E+00 0. -1.
       -3    1    3    3    0  502 -0.60995095734E+03  0.50963937835E+03 -0.12326865697E+04  0.14667271920E+04  0.10100000352E+00 0.  1.
</event>
<event>
 5   0  0.2699285E-05  0.2000405E+04  0.7818609E-02  0.8606431E-01
        1   -1    0    0  501    0  0.00000000000E+00  0.00000000000E+00  0.15197208750E+04  0.15197208750E+04  0.50400001928E-02 0.  1.
       -1   -1    0    0    0  501  0.00000000000E+00  0.00000000000E+00 -0.65828240254E+03  0.65828240256E+03  0.50400001928E-02 0. -1.
    10030    2    1    2    0    0  0.00000000000E+00  0.00000000000E+00  0.86143847243E+03  0.21780032775E+04  0.20004054677E+04 0.  0.
        2    1    3    3  502    0  0.72457690783E+03  0.68151709917E+03  0.54453854534E+03  0.11340191706E+04  0.25500000920E-02 0.  1.
       -2    1    3    3    0  502 -0.72457690783E+03 -0.68151709917E+03  0.31689992709E+03  0.10439841070E+04  0.25500000920E-02 0. -1.
</event>
<event>
 5   0  0.5967046E-05  0.2101047E+04  0.7818609E-02  0.8560782E-01
       -2   -1    0    0    0  501  0.00000000000E+00  0.00000000000E+00  0.12273851138E+04  0.12273851138E+04  0.25500000920E-02 0. -1.
        2   -1    0    0  501    0  0.00000000000E+00  0.00000000000E+00 -0.89914683761E+03  0.89914683761E+03  0.25500000920E-02 0.  1.
    10030    2    1    2    0    0  0.00000000000E+00  0.00000000000E+00  0.32823827618E+03  0.21265319514E+04  0.21010468282E+04 0.  0.
        4    1    3    3  502    0  0.48749026739E+03  0.16075601334E+03  0.10918113035E+04  0.12064587817E+04  0.12699999809E+01 0. -1.
       -4    1    3    3    0  502 -0.48749026739E+03 -0.16075601334E+03 -0.76357302732E+03  0.92007316969E+03  0.12699999809E+01 0.  1.
</event>
<event>
 5   0  0.5506332E-05  0.2098135E+04  0.7818609E-02  0.8562066E-01
       -2   -1    0    0    0  501  0.00000000000E+00  0.00000000000E+00  0.40663946356E+03  0.40663946357E+03  0.25500000920E-02 0.  1.
        2   -1    0    0  501    0  0.00000000000E+00  0.00000000000E+00 -0.27064323748E+04  0.27064323748E+04  0.25500000920E-02 0. -1.
    10030    2    1    2    0    0  0.00000000000E+00  0.00000000000E+00 -0.22997929112E+04  0.31130718384E+04  0.20981346087E+04 0.  0.
        3    1    3    3  502    0 -0.96466748767E+03 -0.28456343862E+03 -0.15924930460E+04  0.18835057271E+04  0.10100000352E+00 0. -1.
       -3    1    3    3    0  502  0.96466748767E+03  0.28456343862E+03 -0.70729986523E+03  0.12295661112E+04  0.10100000352E+00 0.  1.
</event>
<event>
 5   0  0.5506332E-05  0.2107693E+04  0.7818609E-02  0.8557862E-01
        2   -1    0    0  501    0  0.00000000000E+00  0.00000000000E+00  0.10124359965E+04  0.10124359965E+04  0.25500000920E-02 0. -1.
       -2   -1    0    0    0  501  0.00000000000E+00  0.00000000000E+00 -0.10969511033E+04  0.10969511033E+04  0.25500000920E-02 0.  1.
    10030    2    1    2    0    0  0.00000000000E+00  0.00000000000E+00 -0.84515106772E+02  0.21093870999E+04  0.21076933206E+04 0.  0.
        3    1    3    3  502    0 -0.37680692631E+03  0.23326946838E+03 -0.99916119781E+03  0.10930330343E+04  0.10100000352E+00 0.  1.
       -3    1    3    3    0  502  0.37680692631E+03 -0.23326946838E+03  0.91464609103E+03  0.10163540656E+04  0.10100000352E+00 0. -1.
</event>
<event>
 5   0  0.5506332E-05  0.2103178E+04  0.7818609E-02  0.8559845E-01
        2   -1    0    0  501    0  0.00000000000E+00  0.00000000000E+00  0.12821445294E+04  0.12821445294E+04  0.25500000920E-02 0.  1.
       -2   -1    0    0    0  501  0.00000000000E+00  0.00000000000E+00 -0.86249216152E+03  0.86249216153E+03  0.25500000920E-02 0. -1.
    10030    2    1    2    0    0  0.00000000000E+00  0.00000000000E+00  0.41965236784E+03  0.21446366909E+04  0.21031781727E+04 0.  0.
        3    1    3    3  502    0  0.84114162801E+03 -0.21198746594E+03  0.81600349454E+03  0.11909322556E+04  0.10100000352E+00 0.  1.
       -3    1    3    3    0  502 -0.84114162801E+03  0.21198746594E+03 -0.39635112670E+03  0.95370443531E+03  0.10100000352E+00 0. -1.
</event>
<event>
 5   0  0.5866610E-05  0.2099614E+04  0.7818609E-02  0.8561414E-01
       -2   -1    0    0    0  501  0.00000000000E+00  0.00000000000E+00  0.61793055001E+03  0.61793055001E+03  0.25500000920E-02 0.  1.
        2   -1    0    0  501    0  0.00000000000E+00  0.00000000000E+00 -0.17835249402E+04  0.17835249402E+04  0.25500000920E-02 0. -1.
    10030    2    1    2    0    0  0.00000000000E+00  0.00000000000E+00 -0.11655943902E+04  0.24014554902E+04  0.20996138190E+04 0.  0.
        5    1    3    3  502    0 -0.80969756181E+02 -0.30779141291E+03  0.56140980913E+03  0.64536402058E+03  0.46999998093E+01 0.  1.
       -5    1    3    3    0  502  0.80969756181E+02  0.30779141291E+03 -0.17270041993E+04  0.17560914697E+04  0.46999998093E+01 0. -1.
</event>
<event>
 5   0  0.2732159E-05  0.2081179E+04  0.7818609E-02  0.8569580E-01
       -1   -1    0    0    0  501  0.00000000000E+00  0.00000000000E+00  0.43606601839E+03  0.43606601842E+03  0.50400001928E-02 0.  1.
        1   -1    0    0  501    0  0.00000000000E+00  0.00000000000E+00 -0.24831709640E+04  0.24831709640E+04  0.50400001928E-02 0. -1.
    10030    2    1    2    0    0  0.00000000000E+00  0.00000000000E+00 -0.20471049456E+04  0.29192369824E+04  0.20811789690E+04 0.  0.
        3    1    3    3  502    0  0.52095322170E+03  0.43679259105E+03 -0.21286027998E+04  0.22345312520E+04  0.10100000352E+00 0. -1.
       -3    1    3    3    0  502 -0.52095322170E+03 -0.43679259105E+03  0.81497854188E+02  0.68470573039E+03  0.10100000352E+00 0.  1.
</event>
<event>
 5   0  0.2699285E-05  0.2106673E+04  0.7818609E-02  0.8558310E-01
       -1   -1    0    0    0  501  0.00000000000E+00  0.00000000000E+00  0.30650876284E+04  0.30650876285E+04  0.50400001928E-02 0.  1.
        1   -1    0    0  501    0  0.00000000000E+00  0.00000000000E+00 -0.36198567042E+03  0.36198567046E+03  0.50400001928E-02 0. -1.
    10030    2    1    2    0    0  0.00000000000E+00  0.00000000000E+00  0.27031019580E+04  0.34270732989E+04  0.21066730170E+04 0.  0.
        2    1    3    3  502    0  0.29348563672E+03  0.68971925975E+03  0.25554394668E+04  0.26631029542E+04  0.25500000920E-02 0.  1.
       -2    1    3    3    0  502 -0.29348563672E+03 -0.68971925975E+03  0.14766249119E+03  0.76397034467E+03  0.25500000920E-02 0. -1.
</event>
<event>
 5   0  0.2789662E-05  0.2093764E+04  0.7818609E-02  0.8563995E-01
        1   -1    0    0  501    0  0.00000000000E+00  0.00000000000E+00  0.13624244694E+04  0.13624244694E+04  0.50400001928E-02 0. -1.
       -1   -1    0    0    0  501  0.00000000000E+00  0.00000000000E+00 -0.80442047699E+03  0.80442047701E+03  0.50400001928E-02 0.  1.
    10030    2    1    2    0    0  0.00000000000E+00  0.00000000000E+00  0.55800399240E+03  0.21668449464E+04  0.20937642098E+04 0.  0.
        4    1    3    3  502    0  0.20680216137E+03  0.54884017985E+03  0.11764301721E+04  0.13145273826E+04  0.12699999809E+01 0. -1.
       -4    1    3    3    0  502 -0.20680216137E+03 -0.54884017985E+03 -0.61842617967E+03  0.85231756380E+03  0.12699999809E+01 0.  1.
</event>
<event>
 5   0  0.5506332E-05  0.2113002E+04  0.7818609E-02  0.8555537E-01
        2   -1    0    0  501    0  0.00000000000E+00  0.00000000000E+00  0.12320844656E+04  0.12320844656E+04  0.25500000920E-02 0. -1.
       -2   -1    0    0    0  501  0.00000000000E+00  0.00000000000E+00 -0.90594008416E+03  0.90594008416E+03  0.25500000920E-02 0.  1.
    10030    2    1    2    0    0  0.00000000000E+00  0.00000000000E+00  0.32614438144E+03  0.21380245498E+04  0.21130023232E+04 0.  0.
        3    1    3    3  502    0  0.31932207405E+03 -0.76477063726E+03 -0.49993839043E+03  0.96787350363E+03  0.10100000352E+00 0.  1.
       -3    1    3    3    0  502 -0.31932207405E+03  0.76477063726E+03  0.82608277187E+03  0.11701510461E+04  0.10100000352E+00 0. -1.
</event>
<event>
 5   0  0.5506332E-05  0.2081248E+04  0.7818609E-02  0.8569549E-01
        2   -1    0    0  501    0  0.00000000000E+00  0.00000000000E+00  0.17913840191E+04  0.17913840191E+04  0.25500000920E-02 0.  1.
       -2   -1    0    0    0  501  0.00000000000E+00  0.00000000000E+00 -0.60450346365E+03  0.60450346365E+03  0.25500000920E-02 0. -1.
    10030    2    1    2    0    0  0.00000000000E+00  0.00000000000E+00  0.11868805555E+04  0.23958874828E+04  0.20812475531E+04 0.  0.
        3    1    3    3  502    0  0.76429589680E+03  0.47712288005E+03  0.11928311696E+04  0.14948714560E+04  0.10100000352E+00 0.  1.
       -3    1    3    3    0  502 -0.76429589680E+03 -0.47712288005E+03 -0.59506141331E+01  0.90101602679E+03  0.10100000352E+00 0. -1.
</event>
<event>
 5   0  0.5462851E-05  0.2101955E+04  0.7818609E-02  0.8560383E-01
       -2   -1    0    0    0  501  0.00000000000E+00  0.00000000000E+00  0.10532776050E+04  0.10532776050E+04  0.25500000920E-02 0. -1.
        2   -1    0    0  501    0  0.00000000000E+00  0.00000000000E+00 -0.10486824029E+04  0.10486824029E+04  0.25500000920E-02 0.  1.
    10030    2    1    2    0    0  0.00000000000E+00  0.00000000000E+00  0.45952021174E+01  0.21019600079E+04  0.21019549850E+04 0.  0.
        1    1    3    3  502    0 -0.80966524435E+03  0.37597870775E+03 -0.55235306688E+03  0.10497674538E+04  0.50400001928E-02 0.  1.
       -1    1    3    3    0  502  0.80966524435E+03 -0.37597870775E+03  0.55694826900E+03  0.10521925541E+04  0.50400001928E-02 0. -1.
</event>
<event>
 5   0  0.2602060E-05  0.2090671E+04  0.7818609E-02  0.8565364E-01
       -1   -1    0    0    0  501  0.00000000000E+00  0.00000000000E+00  0.67130883224E+03  0.67130883226E+03  0.50400001928E-02 0. -1.
        1   -1    0    0  501    0  0.00000000000E+00  0.00000000000E+00 -0.16277545371E+04  0.16277545371E+04  0.50400001928E-02 0.  1.
    10030    2    1    2    0    0  0.00000000000E+00  0.00000000000E+00 -0.95644570481E+03  0.22990633693E+04  0.20906707034E+04 0.  0.
        1    1    3    3  502    0  0.85380381292E+03 -0.32668380623E+03 -0.10357308228E+04  0.13814635708E+04  0.50400001928E-02 0. -1.
       -1    1    3    3    0  502 -0.85380381292E+03  0.32668380623E+03  0.79285118007E+02  0.91759979848E+03  0.50400001928E-02 0.  1.
</event>
<event>
 5   0  0.5954140E-05  0.2113179E+04  0.7818609E-02  0.8555460E-01
       -2   -1    0    0    0  501  0.00000000000E+00  0.00000000000E+00  0.43739370070E+03  0.43739370071E+03  0.25500000920E-02 0. -1.
        2   -1    0    0  501    0  0.00000000000E+00  0.00000000000E+00 -0.25523492421E+04  0.25523492421E+04  0.25500000920E-02 0.  1.
    10030    2    1    2    0    0  0.00000000000E+00  0.00000000000E+00 -0.21149555414E+04  0.29897429428E+04  0.21131791031E+04 0.  0.
        2    1    3    3  502    0  0.97907146394E+03 -0.31871941007E+03 -0.13929349703E+04  0.17321751717E+04  0.25500000920E-02 0.  1.
       -2    1    3    3    0  502 -0.97907146394E+03  0.31871941007E+03 -0.72202057102E+03  0.12575677711E+04  0.25500000920E-02 0. -1.
</event>
<event>
 5   0  0.5506332E-05  0.2052988E+04  0.7818609E-02  0.8582240E-01
       -2   -1    0    0    0  501  0.00000000000E+00  0.00000000000E+00  0.71342849322E+03  0.71342849322E+03  0.25500000920E-02 0. -1.
        2   -1    0    0  501    0  0.00000000000E+00  0.00000000000E+00 -0.14769384306E+04  0.14769384306E+04  0.25500000920E-02 0.  1.
    10030    2    1    2    0    0  0.00000000000E+00  0.00000000000E+00 -0.76350993741E+03  0.21903669238E+04  0.20529880264E+04 0.  0.
        3    1    3    3  502    0 -0.55019410464E+03  0.16867828587E+03 -0.12886491274E+04  0.14113052472E+04  0.10100000352E+00 0.  1.
       -3    1    3    3    0  502  0.55019410464E+03 -0.16867828587E+03  0.52513919004E+03  0.77906167665E+03  0.10100000352E+00 0. -1.
</event>
<event>
 5   0  0.2602060E-05  0.2136858E+04  0.7818609E-02  0.8545179E-01
       -1   -1    0    0    0  501  0.00000000000E+00  0.00000000000E+00  0.65616444818E+03  0.65616444820E+03  0.50400001928E-02 0. -1.
        1   -1    0    0  501    0  0.00000000000E+00  0.00000000000E+00 -0.17397172828E+04  0.17397172828E+04  0.50400001928E-02 0.  1.
    10030    2    1    2    0    0  0.00000000000E+00  0.00000000000E+00 -0.10835528346E+04  0.23958817310E+04  0.21368580963E+04 0.  0.
        1    1    3    3  502    0  0.10172027130E+04 -0.31911421201E+03 -0.62110116585E+03  0.12338159903E+04  0.50400001928E-02 0.  1.
       -1    1    3    3    0  502 -0.10172027130E+04  0.31911421201E+03 -0.46245166878E+03  0.11620657407E+04  0.50400001928E-02 0. -1.
</event>
<event>
 5   0  0.5462851E-05  0.2098273E+04  0.7818609E-02  0.8562005E-01
        2   -1    0    0  501    0  0.00000000000E+00  0.00000000000E+00  0.22203777670E+04  0.22203777670E+04  0.25500000920E-02 0. -1.
       -2   -1    0    0    0  501  0.00000000000E+00  0.00000000000E+00 -0.49572069833E+03  0.49572069833E+03  0.25500000920E-02 0.  1.
    10030    2    1    2    0    0  0.00000000000E+00  0.00000000000E+00  0.17246570687E+04  0.27160984654E+04  0.20982728300E+04 0.  0.
        1    1    3    3  502    0 -0.47765271365E+03 -0.93382807812E+03  0.89127965108E+03  0.13764324941E+04  0.50400001928E-02 0. -1.
       -1    1    3    3    0  502  0.47765271365E+03  0.93382807812E+03  0.83337741762E+03  0.13396659713E+04  0.50400001928E-02 0.  1.
</event>
<event>
 5   0  0.2017750E-05  0.2105888E+04  0.7818609E-02  0.8558654E-01
       -3   -1    0    0    0  501  0.00000000000E+00  0.00000000000E+00  0.97998953603E+03  0.97998954123E+03  0.10100000352E+00 0. -1.
        3   -1    0    0  501    0  0.00000000000E+00  0.00000000000E+00 -0.11313300173E+04  0.11313300218E+04  0.10100000352E+00 0.  1.
    10030    2    1    2    0    0  0.00000000000E+00  0.00000000000E+00 -0.15134048125E+03  0.21113195630E+04  0.21058884956E+04 0.  0.
        1    1    3    3  502    0  0.87508573850E+03  0.36897376713E+03  0.38022757126E+03  0.10229807899E+04  0.50400001928E-02 0.  1.
       -1    1    3    3    0  502 -0.87508573850E+03 -0.36897376713E+03 -0.53156805251E+03  0.10883387731E+04  0.50400001928E-02 0. -1.
</event>
<event>
 5   0  0.5866610E-05  0.2085903E+04  0.7818609E-02  0.8567479E-01
       -2   -1    0    0    0  501  0.00000000000E+00  0.00000000000E+00  0.83840349682E+03  0.83840349682E+03  0.25500000920E-02 0.  1.
        2   -1    0    0  501    0  0.00000000000E+00  0.00000000000E+00 -0.12974040351E+04  0.12974040351E+04  0.25500000920E-02 0. -1.
    10030    2    1    2    0    0  0.00000000000E+00  0.00000000000E+00 -0.45900053825E+03  0.21358075319E+04  0.20859032382E+04 0.  0.
        5    1    3    3  502    0 -0.47378297266E+03  0.47683676483E+03  0.58700003793E+03  0.89243192458E+03  0.46999998093E+01 0.  1.
       -5    1    3    3    0  502  0.47378297266E+03 -0.47683676483E+03 -0.10460005762E+04  0.12433756073E+04  0.46999998093E+01 0. -1.
</event>
<event>
 5   0  0.5967046E-05  0.2095021E+04  0.7818609E-02  0.8563440E-01
        2   -1    0    0  501    0  0.00000000000E+00  0.00000000000E+00  0.19674959383E+04  0.19674959383E+04  0.25500000920E-02 0.  1.
       -2   -1    0    0    0  501  0.00000000000E+00  0.00000000000E+00 -0.55770306989E+03  0.55770306989E+03  0.25500000920E-02 0. -1.
    10030    2    1    2    0    0  0.00000000000E+00  0.00000000000E+00  0.14097928684E+04  0.25251990082E+04  0.20950212646E+04 0.  0.
        4    1    3    3  502    0 -0.41099195960E+02 -0.10083560906E+04  0.10432620019E+04  0.14515055518E+04  0.12699999809E+01 0.  1.
       -4    1    3    3    0  502  0.41099195960E+02  0.10083560906E+04  0.36653086649E+03  0.10736934564E+04  0.12699999809E+01 0. -1.
</event>
<event>
 5   0  0.5506332E-05  0.2098411E+04  0.7818609E-02  0.8561943E-01
        2   -1    0    0  501    0  0.00000000000E+00  0.00000000000E+00  0.71587349588E+03  0.71587349589E+03  0.25500000920E-02 0.  1.
       -2   -1    0    0    0  501  0.00000000000E+00  0.00000000000E+00 -0.15377474714E+04  0.15377474714E+04  0.25500000920E-02 0. -1.
    10030    2    1    2    0    0  0.00000000000E+00  0.00000000000E+00 -0.82187397553E+03  0.22536209673E+04  0.20984114546E+04 0.  0.
        3    1    3    3  502    0  0.51092527317E+03  0.29402390474E+03  0.52121161130E+03  0.78686482020E+03  0.10100000352E+00 0.  1.
       -3    1    3    3    0  502 -0.51092527317E+03 -0.29402390474E+03 -0.13430855868E+04  0.14667561471E+04  0.10100000352E+00 0. -1.
</event>
<event>
 5   0  0.5506332E-05  0.2136767E+04  0.7818609E-02  0.8545218E-01
       -2   -1    0    0    0  501  0.00000000000E+00  0.00000000000E+00  0.13796664463E+04  0.13796664463E+04  0.25500000920E-02 0.  1.
        2   -1    0    0  501    0  0.00000000000E+00  0.00000000000E+00 -0.82733295198E+03  0.82733295198E+03  0.25500000920E-02 0. -1.
    10030    2    1    2    0    0  0.00000000000E+00  0.00000000000E+00  0.55233349430E+03  0.22069993983E+04  0.21367671972E+04 0.  0.
        3    1    3    3  502    0  0.34664382312E+03 -0.53053552889E+03  0.11645618724E+04  0.13258334180E+04  0.10100000352E+00 0.  1.
       -3    1    3    3    0  502 -0.34664382312E+03  0.53053552889E+03 -0.61222837811E+03  0.88116598022E+03  0.10100000352E+00 0. -1.
</event>
<event>
 5   0  0.5967046E-05  0.2103841E+04  0.7818609E-02  0.8559553E-01
        2   -1    0    0  501    0  0.00000000000E+00  0.00000000000E+00  0.65393699405E+03  0.65393699405E+03  0.25500000920E-02 0.  1.
       -2   -1    0    0    0  501  0.00000000000E+00  0.00000000000E+00 -0.16921157701E+04  0.16921157701E+04  0.25500000920E-02 0. -1.
    10030    2    1    2    0    0  0.00000000000E+00  0.00000000000E+00 -0.10381787761E+04  0.23460527642E+04  0.21038413441E+04 0.  0.
        4    1    3    3  502    0 -0.57912554465E+03  0.12199124932E+03 -0.14888452867E+04  0.16021642120E+04  0.12699999809E+01 0. -1.
       -4    1    3    3    0  502  0.57912554465E+03 -0.12199124932E+03  0.45066651066E+03  0.74388855221E+03  0.12699999809E+01 0.  1.
</event>
<event>
 5   0  0.5506332E-05  0.2079698E+04  0.7818609E-02  0.8570240E-01
        2   -1    0    0  501    0  0.00000000000E+00  0.00000000000E+00  0.22704730609E+04  0.22704730609E+04  0.25500000920E-02 0. -1.
       -2   -1    0    0    0  501  0.00000000000E+00  0.00000000000E+00 -0.47623825970E+03  0.47623825970E+03  0.25500000920E-02 0.  1.
    10030    2    1    2    0    0  0.00000000000E+00  0.00000000000E+00  0.17942348012E+04  0.27467113206E+04  0.20796981889E+04 0.  0.
        3    1    3    3  502    0  0.69390111865E+03  0.74253267385E+03  0.60645987466E+03  0.11834893848E+04  0.10100000352E+00 0. -1.
       -3    1    3    3    0  502 -0.69390111865E+03 -0.74253267385E+03  0.11877749265E+04  0.15632219358E+04  0.10100000352E+00 0.  1.
</event>
<event>
 5   0  0.2604390E-05  0.2107428E+04  0.7818609E-02  0.8557978E-01
        1   -1    0    0  501    0  0.00000000000E+00  0.00000000000E+00  0.16396439139E+04  0.16396439139E+04  0.50400001928E-02 0. -1.
       -1   -1    0    0    0  501  0.00000000000E+00  0.00000000000E+00 -0.67716759162E+03  0.67716759164E+03  0.50400001928E-02 0.  1.
    10030    2    1    2    0    0  0.00000000000E+00  0.00000000000E+00  0.96247632230E+03  0.23168115056E+04  0.21074284997E+04 0.  0.
        5    1    3    3  502    0  0.45064605290E+03  0.38302641884E+03 -0.47747262227E+03  0.76012715880E+03  0.46999998093E+01 0.  1.
       -5    1    3    3    0  502 -0.45064605290E+03 -0.38302641884E+03  0.14399489446E+04  0.15566843468E+04  0.46999998093E+01 0. -1.
</event>
<event>
 5   0  0.5462851E-05  0.2099544E+04  0.7818609E-02  0.8561444E-01
        2   -1    0    0  501    0  0.00000000000E+00  0.00000000000E+00  0.99860288000E+03  0.99860288000E+03  0.25500000920E-02 0.  1.
       -2   -1    0    0    0  501  0.00000000000E+00  0.00000000000E+00 -0.11035625803E+04  0.11035625803E+04  0.25500000920E-02 0. -1.
    10030    2    1    2    0    0  0.00000000000E+00  0.00000000000E+00 -0.10495970027E+03  0.21021654603E+04  0.20995435417E+04 0.  0.
        1    1    3    3  502    0 -0.62349501211E+03  0.33534767408E+03 -0.82857148124E+03  0.10898324606E+04  0.50400001928E-02 0. -1.
       -1    1    3    3    0  502  0.62349501211E+03 -0.33534767408E+03  0.72361178096E+03  0.10123329997E+04  0.50400001928E-02 0.  1.
</event>
<event>
 5   0  0.2732159E-05  0.1995400E+04  0.7818609E-02  0.8608774E-01
       -1   -1    0    0    0  501  0.00000000000E+00  0.00000000000E+00  0.68329311474E+03  0.68329311476E+03  0.50400001928E-02 0.  1.
        1   -1    0    0  501    0  0.00000000000E+00  0.00000000000E+00 -0.14567764257E+04  0.14567764257E+04  0.50400001928E-02 0. -1.
    10030    2    1    2    0    0  0.00000000000E+00  0.00000000000E+00 -0.77348331093E+03  0.21400695404E+04  0.19954000114E+04 0.  0.
        3    1    3    3  502    0  0.27168783432E+03  0.40532688838E+03  0.54658187785E+03  0.73270452787E+03  0.10100000352E+00 0.  1.
       -3    1    3    3    0  502 -0.27168783432E+03 -0.40532688838E+03 -0.13200651888E+04  0.14073650126E+04  0.10100000352E+00 0. -1.
</event>
<event>
 5   0  0.5967046E-05  0.2071596E+04  0.7818609E-02  0.8573860E-01
        2   -1    0    0  501    0  0.00000000000E+00  0.00000000000E+00  0.16702334662E+04  0.16702334662E+04  0.25500000920E-02 0. -1.
       -2   -1    0    0    0  501  0.00000000000E+00  0.00000000000E+00 -0.64235201420E+03  0.64235201421E+03  0.25500000920E-02 0.  1.
    10030    2    1    2    0    0  0.00000000000E+00  0.00000000000E+00  0.10278814520E+04  0.23125854804E+04  0.20715963229E+04 0.  0.
        4    1    3    3  502    0 -0.13771026318E+03 -0.82206497577E+03 -0.17250818644E+03  0.85118483790E+03  0.12699999809E+01 0. -1.
       -4    1    3    3    0  502  0.13771026318E+03  0.82206497577E+03  0.12003896385E+04  0.14614006425E+04  0.12699999809E+01 0.  1.
</event>
<event>
 5   0  0.5462851E-05  0.2079335E+04  0.7818609E-02  0.8570401E-01
       -2   -1    0    0    0  501  0.00000000000E+00  0.00000000000E+00  0.47977097588E+03  0.47977097588E+03  0.25500000920E-02 0.  1.
        2   -1    0    0  501    0  0.00000000000E+00  0.00000000000E+00 -0.22529685159E+04  0.22529685159E+04  0.25500000920E-02 0. -1.
    10030    2    1    2    0    0  0.00000000000E+00  0.00000000000E+00 -0.17731975400E+04  0.27327394917E+04  0.20793353779E+04 0.  0.
        1    1    3    3  502    0  0.11736049225E+03  0.86682299692E+03 -0.16250939182E+04  0.18455584077E+04  0.50400001928E-02 0. -1.
       -1    1    3    3    0  502 -0.11736049225E+03 -0.86682299692E+03 -0.14810362178E+03  0.88718108407E+03  0.50400001928E-02 0.  1.
</event>
<event>
 5   0  0.5967046E-05  0.2103034E+04  0.7818609E-02  0.8559908E-01
       -2   -1    0    0    0  501  0.00000000000E+00  0.00000000000E+00  0.64889158859E+03  0.64889158860E+03  0.25500000920E-02 0. -1.
        2   -1    0    0  501    0  0.00000000000E+00  0.00000000000E+00 -0.17039634486E+04  0.17039634486E+04  0.25500000920E-02 0.  1.
    10030    2    1    2    0    0  0.00000000000E+00  0.00000000000E+00 -0.10550718600E+04  0.23528550372E+04  0.21030335699E+04 0.  0.
        4    1    3    3  502    0  0.45609858859E+03  0.67083733686E+02 -0.15848732120E+04  0.16505607717E+04  0.12699999809E+01 0.  1.
       -4    1    3    3    0  502 -0.45609858859E+03 -0.67083733686E+02  0.52980135205E+03  0.70229426551E+03  0.12699999809E+01 0. -1.
</event>
<event>
 5   0  0.5462851E-05  0.2101145E+04  0.7818609E-02  0.8560739E-01
        2   -1    0    0  501    0  0.00000000000E+00  0.00000000000E+00  0.15880945687E+04  0.15880945687E+04  0.25500000920E-02 0.  1.
       -2   -1    0    0    0  501  0.00000000000E+00  0.00000000000E+00 -0.69498561748E+03  0.69498561748E+03  0.25500000920E-02 0. -1.
    10030    2    1    2    0    0  0.00000000000E+00  0.00000000000E+00  0.89310895123E+03  0.22830801862E+04  0.21011452919E+04 0.  0.
        1    1    3    3  502    0 -0.27491236611E+03  0.27500573648E+03  0.15070213294E+04  0.15563798544E+04  0.50400001928E-02 0.  1.
       -1    1    3    3    0  502  0.27491236611E+03 -0.27500573648E+03 -0.61391237813E+03  0.72670033176E+03  0.50400001928E-02 0. -1.
</event>
<event>
 5   0  0.2789662E-05  0.2103465E+04  0.7818609E-02  0.8559718E-01
        1   -1    0    0  501    0  0.00000000000E+00  0.00000000000E+00  0.16070959735E+04  0.16070959735E+04  0.50400001928E-02 0. -1.
       -1   -1    0    0    0  501  0.00000000000E+00  0.00000000000E+00 -0.68828606435E+03  0.68828606437E+03  0.50400001928E-02 0.  1.
    10030    2    1    2    0    0  0.00000000000E+00  0.00000000000E+00  0.91880990916E+03  0.22953820379E+04  0.21034654860E+04 0.  0.
        4    1    3    3  502    0  0.22759924415E+03 -0.10249053852E+04  0.52761987387E+03  0.11749965144E+04  0.12699999809E+01 0.  1.
       -4    1    3    3    0  502 -0.22759924415E+03  0.10249053852E+04  0.39119003529E+03  0.11203855235E+04  0.12699999809E+01 0. -1.
</event>
<event>
 5   0  0.2604390E-05  0.2267485E+04  0.7818609E-02  0.8490853E-01
       -1   -1    0    0    0  501  0.00000000000E+00  0.00000000000E+00  0.70793395836E+03  0.70793395838E+03  0.50400001928E-02 0.  1.
        1   -1    0    0  501    0  0.00000000000E+00  0.00000000000E+00 -0.18156661694E+04  0.18156661694E+04  0.50400001928E-02 0. -1.
    10030    2    1    2    0    0  0.00000000000E+00  0.00000000000E+00 -0.11077322110E+04  0.25236001278E+04  0.22674847196E+04 0.  0.
        5    1    3    3  502    0 -0.31794613363E+03 -0.58689972715E+03  0.46605442572E+03  0.81410678130E+03  0.46999998093E+01 0.  1.
       -5    1    3    3    0  502  0.31794613363E+03  0.58689972715E+03 -0.15737866367E+04  0.17094933465E+04  0.46999998093E+01 0. -1.
</event>
<event>
 5   0  0.5967046E-05  0.2121477E+04  0.7818609E-02  0.8551841E-01
        2   -1    0    0  501    0  0.00000000000E+00  0.00000000000E+00  0.59866551606E+03  0.59866551606E+03  0.25500000920E-02 0. -1.
       -2   -1    0    0    0  501  0.00000000000E+00  0.00000000000E+00 -0.18794566682E+04  0.18794566682E+04  0.25500000920E-02 0.  1.
    10030    2    1    2    0    0  0.00000000000E+00  0.00000000000E+00 -0.12807911521E+04  0.24781221843E+04  0.21214767462E+04 0.  0.
        4    1    3    3  502    0  0.66135114150E+03  0.40632662979E+03  0.20410780481E+03  0.80258848192E+03  0.12699999809E+01 0. -1.
       -4    1    3    3    0  502 -0.66135114150E+03 -0.40632662979E+03 -0.14848989569E+04  0.16755337023E+04  0.12699999809E+01 0.  1.
</event>
<event>
 5   0  0.5462851E-05  0.2071750E+04  0.7818609E-02  0.8573791E-01
        2   -1    0    0  501    0  0.00000000000E+00  0.00000000000E+00  0.95554028054E+03  0.95554028054E+03  0.25500000920E-02 0.  1.
       -2   -1    0    0    0  501  0.00000000000E+00  0.00000000000E+00 -0.11229641288E+04  0.11229641289E+04  0.25500000920E-02 0. -1.
    10030    2    1    2    0    0  0.00000000000E+00  0.00000000000E+00 -0.16742384831E+03  0.20785044094E+04  0.20717504278E+04 0.  0.
        1    1    3    3  502    0  0.82390779514E+03 -0.23741464294E+03  0.49942963087E+03  0.99228006319E+03  0.50400001928E-02 0.  1.
       -1    1    3    3    0  502 -0.82390779514E+03  0.23741464294E+03 -0.66685347918E+03  0.10862243462E+04  0.50400001928E-02 0. -1.
</event>
<event>
 5   0  0.5967046E-05  0.2098666E+04  0.7818609E-02  0.8561831E-01
       -2   -1    0    0    0  501  0.00000000000E+00  0.00000000000E+00  0.87552969420E+03  0.87552969420E+03  0.25500000920E-02 0. -1.
        2   -1    0    0  501    0  0.00000000000E+00  0.00000000000E+00 -0.12576380839E+04  0.12576380839E+04  0.25500000920E-02 0.  1.
    10030    2    1    2    0    0  0.00000000000E+00  0.00000000000E+00 -0.38210838966E+03  0.21331677781E+04  0.20986657542E+04 0.  0.
        4    1    3    3  502    0 -0.80669184208E+03  0.66947104404E+03 -0.23823570504E+03  0.10750353813E+04  0.12699999809E+01 0. -1.
       -4    1    3    3    0  502  0.80669184208E+03 -0.66947104404E+03 -0.14387268461E+03  0.10581323968E+04  0.12699999809E+01 0.  1.
</event>
<event>
 5   0  0.5866610E-05  0.2098625E+04  0.7818609E-02  0.8561849E-01
        2   -1    0    0  501    0  0.00000000000E+00  0.00000000000E+00  0.71171103940E+03  0.71171103940E+03  0.25500000920E-02 0. -1.
       -2   -1    0    0    0  501  0.00000000000E+00  0.00000000000E+00 -0.15470552994E+04  0.15470552994E+04  0.25500000920E-02 0.  1.
    10030    2    1    2    0    0  0.00000000000E+00  0.00000000000E+00 -0.83534426003E+03  0.22587663388E+04  0.20986246307E+04 0.  0.
        5    1    3    3  502    0  0.70075288851E+02 -0.10066613132E+04 -0.10804563067E+03  0.10148760978E+04  0.46999998093E+01 0.  1.
       -5    1    3    3    0  502 -0.70075288851E+02  0.10066613132E+04 -0.72729862936E+03  0.12438902411E+04  0.46999998093E+01 0. -1.
</event>
<event>
 5   0  0.5954140E-05  0.2066244E+04  0.7818609E-02  0.8576261E-01
        2   -1    0    0  501    0  0.00000000000E+00  0.00000000000E+00  0.18858785613E+04  0.18858785613E+04  0.25500000920E-02 0. -1.
       -2   -1    0    0    0  501  0.00000000000E+00  0.00000000000E+00 -0.56596489480E+03  0.56596489480E+03  0.25500000920E-02 0.  1.
    10030    2    1    2    0    0  0.00000000000E+00  0.00000000000E+00  0.13199136665E+04  0.24518434561E+04  0.20662439949E+04 0.  0.
        2    1    3    3  502    0 -0.38434536292E+03  0.15694858582E+03 -0.46262874786E+03  0.62159438136E+03  0.25500000920E-02 0.  1.
       -2    1    3    3    0  502  0.38434536292E+03 -0.15694858582E+03  0.17825424144E+04  0.18302490748E+04  0.25500000920E-02 0. -1.
</event>
<event>
 5   0  0.2732159E-05  0.2094387E+04  0.7818609E-02  0.8563720E-01
        1   -1    0    0  501    0  0.00000000000E+00  0.00000000000E+00  0.12520793632E+04  0.12520793632E+04  0.50400001928E-02 0. -1.
       -1   -1    0    0    0  501  0.00000000000E+00  0.00000000000E+00 -0.87583441022E+03  0.87583441024E+03  0.50400001928E-02 0.  1.
    10030    2    1    2    0    0  0.00000000000E+00  0.00000000000E+00  0.37624495295E+03  0.21279137734E+04  0.20943869658E+04 0.  0.
        3    1    3    3  502    0 -0.47186054134E+03  0.19461079367E+03 -0.74089356039E+03  0.89969384210E+03  0.10100000352E+00 0.  1.
       -3    1    3    3    0  502  0.47186054134E+03 -0.19461079367E+03  0.11171385133E+04  0.12282199313E+04  0.10100000352E+00 0. -1.
</event>
<event>
 5   0  0.5462851E-05  0.2103624E+04  0.7818609E-02  0.8559649E-01
        2   -1    0    0  501    0  0.00000000000E+00  0.00000000000E+00  0.77660945370E+03  0.77660945371E+03  0.25500000920E-02 0. -1.
       -2   -1    0    0    0  501  0.00000000000E+00  0.00000000000E+00 -0.14245364515E+04  0.14245364515E+04  0.25500000920E-02 0.  1.
    10030    2    1    2    0    0  0.00000000000E+00  0.00000000000E+00 -0.64792699778E+03  0.22011459052E+04  0.21036239924E+04 0.  0.
        1    1    3    3  502    0  0.25935934523E+03  0.36737269849E+03 -0.13188734800E+04  0.13934336101E+04  0.50400001928E-02 0.  1.
       -1    1    3    3    0  502 -0.25935934523E+03 -0.36737269849E+03  0.67094648222E+03  0.80771229506E+03  0.50400001928E-02 0. -1.
</event>
<event>
 5   0  0.2789662E-05  0.2097974E+04  0.7818609E-02  0.8562136E-01
        1   -1    0    0  501    0  0.00000000000E+00  0.00000000000E+00  0.97182158971E+03  0.97182158972E+03  0.50400001928E-02 0.  1.
       -1   -1    0    0    0  501  0.00000000000E+00  0.00000000000E+00 -0.11322798531E+04  0.11322798531E+04  0.50400001928E-02 0. -1.
    10030    2    1    2    0    0  0.00000000000E+00  0.00000000000E+00 -0.16045826337E+03  0.21041014428E+04  0.20979742676E+04 0.  0.
        4    1    3    3  502    0  0.55987637662E+03 -0.18169828990E+01  0.80943968606E+03  0.98420479413E+03  0.12699999809E+01 0.  1.
       -4    1    3    3    0  502 -0.55987637662E+03  0.18169828990E+01 -0.96989794943E+03  0.11198966487E+04  0.12699999809E+01 0. -1.
</event>
<event>
 5   0  0.2789662E-05  0.2096497E+04  0.7818609E-02  0.8562788E-01
       -1   -1    0    0    0  501  0.00000000000E+00  0.00000000000E+00  0.57764086583E+03  0.57764086585E+03  0.50400001928E-02 0. -1.
        1   -1    0    0  501    0  0.00000000000E+00  0.00000000000E+00 -0.19022637460E+04  0.19022637460E+04  0.50400001928E-02 0.  1.
    10030    2    1    2    0    0  0.00000000000E+00  0.00000000000E+00 -0.13246228802E+04  0.24799046119E+04  0.20964973430E+04 0.  0.
        4    1    3    3  502    0  0.24117823162E+03 -0.45589946983E+03  0.41716769136E+03  0.66335643633E+03  0.12699999809E+01 0. -1.
       -4    1    3    3    0  502 -0.24117823162E+03  0.45589946983E+03 -0.17417905715E+04  0.18165481755E+04  0.12699999809E+01 0.  1.
</event>
<event>
 5   0  0.5506332E-05  0.2102997E+04  0.7818609E-02  0.8559924E-01
       -2   -1    0    0    0  501  0.00000000000E+00  0.00000000000E+00  0.10314890625E+04  0.10314890625E+04  0.25500000920E-02 0.  1.
        2   -1    0    0  501    0  0.00000000000E+00  0.00000000000E+00 -0.10718965262E+04  0.10718965262E+04  0.25500000920E-02 0. -1.
    10030    2    1    2    0    0  0.00000000000E+00  0.00000000000E+00 -0.40407463735E+02  0.21033855887E+04  0.21029974255E+04 0.  0.
        3    1    3    3  502    0  0.28285146610E+03  0.10103876703E+04  0.48811443009E+02  0.10503669661E+04  0.10100000352E+00 0.  1.
       -3    1    3    3    0  502 -0.28285146610E+03 -0.10103876703E+04 -0.89218906744E+02  0.10530186227E+04  0.10100000352E+00 0. -1.
</event>
<event>
 5   0  0.5866610E-05  0.2026492E+04  0.7818609E-02  0.8594334E-01
       -2   -1    0    0    0  501  0.00000000000E+00  0.00000000000E+00  0.10692288493E+04  0.10692288493E+04  0.25500000920E-02 0.  1.
        2   -1    0    0  501    0  0.00000000000E+00  0.00000000000E+00 -0.96019434009E+03  0.96019434009E+03  0.25500000920E-02 0. -1.
    10030    2    1    2    0    0  0.00000000000E+00  0.00000000000E+00  0.10903450921E+03  0.20294231894E+04  0.20264920324E+04 0.  0.
        5    1    3    3  502    0  0.21555270331E+03  0.10227401614E+03  0.10406864775E+04  0.10676953577E+04  0.46999998093E+01 0.  1.
       -5    1    3    3    0  502 -0.21555270331E+03 -0.10227401614E+03 -0.93165196830E+03  0.96172783173E+03  0.46999998093E+01 0. -1.
</event>
<event>
 5   0  0.5866610E-05  0.2105243E+04  0.7818609E-02  0.8558937E-01
        2   -1    0    0  501    0  0.00000000000E+00  0.00000000000E+00  0.11137654702E+04  0.11137654702E+04  0.25500000920E-02 0.  1.
       -2   -1    0    0    0  501  0.00000000000E+00  0.00000000000E+00 -0.99483403334E+03  0.99483403334E+03  0.25500000920E-02 0. -1.
    10030    2    1    2    0    0  0.00000000000E+00  0.00000000000E+00  0.11893143686E+03  0.21085995035E+04  0.21052427840E+04 0.  0.
        5    1    3    3  502    0 -0.98483739644E+03 -0.22120763321E+03 -0.23959400112E+03  0.10374318724E+04  0.46999998093E+01 0. -1.
       -5    1    3    3    0  502  0.98483739644E+03  0.22120763321E+03  0.35852543798E+03  0.10711676312E+04  0.46999998093E+01 0.  1.
</event>
<event>
 5   0  0.5462851E-05  0.2086056E+04  0.7818609E-02  0.8567411E-01
        2   -1    0    0  501    0  0.00000000000E+00  0.00000000000E+00  0.10985338972E+04  0.10985338972E+04  0.25500000920E-02 0.  1.
       -2   -1    0    0    0  501  0.00000000000E+00  0.00000000000E+00 -0.99032641217E+03  0.99032641217E+03  0.25500000920E-02 0. -1.
    10030    2    1    2    0    0  0.00000000000E+00  0.00000000000E+00  0.10820748505E+03  0.20888603094E+04  0.20860557357E+04 0.  0.
        1    1    3    3  502    0 -0.47574363016E+03  0.81551011674E+03 -0.38979618976E+03  0.10214351774E+04  0.50400001928E-02 0.  1.
       -1    1    3    3    0  502  0.47574363016E+03 -0.81551011674E+03  0.49800367481E+03  0.10674251319E+04  0.50400001928E-02 0. -1.
</event>
<event>
 5   0  0.2602060E-05  0.2098687E+04  0.7818609E-02  0.8561822E-01
       -1   -1    0    0    0  501  0.00000000000E+00  0.00000000000E+00  0.84403091474E+03  0.84403091476E+03  0.50400001928E-02 0. -1.
        1   -1    0    0  501    0  0.00000000000E+00  0.00000000000E+00 -0.13045988422E+04  0.13045988422E+04  0.50400001928E-02 0.  1.
    10030    2    1    2    0    0  0.00000000000E+00  0.00000000000E+00 -0.46056792742E+03  0.21486297569E+04  0.20986869744E+04 0.  0.
        1    1    3    3  502    0  0.18008669323E+03 -0.65089740742E+02  0.82599186122E+03  0.84789766261E+03  0.50400001928E-02 0. -1.
       -1    1    3    3    0  502 -0.18008669323E+03  0.65089740742E+02 -0.12865597886E+04  0.13007320943E+04  0.50400001928E-02 0.  1.
</event>
<event>
 5   0  0.2017750E-05  0.2095077E+04  0.7818609E-02  0.8563415E-01
       -3   -1    0    0    0  501  0.00000000000E+00  0.00000000000E+00  0.14453388635E+04  0.14453388671E+04  0.10100000352E+00 0. -1.
        3   -1    0    0  501    0  0.00000000000E+00  0.00000000000E+00 -0.75922464931E+03  0.75922465603E+03  0.10100000352E+00 0.  1.
    10030    2    1    2    0    0  0.00000000000E+00  0.00000000000E+00  0.68611421423E+03  0.22045635231E+04  0.20950769944E+04 0.  0.
        1    1    3    3  502    0 -0.84583568451E+03  0.44247055387E+03  0.79701716474E+03  0.12435652605E+04  0.50400001928E-02 0. -1.
       -1    1    3    3    0  502  0.84583568451E+03 -0.44247055387E+03 -0.11090295051E+03  0.96099826259E+03  0.50400001928E-02 0.  1.
</event>
<event>
 5   0  0.5866610E-05  0.2100547E+04  0.7818609E-02  0.8561002E-01
        2   -1    0    0  501    0  0.00000000000E+00  0.00000000000E+00  0.19740151329E+04  0.19740151329E+04  0.25500000920E-02 0.  1.
       -2   -1    0    0    0  501  0.00000000000E+00  0.00000000000E+00 -0.55879738792E+03  0.55879738793E+03  0.25500000920E-02 0. -1.
    10030    2    1    2    0    0  0.00000000000E+00  0.00000000000E+00  0.14152177449E+04  0.25328125208E+04  0.21005470716E+04 0.  0.
        5    1    3    3  502    0 -0.61823381931E+03 -0.62773555940E+03  0.18316786127E+02  0.88126192617E+03  0.46999998093E+01 0. -1.
       -5    1    3    3    0  502  0.61823381931E+03  0.62773555940E+03  0.13969009588E+04  0.16515505946E+04  0.46999998093E+01 0.  1.
</event>
<event>
 5   0  0.5954140E-05  0.2103330E+04  0.7818609E-02  0.8559778E-01
        2   -1    0    0  501    0  0.00000000000E+00  0.00000000000E+00  0.12141208336E+04  0.12141208336E+04  0.25500000920E-02 0. -1.
       -2   -1    0    0    0  501  0.00000000000E+00  0.00000000000E+00 -0.91094639663E+03  0.91094639663E+03  0.25500000920E-02 0.  1.
    10030    2    1    2    0    0  0.00000000000E+00  0.00000000000E+00  0.30317443700E+03  0.21250672303E+04  0.21033297397E+04 0.  0.
        2    1    3    3  502    0 -0.15207238374E+03 -0.42242791576E+03  0.11124297659E+04  0.11996129951E+04  0.25500000920E-02 0. -1.
       -2    1    3    3    0  502  0.15207238374E+03  0.42242791576E+03 -0.80925532895E+03  0.92545423514E+03  0.25500000920E-02 0.  1.
</event>
<event>
 5   0  0.5506332E-05  0.2102892E+04  0.7818609E-02  0.8559971E-01
        2   -1    0    0  501    0  0.00000000000E+00  0.00000000000E+00  0.86870266157E+03  0.86870266157E+03  0.25500000920E-02 0. -1.
       -2   -1    0    0    0  501  0.00000000000E+00  0.00000000000E+00 -0.12726318449E+04  0.12726318449E+04  0.25500000920E-02 0.  1.
    10030    2    1    2    0    0  0.00000000000E+00  0.00000000000E+00 -0.40392918332E+03  0.21413345065E+04  0.21028919809E+04 0.  0.
        3    1    3    3  502    0  0.90946749328E+03  0.29577981626E+03  0.24296916427E+03  0.98673747574E+03  0.10100000352E+00 0.  1.
       -3    1    3    3    0  502 -0.90946749328E+03 -0.29577981626E+03 -0.64689834759E+03  0.11545970307E+04  0.10100000352E+00 0. -1.
</event>
<event>
 5   0  0.2602060E-05  0.2105232E+04  0.7818609E-02  0.8558942E-01
       -1   -1    0    0    0  501  0.00000000000E+00  0.00000000000E+00  0.13900948401E+04  0.13900948401E+04  0.50400001928E-02 0.  1.
        1   -1    0    0  501    0  0.00000000000E+00  0.00000000000E+00 -0.79706838984E+03  0.79706838986E+03  0.50400001928E-02 0. -1.
    10030    2    1    2    0    0  0.00000000000E+00  0.00000000000E+00  0.59302645024E+03  0.21871632299E+04  0.21052322019E+04 0.  0.
        1    1    3    3  502    0 -0.87928987363E+03 -0.71010261978E+00  0.89769526738E+03  0.12565858424E+04  0.50400001928E-02 0.  1.
       -1    1    3    3    0  502  0.87928987363E+03  0.71010261978E+00 -0.30466881714E+03  0.93057738758E+03  0.50400001928E-02 0. -1.
</event>
<event>
 5   0  0.5506332E-05  0.2101309E+04  0.7818609E-02  0.8560667E-01
       -2   -1    0    0    0  501  0.00000000000E+00  0.00000000000E+00  0.54275402158E+03  0.54275402159E+03  0.25500000920E-02 0. -1.
        2   -1    0    0  501    0  0.00000000000E+00  0.00000000000E+00 -0.20338407240E+04  0.20338407240E+04  0.25500000920E-02 0.  1.
    10030    2    1    2    0    0  0.00000000000E+00  0.00000000000E+00 -0.14910867024E+04  0.25765947456E+04  0.21013093368E+04 0.  0.
        3    1    3    3  502    0 -0.78843217164E+03 -0.69326228143E+03 -0.79515981576E+03  0.13170106389E+04  0.10100000352E+00 0.  1.
       -3    1    3    3    0  502  0.78843217164E+03  0.69326228143E+03 -0.69592688668E+03  0.12595841067E+04  0.10100000352E+00 0. -1.
</event>
<event>
 5   0  0.5866610E-05  0.2111448E+04  0.7818609E-02  0.8556217E-01
        2   -1    0    0  501    0  0.00000000000E+00  0.00000000000E+00  0.58934846120E+03  0.58934846120E+03  0.25500000920E-02 0.  1.
       -2   -1    0    0    0  501  0.00000000000E+00  0.00000000000E+00 -0.18911621882E+04  0.18911621882E+04  0.25500000920E-02 0. -1.
    10030    2    1    2    0    0  0.00000000000E+00  0.00000000000E+00 -0.13018137270E+04  0.24805106494E+04  0.21114483423E+04 0.  0.
        5    1    3    3  502    0  0.32263222412E+02 -0.11093123803E+03  0.58188777071E+03  0.59326395710E+03  0.46999998093E+01 0.  1.
       -5    1    3    3    0  502 -0.32263222412E+02  0.11093123803E+03 -0.18837014977E+04  0.18872466923E+04  0.46999998093E+01 0. -1.
</event>
<event>
 5   0  0.2602060E-05  0.2101495E+04  0.7818609E-02  0.8560585E-01
       -1   -1    0    0    0  501  0.00000000000E+00  0.00000000000E+00  0.13411226377E+04  0.13411226377E+04  0.50400001928E-02 0. -1.
        1   -1    0    0  501    0  0.00000000000E+00  0.00000000000E+00 -0.82324333469E+03  0.82324333471E+03  0.50400001928E-02 0.  1.
    10030    2    1    2    0    0  0.00000000000E+00  0.00000000000E+00  0.51787930298E+03  0.21643659724E+04  0.21014949655E+04 0.  0.
        1    1    3    3  502    0  0.89372825299E+03 -0.16586555774E+03 -0.28390462589E+03  0.95229376248E+03  0.50400001928E-02 0.  1.
       -1    1    3    3    0  502 -0.89372825299E+03  0.16586555774E+03  0.80178392886E+03  0.12120722099E+04  0.50400001928E-02 0. -1.
</event>
<event>
 5   0  0.2699285E-05  0.2105051E+04  0.7818609E-02  0.8559022E-01
       -1   -1    0    0    0  501  0.00000000000E+00  0.00000000000E+00  0.78907063639E+03  0.78907063640E+03  0.50400001928E-02 0. -1.
        1   -1    0    0  501    0  0.00000000000E+00  0.00000000000E+00 -0.14039420636E+04  0.14039420636E+04  0.50400001928E-02 0.  1.
    10030    2    1    2    0    0  0.00000000000E+00  0.00000000000E+00 -0.61487142717E+03  0.21930127000E+04  0.21050505529E+04 0.  0.
        2    1    3    3  502    0 -0.83128844221E+03 -0.36456210768E+03  0.24761588469E+03  0.94088236824E+03  0.25500000920E-02 0. -1.
       -2    1    3    3    0  502  0.83128844221E+03  0.36456210768E+03 -0.86248731186E+03  0.12521303317E+04  0.25500000920E-02 0.  1.
</event>
<event>
 5   0  0.5967046E-05  0.2109492E+04  0.7818609E-02  0.8557074E-01
       -2   -1    0    0    0  501  0.00000000000E+00  0.00000000000E+00  0.71908188373E+03  0.71908188374E+03  0.25500000920E-02 0.  1.
        2   -1    0    0  501    0  0.00000000000E+00  0.00000000000E+00 -0.15470962428E+04  0.15470962428E+04  0.25500000920E-02 0. -1.
    10030    2    1    2    0    0  0.00000000000E+00  0.00000000000E+00 -0.82801435907E+03  0.22661781265E+04  0.21094917687E+04 0.  0.
        4    1    3    3  502    0  0.15063307751E+03  0.31245364372E+03 -0.14840697677E+04  0.15240676795E+04  0.12699999809E+01 0. -1.
       -4    1    3    3    0  502 -0.15063307751E+03 -0.31245364372E+03  0.65605540861E+03  0.74211044702E+03  0.12699999809E+01 0.  1.
</event>
<event>
 5   0  0.5967046E-05  0.2128096E+04  0.7818609E-02  0.8548967E-01
       -2   -1    0    0    0  501  0.00000000000E+00  0.00000000000E+00  0.73706032078E+03  0.73706032079E+03  0.25500000920E-02 0. -1.
        2   -1    0    0  501    0  0.00000000000E+00  0.00000000000E+00 -0.15360999873E+04  0.15360999873E+04  0.25500000920E-02 0.  1.
    10030    2    1    2    0    0  0.00000000000E+00  0.00000000000E+00 -0.79903966649E+03  0.22731603081E+04  0.21280961908E+04 0.  0.
        4    1    3    3  502    0 -0.99611607841E+02 -0.10332175138E+04 -0.64942467863E+03  0.12244243257E+04  0.12699999809E+01 0.  1.
       -4    1    3    3    0  502  0.99611607841E+02  0.10332175138E+04 -0.14961498786E+03  0.10487359824E+04  0.12699999809E+01 0. -1.
</event>
<event>
 5   0  0.5954140E-05  0.2101163E+04  0.7818609E-02  0.8560731E-01
       -2   -1    0    0    0  501  0.00000000000E+00  0.00000000000E+00  0.14017155702E+04  0.14017155702E+04  0.25500000920E-02 0. -1.
        2   -1    0    0  501    0  0.00000000000E+00  0.00000000000E+00 -0.78740725379E+03  0.78740725379E+03  0.25500000920E-02 0.  1.
    10030    2    1    2    0    0  0.00000000000E+00  0.00000000000E+00  0.61430831645E+03  0.21891228240E+04  0.21011625427E+04 0.  0.
        2    1    3    3  502    0 -0.54550365403E+03  0.74791497247E+03 -0.21040098506E+03  0.94932587509E+03  0.25500000920E-02 0.  1.
       -2    1    3    3    0  502  0.54550365403E+03 -0.74791497247E+03  0.82470930151E+03  0.12397969489E+04  0.25500000920E-02 0. -1.
</event>
<event>
 5   0  0.5462851E-05  0.2105286E+04  0.7818609E-02  0.8558918E-01
       -2   -1    0    0    0  501  0.00000000000E+00  0.00000000000E+00  0.65382066513E+03  0.65382066514E+03  0.25500000920E-02 0.  1.
        2   -1    0    0  501    0  0.00000000000E+00  0.00000000000E+00 -0.16947424555E+04  0.16947424555E+04  0.25500000920E-02 0. -1.
    10030    2    1    2    0    0  0.00000000000E+00  0.00000000000E+00 -0.10409217904E+04  0.23485631207E+04  0.21052863364E+04 0.  0.
        1    1    3    3  502    0  0.25519254404E+03 -0.44992645054E+03  0.50226694306E+03  0.72099176662E+03  0.50400001928E-02 0.  1.
       -1    1    3    3    0  502 -0.25519254404E+03  0.44992645054E+03 -0.15431887335E+04  0.16275713541E+04  0.50400001928E-02 0. -1.
</event>
<event>
 5   0  0.5967046E-05  0.2102947E+04  0.7818609E-02  0.8559947E-01
       -2   -1    0    0    0  501  0.00000000000E+00  0.00000000000E+00  0.77055940758E+03  0.77055940758E+03  0.25500000920E-02 0.  1.
        2   -1    0    0  501    0  0.00000000000E+00  0.00000000000E+00 -0.14347966464E+04  0.14347966464E+04  0.25500000920E-02 0. -1.
    10030    2    1    2    0    0  0.00000000000E+00  0.00000000000E+00 -0.66423723880E+03  0.22053560540E+04  0.21029465555E+04 0.  0.
        4    1    3    3  502    0 -0.12878176648E+03 -0.95323717880E+03 -0.77747414220E+03  0.12368158784E+04  0.12699999809E+01 0. -1.
       -4    1    3    3    0  502  0.12878176648E+03  0.95323717880E+03  0.11323690341E+03  0.96854017553E+03  0.12699999809E+01 0.  1.
</event>
<event>
 5   0  0.5506332E-05  0.2097805E+04  0.7818609E-02  0.8562211E-01
       -2   -1    0    0    0  501  0.00000000000E+00  0.00000000000E+00  0.10631048969E+04  0.10631048969E+04  0.25500000920E-02 0.  1.
        2   -1    0    0  501    0  0.00000000000E+00  0.00000000000E+00 -0.10348901763E+04  0.10348901763E+04  0.25500000920E-02 0. -1.
    10030    2    1    2    0    0  0.00000000000E+00  0.00000000000E+00  0.28214720584E+02  0.20979950732E+04  0.20978053429E+04 0.  0.
        3    1    3    3  502    0  0.20464042316E+03  0.72796420066E+03 -0.71286086814E+03  0.10392209620E+04  0.10100000352E+00 0. -1.
       -3    1    3    3    0  502 -0.20464042316E+03 -0.72796420066E+03  0.74107558872E+03  0.10587741112E+04  0.10100000352E+00 0.  1.
</event>
<event>
 5   0  0.2732159E-05  0.2101006E+04  0.7818609E-02  0.8560801E-01
        1   -1    0    0  501    0  0.00000000000E+00  0.00000000000E+00  0.85827799112E+03  0.85827799113E+03  0.50400001928E-02 0.  1.
       -1   -1    0    0    0  501  0.00000000000E+00  0.00000000000E+00 -0.12857793992E+04  0.12857793992E+04  0.50400001928E-02 0. -1.
    10030    2    1    2    0    0  0.00000000000E+00  0.00000000000E+00 -0.42750140808E+03  0.21440573903E+04  0.21010056257E+04 0.  0.
        3    1    3    3  502    0 -0.60405023819E+03 -0.35574298968E+03 -0.10121676397E+04  0.12312242306E+04  0.10100000352E+00 0. -1.
       -3    1    3    3    0  502  0.60405023819E+03  0.35574298968E+03  0.58466623161E+03  0.91283315975E+03  0.10100000352E+00 0.  1.
</event>
<event>
 5   0  0.2732159E-05  0.2112437E+04  0.7818609E-02  0.8555784E-01
        1   -1    0    0  501    0  0.00000000000E+00  0.00000000000E+00  0.14866532488E+04  0.14866532488E+04  0.50400001928E-02 0. -1.
       -1   -1    0    0    0  501  0.00000000000E+00  0.00000000000E+00 -0.75040873553E+03  0.75040873555E+03  0.50400001928E-02 0.  1.
    10030    2    1    2    0    0  0.00000000000E+00  0.00000000000E+00  0.73624451325E+03  0.22370619843E+04  0.21124370614E+04 0.  0.
        3    1    3    3  502    0 -0.95831989837E+03 -0.27541576774E+03  0.73705229252E+03  0.12399503881E+04  0.10100000352E+00 0. -1.
       -3    1    3    3    0  502  0.95831989837E+03  0.27541576774E+03 -0.80777927176E+00  0.99711159628E+03  0.10100000352E+00 0.  1.
</event>
<event>
 5   0  0.2789662E-05  0.2095076E+04  0.7818609E-02  0.8563416E-01
        1   -1    0    0  501    0  0.00000000000E+00  0.00000000000E+00  0.12384234399E+04  0.12384234399E+04  0.50400001928E-02 0.  1.
       -1   -1    0    0    0  501  0.00000000000E+00  0.00000000000E+00 -0.88607466646E+03  0.88607466648E+03  0.50400001928E-02 0. -1.
    10030    2    1    2    0    0  0.00000000000E+00  0.00000000000E+00  0.35234877340E+03  0.21244981063E+04  0.20950757852E+04 0.  0.
        4    1    3    3  502    0  0.80171021782E+03  0.84830200414E+02 -0.50209765397E+03  0.94975739180E+03  0.12699999809E+01 0. -1.
       -4    1    3    3    0  502 -0.80171021782E+03 -0.84830200414E+02  0.85444642736E+03  0.11747407145E+04  0.12699999809E+01 0.  1.
</event>
<event>
 5   0  0.2602060E-05  0.2100109E+04  0.7818609E-02  0.8561195E-01
        1   -1    0    0  501    0  0.00000000000E+00  0.00000000000E+00  0.91466891688E+03  0.91466891690E+03  0.50400001928E-02 0.  1.
       -1   -1    0    0    0  501  0.00000000000E+00  0.00000000000E+00 -0.12054792220E+04  0.12054792220E+04  0.50400001928E-02 0. -1.
    10030    2    1    2    0    0  0.00000000000E+00  0.00000000000E+00 -0.29081030511E+03  0.21201481389E+04  0.21001089251E+04 0.  0.
        1    1    3    3  502    0 -0.36550610307E+03 -0.43245354237E+03  0.74734259193E+03  0.93762024691E+03  0.50400001928E-02 0.  1.
       -1    1    3    3    0  502  0.36550610307E+03  0.43245354237E+03 -0.10381528970E+04  0.11825278920E+04  0.50400001928E-02 0. -1.
</event>
<event>
 5   0  0.5462851E-05  0.2089361E+04  0.7818609E-02  0.8565945E-01
       -2   -1    0    0    0  501  0.00000000000E+00  0.00000000000E+00  0.12059649749E+04  0.12059649749E+04  0.25500000920E-02 0.  1.
        2   -1    0    0  501    0  0.00000000000E+00  0.00000000000E+00 -0.90496593666E+03  0.90496593666E+03  0.25500000920E-02 0. -1.
    10030    2    1    2    0    0  0.00000000000E+00  0.00000000000E+00  0.30099903828E+03  0.21109309116E+04  0.20893608813E+04 0.  0.
        1    1    3    3  502    0  0.81652324003E+03  0.64949427980E+03  0.20400092761E+03  0.10630942571E+04  0.50400001928E-02 0.  1.
       -1    1    3    3    0  502 -0.81652324003E+03 -0.64949427980E+03  0.96998110671E+02  0.10478366545E+04  0.50400001928E-02 0. -1.
</event>
<event>
 5   0  0.5967046E-05  0.2107445E+04  0.7818609E-02  0.8557971E-01
        2   -1    0    0  501    0  0.00000000000E+00  0.00000000000E+00  0.13748816944E+04  0.13748816945E+04  0.25500000920E-02 0. -1.
       -2   -1    0    0    0  501  0.00000000000E+00  0.00000000000E+00 -0.80758324462E+03  0.80758324463E+03  0.25500000920E-02 0.  1.
    10030    2    1    2    0    0  0.00000000000E+00  0.00000000000E+00  0.56729844983E+03  0.21824649391E+04  0.21074452968E+04 0.  0.
        4    1    3    3  502    0 -0.34779549749E+03 -0.19586251142E+03  0.12935590283E+04  0.13537431086E+04  0.12699999809E+01 0. -1.
       -4    1    3    3    0  502  0.34779549749E+03  0.19586251142E+03 -0.72626057852E+03  0.82872183045E+03  0.12699999809E+01 0.  1.
</event>
<event>
 5   0  0.5954140E-05  0.2118226E+04  0.7818609E-02  0.8553257E-01
       -2   -1    0    0    0  501  0.00000000000E+00  0.00000000000E+00  0.61364192684E+03  0.61364192685E+03  0.25500000920E-02 0.  1.
        2   -1    0    0  501    0  0.00000000000E+00  0.00000000000E+00 -0.18279716598E+04  0.18279716598E+04  0.25500000920E-02 0. -1.
    10030    2    1    2    0    0  0.00000000000E+00  0.00000000000E+00 -0.12143297330E+04  0.24416135867E+04  0.21182257213E+04 0.  0.
        2    1    3    3  502    0  0.96415911007E+03  0.36914566680E+03 -0.87956754925E+03  0.13562855107E+04  0.25500000920E-02 0.  1.
       -2    1    3    3    0  502 -0.96415911007E+03 -0.36914566680E+03 -0.33476218374E+03  0.10853280760E+04  0.25500000920E-02 0. -1.
</event>
<event>
 5   0  0.2017750E-05  0.2106188E+04  0.7818609E-02  0.8558522E-01
        3   -1    0    0  501    0  0.00000000000E+00  0.00000000000E+00  0.20795506919E+04  0.20795506944E+04  0.10100000352E+00 0. -1.
       -3   -1    0    0    0  501  0.00000000000E+00  0.00000000000E+00 -0.53329161469E+03  0.53329162426E+03  0.10100000352E+00 0.  1.
    10030    2    1    2    0    0  0.00000000000E+00  0.00000000000E+00  0.15462590772E+04  0.26128423186E+04  0.21061879897E+04 0.  0.
        2    1    3    3  502    0 -0.26659960876E+02 -0.84644751047E+03  0.15496643558E+04  0.17659682209E+04  0.25500000920E-02 0. -1.
       -2    1    3    3    0  502  0.26659960876E+02  0.84644751047E+03 -0.34052785994E+01  0.84687409774E+03  0.25500000920E-02 0.  1.
</event>
<event>
 5   0  0.2732159E-05  0.2103205E+04  0.7818609E-02  0.8559833E-01
       -1   -1    0    0    0  501  0.00000000000E+00  0.00000000000E+00  0.63221017373E+03  0.63221017375E+03  0.50400001928E-02 0.  1.
        1   -1    0    0  501    0  0.00000000000E+00  0.00000000000E+00 -0.17492087948E+04  0.17492087948E+04  0.50400001928E-02 0. -1.
    10030    2    1    2    0    0  0.00000000000E+00  0.00000000000E+00 -0.11169986211E+04  0.23814189686E+04  0.21032047890E+04 0.  0.
        3    1    3    3  502    0 -0.11627706166E+03  0.52002185332E+03 -0.15850259173E+04  0.16721992261E+04  0.10100000352E+00 0. -1.
       -3    1    3    3    0  502  0.11627706166E+03 -0.52002185332E+03  0.46802729619E+03  0.70921974251E+03  0.10100000352E+00 0.  1.
</event>
<event>
 5   0  0.5462851E-05  0.2100545E+04  0.7818609E-02  0.8561003E-01
        2   -1    0    0  501    0  0.00000000000E+00  0.00000000000E+00  0.20329033483E+04  0.20329033483E+04  0.25500000920E-02 0. -1.
       -2   -1    0    0    0  501  0.00000000000E+00  0.00000000000E+00 -0.54260936208E+03  0.54260936209E+03  0.25500000920E-02 0.  1.
    10030    2    1    2    0    0  0.00000000000E+00  0.00000000000E+00  0.14902939863E+04  0.25755127104E+04  0.21005450617E+04 0.  0.
        1    1    3    3  502    0 -0.23886720288E+03 -0.84434681472E+03  0.14527906965E+04  0.16972271185E+04  0.50400001928E-02 0. -1.
       -1    1    3    3    0  502  0.23886720288E+03  0.84434681472E+03  0.37503289788E+02  0.87828559188E+03  0.50400001928E-02 0.  1.
</event>
<event>
 5   0  0.2789662E-05  0.2110759E+04  0.7818609E-02  0.8556519E-01
       -1   -1    0    0    0  501  0.00000000000E+00  0.00000000000E+00  0.67504534199E+03  0.67504534201E+03  0.50400001928E-02 0. -1.
        1   -1    0    0  501    0  0.00000000000E+00  0.00000000000E+00 -0.16500015216E+04  0.16500015216E+04  0.50400001928E-02 0.  1.
    10030    2    1    2    0    0  0.00000000000E+00  0.00000000000E+00 -0.97495617962E+03  0.23250468636E+04  0.21107589549E+04 0.  0.
        4    1    3    3  502    0 -0.24089108769E+03  0.10214590780E+04 -0.61022273046E+03  0.12139936399E+04  0.12699999809E+01 0.  1.
       -4    1    3    3    0  502  0.24089108769E+03 -0.10214590780E+04 -0.36473344915E+03  0.11110532237E+04  0.12699999809E+01 0. -1.
</event>
<event>
 5   0  0.2732159E-05  0.2103677E+04  0.7818609E-02  0.8559625E-01
       -1   -1    0    0    0  501  0.00000000000E+00  0.00000000000E+00  0.80010632216E+03  0.80010632217E+03  0.50400001928E-02 0.  1.
        1   -1    0    0  501    0  0.00000000000E+00  0.00000000000E+00 -0.13827718873E+04  0.13827718873E+04  0.50400001928E-02 0. -1.
    10030    2    1    2    0    0  0.00000000000E+00  0.00000000000E+00 -0.58266556517E+03  0.21828782095E+04  0.21036772843E+04 0.  0.
        3    1    3    3  502    0 -0.57659883463E+03 -0.31853001458E+03  0.55956260080E+03  0.86431354305E+03  0.10100000352E+00 0.  1.
       -3    1    3    3    0  502  0.57659883463E+03  0.31853001458E+03 -0.11422281660E+04  0.13185646665E+04  0.10100000352E+00 0. -1.
</event>
<event>
 5   0  0.2602060E-05  0.2090400E+04  0.7818609E-02  0.8565484E-01
       -1   -1    0    0    0  501  0.00000000000E+00  0.00000000000E+00  0.10548590945E+04  0.10548590945E+04  0.50400001928E-02 0. -1.
        1   -1    0    0  501    0  0.00000000000E+00  0.00000000000E+00 -0.10356294699E+04  0.10356294699E+04  0.50400001928E-02 0.  1.
    10030    2    1    2    0    0  0.00000000000E+00  0.00000000000E+00  0.19229624571E+02  0.20904885645E+04  0.20904001195E+04 0.  0.
        1    1    3    3  502    0 -0.22965245867E+03  0.68990512438E+03  0.76046868402E+03  0.10521511069E+04  0.50400001928E-02 0. -1.
       -1    1    3    3    0  502  0.22965245867E+03 -0.68990512438E+03 -0.74123905945E+03  0.10383374575E+04  0.50400001928E-02 0.  1.
</event>
<event>
 5   0  0.2017750E-05  0.2366622E+04  0.7818609E-02  0.8452106E-01
       -3   -1    0    0    0  501  0.00000000000E+00  0.00000000000E+00  0.19358820734E+04  0.19358820760E+04  0.10100000352E+00 0.  1.
        3   -1    0    0  501    0  0.00000000000E+00  0.00000000000E+00 -0.72330079660E+03  0.72330080366E+03  0.10100000352E+00 0. -1.
    10030    2    1    2    0    0  0.00000000000E+00  0.00000000000E+00  0.12125812768E+04  0.26591828797E+04  0.23666221149E+04 0.  0.
        2    1    3    3  502    0 -0.35753412170E+03  0.98507371620E+03  0.12237951678E+04  0.16111720850E+04  0.25500000920E-02 0.  1.
       -2    1    3    3    0  502  0.35753412170E+03 -0.98507371620E+03 -0.11213891030E+02  0.10480107947E+04  0.25500000920E-02 0. -1.
</event>
<event>
 5   0  0.2732159E-05  0.2082734E+04  0.7818609E-02  0.8568887E-01
       -1   -1    0    0    0  501  0.00000000000E+00  0.00000000000E+00  0.13151949515E+04  0.13151949515E+04  0.50400001928E-02 0. -1.
        1   -1    0    0  501    0  0.00000000000E+00  0.00000000000E+00 -0.82455114976E+03  0.82455114978E+03  0.50400001928E-02 0.  1.
    10030    2    1    2    0    0  0.00000000000E+00  0.00000000000E+00  0.49064380173E+03  0.21397461013E+04  0.20827342696E+04 0.  0.
        3    1    3    3  502    0  0.86296617649E+03  0.43949810628E+02 -0.35179631385E+03  0.93295383823E+03  0.10100000352E+00 0.  1.
       -3    1    3    3    0  502 -0.86296617649E+03 -0.43949810628E+02  0.84244011558E+03  0.12067922631E+04  0.10100000352E+00 0. -1.
</event>
<event>
 5   0  0.5967046E-05  0.2107133E+04  0.7818609E-02  0.8558108E-01
       -2   -1    0    0    0  501  0.00000000000E+00  0.00000000000E+00  0.90256439648E+03  0.90256439648E+03  0.25500000920E-02 0. -1.
        2   -1    0    0  501    0  0.00000000000E+00  0.00000000000E+00 -0.12298312393E+04  0.12298312393E+04  0.25500000920E-02 0.  1.
    10030    2    1    2    0    0  0.00000000000E+00  0.00000000000E+00 -0.32726684284E+03  0.21323956358E+04  0.21071325447E+04 0.  0.
        4    1    3    3  502    0 -0.71331622197E+02  0.37536861529E+03 -0.11572453753E+04  0.12186912116E+04  0.12699999809E+01 0.  1.
       -4    1    3    3    0  502  0.71331622197E+02 -0.37536861529E+03  0.82997853243E+03  0.91370442423E+03  0.12699999809E+01 0. -1.
</event>
<event>
 5   0  0.5462851E-05  0.2120277E+04  0.7818609E-02  0.8552363E-01
        2   -1    0    0  501    0  0.00000000000E+00  0.00000000000E+00  0.10408017676E+04  0.10408017676E+04  0.25500000920E-02 0.  1.
       -2   -1    0    0    0  501  0.00000000000E+00  0.00000000000E+00 -0.10798347056E+04  0.10798347056E+04  0.25500000920E-02 0. -1.
    10030    2    1    2    0    0  0.00000000000E+00  0.00000000000E+00 -0.39032937937E+02  0.21206364732E+04  0.21202772180E+04 0.  0.
        1    1    3    3  502    0  0.81498984881E+03  0.32608553408E+03 -0.61405275398E+03  0.10712614125E+04  0.50400001928E-02 0. -1.
       -1    1    3    3    0  502 -0.81498984881E+03 -0.32608553408E+03  0.57501981604E+03  0.10493750607E+04  0.50400001928E-02 0.  1.
</event>
<event>
 5   0  0.2789662E-05  0.2103759E+04  0.7818609E-02  0.8559589E-01
       -1   -1    0    0    0  501  0.00000000000E+00  0.00000000000E+00  0.13583007810E+04  0.13583007811E+04  0.50400001928E-02 0.  1.
        1   -1    0    0  501    0  0.00000000000E+00  0.00000000000E+00 -0.81458464381E+03  0.81458464382E+03  0.50400001928E-02 0. -1.
    10030    2    1    2    0    0  0.00000000000E+00  0.00000000000E+00  0.54371613724E+03  0.21728854249E+04  0.21037594520E+04 0.  0.
        4    1    3    3  502    0 -0.73900865625E+03  0.51127320551E+03 -0.29283803387E+03  0.94514010161E+03  0.12699999809E+01 0. -1.
       -4    1    3    3    0  502  0.73900865625E+03 -0.51127320551E+03  0.83655417111E+03  0.12277453233E+04  0.12699999809E+01 0.  1.
</event>
<event>
 5   0  0.5866610E-05  0.2082649E+04  0.7818609E-02  0.8568925E-01
        2   -1    0    0  501    0  0.00000000000E+00  0.00000000000E+00  0.19064185278E+04  0.19064185278E+04  0.25500000920E-02 0. -1.
       -2   -1    0    0    0  501  0.00000000000E+00  0.00000000000E+00 -0.56879265820E+03  0.56879265821E+03  0.25500000920E-02 0.  1.
    10030    2    1    2    0    0  0.00000000000E+00  0.00000000000E+00  0.13376258696E+04  0.24752111860E+04  0.20826491419E+04 0.  0.
        5    1    3    3  502    0  0.56301905665E+03  0.50506627037E+03 -0.18181205675E+03  0.77792037484E+03  0.46999998093E+01 0.  1.
       -5    1    3    3    0  502 -0.56301905665E+03 -0.50506627037E+03  0.15194379263E+04  0.16972908111E+04  0.46999998093E+01 0. -1.
</event>
<event>
 5   0  0.2789662E-05  0.2109697E+04  0.7818609E-02  0.8556984E-01
       -1   -1    0    0    0  501  0.00000000000E+00  0.00000000000E+00  0.70902101367E+03  0.70902101369E+03  0.50400001928E-02 0.  1.
        1   -1    0    0  501    0  0.00000000000E+00  0.00000000000E+00 -0.15693539700E+04  0.15693539700E+04  0.50400001928E-02 0. -1.
    10030    2    1    2    0    0  0.00000000000E+00  0.00000000000E+00 -0.86033295635E+03  0.22783749837E+04  0.21096966063E+04 0.  0.
        4    1    3    3  502    0 -0.45727676730E+03  0.31331111908E+03 -0.13993836576E+04  0.15051717953E+04  0.12699999809E+01 0. -1.
       -4    1    3    3    0  502  0.45727676730E+03 -0.31331111908E+03  0.53905070122E+03  0.77320318846E+03  0.12699999809E+01 0.  1.
</event>
<event>
 5   0  0.2602060E-05  0.2056067E+04  0.7818609E-02  0.8580847E-01
       -1   -1    0    0    0  501  0.00000000000E+00  0.00000000000E+00  0.10929325707E+04  0.10929325707E+04  0.50400001928E-02 0. -1.
        1   -1    0    0  501    0  0.00000000000E+00  0.00000000000E+00 -0.96698819908E+03  0.96698819909E+03  0.50400001928E-02 0.  1.
    10030    2    1    2    0    0  0.00000000000E+00  0.00000000000E+00  0.12594437165E+03  0.20599207698E+04  0.20560670206E+04 0.  0.
        1    1    3    3  502    0 -0.25498256992E+03  0.35225694995E+03 -0.87030579236E+03  0.97289939972E+03  0.50400001928E-02 0.  1.
       -1    1    3    3    0  502  0.25498256992E+03 -0.35225694995E+03  0.99625016401E+03  0.10870213701E+04  0.50400001928E-02 0. -1.
</event>
<event>
 5   0  0.2732159E-05  0.2096966E+04  0.7818609E-02  0.8562581E-01
        1   -1    0    0  501    0  0.00000000000E+00  0.00000000000E+00  0.14800645679E+04  0.14800645679E+04  0.50400001928E-02 0.  1.
       -1   -1    0    0    0  501  0.00000000000E+00  0.00000000000E+00 -0.74274931662E+03  0.74274931664E+03  0.50400001928E-02 0. -1.
    10030    2    1    2    0    0  0.00000000000E+00  0.00000000000E+00  0.73731525125E+03  0.22228138845E+04  0.20969663291E+04 0.  0.
        3    1    3    3  502    0  0.39094127805E+03  0.88796309153E+03  0.79000943372E+03  0.12511708318E+04  0.10100000352E+00 0.  1.
       -3    1    3    3    0  502 -0.39094127805E+03 -0.88796309153E+03 -0.52694182470E+02  0.97164305271E+03  0.10100000352E+00 0. -1.
</event>
<event>
 5   0  0.2732159E-05  0.2100756E+04  0.7818609E-02  0.8560911E-01
        1   -1    0    0  501    0  0.00000000000E+00  0.00000000000E+00  0.14746392997E+04  0.14746392997E+04  0.50400001928E-02 0. -1.
       -1   -1    0    0    0  501  0.00000000000E+00  0.00000000000E+00 -0.74817868045E+03  0.74817868047E+03  0.50400001928E-02 0.  1.
    10030    2    1    2    0    0  0.00000000000E+00  0.00000000000E+00  0.72646061926E+03  0.22228179802E+04  0.21007557549E+04 0.  0.
        3    1    3    3  502    0 -0.62773172098E+03 -0.70104591162E+03 -0.13055540777E+03  0.95003010922E+03  0.10100000352E+00 0.  1.
       -3    1    3    3    0  502  0.62773172098E+03  0.70104591162E+03  0.85701602702E+03  0.12727878710E+04  0.10100000352E+00 0. -1.
</event>
<event>
 5   0  0.5866610E-05  0.2098411E+04  0.7818609E-02  0.8561944E-01
       -2   -1    0    0    0  501  0.00000000000E+00  0.00000000000E+00  0.63090331394E+03  0.63090331394E+03  0.25500000920E-02 0. -1.
        2   -1    0    0  501    0  0.00000000000E+00  0.00000000000E+00 -0.17448511002E+04  0.17448511002E+04  0.25500000920E-02 0.  1.
    10030    2    1    2    0    0  0.00000000000E+00  0.00000000000E+00 -0.11139477863E+04  0.23757544142E+04  0.20984111527E+04 0.  0.
        5    1    3    3  502    0 -0.66337849493E+03  0.78296688077E+03 -0.30969921138E+03  0.10719346321E+04  0.46999998093E+01 0. -1.
       -5    1    3    3    0  502  0.66337849493E+03 -0.78296688077E+03 -0.80424857489E+03  0.13038197821E+04  0.46999998093E+01 0.  1.
</event>
<event>
 5   0  0.5462851E-05  0.2100809E+04  0.7818609E-02  0.8560887E-01
       -2   -1    0    0    0  501  0.00000000000E+00  0.00000000000E+00  0.94746551062E+03  0.94746551063E+03  0.25500000920E-02 0. -1.
        2   -1    0    0  501    0  0.00000000000E+00  0.00000000000E+00 -0.11645269431E+04  0.11645269431E+04  0.25500000920E-02 0.  1.
    10030    2    1    2    0    0  0.00000000000E+00  0.00000000000E+00 -0.21706143250E+03  0.21119924538E+04  0.21008085251E+04 0.  0.
        1    1    3    3  502    0  0.62363340578E+03  0.67280043540E+03 -0.62288916831E+03  0.11088597597E+04  0.50400001928E-02 0.  1.
       -1    1    3    3    0  502 -0.62363340578E+03 -0.67280043540E+03  0.40582773581E+03  0.10031326940E+04  0.50400001928E-02 0. -1.
</event>
<event>
 5   0  0.2789662E-05  0.2104185E+04  0.7818609E-02  0.8559402E-01
        1   -1    0    0  501    0  0.00000000000E+00  0.00000000000E+00  0.13081844527E+04  0.13081844527E+04  0.50400001928E-02 0. -1.
       -1   -1    0    0    0  501  0.00000000000E+00  0.00000000000E+00 -0.84613351512E+03  0.84613351513E+03  0.50400001928E-02 0.  1.
    10030    2    1    2    0    0  0.00000000000E+00  0.00000000000E+00  0.46205093754E+03  0.21543179678E+04  0.21041850768E+04 0.  0.
        4    1    3    3  502    0 -0.69483154475E+03 -0.14249514555E+01  0.10398501900E+04  0.12506330143E+04  0.12699999809E+01 0. -1.
       -4    1    3    3    0  502  0.69483154475E+03  0.14249514555E+01 -0.57779925244E+03  0.90368495345E+03  0.12699999809E+01 0.  1.
</event>
<event>
 5   0  0.2732159E-05  0.2094446E+04  0.7818609E-02  0.8563694E-01
        1   -1    0    0  501    0  0.00000000000E+00  0.00000000000E+00  0.15601335659E+04  0.15601335659E+04  0.50400001928E-02 0.  1.
       -1   -1    0    0    0  501  0.00000000000E+00  0.00000000000E+00 -0.70293723501E+03  0.70293723503E+03  0.50400001928E-02 0. -1.
    10030    2    1    2    0    0  0.00000000000E+00  0.00000000000E+00  0.85719633086E+03  0.22630708009E+04  0.20944459650E+04 0.  0.
        3    1    3    3  502    0  0.16008539971E+03  0.15025626236E+03  0.15349858530E+04  0.15506082222E+04  0.10100000352E+00 0.  1.
       -3    1    3    3    0  502 -0.16008539971E+03 -0.15025626236E+03 -0.67778952214E+03  0.71246257874E+03  0.10100000352E+00 0. -1.
</event>
<event>
 5   0  0.5866610E-05  0.2109587E+04  0.7818609E-02  0.8557032E-01
       -2   -1    0    0    0  501  0.00000000000E+00  0.00000000000E+00  0.11515086264E+04  0.11515086264E+04  0.25500000920E-02 0.  1.
        2   -1    0    0  501    0  0.00000000000E+00  0.00000000000E+00 -0.96620150457E+03  0.96620150458E+03  0.25500000920E-02 0. -1.
    10030    2    1    2    0    0  0.00000000000E+00  0.00000000000E+00  0.18530712182E+03  0.21177101310E+04  0.21095870376E+04 0.  0.
        5    1    3    3  502    0  0.42908964541E+03  0.16387187154E+03 -0.86052639416E+03  0.97544845026E+03  0.46999998093E+01 0. -1.
       -5    1    3    3    0  502 -0.42908964541E+03 -0.16387187154E+03  0.10458335160E+04  0.11422616807E+04  0.46999998093E+01 0.  1.
</event>
<event>
 5   0  0.2604390E-05  0.2141700E+04  0.7818609E-02  0.8543093E-01
       -1   -1    0    0    0  501  0.00000000000E+00  0.00000000000E+00  0.96757619504E+03  0.96757619506E+03  0.50400001928E-02 0.  1.
        1   -1    0    0  501    0  0.00000000000E+00  0.00000000000E+00 -0.11851467436E+04  0.11851467436E+04  0.50400001928E-02 0. -1.
    10030    2    1    2    0    0  0.00000000000E+00  0.00000000000E+00 -0.21757054854E+03  0.21527229387E+04  0.21417000507E+04 0.  0.
        5    1    3    3  502    0  0.95051090784E+03 -0.38333959881E+03 -0.42066833489E+03  0.11078827429E+04  0.46999998093E+01 0. -1.
       -5    1    3    3    0  502 -0.95051090784E+03  0.38333959881E+03  0.20309778635E+03  0.10448401958E+04  0.46999998093E+01 0.  1.
</event>
<event>
 5   0  0.2732159E-05  0.2116214E+04  0.7818609E-02  0.8554134E-01
       -1   -1    0    0    0  501  0.00000000000E+00  0.00000000000E+00  0.16402843552E+04  0.16402843552E+04  0.50400001928E-02 0.  1.
        1   -1    0    0  501    0  0.00000000000E+00  0.00000000000E+00 -0.68255895958E+03  0.68255895960E+03  0.50400001928E-02 0. -1.
    10030    2    1    2    0    0  0.00000000000E+00  0.00000000000E+00  0.95772539564E+03  0.23228433148E+04  0.21162143398E+04 0.  0.
        3    1    3    3  502    0 -0.89713792335E+02  0.57646459095E+03  0.14477947298E+04  0.15609194659E+04  0.10100000352E+00 0.  1.
       -3    1    3    3    0  502  0.89713792335E+02 -0.57646459095E+03 -0.49006933413E+03  0.76192384896E+03  0.10100000352E+00 0. -1.
</event>
<event>
 5   0  0.5967046E-05  0.2096946E+04  0.7818609E-02  0.8562590E-01
        2   -1    0    0  501    0  0.00000000000E+00  0.00000000000E+00  0.84910824789E+03  0.84910824790E+03  0.25500000920E-02 0. -1.
       -2   -1    0    0    0  501  0.00000000000E+00  0.00000000000E+00 -0.12946478353E+04  0.12946478353E+04  0.25500000920E-02 0.  1.
    10030    2    1    2    0    0  0.00000000000E+00  0.00000000000E+00 -0.44553958736E+03  0.21437560832E+04  0.20969464991E+04 0.  0.
        4    1    3    3  502    0 -0.60382901658E+03  0.68510492411E+03  0.30381703109E+03  0.96243682368E+03  0.12699999809E+01 0. -1.
       -4    1    3    3    0  502  0.60382901658E+03 -0.68510492411E+03 -0.74935661845E+03  0.11813192595E+04  0.12699999809E+01 0.  1.
</event>
<event>
 5   0  0.5954140E-05  0.2117400E+04  0.7818609E-02  0.8553617E-01
       -2   -1    0    0    0  501  0.00000000000E+00  0.00000000000E+00  0.86028895089E+03  0.86028895089E+03  0.25500000920E-02 0. -1.
        2   -1    0    0  501    0  0.00000000000E+00  0.00000000000E+00 -0.13028714623E+04  0.13028714623E+04  0.25500000920E-02 0.  1.
    10030    2    1    2    0    0  0.00000000000E+00  0.00000000000E+00 -0.44258251143E+03  0.21631604132E+04  0.21174002205E+04 0.  0.
        2    1    3    3  502    0  0.50593339223E+03 -0.91512858580E+03 -0.39045049333E+03  0.11161901781E+04  0.25500000920E-02 0.  1.
       -2    1    3    3    0  502 -0.50593339223E+03  0.91512858580E+03 -0.52132018100E+02  0.10469702351E+04  0.25500000920E-02 0. -1.
</event>
<event>
 5   0  0.2699285E-05  0.2094286E+04  0.7818609E-02  0.8563765E-01
        1   -1    0    0  501    0  0.00000000000E+00  0.00000000000E+00  0.10945456988E+04  0.10945456988E+04  0.50400001928E-02 0. -1.
       -1   -1    0    0    0  501  0.00000000000E+00  0.00000000000E+00 -0.10017929249E+04  0.10017929249E+04  0.50400001928E-02 0.  1.
    10030    2    1    2    0    0  0.00000000000E+00  0.00000000000E+00  0.92752773867E+02  0.20963386237E+04  0.20942856892E+04 0.  0.
        2    1    3    3  502    0  0.54663184694E+02  0.95884817111E+03  0.46407461473E+03  0.10666504240E+04  0.25500000920E-02 0. -1.
       -2    1    3    3    0  502 -0.54663184694E+02 -0.95884817111E+03 -0.37132184086E+03  0.10296881997E+04  0.25500000920E-02 0.  1.
</event>
<event>
 5   0  0.5954140E-05  0.2092914E+04  0.7818609E-02  0.8564371E-01
       -2   -1    0    0    0  501  0.00000000000E+00  0.00000000000E+00  0.72685445926E+03  0.72685445926E+03  0.25500000920E-02 0. -1.
        2   -1    0    0  501    0  0.00000000000E+00  0.00000000000E+00 -0.15065901714E+04  0.15065901714E+04  0.25500000920E-02 0.  1.
    10030    2    1    2    0    0  0.00000000000E+00  0.00000000000E+00 -0.77973571219E+03  0.22334446307E+04  0.20929135523E+04 0.  0.
        2    1    3    3  502    0 -0.58634443804E+03 -0.59268999405E+03  0.28504665918E+03  0.88109751275E+03  0.25500000920E-02 0. -1.
       -2    1    3    3    0  502  0.58634443804E+03  0.59268999405E+03 -0.10647823714E+04  0.13523471180E+04  0.25500000920E-02 0.  1.
</event>
<event>
 5   0  0.2699285E-05  0.1924558E+04  0.7818609E-02  0.8642728E-01
        1   -1    0    0  501    0  0.00000000000E+00  0.00000000000E+00  0.97232339815E+03  0.97232339817E+03  0.50400001928E-02 0.  1.
       -1   -1    0    0    0  501  0.00000000000E+00  0.00000000000E+00 -0.95233868842E+03  0.95233868843E+03  0.50400001928E-02 0. -1.
    10030    2    1    2    0    0  0.00000000000E+00  0.00000000000E+00  0.19984709738E+02  0.19246620866E+04  0.19245583283E+04 0.  0.
        2    1    3    3  502    0  0.28010044261E+03 -0.61648638745E+03  0.69374660341E+03  0.96943079877E+03  0.25500000920E-02 0.  1.
       -2    1    3    3    0  502 -0.28010044261E+03  0.61648638745E+03 -0.67376189367E+03  0.95523128782E+03  0.25500000920E-02 0. -1.
</event>
<event>
 5   0  0.2602060E-05  0.2080426E+04  0.7818609E-02  0.8569915E-01
       -1   -1    0    0    0  501  0.00000000000E+00  0.00000000000E+00  0.64411751656E+03  0.64411751658E+03  0.50400001928E-02 0.  1.
        1   -1    0    0  501    0  0.00000000000E+00  0.00000000000E+00 -0.16798851602E+04  0.16798851602E+04  0.50400001928E-02 0. -1.
    10030    2    1    2    0    0  0.00000000000E+00  0.00000000000E+00 -0.10357676437E+04  0.23240026768E+04  0.20804263578E+04 0.  0.
        1    1    3    3  502    0 -0.47338557689E+03 -0.81628902270E+03 -0.10068814096E+04  0.13799390733E+04  0.50400001928E-02 0.  1.
       -1    1    3    3    0  502  0.47338557689E+03  0.81628902270E+03 -0.28886234095E+02  0.94406360354E+03  0.50400001928E-02 0. -1.
</event>
<event>
 5   0  0.5954140E-05  0.2082914E+04  0.7818609E-02  0.8568807E-01
        2   -1    0    0  501    0  0.00000000000E+00  0.00000000000E+00  0.72577311864E+03  0.72577311865E+03  0.25500000920E-02 0. -1.
       -2   -1    0    0    0  501  0.00000000000E+00  0.00000000000E+00 -0.14944517772E+04  0.14944517772E+04  0.25500000920E-02 0.  1.
    10030    2    1    2    0    0  0.00000000000E+00  0.00000000000E+00 -0.76867865854E+03  0.22202248958E+04  0.20829142344E+04 0.  0.
        2    1    3    3  502    0  0.99701385738E+03 -0.15216619600E+03 -0.10752410206E+03  0.10142744281E+04  0.25500000920E-02 0.  1.
       -2    1    3    3    0  502 -0.99701385738E+03  0.15216619600E+03 -0.66115455648E+03  0.12059504677E+04  0.25500000920E-02 0. -1.
</event>
<event>
 5   0  0.5967046E-05  0.2109195E+04  0.7818609E-02  0.8557204E-01
        2   -1    0    0  501    0  0.00000000000E+00  0.00000000000E+00  0.76053559086E+03  0.76053559087E+03  0.25500000920E-02 0.  1.
       -2   -1    0    0    0  501  0.00000000000E+00  0.00000000000E+00 -0.14623587966E+04  0.14623587966E+04  0.25500000920E-02 0. -1.
    10030    2    1    2    0    0  0.00000000000E+00  0.00000000000E+00 -0.70182320574E+03  0.22228943875E+04  0.21091950232E+04 0.  0.
        4    1    3    3  502    0  0.81102516004E+03  0.71303164569E+02 -0.10573657850E+04  0.13344924007E+04  0.12699999809E+01 0. -1.
       -4    1    3    3    0  502 -0.81102516004E+03 -0.71303164569E+02  0.35554257923E+03  0.88840198674E+03  0.12699999809E+01 0.  1.
</event>
<event>
 5   0  0.5462851E-05  0.2085977E+04  0.7818609E-02  0.8567446E-01
       -2   -1    0    0    0  501  0.00000000000E+00  0.00000000000E+00  0.92075886047E+03  0.92075886048E+03  0.25500000920E-02 0. -1.
        2   -1    0    0  501    0  0.00000000000E+00  0.00000000000E+00 -0.11814438043E+04  0.11814438043E+04  0.25500000920E-02 0.  1.
    10030    2    1    2    0    0  0.00000000000E+00  0.00000000000E+00 -0.26068494378E+03  0.21022026647E+04  0.20859768464E+04 0.  0.
        1    1    3    3  502    0 -0.77298296510E+03 -0.69920391514E+03 -0.92152165110E+02  0.10463655197E+04  0.50400001928E-02 0. -1.
       -1    1    3    3    0  502  0.77298296510E+03  0.69920391514E+03 -0.16853277867E+03  0.10558371450E+04  0.50400001928E-02 0.  1.
</event>
<event>
 5   0  0.5462851E-05  0.2099490E+04  0.7818609E-02  0.8561468E-01
       -2   -1    0    0    0  501  0.00000000000E+00  0.00000000000E+00  0.12210531504E+04  0.12210531504E+04  0.25500000920E-02 0. -1.
        2   -1    0    0  501    0  0.00000000000E+00  0.00000000000E+00 -0.90247082283E+03  0.90247082283E+03  0.25500000920E-02 0.  1.
    10030    2    1    2    0    0  0.00000000000E+00  0.00000000000E+00  0.31858232755E+03  0.21235239732E+04  0.20994902632E+04 0.  0.
        1    1    3    3  502    0  0.41632856628E+03  0.87422919274E+03  0.56934382241E+03  0.11232802610E+04  0.50400001928E-02 0. -1.
       -1    1    3    3    0  502 -0.41632856628E+03 -0.87422919274E+03 -0.25076149486E+03  0.10002437122E+04  0.50400001928E-02 0.  1.
</event>
<event>
 5   0  0.2699285E-05  0.1846541E+04  0.7818609E-02  0.8681934E-01
        1   -1    0    0  501    0  0.00000000000E+00  0.00000000000E+00  0.25322009930E+04  0.25322009930E+04  0.50400001928E-02 0.  1.
       -1   -1    0    0    0  501  0.00000000000E+00  0.00000000000E+00 -0.33663532895E+03  0.33663532899E+03  0.50400001928E-02 0. -1.
    10030    2    1    2    0    0  0.00000000000E+00  0.00000000000E+00  0.21955656641E+04  0.28688363220E+04  0.18465408897E+04 0.  0.
        2    1    3    3  502    0  0.15137265007E+03  0.90251754733E+03  0.12879147720E+04  0.15799291321E+04  0.25500000920E-02 0.  1.
       -2    1    3    3    0  502 -0.15137265007E+03 -0.90251754733E+03  0.90765089208E+03  0.12889071900E+04  0.25500000920E-02 0. -1.
</event>
<event>
 5   0  0.2699285E-05  0.2005006E+04  0.7818609E-02  0.8604284E-01
       -1   -1    0    0    0  501  0.00000000000E+00  0.00000000000E+00  0.43107290406E+03  0.43107290409E+03  0.50400001928E-02 0. -1.
        1   -1    0    0  501    0  0.00000000000E+00  0.00000000000E+00 -0.23314213653E+04  0.23314213654E+04  0.50400001928E-02 0.  1.
    10030    2    1    2    0    0  0.00000000000E+00  0.00000000000E+00 -0.19003484613E+04  0.27624942694E+04  0.20050063128E+04 0.  0.
        2    1    3    3  502    0  0.65553843812E+03  0.61163924793E+03 -0.33219004993E+03  0.95612940691E+03  0.25500000920E-02 0. -1.
       -2    1    3    3    0  502 -0.65553843812E+03 -0.61163924793E+03 -0.15681584114E+04  0.18063648625E+04  0.25500000920E-02 0.  1.
</event>
<event>
 5   0  0.5462851E-05  0.2099642E+04  0.7818609E-02  0.8561401E-01
        2   -1    0    0  501    0  0.00000000000E+00  0.00000000000E+00  0.18617871648E+04  0.18617871648E+04  0.25500000920E-02 0.  1.
       -2   -1    0    0    0  501  0.00000000000E+00  0.00000000000E+00 -0.59197123639E+03  0.59197123640E+03  0.25500000920E-02 0. -1.
    10030    2    1    2    0    0  0.00000000000E+00  0.00000000000E+00  0.12698159285E+04  0.24537584012E+04  0.20996423027E+04 0.  0.
        1    1    3    3  502    0  0.68169740024E+03 -0.21161736562E+03 -0.26475271486E+03  0.76130628198E+03  0.50400001928E-02 0. -1.
       -1    1    3    3    0  502 -0.68169740024E+03  0.21161736562E+03  0.15345686433E+04  0.16924521193E+04  0.50400001928E-02 0.  1.
</event>
<event>
 5   0  0.5866610E-05  0.2089435E+04  0.7818609E-02  0.8565912E-01
        2   -1    0    0  501    0  0.00000000000E+00  0.00000000000E+00  0.11852300947E+04  0.11852300947E+04  0.25500000920E-02 0. -1.
       -2   -1    0    0    0  501  0.00000000000E+00  0.00000000000E+00 -0.92086326611E+03  0.92086326611E+03  0.25500000920E-02 0.  1.
    10030    2    1    2    0    0  0.00000000000E+00  0.00000000000E+00  0.26436682857E+03  0.21060933608E+04  0.20894351927E+04 0.  0.
        5    1    3    3  502    0 -0.57545435029E+03  0.23557319765E+03  0.97838243536E+03  0.11592655953E+04  0.46999998093E+01 0. -1.
       -5    1    3    3    0  502  0.57545435029E+03 -0.23557319765E+03 -0.71401560678E+03  0.94682776546E+03  0.46999998093E+01 0.  1.
</event>
<event>
 5   0  0.5462851E-05  0.2110324E+04  0.7818609E-02  0.8556709E-01
        2   -1    0    0  501    0  0.00000000000E+00  0.00000000000E+00  0.15306976823E+04  0.15306976823E+04  0.25500000920E-02 0.  1.
       -2   -1    0    0    0  501  0.00000000000E+00  0.00000000000E+00 -0.72735906090E+03  0.72735906090E+03  0.25500000920E-02 0. -1.
    10030    2    1    2    0    0  0.00000000000E+00  0.00000000000E+00  0.80333862143E+03  0.22580567432E+04  0.21103239834E+04 0.  0.
        1    1    3    3  502    0 -0.50762472268E+03 -0.62677959646E+03  0.11296118187E+04  0.13880051810E+04  0.50400001928E-02 0.  1.
       -1    1    3    3    0  502  0.50762472268E+03  0.62677959646E+03 -0.32627319726E+03  0.87005156220E+03  0.50400001928E-02 0. -1.
</event>
<event>
 5   0  0.2602060E-05  0.2271301E+04  0.7818609E-02  0.8489323E-01
        1   -1    0    0  501    0  0.00000000000E+00  0.00000000000E+00  0.12491720824E+04  0.12491720824E+04  0.50400001928E-02 0.  1.
       -1   -1    0    0    0  501  0.00000000000E+00  0.00000000000E+00 -0.10324455423E+04  0.10324455423E+04  0.50400001928E-02 0. -1.
    10030    2    1    2    0    0  0.00000000000E+00  0.00000000000E+00  0.21672654009E+03  0.22816176248E+04  0.22713010792E+04 0.  0.
        1    1    3    3  502    0 -0.93746126614E+02  0.29819246545E+03 -0.98838102617E+03  0.10366311473E+04  0.50400001928E-02 0. -1.
       -1    1    3    3    0  502  0.93746126614E+02 -0.29819246545E+03  0.12051075663E+04  0.12449864774E+04  0.50400001928E-02 0.  1.
</event>
<event>
 5   0  0.5506332E-05  0.2109090E+04  0.7818609E-02  0.8557250E-01
       -2   -1    0    0    0  501  0.00000000000E+00  0.00000000000E+00  0.17787761659E+04  0.17787761659E+04  0.25500000920E-02 0.  1.
        2   -1    0    0  501    0  0.00000000000E+00  0.00000000000E+00 -0.62518558120E+03  0.62518558121E+03  0.25500000920E-02 0. -1.
    10030    2    1    2    0    0  0.00000000000E+00  0.00000000000E+00  0.11535905847E+04  0.24039617471E+04  0.21090900513E+04 0.  0.
        3    1    3    3  502    0 -0.84164560407E+03  0.10581060558E+03  0.12908859695E+04  0.15446520008E+04  0.10100000352E+00 0.  1.
       -3    1    3    3    0  502  0.84164560407E+03 -0.10581060558E+03 -0.13729538487E+03  0.85930974625E+03  0.10100000352E+00 0. -1.
</event>
<event>
 5   0  0.5462851E-05  0.2103185E+04  0.7818609E-02  0.8559842E-01
       -2   -1    0    0    0  501  0.00000000000E+00  0.00000000000E+00  0.68042954511E+03  0.68042954512E+03  0.25500000920E-02 0.  1.
        2   -1    0    0  501    0  0.00000000000E+00  0.00000000000E+00 -0.16252183593E+04  0.16252183593E+04  0.25500000920E-02 0. -1.
    10030    2    1    2    0    0  0.00000000000E+00  0.00000000000E+00 -0.94478881418E+03  0.23056479044E+04  0.21031848125E+04 0.  0.
        1    1    3    3  502    0 -0.41570807419E+03  0.64046057075E+03 -0.12650809146E+04  0.14776442962E+04  0.50400001928E-02 0. -1.
       -1    1    3    3    0  502  0.41570807419E+03 -0.64046057075E+03  0.32029210038E+03  0.82800360822E+03  0.50400001928E-02 0.  1.
</event>
<event>
 5   0  0.2789662E-05  0.2082984E+04  0.7818609E-02  0.8568776E-01
       -1   -1    0    0    0  501  0.00000000000E+00  0.00000000000E+00  0.97748051070E+03  0.97748051071E+03  0.50400001928E-02 0.  1.
        1   -1    0    0  501    0  0.00000000000E+00  0.00000000000E+00 -0.11096949774E+04  0.11096949774E+04  0.50400001928E-02 0. -1.
    10030    2    1    2    0    0  0.00000000000E+00  0.00000000000E+00 -0.13221446669E+03  0.20871754881E+04  0.20829836420E+04 0.  0.
        4    1    3    3  502    0 -0.85552415203E+03  0.29591227793E+03  0.44992230591E+03  0.10108992755E+04  0.12699999809E+01 0.  1.
       -4    1    3    3    0  502  0.85552415203E+03 -0.29591227793E+03 -0.58213677259E+03  0.10762762126E+04  0.12699999809E+01 0. -1.
</event>
<event>
 5   0  0.5506332E-05  0.2105481E+04  0.7818609E-02  0.8558833E-01
       -2   -1    0    0    0  501  0.00000000000E+00  0.00000000000E+00  0.65539591603E+03  0.65539591604E+03  0.25500000920E-02 0.  1.
        2   -1    0    0  501    0  0.00000000000E+00  0.00000000000E+00 -0.16909823461E+04  0.16909823461E+04  0.25500000920E-02 0. -1.
    10030    2    1    2    0    0  0.00000000000E+00  0.00000000000E+00 -0.10355864301E+04  0.23463782622E+04  0.21054813452E+04 0.  0.
        3    1    3    3  502    0 -0.61167504876E+03 -0.37755430018E+03 -0.13749286349E+04  0.15514903726E+04  0.10100000352E+00 0. -1.
       -3    1    3    3    0  502  0.61167504876E+03  0.37755430018E+03  0.33934220482E+03  0.79488788960E+03  0.10100000352E+00 0.  1.
</event>
<event>
 5   0  0.5462851E-05  0.2068562E+04  0.7818609E-02  0.8575220E-01
        2   -1    0    0  501    0  0.00000000000E+00  0.00000000000E+00  0.17783851173E+04  0.17783851173E+04  0.25500000920E-02 0.  1.
       -2   -1    0    0    0  501  0.00000000000E+00  0.00000000000E+00 -0.60152147601E+03  0.60152147602E+03  0.25500000920E-02 0. -1.
    10030    2    1    2    0    0  0.00000000000E+00  0.00000000000E+00  0.11768636413E+04  0.23799065933E+04  0.20685616652E+04 0.  0.
        1    1    3    3  502    0 -0.10013670334E+03 -0.36891383312E+03 -0.51726545331E+03  0.64318607326E+03  0.50400001928E-02 0. -1.
       -1    1    3    3    0  502  0.10013670334E+03  0.36891383312E+03  0.16941290946E+04  0.17367205201E+04  0.50400001928E-02 0.  1.
</event>
<event>
 5   0  0.2699285E-05  0.2078914E+04  0.7818609E-02  0.8570589E-01
       -1   -1    0    0    0  501  0.00000000000E+00  0.00000000000E+00  0.10465826123E+04  0.10465826123E+04  0.50400001928E-02 0.  1.
        1   -1    0    0  501    0  0.00000000000E+00  0.00000000000E+00 -0.10323796591E+04  0.10323796591E+04  0.50400001928E-02 0. -1.
    10030    2    1    2    0    0  0.00000000000E+00  0.00000000000E+00  0.14202953200E+02  0.20789622714E+04  0.20789137553E+04 0.  0.
        2    1    3    3  502    0 -0.74734519197E+03 -0.10194669784E+03 -0.70814429378E+03  0.10345947545E+04  0.25500000920E-02 0. -1.
       -2    1    3    3    0  502  0.74734519197E+03  0.10194669784E+03  0.72234724698E+03  0.10443675169E+04  0.25500000920E-02 0.  1.
</event>
<event>
 5   0  0.5866610E-05  0.2105745E+04  0.7818609E-02  0.8558717E-01
       -2   -1    0    0    0  501  0.00000000000E+00  0.00000000000E+00  0.55798119769E+03  0.55798119770E+03  0.25500000920E-02 0. -1.
        2   -1    0    0  501    0  0.00000000000E+00  0.00000000000E+00 -0.19866985248E+04  0.19866985248E+04  0.25500000920E-02 0.  1.
    10030    2    1    2    0    0  0.00000000000E+00  0.00000000000E+00 -0.14287173271E+04  0.25446797225E+04  0.21057449250E+04 0.  0.
        5    1    3    3  502    0  0.44035921672E+03 -0.91399241845E+03 -0.10544884393E+04  0.14633066457E+04  0.46999998093E+01 0. -1.
       -5    1    3    3    0  502 -0.44035921672E+03  0.91399241845E+03 -0.37422888780E+03  0.10813730768E+04  0.46999998093E+01 0.  1.
</event>
<event>
 5   0  0.2602060E-05  0.2091471E+04  0.7818609E-02  0.8565010E-01
        1   -1    0    0  501    0  0.00000000000E+00  0.00000000000E+00  0.14157783564E+04  0.14157783564E+04  0.50400001928E-02 0.  1.
       -1   -1    0    0    0  501  0.00000000000E+00  0.00000000000E+00 -0.77241088976E+03  0.77241088977E+03  0.50400001928E-02 0. -1.
    10030    2    1    2    0    0  0.00000000000E+00  0.00000000000E+00  0.64336746663E+03  0.21881892462E+04  0.20914708891E+04 0.  0.
        1    1    3    3  502    0 -0.72930764139E+03  0.63384143026E+03  0.74007418500E+03  0.12171090312E+04  0.50400001928E-02 0.  1.
       -1    1    3    3    0  502  0.72930764139E+03 -0.63384143026E+03 -0.96706718371E+02  0.97108021497E+03  0.50400001928E-02 0. -1.
</event>
<event>
 5   0  0.5462851E-05  0.2092381E+04  0.7818609E-02  0.8564607E-01
       -2   -1    0    0    0  501  0.00000000000E+00  0.00000000000E+00  0.27279674832E+04  0.27279674832E+04  0.25500000920E-02 0.  1.
        2   -1    0    0  501    0  0.00000000000E+00  0.00000000000E+00 -0.40121991422E+03  0.40121991423E+03  0.25500000920E-02 0. -1.
    10030    2    1    2    0    0  0.00000000000E+00  0.00000000000E+00  0.23267475690E+04  0.31291873974E+04  0.20923813033E+04 0.  0.
        1    1    3    3  502    0  0.71027872874E+03  0.34631389582E+03  0.21887406011E+04  0.23270183939E+04  0.50400001928E-02 0.  1.
       -1    1    3    3    0  502 -0.71027872874E+03 -0.34631389582E+03  0.13800696791E+03  0.80216900349E+03  0.50400001928E-02 0. -1.
</event>
<event>
 5   0  0.5954140E-05  0.2016403E+04  0.7818609E-02  0.8598990E-01
        2   -1    0    0  501    0  0.00000000000E+00  0.00000000000E+00  0.15688590953E+04  0.15688590953E+04  0.25500000920E-02 0. -1.
       -2   -1    0    0    0  501  0.00000000000E+00  0.00000000000E+00 -0.64790411756E+03  0.64790411757E+03  0.25500000920E-02 0.  1.
    10030    2    1    2    0    0  0.00000000000E+00  0.00000000000E+00  0.92095497772E+03  0.22167632129E+04  0.20164030031E+04 0.  0.
        2    1    3    3  502    0  0.44721574333E+02  0.91424204204E+03  0.92512250253E+03  0.13014185243E+04  0.25500000920E-02 0. -1.
       -2    1    3    3    0  502 -0.44721574333E+02 -0.91424204204E+03 -0.41675248058E+01  0.91534468858E+03  0.25500000920E-02 0.  1.
</event>
<event>
 5   0  0.2017750E-05  0.2104882E+04  0.7818609E-02  0.8559096E-01
        3   -1    0    0  501    0  0.00000000000E+00  0.00000000000E+00  0.82966768004E+03  0.82966768619E+03  0.10100000352E+00 0. -1.
       -3   -1    0    0    0  501  0.00000000000E+00  0.00000000000E+00 -0.13350315836E+04  0.13350315874E+04  0.10100000352E+00 0.  1.
    10030    2    1    2    0    0  0.00000000000E+00  0.00000000000E+00 -0.50536390356E+03  0.21646992736E+04  0.21048824837E+04 0.  0.
        2    1    3    3  502    0 -0.80722598503E+02 -0.33689901335E+03  0.76934809202E+03  0.84374970803E+03  0.25500000920E-02 0. -1.
       -2    1    3    3    0  502  0.80722598503E+02  0.33689901335E+03 -0.12747119956E+04  0.13209495656E+04  0.25500000920E-02 0.  1.
</event>
<event>
 5   0  0.2732159E-05  0.2109166E+04  0.7818609E-02  0.8557216E-01
       -1   -1    0    0    0  501  0.00000000000E+00  0.00000000000E+00  0.56092284792E+03  0.56092284794E+03  0.50400001928E-02 0.  1.
        1   -1    0    0  501    0  0.00000000000E+00  0.00000000000E+00 -0.19827068097E+04  0.19827068097E+04  0.50400001928E-02 0. -1.
    10030    2    1    2    0    0  0.00000000000E+00  0.00000000000E+00 -0.14217839618E+04  0.25436296577E+04  0.21091662337E+04 0.  0.
        3    1    3    3  502    0  0.10727754684E+03 -0.98604905224E+03 -0.27884455546E+03  0.10303181556E+04  0.10100000352E+00 0.  1.
       -3    1    3    3    0  502 -0.10727754684E+03  0.98604905224E+03 -0.11429394064E+04  0.15133115021E+04  0.10100000352E+00 0. -1.
</event>
<event>
 5   0  0.5506332E-05  0.2173527E+04  0.7818609E-02  0.8529528E-01
        2   -1    0    0  501    0  0.00000000000E+00  0.00000000000E+00  0.15143876851E+04  0.15143876851E+04  0.25500000920E-02 0. -1.
       -2   -1    0    0    0  501  0.00000000000E+00  0.00000000000E+00 -0.77988912488E+03  0.77988912488E+03  0.25500000920E-02 0.  1.
    10030    2    1    2    0    0  0.00000000000E+00  0.00000000000E+00  0.73449856026E+03  0.22942768100E+04  0.21735266150E+04 0.  0.
        3    1    3    3  502    0  0.81719011508E+03 -0.64040425067E+03  0.28258024440E+02  0.10386124468E+04  0.10100000352E+00 0. -1.
       -3    1    3    3    0  502 -0.81719011508E+03  0.64040425067E+03  0.70624053582E+03  0.12556643632E+04  0.10100000352E+00 0.  1.
</event>
<event>
 5   0  0.5866610E-05  0.2086357E+04  0.7818609E-02  0.8567277E-01
        2   -1    0    0  501    0  0.00000000000E+00  0.00000000000E+00  0.12548910591E+04  0.12548910591E+04  0.25500000920E-02 0.  1.
       -2   -1    0    0    0  501  0.00000000000E+00  0.00000000000E+00 -0.86718378565E+03  0.86718378565E+03  0.25500000920E-02 0. -1.
    10030    2    1    2    0    0  0.00000000000E+00  0.00000000000E+00  0.38770727349E+03  0.21220748448E+04  0.20863568048E+04 0.  0.
        5    1    3    3  502    0 -0.77349305611E+03  0.50447426505E+03 -0.29964687769E+03  0.97087390183E+03  0.46999998093E+01 0. -1.
       -5    1    3    3    0  502  0.77349305611E+03 -0.50447426505E+03  0.68735415118E+03  0.11512009430E+04  0.46999998093E+01 0.  1.
</event>
<event>
 5   0  0.2017750E-05  0.2102684E+04  0.7818609E-02  0.8560062E-01
        3   -1    0    0  501    0  0.00000000000E+00  0.00000000000E+00  0.10574249007E+04  0.10574249056E+04  0.10100000352E+00 0.  1.
       -3   -1    0    0    0  501  0.00000000000E+00  0.00000000000E+00 -0.10452945428E+04  0.10452945477E+04  0.10100000352E+00 0. -1.
    10030    2    1    2    0    0  0.00000000000E+00  0.00000000000E+00  0.12130357908E+02  0.21027194533E+04  0.21026844636E+04 0.  0.
        2    1    3    3  502    0  0.93507889328E+03  0.37859886745E+03  0.30206140373E+03  0.10530672964E+04  0.25500000920E-02 0. -1.
       -2    1    3    3    0  502 -0.93507889328E+03 -0.37859886745E+03 -0.28993104582E+03  0.10496521569E+04  0.25500000920E-02 0.  1.
</event>
<event>
 5   0  0.5462851E-05  0.2101120E+04  0.7818609E-02  0.8560750E-01
        2   -1    0    0  501    0  0.00000000000E+00  0.00000000000E+00  0.15717760983E+04  0.15717760983E+04  0.25500000920E-02 0.  1.
       -2   -1    0    0    0  501  0.00000000000E+00  0.00000000000E+00 -0.70218398063E+03  0.70218398063E+03  0.25500000920E-02 0. -1.
    10030    2    1    2    0    0  0.00000000000E+00  0.00000000000E+00  0.86959211765E+03  0.22739600789E+04  0.21011196990E+04 0.  0.
        1    1    3    3  502    0  0.86737930511E+03 -0.55740291444E+03  0.21664290874E+03  0.10535554176E+04  0.50400001928E-02 0. -1.
       -1    1    3    3    0  502 -0.86737930511E+03  0.55740291444E+03  0.65294920891E+03  0.12204046613E+04  0.50400001928E-02 0.  1.
</event>
<event>
 5   0  0.2602060E-05  0.2088251E+04  0.7818609E-02  0.8566436E-01
       -1   -1    0    0    0  501  0.00000000000E+00  0.00000000000E+00  0.12541907265E+04  0.12541907265E+04  0.50400001928E-02 0.  1.
        1   -1    0    0  501    0  0.00000000000E+00  0.00000000000E+00 -0.86924453466E+03  0.86924453468E+03  0.50400001928E-02 0. -1.
    10030    2    1    2    0    0  0.00000000000E+00  0.00000000000E+00  0.38494619179E+03  0.21234352611E+04  0.20882513588E+04 0.  0.
        1    1    3    3  502    0 -0.96602448388E+03  0.36685002024E+03  0.34471604446E+03  0.10893169383E+04  0.50400001928E-02 0.  1.
       -1    1    3    3    0  502  0.96602448388E+03 -0.36685002024E+03  0.40230147331E+02  0.10341183228E+04  0.50400001928E-02 0. -1.
</event>
<event>
 5   0  0.5506332E-05  0.2112233E+04  0.7818609E-02  0.8555874E-01
        2   -1    0    0  501    0  0.00000000000E+00  0.00000000000E+00  0.17102000889E+04  0.17102000889E+04  0.25500000920E-02 0. -1.
       -2   -1    0    0    0  501  0.00000000000E+00  0.00000000000E+00 -0.65219404785E+03  0.65219404786E+03  0.25500000920E-02 0.  1.
    10030    2    1    2    0    0  0.00000000000E+00  0.00000000000E+00  0.10580060411E+04  0.23623941368E+04  0.21122332434E+04 0.  0.
        3    1    3    3  502    0  0.64275537197E+03 -0.13161724570E+03  0.14546212723E+04  0.15957382691E+04  0.10100000352E+00 0. -1.
       -3    1    3    3    0  502 -0.64275537197E+03  0.13161724570E+03 -0.39661523123E+03  0.76665586765E+03  0.10100000352E+00 0.  1.
</event>
<event>
 5   0  0.5967046E-05  0.2107470E+04  0.7818609E-02  0.8557960E-01
       -2   -1    0    0    0  501  0.00000000000E+00  0.00000000000E+00  0.16514222244E+04  0.16514222245E+04  0.25500000920E-02 0.  1.
        2   -1    0    0  501    0  0.00000000000E+00  0.00000000000E+00 -0.67236409870E+03  0.67236409871E+03  0.25500000920E-02 0. -1.
    10030    2    1    2    0    0  0.00000000000E+00  0.00000000000E+00  0.97905812575E+03  0.23237863232E+04  0.21074695875E+04 0.  0.
        4    1    3    3  502    0  0.91961181825E+03  0.11187426886E+03  0.10432201192E+04  0.13951743899E+04  0.12699999809E+01 0.  1.
       -4    1    3    3    0  502 -0.91961181825E+03 -0.11187426886E+03 -0.64161993423E+02  0.92861193326E+03  0.12699999809E+01 0. -1.
</event>
<event>
 5   0  0.5954140E-05  0.2086294E+04  0.7818609E-02  0.8567305E-01
        2   -1    0    0  501    0  0.00000000000E+00  0.00000000000E+00  0.15241069656E+04  0.15241069656E+04  0.25500000920E-02 0.  1.
       -2   -1    0    0    0  501  0.00000000000E+00  0.00000000000E+00 -0.71396250533E+03  0.71396250534E+03  0.25500000920E-02 0. -1.
    10030    2    1    2    0    0  0.00000000000E+00  0.00000000000E+00  0.81014446023E+03  0.22380694709E+04  0.20862935820E+04 0.  0.
        2    1    3    3  502    0 -0.52003128436E+03  0.78737073702E+03  0.88213811643E+03  0.12917247658E+04  0.25500000920E-02 0. -1.
       -2    1    3    3    0  502  0.52003128436E+03 -0.78737073702E+03 -0.71993656203E+02  0.94634470505E+03  0.25500000920E-02 0.  1.
</event>
<event>
 5   0  0.5967046E-05  0.2077647E+04  0.7818609E-02  0.8571154E-01
       -2   -1    0    0    0  501  0.00000000000E+00  0.00000000000E+00  0.10551930059E+04  0.10551930059E+04  0.25500000920E-02 0. -1.
        2   -1    0    0  501    0  0.00000000000E+00  0.00000000000E+00 -0.10227082909E+04  0.10227082909E+04  0.25500000920E-02 0.  1.
    10030    2    1    2    0    0  0.00000000000E+00  0.00000000000E+00  0.32484714966E+02  0.20779012968E+04  0.20776473576E+04 0.  0.
        4    1    3    3  502    0  0.73350840524E+02  0.25470366978E+03  0.10208046287E+04  0.10546553978E+04  0.12699999809E+01 0. -1.
       -4    1    3    3    0  502 -0.73350840524E+02 -0.25470366978E+03 -0.98831991371E+03  0.10232458991E+04  0.12699999809E+01 0.  1.
</event>
<event>
 5   0  0.5462851E-05  0.1992881E+04  0.7818609E-02  0.8609956E-01
        2   -1    0    0  501    0  0.00000000000E+00  0.00000000000E+00  0.12010318130E+04  0.12010318130E+04  0.25500000920E-02 0.  1.
       -2   -1    0    0    0  501  0.00000000000E+00  0.00000000000E+00 -0.82670054793E+03  0.82670054793E+03  0.25500000920E-02 0. -1.
    10030    2    1    2    0    0  0.00000000000E+00  0.00000000000E+00  0.37433126505E+03  0.20277323609E+04  0.19928809878E+04 0.  0.
        1    1    3    3  502    0 -0.52086714118E+03  0.62031498654E+03 -0.40332847107E+03  0.90485751192E+03  0.50400001928E-02 0. -1.
       -1    1    3    3    0  502  0.52086714118E+03 -0.62031498654E+03  0.77765973612E+03  0.11228748490E+04  0.50400001928E-02 0.  1.
</event>
<event>
 5   0  0.2017750E-05  0.2112705E+04  0.7818609E-02  0.8555667E-01
       -3   -1    0    0    0  501  0.00000000000E+00  0.00000000000E+00  0.91421995121E+03  0.91421995679E+03  0.10100000352E+00 0. -1.
        3   -1    0    0  501    0  0.00000000000E+00  0.00000000000E+00 -0.12205821583E+04  0.12205821624E+04  0.10100000352E+00 0.  1.
    10030    2    1    2    0    0  0.00000000000E+00  0.00000000000E+00 -0.30636220705E+03  0.21348021192E+04  0.21127049691E+04 0.  0.
        2    1    3    3  502    0  0.14570991642E+03 -0.15791430995E+02  0.90389627365E+03  0.91570149206E+03  0.25500000920E-02 0. -1.
       -2    1    3    3    0  502 -0.14570991642E+03  0.15791430995E+02 -0.12102584807E+04  0.12191006272E+04  0.25500000920E-02 0.  1.
</event>
<event>
 5   0  0.2602060E-05  0.2106335E+04  0.7818609E-02  0.8558458E-01
        1   -1    0    0  501    0  0.00000000000E+00  0.00000000000E+00  0.15523202852E+04  0.15523202852E+04  0.50400001928E-02 0.  1.
       -1   -1    0    0    0  501  0.00000000000E+00  0.00000000000E+00 -0.71451892021E+03  0.71451892023E+03  0.50400001928E-02 0. -1.
    10030    2    1    2    0    0  0.00000000000E+00  0.00000000000E+00  0.83780136498E+03  0.22668392054E+04  0.21063354092E+04 0.  0.
        1    1    3    3  502    0 -0.10474076048E+03 -0.39340952914E+03 -0.62641110525E+03  0.74708269778E+03  0.50400001928E-02 0. -1.
       -1    1    3    3    0  502  0.10474076048E+03  0.39340952914E+03  0.14642124702E+04  0.15197565076E+04  0.50400001928E-02 0.  1.
</event>
<event>
 5   0  0.5462851E-05  0.2112153E+04  0.7818609E-02  0.8555909E-01
        2   -1    0    0  501    0  0.00000000000E+00  0.00000000000E+00  0.12312003249E+04  0.12312003249E+04  0.25500000920E-02 0.  1.
       -2   -1    0    0    0  501  0.00000000000E+00  0.00000000000E+00 -0.90586159504E+03  0.90586159504E+03  0.25500000920E-02 0. -1.
    10030    2    1    2    0    0  0.00000000000E+00  0.00000000000E+00  0.32533872985E+03  0.21370619199E+04  0.21121525420E+04 0.  0.
        1    1    3    3  502    0 -0.72718902345E+03  0.49316064765E+02 -0.61058250947E+03  0.95081383613E+03  0.50400001928E-02 0. -1.
       -1    1    3    3    0  502  0.72718902345E+03 -0.49316064765E+02  0.93592123933E+03  0.11862480838E+04  0.50400001928E-02 0.  1.
</event>
<event>
 5   0  0.2699285E-05  0.2090920E+04  0.7818609E-02  0.8565254E-01
       -1   -1    0    0    0  501  0.00000000000E+00  0.00000000000E+00  0.77767310714E+03  0.77767310716E+03  0.50400001928E-02 0. -1.
        1   -1    0    0  501    0  0.00000000000E+00  0.00000000000E+00 -0.14054572729E+04  0.14054572729E+04  0.50400001928E-02 0.  1.
    10030    2    1    2    0    0  0.00000000000E+00  0.00000000000E+00 -0.62778416573E+03  0.21831303800E+04  0.20909197253E+04 0.  0.
        2    1    3    3  502    0  0.10205023172E+04  0.22661486266E+03 -0.29886831344E+03  0.10872449329E+04  0.25500000920E-02 0.  1.
       -2    1    3    3    0  502 -0.10205023172E+04 -0.22661486266E+03 -0.32891585229E+03  0.10958854471E+04  0.25500000920E-02 0. -1.
</event>
<event>
 5   0  0.2732159E-05  0.2107825E+04  0.7818609E-02  0.8557804E-01
        1   -1    0    0  501    0  0.00000000000E+00  0.00000000000E+00  0.19422650785E+04  0.19422650785E+04  0.50400001928E-02 0. -1.
       -1   -1    0    0    0  501  0.00000000000E+00  0.00000000000E+00 -0.57187426597E+03  0.57187426599E+03  0.50400001928E-02 0.  1.
    10030    2    1    2    0    0  0.00000000000E+00  0.00000000000E+00  0.13703908125E+04  0.25141393445E+04  0.21078248657E+04 0.  0.
        3    1    3    3  502    0  0.19419516003E+03  0.11749468202E+03 -0.54237612888E+03  0.58795291976E+03  0.10100000352E+00 0.  1.
       -3    1    3    3    0  502 -0.19419516003E+03 -0.11749468202E+03  0.19127669414E+04  0.19261864247E+04  0.10100000352E+00 0. -1.
</event>
<event>
 5   0  0.2789662E-05  0.2098194E+04  0.7818609E-02  0.8562040E-01
        1   -1    0    0  501    0  0.00000000000E+00  0.00000000000E+00  0.10489252352E+04  0.10489252352E+04  0.50400001928E-02 0.  1.
       -1   -1    0    0    0  501  0.00000000000E+00  0.00000000000E+00 -0.10492683066E+04  0.10492683067E+04  0.50400001928E-02 0. -1.
    10030    2    1    2    0    0  0.00000000000E+00  0.00000000000E+00 -0.34307141556E+00  0.20981935419E+04  0.20981935139E+04 0.  0.
        4    1    3    3  502    0 -0.25946962158E+03  0.87932187909E+03 -0.51014305244E+03  0.10491801554E+04  0.12699999809E+01 0. -1.
       -4    1    3    3    0  502  0.25946962158E+03 -0.87932187909E+03  0.50979998102E+03  0.10490133865E+04  0.12699999809E+01 0.  1.
</event>
<event>
 5   0  0.5462851E-05  0.2109880E+04  0.7818609E-02  0.8556904E-01
        2   -1    0    0  501    0  0.00000000000E+00  0.00000000000E+00  0.17827547239E+04  0.17827547239E+04  0.25500000920E-02 0. -1.
       -2   -1    0    0    0  501  0.00000000000E+00  0.00000000000E+00 -0.62425753202E+03  0.62425753202E+03  0.25500000920E-02 0.  1.
    10030    2    1    2    0    0  0.00000000000E+00  0.00000000000E+00  0.11584971919E+04  0.24070122560E+04  0.21098796782E+04 0.  0.
        1    1    3    3  502    0  0.62417023061E+03 -0.80559535164E+03  0.26822727215E+03  0.10538112814E+04  0.50400001928E-02 0.  1.
       -1    1    3    3    0  502 -0.62417023061E+03  0.80559535164E+03  0.89026991978E+03  0.13532009745E+04  0.50400001928E-02 0. -1.
</event>
<event>
 5   0  0.2699285E-05  0.2108451E+04  0.7818609E-02  0.8557530E-01
       -1   -1    0    0    0  501  0.00000000000E+00  0.00000000000E+00  0.71848831807E+03  0.71848831809E+03  0.50400001928E-02 0.  1.
        1   -1    0    0  501    0  0.00000000000E+00  0.00000000000E+00 -0.15468464471E+04  0.15468464472E+04  0.50400001928E-02 0. -1.
    10030    2    1    2    0    0  0.00000000000E+00  0.00000000000E+00 -0.82835812907E+03  0.22653347652E+04  0.21084507129E+04 0.  0.
        2    1    3    3  502    0 -0.76593111259E+03 -0.70524682517E+03 -0.23643836507E+03  0.10676734773E+04  0.25500000920E-02 0.  1.
       -2    1    3    3    0  502  0.76593111259E+03  0.70524682517E+03 -0.59191976401E+03  0.11976612880E+04  0.25500000920E-02 0. -1.
</event>
<event>
 5   0  0.2604390E-05  0.2153487E+04  0.7818609E-02  0.8538041E-01
        1   -1    0    0  501    0  0.00000000000E+00  0.00000000000E+00  0.14277589284E+04  0.14277589284E+04  0.50400001928E-02 0.  1.
       -1   -1    0    0    0  501  0.00000000000E+00  0.00000000000E+00 -0.81202519556E+03  0.81202519557E+03  0.50400001928E-02 0. -1.
    10030    2    1    2    0    0  0.00000000000E+00  0.00000000000E+00  0.61573373285E+03  0.22397841240E+04  0.21534866826E+04 0.  0.
        5    1    3    3  502    0 -0.45521911182E+03  0.24494472254E+03 -0.67451078922E+03  0.84982895435E+03  0.46999998093E+01 0. -1.
       -5    1    3    3    0  502  0.45521911182E+03 -0.24494472254E+03  0.12902445221E+04  0.13899551696E+04  0.46999998093E+01 0.  1.
</event>
<event>
 5   0  0.2604390E-05  0.2102056E+04  0.7818609E-02  0.8560338E-01
        1   -1    0    0  501    0  0.00000000000E+00  0.00000000000E+00  0.13597586528E+04  0.13597586529E+04  0.50400001928E-02 0.  1.
       -1   -1    0    0    0  501  0.00000000000E+00  0.00000000000E+00 -0.81239393332E+03  0.81239393333E+03  0.50400001928E-02 0. -1.
    10030    2    1    2    0    0  0.00000000000E+00  0.00000000000E+00  0.54736471953E+03  0.21721525862E+04  0.21020558322E+04 0.  0.
        5    1    3    3  502    0  0.63208504483E+02 -0.35293076257E+03  0.12945966161E+04  0.13433383515E+04  0.46999998093E+01 0.  1.
       -5    1    3    3    0  502 -0.63208504483E+02  0.35293076257E+03 -0.74723189662E+03  0.82881423464E+03  0.46999998093E+01 0. -1.
</event>
<event>
 5   0  0.5462851E-05  0.2099994E+04  0.7818609E-02  0.8561246E-01
        2   -1    0    0  501    0  0.00000000000E+00  0.00000000000E+00  0.22558614052E+04  0.22558614052E+04  0.25500000920E-02 0.  1.
       -2   -1    0    0    0  501  0.00000000000E+00  0.00000000000E+00 -0.48872421297E+03  0.48872421298E+03  0.25500000920E-02 0. -1.
    10030    2    1    2    0    0  0.00000000000E+00  0.00000000000E+00  0.17671371922E+04  0.27445856181E+04  0.20999943713E+04 0.  0.
        1    1    3    3  502    0  0.19344853255E+03  0.65851707247E+03  0.19221014354E+04  0.20409657022E+04  0.50400001928E-02 0.  1.
       -1    1    3    3    0  502 -0.19344853255E+03 -0.65851707247E+03 -0.15496424318E+03  0.70361991599E+03  0.50400001928E-02 0. -1.
</event>
<event>
 5   0  0.2604390E-05  0.2045543E+04  0.7818609E-02  0.8585619E-01
        1   -1    0    0  501    0  0.00000000000E+00  0.00000000000E+00  0.12215574594E+04  0.12215574594E+04  0.50400001928E-02 0. -1.
       -1   -1    0    0    0  501  0.00000000000E+00  0.00000000000E+00 -0.85633394623E+03  0.85633394625E+03  0.50400001928E-02 0.  1.
    10030    2    1    2    0    0  0.00000000000E+00  0.00000000000E+00  0.36522351318E+03  0.20778914057E+04  0.20455425880E+04 0.  0.
        5    1    3    3  502    0  0.14842349563E+03 -0.10118054884E+04  0.16625905661E+03  0.10360714475E+04  0.46999998093E+01 0.  1.
       -5    1    3    3    0  502 -0.14842349563E+03  0.10118054884E+04  0.19896445656E+03  0.10418199582E+04  0.46999998093E+01 0. -1.
</event>
<event>
 5   0  0.5954140E-05  0.2105283E+04  0.7818609E-02  0.8558920E-01
        2   -1    0    0  501    0  0.00000000000E+00  0.00000000000E+00  0.12348574703E+04  0.12348574703E+04  0.25500000920E-02 0. -1.
       -2   -1    0    0    0  501  0.00000000000E+00  0.00000000000E+00 -0.89731296752E+03  0.89731296753E+03  0.25500000920E-02 0.  1.
    10030    2    1    2    0    0  0.00000000000E+00  0.00000000000E+00  0.33754450277E+03  0.21321704378E+04  0.21052825189E+04 0.  0.
        2    1    3    3  502    0 -0.45063673630E+03 -0.13994571913E+03 -0.78419977250E+03  0.91521994930E+03  0.25500000920E-02 0.  1.
       -2    1    3    3    0  502  0.45063673630E+03  0.13994571913E+03  0.11217442753E+04  0.12169504885E+04  0.25500000920E-02 0. -1.
</event>
<event>
 5   0  0.2699285E-05  0.2101273E+04  0.7818609E-02  0.8560683E-01
       -1   -1    0    0    0  501  0.00000000000E+00  0.00000000000E+00  0.10180964177E+04  0.10180964177E+04  0.50400001928E-02 0.  1.
        1   -1    0    0  501    0  0.00000000000E+00  0.00000000000E+00 -0.10842162923E+04  0.10842162923E+04  0.50400001928E-02 0. -1.
    10030    2    1    2    0    0  0.00000000000E+00  0.00000000000E+00 -0.66119874617E+02  0.21023127100E+04  0.21012726841E+04 0.  0.
        2    1    3    3  502    0 -0.93520485433E+03 -0.47580527924E+03 -0.86358622921E+02  0.10528326529E+04  0.25500000920E-02 0.  1.
       -2    1    3    3    0  502  0.93520485433E+03  0.47580527924E+03  0.20238748304E+02  0.10494800571E+04  0.25500000920E-02 0. -1.
</event>
<event>
 5   0  0.5866610E-05  0.2102006E+04  0.7818609E-02  0.8560360E-01
       -2   -1    0    0    0  501  0.00000000000E+00  0.00000000000E+00  0.71830778034E+03  0.71830778034E+03  0.25500000920E-02 0. -1.
        2   -1    0    0  501    0  0.00000000000E+00  0.00000000000E+00 -0.15377917583E+04  0.15377917583E+04  0.25500000920E-02 0.  1.
    10030    2    1    2    0    0  0.00000000000E+00  0.00000000000E+00 -0.81948397799E+03  0.22560995387E+04  0.21020064553E+04 0.  0.
        5    1    3    3  502    0 -0.89975597025E+03 -0.42990839433E+03 -0.53436738244E+02  0.99862886425E+03  0.46999998093E+01 0. -1.
       -5    1    3    3    0  502  0.89975597025E+03  0.42990839433E+03 -0.76604723974E+03  0.12574706744E+04  0.46999998093E+01 0.  1.
</event>
<event>
 5   0  0.5967046E-05  0.2088991E+04  0.7818609E-02  0.8566109E-01
        2   -1    0    0  501    0  0.00000000000E+00  0.00000000000E+00  0.14614001628E+04  0.14614001628E+04  0.25500000920E-02 0.  1.
       -2   -1    0    0    0  501  0.00000000000E+00  0.00000000000E+00 -0.74652426391E+03  0.74652426391E+03  0.25500000920E-02 0. -1.
    10030    2    1    2    0    0  0.00000000000E+00  0.00000000000E+00  0.71487589893E+03  0.22079244267E+04  0.20889908385E+04 0.  0.
        4    1    3    3  502    0 -0.89432724703E+03 -0.22223829937E+03 -0.16224453480E+03  0.93570080071E+03  0.12699999809E+01 0. -1.
       -4    1    3    3    0  502  0.89432724703E+03  0.22223829937E+03  0.87712043373E+03  0.12722236260E+04  0.12699999809E+01 0.  1.
</event>
<event>
 5   0  0.5967046E-05  0.2094171E+04  0.7818609E-02  0.8563815E-01
        2   -1    0    0  501    0  0.00000000000E+00  0.00000000000E+00  0.18574967069E+04  0.18574967069E+04  0.25500000920E-02 0. -1.
       -2   -1    0    0    0  501  0.00000000000E+00  0.00000000000E+00 -0.59025029069E+03  0.59025029070E+03  0.25500000920E-02 0.  1.
    10030    2    1    2    0    0  0.00000000000E+00  0.00000000000E+00  0.12672464162E+04  0.24477469976E+04  0.20941709302E+04 0.  0.
        4    1    3    3  502    0  0.29243533608E+03 -0.75178439939E+03  0.14139381859E+04  0.16278577995E+04  0.12699999809E+01 0. -1.
       -4    1    3    3    0  502 -0.29243533608E+03  0.75178439939E+03 -0.14669176970E+03  0.81988919809E+03  0.12699999809E+01 0.  1.
</event>
<event>
 5   0  0.2017750E-05  0.2089145E+04  0.7818609E-02  0.8566040E-01
        3   -1    0    0  501    0  0.00000000000E+00  0.00000000000E+00  0.14549260230E+04  0.14549260265E+04  0.10100000352E+00 0. -1.
       -3   -1    0    0    0  501  0.00000000000E+00  0.00000000000E+00 -0.74995659568E+03  0.74995660248E+03  0.10100000352E+00 0.  1.
    10030    2    1    2    0    0  0.00000000000E+00  0.00000000000E+00  0.70496942728E+03  0.22048826289E+04  0.20891446848E+04 0.  0.
        2    1    3    3  502    0 -0.46070226944E+03  0.54808572415E+03 -0.45023457362E+03  0.84578703783E+03  0.25500000920E-02 0.  1.
       -2    1    3    3    0  502  0.46070226944E+03 -0.54808572415E+03  0.11552040009E+04  0.13590955911E+04  0.25500000920E-02 0. -1.
</event>
<event>
 5   0  0.2017750E-05  0.2146132E+04  0.7818609E-02  0.8541190E-01
        3   -1    0    0  501    0  0.00000000000E+00  0.00000000000E+00  0.15197489731E+04  0.15197489765E+04  0.10100000352E+00 0. -1.
       -3   -1    0    0    0  501  0.00000000000E+00  0.00000000000E+00 -0.75767182698E+03  0.75767183372E+03  0.10100000352E+00 0.  1.
    10030    2    1    2    0    0  0.00000000000E+00  0.00000000000E+00  0.76207714612E+03  0.22774208102E+04  0.21461323282E+04 0.  0.
        3    1    3    3  502    0  0.56933729718E+03 -0.49395500647E+03  0.11915247467E+04  0.14099176354E+04  0.10100000352E+00 0. -1.
       -3    1    3    3    0  502 -0.56933729718E+03  0.49395500647E+03 -0.42944760060E+03  0.86750317477E+03  0.10100000352E+00 0.  1.
</event>
<event>
 5   0  0.2604390E-05  0.2103165E+04  0.7818609E-02  0.8559850E-01
       -1   -1    0    0    0  501  0.00000000000E+00  0.00000000000E+00  0.10248151268E+04  0.10248151268E+04  0.50400001928E-02 0. -1.
        1   -1    0    0  501    0  0.00000000000E+00  0.00000000000E+00 -0.10790492161E+04  0.10790492161E+04  0.50400001928E-02 0.  1.
    10030    2    1    2    0    0  0.00000000000E+00  0.00000000000E+00 -0.54234089243E+02  0.21038643429E+04  0.21031651949E+04 0.  0.
        5    1    3    3  502    0 -0.92610890733E+03  0.46215429782E+03 -0.21302705938E+03  0.10567246194E+04  0.46999998093E+01 0.  1.
       -5    1    3    3    0  502  0.92610890733E+03 -0.46215429782E+03  0.15879297014E+03  0.10471397235E+04  0.46999998093E+01 0. -1.
</event>
<event>
 5   0  0.5462851E-05  0.2099189E+04  0.7818609E-02  0.8561601E-01
       -2   -1    0    0    0  501  0.00000000000E+00  0.00000000000E+00  0.45788182633E+03  0.45788182634E+03  0.25500000920E-02 0.  1.
        2   -1    0    0  501    0  0.00000000000E+00  0.00000000000E+00 -0.24059672042E+04  0.24059672042E+04  0.25500000920E-02 0. -1.
    10030    2    1    2    0    0  0.00000000000E+00  0.00000000000E+00 -0.19480853778E+04  0.28638490305E+04  0.20991890411E+04 0.  0.
        1    1    3    3  502    0 -0.61180122539E+03 -0.36666109228E+03  0.76447653796E+02  0.71734603908E+03  0.50400001928E-02 0.  1.
       -1    1    3    3    0  502  0.61180122539E+03  0.36666109228E+03 -0.20245330316E+04  0.21465029914E+04  0.50400001928E-02 0. -1.
</event>
<event>
 5   0  0.5866610E-05  0.2096582E+04  0.7818609E-02  0.8562750E-01
       -2   -1    0    0    0  501  0.00000000000E+00  0.00000000000E+00  0.90100055785E+03  0.90100055785E+03  0.25500000920E-02 0. -1.
        2   -1    0    0  501    0  0.00000000000E+00  0.00000000000E+00 -0.12196601956E+04  0.12196601956E+04  0.25500000920E-02 0.  1.
    10030    2    1    2    0    0  0.00000000000E+00  0.00000000000E+00 -0.31865963773E+03  0.21206607534E+04  0.20965824731E+04 0.  0.
        5    1    3    3  502    0  0.71468710204E+03 -0.46701811844E+03 -0.77459920144E+03  0.11527834097E+04  0.46999998093E+01 0.  1.
       -5    1    3    3    0  502 -0.71468710204E+03  0.46701811844E+03  0.45593956371E+03  0.96787734375E+03  0.46999998093E+01 0. -1.
</event>
<event>
 5   0  0.2604390E-05  0.2088726E+04  0.7818609E-02  0.8566226E-01
       -1   -1    0    0    0  501  0.00000000000E+00  0.00000000000E+00  0.67843424219E+03  0.67843424221E+03  0.50400001928E-02 0. -1.
        1   -1    0    0  501    0  0.00000000000E+00  0.00000000000E+00 -0.16076633720E+04  0.16076633721E+04  0.50400001928E-02 0.  1.
    10030    2    1    2    0    0  0.00000000000E+00  0.00000000000E+00 -0.92922912986E+03  0.22860976143E+04  0.20887258140E+04 0.  0.
        5    1    3    3  502    0  0.88693911085E+03 -0.49148748536E+03 -0.19109869041E+03  0.10318729254E+04  0.46999998093E+01 0. -1.
       -5    1    3    3    0  502 -0.88693911085E+03  0.49148748536E+03 -0.73813043945E+03  0.12542246889E+04  0.46999998093E+01 0.  1.
</event>
<event>
 5   0  0.5967046E-05  0.2090649E+04  0.7818609E-02  0.8565374E-01
       -2   -1    0    0    0  501  0.00000000000E+00  0.00000000000E+00  0.63246767016E+03  0.63246767017E+03  0.25500000920E-02 0. -1.
        2   -1    0    0  501    0  0.00000000000E+00  0.00000000000E+00 -0.17276826972E+04  0.17276826972E+04  0.25500000920E-02 0.  1.
    10030    2    1    2    0    0  0.00000000000E+00  0.00000000000E+00 -0.10952150270E+04  0.23601503674E+04  0.20906491339E+04 0.  0.
        4    1    3    3  502    0 -0.63467866074E+01  0.70803327483E+03  0.32051492468E+03  0.77722765636E+03  0.12699999809E+01 0. -1.
       -4    1    3    3    0  502  0.63467866074E+01 -0.70803327483E+03 -0.14157299517E+04  0.15829227110E+04  0.12699999809E+01 0.  1.
</event>
<event>
 5   0  0.5462851E-05  0.2100004E+04  0.7818609E-02  0.8561241E-01
        2   -1    0    0  501    0  0.00000000000E+00  0.00000000000E+00  0.13893932614E+04  0.13893932614E+04  0.25500000920E-02 0.  1.
       -2   -1    0    0    0  501  0.00000000000E+00  0.00000000000E+00 -0.79351521430E+03  0.79351521431E+03  0.25500000920E-02 0. -1.
    10030    2    1    2    0    0  0.00000000000E+00  0.00000000000E+00  0.59587804707E+03  0.21829084757E+04  0.21000044681E+04 0.  0.
        1    1    3    3  502    0 -0.89398211003E+01 -0.87109883649E+02 -0.78971299403E+03  0.79455312296E+03  0.50400001928E-02 0. -1.
       -1    1    3    3    0  502  0.89398211003E+01  0.87109883649E+02  0.13855910411E+04  0.13883553527E+04  0.50400001928E-02 0.  1.
</event>
<event>
 5   0  0.2732159E-05  0.2311841E+04  0.7818609E-02  0.8473267E-01
       -1   -1    0    0    0  501  0.00000000000E+00  0.00000000000E+00  0.69722948998E+03  0.69722949000E+03  0.50400001928E-02 0. -1.
        1   -1    0    0  501    0  0.00000000000E+00  0.00000000000E+00 -0.19163742283E+04  0.19163742283E+04  0.50400001928E-02 0.  1.
    10030    2    1    2    0    0  0.00000000000E+00  0.00000000000E+00 -0.12191447383E+04  0.26136037183E+04  0.23118413664E+04 0.  0.
        3    1    3    3  502    0 -0.54901748040E+03  0.32383805305E+03 -0.16997337781E+04  0.18153198630E+04  0.10100000352E+00 0.  1.
       -3    1    3    3    0  502  0.54901748040E+03 -0.32383805305E+03  0.48058903974E+03  0.79828385535E+03  0.10100000352E+00 0. -1.
</event>
<event>
 5   0  0.5506332E-05  0.2142881E+04  0.7818609E-02  0.8542586E-01
        2   -1    0    0  501    0  0.00000000000E+00  0.00000000000E+00  0.74163258289E+03  0.74163258289E+03  0.25500000920E-02 0. -1.
       -2   -1    0    0    0  501  0.00000000000E+00  0.00000000000E+00 -0.15479154798E+04  0.15479154798E+04  0.25500000920E-02 0.  1.
    10030    2    1    2    0    0  0.00000000000E+00  0.00000000000E+00 -0.80628289690E+03  0.22895480627E+04  0.21428808230E+04 0.  0.
        3    1    3    3  502    0 -0.10100821297E+03  0.40516927178E+03  0.65111540611E+03  0.77350893993E+03  0.10100000352E+00 0. -1.
       -3    1    3    3    0  502  0.10100821297E+03 -0.40516927178E+03 -0.14573983030E+04  0.15160391227E+04  0.10100000352E+00 0.  1.
</event>
<event>
 5   0  0.2732159E-05  0.2098947E+04  0.7818609E-02  0.8561707E-01
       -1   -1    0    0    0  501  0.00000000000E+00  0.00000000000E+00  0.19894291605E+04  0.19894291605E+04  0.50400001928E-02 0. -1.
        1   -1    0    0  501    0  0.00000000000E+00  0.00000000000E+00 -0.55362359357E+03  0.55362359360E+03  0.50400001928E-02 0.  1.
    10030    2    1    2    0    0  0.00000000000E+00  0.00000000000E+00  0.14358055669E+04  0.25430527541E+04  0.20989472800E+04 0.  0.
        3    1    3    3  502    0  0.62612460695E+03 -0.65112578592E+03  0.13651636891E+04  0.16369693707E+04  0.10100000352E+00 0. -1.
       -3    1    3    3    0  502 -0.62612460695E+03  0.65112578592E+03  0.70641877833E+02  0.90608338337E+03  0.10100000352E+00 0.  1.
</event>
<event>
 5   0  0.2604390E-05  0.2125355E+04  0.7818609E-02  0.8550156E-01
        1   -1    0    0  501    0  0.00000000000E+00  0.00000000000E+00  0.10775254906E+04  0.10775254907E+04  0.50400001928E-02 0. -1.
       -1   -1    0    0    0  501  0.00000000000E+00  0.00000000000E+00 -0.10480344881E+04  0.10480344881E+04  0.50400001928E-02 0.  1.
    10030    2    1    2    0    0  0.00000000000E+00  0.00000000000E+00  0.29491002583E+02  0.21255599787E+04  0.21253553830E+04 0.  0.
        5    1    3    3  502    0 -0.38961883869E+03  0.61357134245E+03 -0.76056402875E+03  0.10520229862E+04  0.46999998093E+01 0.  1.
       -5    1    3    3    0  502  0.38961883869E+03 -0.61357134245E+03  0.79005503133E+03  0.10735369925E+04  0.46999998093E+01 0. -1.
</event>
<event>
 5   0  0.2602060E-05  0.2121697E+04  0.7818609E-02  0.8551746E-01
       -1   -1    0    0    0  501  0.00000000000E+00  0.00000000000E+00  0.64479269912E+03  0.64479269914E+03  0.50400001928E-02 0.  1.
        1   -1    0    0  501    0  0.00000000000E+00  0.00000000000E+00 -0.17453662406E+04  0.17453662406E+04  0.50400001928E-02 0. -1.
    10030    2    1    2    0    0  0.00000000000E+00  0.00000000000E+00 -0.11005735415E+04  0.23901589398E+04  0.21216968768E+04 0.  0.
        1    1    3    3  502    0 -0.49022265762E+03 -0.93594892567E+03 -0.44293613203E+03  0.11456487518E+04  0.50400001928E-02 0. -1.
       -1    1    3    3    0  502  0.49022265762E+03  0.93594892567E+03 -0.65763740946E+03  0.12445101879E+04  0.50400001928E-02 0.  1.
</event>
<event>
 5   0  0.2602060E-05  0.2004358E+04  0.7818609E-02  0.8604586E-01
        1   -1    0    0  501    0  0.00000000000E+00  0.00000000000E+00  0.91811448384E+03  0.91811448385E+03  0.50400001928E-02 0. -1.
       -1   -1    0    0    0  501  0.00000000000E+00  0.00000000000E+00 -0.10939409104E+04  0.10939409104E+04  0.50400001928E-02 0.  1.
    10030    2    1    2    0    0  0.00000000000E+00  0.00000000000E+00 -0.17582642657E+03  0.20120553943E+04  0.20043582458E+04 0.  0.
        1    1    3    3  502    0 -0.85279146884E+03 -0.46712928357E+03 -0.33153829780E+03  0.10273172343E+04  0.50400001928E-02 0.  1.
       -1    1    3    3    0  502  0.85279146884E+03  0.46712928357E+03  0.15571187123E+03  0.98473816000E+03  0.50400001928E-02 0. -1.
</event>
<event>
 5   0  0.5506332E-05  0.2109261E+04  0.7818609E-02  0.8557175E-01
       -2   -1    0    0    0  501  0.00000000000E+00  0.00000000000E+00  0.71518585335E+03  0.71518585335E+03  0.25500000920E-02 0. -1.
        2   -1    0    0  501    0  0.00000000000E+00  0.00000000000E+00 -0.15551831646E+04  0.15551831646E+04  0.25500000920E-02 0.  1.
    10030    2    1    2    0    0  0.00000000000E+00  0.00000000000E+00 -0.83999731120E+03  0.22703690179E+04  0.21092605327E+04 0.  0.
        3    1    3    3  502    0  0.81111073312E+03 -0.62382006334E+03 -0.69483006238E+03  0.12368673812E+04  0.10100000352E+00 0.  1.
       -3    1    3    3    0  502 -0.81111073312E+03  0.62382006334E+03 -0.14516724883E+03  0.10335016367E+04  0.10100000352E+00 0. -1.
</event>
<event>
 5   0  0.2602060E-05  0.2091220E+04  0.7818609E-02  0.8565121E-01
       -1   -1    0    0    0  501  0.00000000000E+00  0.00000000000E+00  0.53370288737E+03  0.53370288739E+03  0.50400001928E-02 0. -1.
        1   -1    0    0  501    0  0.00000000000E+00  0.00000000000E+00 -0.20485193932E+04  0.20485193932E+04  0.50400001928E-02 0.  1.
    10030    2    1    2    0    0  0.00000000000E+00  0.00000000000E+00 -0.15148165058E+04  0.25822222806E+04  0.20912204236E+04 0.  0.
        1    1    3    3  502    0 -0.55760211492E+03  0.87876224816E+03 -0.88185610087E+03  0.13641163404E+04  0.50400001928E-02 0.  1.
       -1    1    3    3    0  502  0.55760211492E+03 -0.87876224816E+03 -0.63296040496E+03  0.12181059402E+04  0.50400001928E-02 0. -1.
</event>
<event>
 5   0  0.2699285E-05  0.2101974E+04  0.7818609E-02  0.8560374E-01
        1   -1    0    0  501    0  0.00000000000E+00  0.00000000000E+00  0.12922639942E+04  0.12922639942E+04  0.50400001928E-02 0. -1.
       -1   -1    0    0    0  501  0.00000000000E+00  0.00000000000E+00 -0.85475877115E+03  0.85475877116E+03  0.50400001928E-02 0.  1.
    10030    2    1    2    0    0  0.00000000000E+00  0.00000000000E+00  0.43750522308E+03  0.21470227654E+04  0.21019742945E+04 0.  0.
        2    1    3    3  502    0 -0.26353076084E+03  0.66171441018E+03 -0.57063590474E+03  0.91265533381E+03  0.25500000920E-02 0.  1.
       -2    1    3    3    0  502  0.26353076084E+03 -0.66171441018E+03  0.10081411278E+04  0.12343674316E+04  0.25500000920E-02 0. -1.
</event>
<event>
 5   0  0.2604390E-05  0.2125866E+04  0.7818609E-02  0.8549934E-01
       -1   -1    0    0    0  501  0.00000000000E+00  0.00000000000E+00  0.47018939914E+03  0.47018939916E+03  0.50400001928E-02 0. -1.
        1   -1    0    0  501    0  0.00000000000E+00  0.00000000000E+00 -0.24029180292E+04  0.24029180292E+04  0.50400001928E-02 0.  1.
    10030    2    1    2    0    0  0.00000000000E+00  0.00000000000E+00 -0.19327286301E+04  0.28731074284E+04  0.21258660206E+04 0.  0.
        5    1    3    3  502    0  0.72233578172E+03 -0.77975355301E+03 -0.97239469990E+03  0.14406103316E+04  0.46999998093E+01 0. -1.
       -5    1    3    3    0  502 -0.72233578172E+03  0.77975355301E+03 -0.96033393020E+03  0.14324970969E+04  0.46999998093E+01 0.  1.
</event>
<event>
 5   0  0.5462851E-05  0.2105314E+04  0.7818609E-02  0.8558906E-01
       -2   -1    0    0    0  501  0.00000000000E+00  0.00000000000E+00  0.83662765386E+03  0.83662765386E+03  0.25500000920E-02 0. -1.
        2   -1    0    0  501    0  0.00000000000E+00  0.00000000000E+00 -0.13244681479E+04  0.13244681479E+04  0.25500000920E-02 0.  1.
    10030    2    1    2    0    0  0.00000000000E+00  0.00000000000E+00 -0.48784049401E+03  0.21610958017E+04  0.21053139235E+04 0.  0.
        1    1    3    3  502    0 -0.17786419676E+03  0.23182517075E+03 -0.12820054584E+04  0.13148827239E+04  0.50400001928E-02 0.  1.
       -1    1    3    3    0  502  0.17786419676E+03 -0.23182517075E+03  0.79416496441E+03  0.84621307778E+03  0.50400001928E-02 0. -1.
</event>
<event>
 5   0  0.5506332E-05  0.2097063E+04  0.7818609E-02  0.8562538E-01
       -2   -1    0    0    0  501  0.00000000000E+00  0.00000000000E+00  0.11589665033E+04  0.11589665033E+04  0.25500000920E-02 0.  1.
        2   -1    0    0  501    0  0.00000000000E+00  0.00000000000E+00 -0.94861968899E+03  0.94861968899E+03  0.25500000920E-02 0. -1.
    10030    2    1    2    0    0  0.00000000000E+00  0.00000000000E+00  0.21034681426E+03  0.21075861922E+04  0.20970631310E+04 0.  0.
        3    1    3    3  502    0 -0.44444331223E+03  0.44316783899E+03  0.94932322315E+03  0.11380431378E+04  0.10100000352E+00 0.  1.
       -3    1    3    3    0  502  0.44444331223E+03 -0.44316783899E+03 -0.73897640889E+03  0.96954305443E+03  0.10100000352E+00 0. -1.
</event>
<event>
 5   0  0.2602060E-05  0.2108785E+04  0.7818609E-02  0.8557384E-01
       -1   -1    0    0    0  501  0.00000000000E+00  0.00000000000E+00  0.60950467891E+03  0.60950467893E+03  0.50400001928E-02 0.  1.
        1   -1    0    0  501    0  0.00000000000E+00  0.00000000000E+00 -0.18240107886E+04  0.18240107886E+04  0.50400001928E-02 0. -1.
    10030    2    1    2    0    0  0.00000000000E+00  0.00000000000E+00 -0.12145061097E+04  0.24335154675E+04  0.21087845884E+04 0.  0.
        1    1    3    3  502    0  0.17011266532E+03 -0.91104121928E+03 -0.27026114770E+02  0.92718112202E+03  0.50400001928E-02 0.  1.
       -1    1    3    3    0  502 -0.17011266532E+03  0.91104121928E+03 -0.11874799949E+04  0.15063343455E+04  0.50400001928E-02 0. -1.
</event>
<event>
 5   0  0.2699285E-05  0.2105852E+04  0.7818609E-02  0.8558670E-01
       -1   -1    0    0    0  501  0.00000000000E+00  0.00000000000E+00  0.81475893506E+03  0.81475893508E+03  0.50400001928E-02 0. -1.
        1   -1    0    0  501    0  0.00000000000E+00  0.00000000000E+00 -0.13607125363E+04  0.13607125363E+04  0.50400001928E-02 0.  1.
    10030    2    1    2    0    0  0.00000000000E+00  0.00000000000E+00 -0.54595360125E+03  0.21754714714E+04  0.21058515589E+04 0.  0.
        2    1    3    3  502    0  0.18940164126E+03  0.49036926442E+03  0.66949898935E+03  0.85121318949E+03  0.25500000920E-02 0. -1.
       -2    1    3    3    0  502 -0.18940164126E+03 -0.49036926442E+03 -0.12154525906E+04  0.13242582819E+04  0.25500000920E-02 0.  1.
</event>
<event>
 5   0  0.2789662E-05  0.2095763E+04  0.7818609E-02  0.8563112E-01
        1   -1    0    0  501    0  0.00000000000E+00  0.00000000000E+00  0.16870686621E+04  0.16870686621E+04  0.50400001928E-02 0.  1.
       -1   -1    0    0    0  501  0.00000000000E+00  0.00000000000E+00 -0.65086582101E+03  0.65086582103E+03  0.50400001928E-02 0. -1.
    10030    2    1    2    0    0  0.00000000000E+00  0.00000000000E+00  0.10362028411E+04  0.23379344831E+04  0.20957627059E+04 0.  0.
        4    1    3    3  502    0  0.30906913676E+02  0.23868184120E+03  0.16558175812E+04  0.16732177783E+04  0.12699999809E+01 0.  1.
       -4    1    3    3    0  502 -0.30906913676E+02 -0.23868184120E+03 -0.61961474009E+03  0.66471670483E+03  0.12699999809E+01 0. -1.
</event>
<event>
 5   0  0.2732159E-05  0.2153711E+04  0.7818609E-02  0.8537946E-01
        1   -1    0    0  501    0  0.00000000000E+00  0.00000000000E+00  0.13804391016E+04  0.13804391016E+04  0.50400001928E-02 0.  1.
       -1   -1    0    0    0  501  0.00000000000E+00  0.00000000000E+00 -0.84003529521E+03  0.84003529523E+03  0.50400001928E-02 0. -1.
    10030    2    1    2    0    0  0.00000000000E+00  0.00000000000E+00  0.54040380642E+03  0.22204743969E+04  0.21537108147E+04 0.  0.
        3    1    3    3  502    0 -0.70060854396E+03  0.76037612874E+03 -0.40115824537E+02  0.10347142014E+04  0.10100000352E+00 0. -1.
       -3    1    3    3    0  502  0.70060854396E+03 -0.76037612874E+03  0.58051963096E+03  0.11857601955E+04  0.10100000352E+00 0.  1.
</event>
<event>
 5   0  0.2602060E-05  0.2088489E+04  0.7818609E-02  0.8566331E-01
        1   -1    0    0  501    0  0.00000000000E+00  0.00000000000E+00  0.31031938632E+04  0.31031938632E+04  0.50400001928E-02 0. -1.
       -1   -1    0    0    0  501  0.00000000000E+00  0.00000000000E+00 -0.35139479881E+03  0.35139479884E+03  0.50400001928E-02 0.  1.
    10030    2    1    2    0    0  0.00000000000E+00  0.00000000000E+00  0.27517990644E+04  0.34545886620E+04  0.20884886241E+04 0.  0.
        1    1    3    3  502    0 -0.23091318336E+02 -0.97888467231E+03  0.19761789382E+04  0.22054549659E+04  0.50400001928E-02 0. -1.
       -1    1    3    3    0  502  0.23091318336E+02  0.97888467231E+03  0.77562012612E+03  0.12491336961E+04  0.50400001928E-02 0.  1.
</event>
<event>
 5   0  0.5967046E-05  0.2103172E+04  0.7818609E-02  0.8559847E-01
       -2   -1    0    0    0  501  0.00000000000E+00  0.00000000000E+00  0.81666130591E+03  0.81666130592E+03  0.25500000920E-02 0.  1.
        2   -1    0    0  501    0  0.00000000000E+00  0.00000000000E+00 -0.13540906642E+04  0.13540906642E+04  0.25500000920E-02 0. -1.
    10030    2    1    2    0    0  0.00000000000E+00  0.00000000000E+00 -0.53742935830E+03  0.21707519701E+04  0.21031723183E+04 0.  0.
        4    1    3    3  502    0  0.12549335284E+03  0.39705472017E+03 -0.12653669332E+04  0.13321246642E+04  0.12699999809E+01 0. -1.
       -4    1    3    3    0  502 -0.12549335284E+03 -0.39705472017E+03  0.72793757490E+03  0.83862730594E+03  0.12699999809E+01 0.  1.
</event>
<event>
 5   0  0.5967046E-05  0.2108404E+04  0.7818609E-02  0.8557550E-01
        2   -1    0    0  501    0  0.00000000000E+00  0.00000000000E+00  0.10875989919E+04  0.10875989919E+04  0.25500000920E-02 0. -1.
       -2   -1    0    0    0  501  0.00000000000E+00  0.00000000000E+00 -0.10218304739E+04  0.10218304739E+04  0.25500000920E-02 0.  1.
    10030    2    1    2    0    0  0.00000000000E+00  0.00000000000E+00  0.65768517995E+02  0.21094294658E+04  0.21084039398E+04 0.  0.
        4    1    3    3  502    0 -0.75852513762E+03 -0.37270638589E+03 -0.59755694263E+03  0.10350586201E+04  0.12699999809E+01 0.  1.
       -4    1    3    3    0  502  0.75852513762E+03  0.37270638589E+03  0.66332546062E+03  0.10743708457E+04  0.12699999809E+01 0. -1.
</event>
<event>
 5   0  0.2602060E-05  0.2102866E+04  0.7818609E-02  0.8559982E-01
        1   -1    0    0  501    0  0.00000000000E+00  0.00000000000E+00  0.10752845121E+04  0.10752845121E+04  0.50400001928E-02 0.  1.
       -1   -1    0    0    0  501  0.00000000000E+00  0.00000000000E+00 -0.10281104640E+04  0.10281104640E+04  0.50400001928E-02 0. -1.
    10030    2    1    2    0    0  0.00000000000E+00  0.00000000000E+00  0.47174048104E+02  0.21033949761E+04  0.21028659098E+04 0.  0.
        1    1    3    3  502    0  0.40373507790E+03  0.60706649243E+03  0.78139199502E+03  0.10686932157E+04  0.50400001928E-02 0.  1.
       -1    1    3    3    0  502 -0.40373507790E+03 -0.60706649243E+03 -0.73421794692E+03  0.10347017604E+04  0.50400001928E-02 0. -1.
</event>
<event>
 5   0  0.2789662E-05  0.2096406E+04  0.7818609E-02  0.8562828E-01
       -1   -1    0    0    0  501  0.00000000000E+00  0.00000000000E+00  0.13765994815E+04  0.13765994816E+04  0.50400001928E-02 0.  1.
        1   -1    0    0  501    0  0.00000000000E+00  0.00000000000E+00 -0.79814784897E+03  0.79814784898E+03  0.50400001928E-02 0. -1.
    10030    2    1    2    0    0  0.00000000000E+00  0.00000000000E+00  0.57845163257E+03  0.21747473305E+04  0.20964063682E+04 0.  0.
        4    1    3    3  502    0 -0.19381911957E+02  0.52652591827E+03  0.12292466336E+04  0.13374057351E+04  0.12699999809E+01 0.  1.
       -4    1    3    3    0  502  0.19381911957E+02 -0.52652591827E+03 -0.65079500106E+03  0.83734159542E+03  0.12699999809E+01 0. -1.
</event>
<event>
 5   0  0.5967046E-05  0.2038084E+04  0.7818609E-02  0.8589019E-01
       -2   -1    0    0    0  501  0.00000000000E+00  0.00000000000E+00  0.85667344702E+03  0.85667344702E+03  0.25500000920E-02 0.  1.
        2   -1    0    0  501    0  0.00000000000E+00  0.00000000000E+00 -0.12121844964E+04  0.12121844964E+04  0.25500000920E-02 0. -1.
    10030    2    1    2    0    0  0.00000000000E+00  0.00000000000E+00 -0.35551104937E+03  0.20688579434E+04  0.20380836793E+04 0.  0.
        4    1    3    3  502    0  0.79704156176E+03  0.50612176288E+03  0.21145300273E+03  0.96754766047E+03  0.12699999809E+01 0.  1.
       -4    1    3    3    0  502 -0.79704156176E+03 -0.50612176288E+03 -0.56696405209E+03  0.11013102829E+04  0.12699999809E+01 0. -1.
</event>
<event>
 5   0  0.5462851E-05  0.1874455E+04  0.7818609E-02  0.8667677E-01
       -2   -1    0    0    0  501  0.00000000000E+00  0.00000000000E+00  0.89858079812E+03  0.89858079812E+03  0.25500000920E-02 0.  1.
        2   -1    0    0  501    0  0.00000000000E+00  0.00000000000E+00 -0.97753605505E+03  0.97753605505E+03  0.25500000920E-02 0. -1.
    10030    2    1    2    0    0  0.00000000000E+00  0.00000000000E+00 -0.78955256929E+02  0.18761168532E+04  0.18744547245E+04 0.  0.
        1    1    3    3  502    0  0.74336485274E+02 -0.53269785923E+03  0.72873289901E+03  0.90572874548E+03  0.50400001928E-02 0.  1.
       -1    1    3    3    0  502 -0.74336485274E+02  0.53269785923E+03 -0.80768815594E+03  0.97038810769E+03  0.50400001928E-02 0. -1.
</event>
<event>
 5   0  0.5866610E-05  0.2085192E+04  0.7818609E-02  0.8567795E-01
       -2   -1    0    0    0  501  0.00000000000E+00  0.00000000000E+00  0.11037542122E+04  0.11037542122E+04  0.25500000920E-02 0. -1.
        2   -1    0    0  501    0  0.00000000000E+00  0.00000000000E+00 -0.98482646556E+03  0.98482646557E+03  0.25500000920E-02 0.  1.
    10030    2    1    2    0    0  0.00000000000E+00  0.00000000000E+00  0.11892774659E+03  0.20885806777E+04  0.20851919428E+04 0.  0.
        5    1    3    3  502    0  0.64697071191E+03 -0.25521598924E+03  0.83743584291E+03  0.10885895389E+04  0.46999998093E+01 0. -1.
       -5    1    3    3    0  502 -0.64697071191E+03  0.25521598924E+03 -0.71850809632E+03  0.99999113881E+03  0.46999998093E+01 0.  1.
</event>
<event>
 5   0  0.5462851E-05  0.2102345E+04  0.7818609E-02  0.8560211E-01
       -2   -1    0    0    0  501  0.00000000000E+00  0.00000000000E+00  0.65096667170E+03  0.65096667170E+03  0.25500000920E-02 0. -1.
        2   -1    0    0  501    0  0.00000000000E+00  0.00000000000E+00 -0.16974192442E+04  0.16974192442E+04  0.25500000920E-02 0.  1.
    10030    2    1    2    0    0  0.00000000000E+00  0.00000000000E+00 -0.10464525725E+04  0.23483859159E+04  0.21023447442E+04 0.  0.
        1    1    3    3  502    0  0.31933156550E+03  0.71040604692E+02 -0.16391091444E+04  0.16714359705E+04  0.50400001928E-02 0.  1.
       -1    1    3    3    0  502 -0.31933156550E+03 -0.71040604692E+02  0.59265657193E+03  0.67694994536E+03  0.50400001928E-02 0. -1.
</event>
<event>
 5   0  0.2017750E-05  0.2103872E+04  0.7818609E-02  0.8559539E-01
       -3   -1    0    0    0  501  0.00000000000E+00  0.00000000000E+00  0.66982917668E+03  0.66982918429E+03  0.10100000352E+00 0.  1.
        3   -1    0    0  501    0  0.00000000000E+00  0.00000000000E+00 -0.16520178815E+04  0.16520178846E+04  0.10100000352E+00 0. -1.
    10030    2    1    2    0    0  0.00000000000E+00  0.00000000000E+00 -0.98218870483E+03  0.23218470689E+04  0.21038724200E+04 0.  0.
        2    1    3    3  502    0  0.24666056649E+03  0.30969090373E+03  0.58446614319E+03  0.70593948994E+03  0.25500000920E-02 0.  1.
       -2    1    3    3    0  502 -0.24666056649E+03 -0.30969090373E+03 -0.15666548480E+04  0.16159075790E+04  0.25500000920E-02 0. -1.
</event>
<event>
 5   0  0.5866610E-05  0.1971454E+04  0.7818609E-02  0.8620085E-01
        2   -1    0    0  501    0  0.00000000000E+00  0.00000000000E+00  0.23487284846E+04  0.23487284846E+04  0.25500000920E-02 0. -1.
       -2   -1    0    0    0  501  0.00000000000E+00  0.00000000000E+00 -0.41369502202E+03  0.41369502203E+03  0.25500000920E-02 0.  1.
    10030    2    1    2    0    0  0.00000000000E+00  0.00000000000E+00  0.19350334626E+04  0.27624235067E+04  0.19714535573E+04 0.  0.
        5    1    3    3  502    0 -0.35967329651E+03  0.77596600681E+03  0.16541776890E+04  0.18622067663E+04  0.46999998093E+01 0. -1.
       -5    1    3    3    0  502  0.35967329651E+03 -0.77596600681E+03  0.28085577363E+03  0.90021674031E+03  0.46999998093E+01 0.  1.
</event>
<event>
 5   0  0.2699285E-05  0.2164351E+04  0.7818609E-02  0.8533414E-01
       -1   -1    0    0    0  501  0.00000000000E+00  0.00000000000E+00  0.11192473728E+04  0.11192473728E+04  0.50400001928E-02 0.  1.
        1   -1    0    0  501    0  0.00000000000E+00  0.00000000000E+00 -0.10463312341E+04  0.10463312342E+04  0.50400001928E-02 0. -1.
    10030    2    1    2    0    0  0.00000000000E+00  0.00000000000E+00  0.72916138638E+02  0.21655786069E+04  0.21643506970E+04 0.  0.
        2    1    3    3  502    0 -0.60570599095E+02 -0.99647609684E+03  0.45439119512E+03  0.10968613254E+04  0.25500000920E-02 0. -1.
       -2    1    3    3    0  502  0.60570599095E+02  0.99647609684E+03 -0.38147505648E+03  0.10687172815E+04  0.25500000920E-02 0.  1.
</event>
<event>
 5   0  0.5866610E-05  0.2086426E+04  0.7818609E-02  0.8567246E-01
        2   -1    0    0  501    0  0.00000000000E+00  0.00000000000E+00  0.12696749096E+04  0.12696749096E+04  0.25500000920E-02 0.  1.
       -2   -1    0    0    0  501  0.00000000000E+00  0.00000000000E+00 -0.85714336647E+03  0.85714336647E+03  0.25500000920E-02 0. -1.
    10030    2    1    2    0    0  0.00000000000E+00  0.00000000000E+00  0.41253154308E+03  0.21268182760E+04  0.20864260603E+04 0.  0.
        5    1    3    3  502    0 -0.14999709259E+03  0.85836132419E+03  0.79094470181E+03  0.11768172764E+04  0.46999998093E+01 0.  1.
       -5    1    3    3    0  502  0.14999709259E+03 -0.85836132419E+03 -0.37841315872E+03  0.95000099966E+03  0.46999998093E+01 0. -1.
</event>
<event>
 5   0  0.2732159E-05  0.2136101E+04  0.7818609E-02  0.8545505E-01
        1   -1    0    0  501    0  0.00000000000E+00  0.00000000000E+00  0.51410985377E+03  0.51410985379E+03  0.50400001928E-02 0. -1.
       -1   -1    0    0    0  501  0.00000000000E+00  0.00000000000E+00 -0.22188482036E+04  0.22188482036E+04  0.50400001928E-02 0.  1.
    10030    2    1    2    0    0  0.00000000000E+00  0.00000000000E+00 -0.17047383498E+04  0.27329580574E+04  0.21361008642E+04 0.  0.
        3    1    3    3  502    0 -0.10548459994E+04  0.30693338232E+02 -0.10629467505E+04  0.14978310879E+04  0.10100000352E+00 0. -1.
       -3    1    3    3    0  502  0.10548459994E+04 -0.30693338232E+02 -0.64179159930E+03  0.12351269694E+04  0.10100000352E+00 0.  1.
</event>
<event>
 5   0  0.2789662E-05  0.2203746E+04  0.7818609E-02  0.8516870E-01
        1   -1    0    0  501    0  0.00000000000E+00  0.00000000000E+00  0.10765863475E+04  0.10765863475E+04  0.50400001928E-02 0. -1.
       -1   -1    0    0    0  501  0.00000000000E+00  0.00000000000E+00 -0.11277540066E+04  0.11277540066E+04  0.50400001928E-02 0.  1.
    10030    2    1    2    0    0  0.00000000000E+00  0.00000000000E+00 -0.51167659153E+02  0.22043403541E+04  0.22037464163E+04 0.  0.
        4    1    3    3  502    0 -0.23683937507E+03  0.46463741052E+03  0.94531783807E+03  0.10796333825E+04  0.12699999809E+01 0. -1.
       -4    1    3    3    0  502  0.23683937507E+03 -0.46463741052E+03 -0.99648549722E+03  0.11247069716E+04  0.12699999809E+01 0.  1.
</event>
<event>
 5   0  0.2732159E-05  0.2108604E+04  0.7818609E-02  0.8557463E-01
        1   -1    0    0  501    0  0.00000000000E+00  0.00000000000E+00  0.22136393534E+04  0.22136393534E+04  0.50400001928E-02 0.  1.
       -1   -1    0    0    0  501  0.00000000000E+00  0.00000000000E+00 -0.50213807795E+03  0.50213807797E+03  0.50400001928E-02 0. -1.
    10030    2    1    2    0    0  0.00000000000E+00  0.00000000000E+00  0.17115012755E+04  0.27157774314E+04  0.21086039080E+04 0.  0.
        3    1    3    3  502    0  0.28287694198E+02  0.26819184727E+03 -0.45696445025E+03  0.53060680318E+03  0.10100000352E+00 0. -1.
       -3    1    3    3    0  502 -0.28287694198E+02 -0.26819184727E+03  0.21684657257E+04  0.21851706282E+04  0.10100000352E+00 0.  1.
</event>
<event>
 5   0  0.2732159E-05  0.2094164E+04  0.7818609E-02  0.8563819E-01
       -1   -1    0    0    0  501  0.00000000000E+00  0.00000000000E+00  0.94135365884E+03  0.94135365885E+03  0.50400001928E-02 0.  1.
        1   -1    0    0  501    0  0.00000000000E+00  0.00000000000E+00 -0.11646852909E+04  0.11646852909E+04  0.50400001928E-02 0. -1.
    10030    2    1    2    0    0  0.00000000000E+00  0.00000000000E+00 -0.22333163206E+03  0.21060389498E+04  0.20941640432E+04 0.  0.
        3    1    3    3  502    0  0.78724154362E+03  0.50705901475E+03  0.35952343660E+03  0.10030529418E+04  0.10100000352E+00 0.  1.
       -3    1    3    3    0  502 -0.78724154362E+03 -0.50705901475E+03 -0.58285506866E+03  0.11029860079E+04  0.10100000352E+00 0. -1.
</event>
<event>
 5   0  0.5954140E-05  0.2116292E+04  0.7818609E-02  0.8554100E-01
       -2   -1    0    0    0  501  0.00000000000E+00  0.00000000000E+00  0.77532001339E+03  0.77532001340E+03  0.25500000920E-02 0.  1.
        2   -1    0    0  501    0  0.00000000000E+00  0.00000000000E+00 -0.14441433930E+04  0.14441433930E+04  0.25500000920E-02 0. -1.
    10030    2    1    2    0    0  0.00000000000E+00  0.00000000000E+00 -0.66882337964E+03  0.22194634064E+04  0.21162923001E+04 0.  0.
        2    1    3    3  502    0 -0.21918670434E+03  0.10081047916E+04 -0.87664894759E+02  0.10353758815E+04  0.25500000920E-02 0. -1.
       -2    1    3    3    0  502  0.21918670434E+03 -0.10081047916E+04 -0.58115848488E+03  0.11840875249E+04  0.25500000920E-02 0.  1.
</event>
<event>
 5   0  0.2604390E-05  0.1916479E+04  0.7818609E-02  0.8646697E-01
       -1   -1    0    0    0  501  0.00000000000E+00  0.00000000000E+00  0.30079167168E+04  0.30079167168E+04  0.50400001928E-02 0. -1.
        1   -1    0    0  501    0  0.00000000000E+00  0.00000000000E+00 -0.30526883427E+03  0.30526883432E+03  0.50400001928E-02 0.  1.
    10030    2    1    2    0    0  0.00000000000E+00  0.00000000000E+00  0.27026478825E+04  0.33131855511E+04  0.19164793031E+04 0.  0.
        5    1    3    3  502    0 -0.41061416599E+03  0.82925174659E+03  0.92107221296E+03  0.13056257366E+04  0.46999998093E+01 0.  1.
       -5    1    3    3    0  502  0.41061416599E+03 -0.82925174659E+03  0.17815756695E+04  0.20075598145E+04  0.46999998093E+01 0. -1.
</event>
<event>
 5   0  0.2699285E-05  0.2083179E+04  0.7818609E-02  0.8568690E-01
        1   -1    0    0  501    0  0.00000000000E+00  0.00000000000E+00  0.12873666288E+04  0.12873666288E+04  0.50400001928E-02 0. -1.
       -1   -1    0    0    0  501  0.00000000000E+00  0.00000000000E+00 -0.84273469619E+03  0.84273469620E+03  0.50400001928E-02 0.  1.
    10030    2    1    2    0    0  0.00000000000E+00  0.00000000000E+00  0.44463193261E+03  0.21301013250E+04  0.20831788448E+04 0.  0.
        2    1    3    3  502    0  0.22239078364E+03 -0.82449258180E+02  0.12593861568E+04  0.12815260563E+04  0.25500000920E-02 0. -1.
       -2    1    3    3    0  502 -0.22239078364E+03  0.82449258180E+02 -0.81475422423E+03  0.84857526875E+03  0.25500000920E-02 0.  1.
</event>
<event>
 5   0  0.2732159E-05  0.2109478E+04  0.7818609E-02  0.8557080E-01
        1   -1    0    0  501    0  0.00000000000E+00  0.00000000000E+00  0.13197583001E+04  0.13197583001E+04  0.50400001928E-02 0.  1.
       -1   -1    0    0    0  501  0.00000000000E+00  0.00000000000E+00 -0.84293821992E+03  0.84293821994E+03  0.50400001928E-02 0. -1.
    10030    2    1    2    0    0  0.00000000000E+00  0.00000000000E+00  0.47682008014E+03  0.21626965200E+04  0.21094783357E+04 0.  0.
        3    1    3    3  502    0  0.10486911277E+04 -0.58511863005E+02  0.13955134500E+03  0.10595524091E+04  0.10100000352E+00 0.  1.
       -3    1    3    3    0  502 -0.10486911277E+04  0.58511863005E+02  0.33726873514E+03  0.11031441109E+04  0.10100000352E+00 0. -1.
</event>
<event>
 5   0  0.5462851E-05  0.2112254E+04  0.7818609E-02  0.8555865E-01
        2   -1    0    0  501    0  0.00000000000E+00  0.00000000000E+00  0.98610938852E+03  0.98610938852E+03  0.25500000920E-02 0. -1.
       -2   -1    0    0    0  501  0.00000000000E+00  0.00000000000E+00 -0.11311158850E+04  0.11311158850E+04  0.25500000920E-02 0.  1.
    10030    2    1    2    0    0  0.00000000000E+00  0.00000000000E+00 -0.14500649649E+03  0.21172252735E+04  0.21122537667E+04 0.  0.
        1    1    3    3  502    0  0.19160170114E+03  0.18131453357E+03 -0.10975625608E+04  0.11288178537E+04  0.50400001928E-02 0.  1.
       -1    1    3    3    0  502 -0.19160170114E+03 -0.18131453357E+03  0.95255606428E+03  0.98840741984E+03  0.50400001928E-02 0. -1.
</event>
<event>
 5   0  0.5954140E-05  0.2066437E+04  0.7818609E-02  0.8576174E-01
       -2   -1    0    0    0  501  0.00000000000E+00  0.00000000000E+00  0.86991360805E+03  0.86991360806E+03  0.25500000920E-02 0. -1.
        2   -1    0    0  501    0  0.00000000000E+00  0.00000000000E+00 -0.12271799838E+04  0.12271799838E+04  0.25500000920E-02 0.  1.
    10030    2    1    2    0    0  0.00000000000E+00  0.00000000000E+00 -0.35726637575E+03  0.20970935919E+04  0.20664370955E+04 0.  0.
        2    1    3    3  502    0 -0.83091672272E+02 -0.75855452871E+03  0.52828646907E+03  0.92811410529E+03  0.25500000920E-02 0. -1.
       -2    1    3    3    0  502  0.83091672272E+02  0.75855452871E+03 -0.88555284482E+03  0.11689794866E+04  0.25500000920E-02 0.  1.
</event>
<event>
 5   0  0.2732159E-05  0.2103607E+04  0.7818609E-02  0.8559656E-01
        1   -1    0    0  501    0  0.00000000000E+00  0.00000000000E+00  0.16014663949E+04  0.16014663949E+04  0.50400001928E-02 0. -1.
       -1   -1    0    0    0  501  0.00000000000E+00  0.00000000000E+00 -0.69079868327E+03  0.69079868329E+03  0.50400001928E-02 0.  1.
    10030    2    1    2    0    0  0.00000000000E+00  0.00000000000E+00  0.91066771160E+03  0.22922650782E+04  0.21036072608E+04 0.  0.
        3    1    3    3  502    0  0.33426844144E+03 -0.25051518778E+03  0.15072012053E+04  0.15640168585E+04  0.10100000352E+00 0. -1.
       -3    1    3    3    0  502 -0.33426844144E+03  0.25051518778E+03 -0.59653349365E+03  0.72824821970E+03  0.10100000352E+00 0.  1.
</event>
<event>
 5   0  0.5462851E-05  0.2095895E+04  0.7818609E-02  0.8563054E-01
       -2   -1    0    0    0  501  0.00000000000E+00  0.00000000000E+00  0.58029698570E+03  0.58029698570E+03  0.25500000920E-02 0. -1.
        2   -1    0    0  501    0  0.00000000000E+00  0.00000000000E+00 -0.18924681941E+04  0.18924681941E+04  0.25500000920E-02 0.  1.
    10030    2    1    2    0    0  0.00000000000E+00  0.00000000000E+00 -0.13121712084E+04  0.24727651798E+04  0.20958946430E+04 0.  0.
        1    1    3    3  502    0 -0.10362557032E+04  0.72401067432E+02 -0.81924915146E+03  0.13229652184E+04  0.50400001928E-02 0.  1.
       -1    1    3    3    0  502  0.10362557032E+04 -0.72401067432E+02 -0.49292205698E+03  0.11497999614E+04  0.50400001928E-02 0. -1.
</event>
<event>
 5   0  0.2602060E-05  0.2111201E+04  0.7818609E-02  0.8556325E-01
       -1   -1    0    0    0  501  0.00000000000E+00  0.00000000000E+00  0.69181605793E+03  0.69181605795E+03  0.50400001928E-02 0. -1.
        1   -1    0    0  501    0  0.00000000000E+00  0.00000000000E+00 -0.16106773031E+04  0.16106773031E+04  0.50400001928E-02 0.  1.
    10030    2    1    2    0    0  0.00000000000E+00  0.00000000000E+00 -0.91886124515E+03  0.23024933610E+04  0.21112010065E+04 0.  0.
        1    1    3    3  502    0  0.40299536222E+03 -0.70680017937E+03  0.27405569697E+03  0.85853263223E+03  0.50400001928E-02 0. -1.
       -1    1    3    3    0  502 -0.40299536222E+03  0.70680017937E+03 -0.11929169421E+04  0.14439607288E+04  0.50400001928E-02 0.  1.
</event>
<event>
 5   0  0.2732159E-05  0.2087304E+04  0.7818609E-02  0.8566857E-01
       -1   -1    0    0    0  501  0.00000000000E+00  0.00000000000E+00  0.85870645571E+03  0.85870645572E+03  0.50400001928E-02 0.  1.
        1   -1    0    0  501    0  0.00000000000E+00  0.00000000000E+00 -0.12684306899E+04  0.12684306899E+04  0.50400001928E-02 0. -1.
    10030    2    1    2    0    0  0.00000000000E+00  0.00000000000E+00 -0.40972423418E+03  0.21271371456E+04  0.20873041197E+04 0.  0.
        3    1    3    3  502    0  0.86341615216E+03  0.15959603069E+03  0.37004122325E+03  0.95283202188E+03  0.10100000352E+00 0.  1.
       -3    1    3    3    0  502 -0.86341615216E+03 -0.15959603069E+03 -0.77976545742E+03  0.11743051237E+04  0.10100000352E+00 0. -1.
</event>
<event>
 5   0  0.5462851E-05  0.2082801E+04  0.7818609E-02  0.8568858E-01
       -2   -1    0    0    0  501  0.00000000000E+00  0.00000000000E+00  0.70599395322E+03  0.70599395322E+03  0.25500000920E-02 0.  1.
        2   -1    0    0  501    0  0.00000000000E+00  0.00000000000E+00 -0.15361529274E+04  0.15361529275E+04  0.25500000920E-02 0. -1.
    10030    2    1    2    0    0  0.00000000000E+00  0.00000000000E+00 -0.83015897423E+03  0.22421468807E+04  0.20828006895E+04 0.  0.
        1    1    3    3  502    0 -0.17284034113E+03  0.24213294688E+03  0.65927783410E+03  0.72329068157E+03  0.50400001928E-02 0.  1.
       -1    1    3    3    0  502  0.17284034113E+03 -0.24213294688E+03 -0.14894368083E+04  0.15188561991E+04  0.50400001928E-02 0. -1.
</event>
<event>
 5   0  0.2017750E-05  0.2110573E+04  0.7818609E-02  0.8556600E-01
       -4   -1    0    0    0  501  0.00000000000E+00  0.00000000000E+00  0.99749220153E+03  0.99749301001E+03  0.12699999809E+01 0.  1.
        4   -1    0    0  501    0  0.00000000000E+00  0.00000000000E+00 -0.11164277167E+04  0.11164284391E+04  0.12699999809E+01 0. -1.
    10030    2    1    2    0    0  0.00000000000E+00  0.00000000000E+00 -0.11893551518E+03  0.21139214491E+04  0.21105729639E+04 0.  0.
        1    1    3    3  502    0 -0.71949293416E+02 -0.50647925195E+03  0.86499803317E+03  0.10049475264E+04  0.50400001928E-02 0.  1.
       -1    1    3    3    0  502  0.71949293416E+02  0.50647925195E+03 -0.98393354835E+03  0.11089739226E+04  0.50400001928E-02 0. -1.
</event>
<event>
 5   0  0.5462851E-05  0.2116295E+04  0.7818609E-02  0.8554099E-01
       -2   -1    0    0    0  501  0.00000000000E+00  0.00000000000E+00  0.14599847881E+04  0.14599847881E+04  0.25500000920E-02 0.  1.
        2   -1    0    0  501    0  0.00000000000E+00  0.00000000000E+00 -0.76690963932E+03  0.76690963933E+03  0.25500000920E-02 0. -1.
    10030    2    1    2    0    0  0.00000000000E+00  0.00000000000E+00  0.69307514878E+03  0.22268944274E+04  0.21162952604E+04 0.  0.
        1    1    3    3  502    0  0.18655282418E+02  0.74892705112E+03  0.11328775045E+04  0.13581793651E+04  0.50400001928E-02 0.  1.
       -1    1    3    3    0  502 -0.18655282418E+02 -0.74892705112E+03 -0.43980235572E+03  0.86871506237E+03  0.50400001928E-02 0. -1.
</event>
<event>
 5   0  0.5866610E-05  0.2100194E+04  0.7818609E-02  0.8561158E-01
        2   -1    0    0  501    0  0.00000000000E+00  0.00000000000E+00  0.10059108209E+04  0.10059108209E+04  0.25500000920E-02 0. -1.
       -2   -1    0    0    0  501  0.00000000000E+00  0.00000000000E+00 -0.10962238339E+04  0.10962238339E+04  0.25500000920E-02 0.  1.
    10030    2    1    2    0    0  0.00000000000E+00  0.00000000000E+00 -0.90313013021E+02  0.21021346547E+04  0.21001937211E+04 0.  0.
        5    1    3    3  502    0 -0.26689365677E+02  0.45214158452E+03  0.90310332597E+03  0.10103276904E+04  0.46999998093E+01 0. -1.
       -5    1    3    3    0  502  0.26689365677E+02 -0.45214158452E+03 -0.99341633899E+03  0.10918069643E+04  0.46999998093E+01 0.  1.
</event>
<event>
 5   0  0.5967046E-05  0.2108252E+04  0.7818609E-02  0.8557617E-01
       -2   -1    0    0    0  501  0.00000000000E+00  0.00000000000E+00  0.13654051345E+04  0.13654051345E+04  0.25500000920E-02 0.  1.
        2   -1    0    0  501    0  0.00000000000E+00  0.00000000000E+00 -0.81381123612E+03  0.81381123613E+03  0.25500000920E-02 0. -1.
    10030    2    1    2    0    0  0.00000000000E+00  0.00000000000E+00  0.55159389834E+03  0.21792163706E+04  0.21082523950E+04 0.  0.
        4    1    3    3  502    0 -0.25710447824E+03  0.91203603990E+03 -0.20155706021E+03  0.96878238641E+03  0.12699999809E+01 0. -1.
       -4    1    3    3    0  502  0.25710447824E+03 -0.91203603990E+03  0.75315095855E+03  0.12104339842E+04  0.12699999809E+01 0.  1.
</event>
<event>
 5   0  0.2732159E-05  0.2110623E+04  0.7818609E-02  0.8556578E-01
        1   -1    0    0  501    0  0.00000000000E+00  0.00000000000E+00  0.20476605740E+04  0.20476605740E+04  0.50400001928E-02 0. -1.
       -1   -1    0    0    0  501  0.00000000000E+00  0.00000000000E+00 -0.54388012145E+03  0.54388012147E+03  0.50400001928E-02 0.  1.
    10030    2    1    2    0    0  0.00000000000E+00  0.00000000000E+00  0.15037804525E+04  0.25915406955E+04  0.21106225449E+04 0.  0.
        3    1    3    3  502    0 -0.10093697691E+04 -0.19381788447E+03  0.45800096346E+03  0.11252366843E+04  0.10100000352E+00 0. -1.
       -3    1    3    3    0  502  0.10093697691E+04  0.19381788447E+03  0.10457794891E+04  0.14663040111E+04  0.10100000352E+00 0.  1.
</event>
<event>
 5   0  0.2732159E-05  0.2095518E+04  0.7818609E-02  0.8563220E-01
        1   -1    0    0  501    0  0.00000000000E+00  0.00000000000E+00  0.86695467333E+03  0.86695467335E+03  0.50400001928E-02 0. -1.
       -1   -1    0    0    0  501  0.00000000000E+00  0.00000000000E+00 -0.12662703091E+04  0.12662703091E+04  0.50400001928E-02 0.  1.
    10030    2    1    2    0    0  0.00000000000E+00  0.00000000000E+00 -0.39931563575E+03  0.21332249824E+04  0.20955180383E+04 0.  0.
        3    1    3    3  502    0 -0.57275226235E+03  0.85044415276E+03  0.19857545282E+02  0.10255216932E+04  0.10100000352E+00 0. -1.
       -3    1    3    3    0  502  0.57275226235E+03 -0.85044415276E+03 -0.41917318103E+03  0.11077032892E+04  0.10100000352E+00 0.  1.
</event>
<event>
 5   0  0.5506332E-05  0.2112404E+04  0.7818609E-02  0.8555799E-01
        2   -1    0    0  501    0  0.00000000000E+00  0.00000000000E+00  0.16433873191E+04  0.16433873191E+04  0.25500000920E-02 0.  1.
       -2   -1    0    0    0  501  0.00000000000E+00  0.00000000000E+00 -0.67881936389E+03  0.67881936390E+03  0.25500000920E-02 0. -1.
    10030    2    1    2    0    0  0.00000000000E+00  0.00000000000E+00  0.96456795522E+03  0.23222066830E+04  0.21124044448E+04 0.  0.
        3    1    3    3  502    0  0.58867418455E+03  0.28308449895E+03 -0.43014363865E+03  0.78211104657E+03  0.10100000352E+00 0. -1.
       -3    1    3    3    0  502 -0.58867418455E+03 -0.28308449895E+03  0.13947115939E+04  0.15400956364E+04  0.10100000352E+00 0.  1.
</event>
<event>
 5   0  0.5967046E-05  0.2076602E+04  0.7818609E-02  0.8571621E-01
        2   -1    0    0  501    0  0.00000000000E+00  0.00000000000E+00  0.16308414142E+04  0.16308414142E+04  0.25500000920E-02 0. -1.
       -2   -1    0    0    0  501  0.00000000000E+00  0.00000000000E+00 -0.66105046345E+03  0.66105046346E+03  0.25500000920E-02 0.  1.
    10030    2    1    2    0    0  0.00000000000E+00  0.00000000000E+00  0.96979095078E+03  0.22918918777E+04  0.20766015243E+04 0.  0.
        4    1    3    3  502    0 -0.18941792991E+03 -0.67755637958E+03 -0.35788479882E+03  0.78933195920E+03  0.12699999809E+01 0.  1.
       -4    1    3    3    0  502  0.18941792991E+03  0.67755637958E+03  0.13276757496E+04  0.15025599185E+04  0.12699999809E+01 0. -1.
</event>
<event>
 5   0  0.2699285E-05  0.2098775E+04  0.7818609E-02  0.8561783E-01
       -1   -1    0    0    0  501  0.00000000000E+00  0.00000000000E+00  0.11681460806E+04  0.11681460806E+04  0.50400001928E-02 0.  1.
        1   -1    0    0  501    0  0.00000000000E+00  0.00000000000E+00 -0.94270246719E+03  0.94270246720E+03  0.50400001928E-02 0. -1.
    10030    2    1    2    0    0  0.00000000000E+00  0.00000000000E+00  0.22544361344E+03  0.21108485478E+04  0.20987750640E+04 0.  0.
        2    1    3    3  502    0  0.30218052543E+03  0.90868699877E+03  0.54436320911E+03  0.11015245958E+04  0.25500000920E-02 0.  1.
       -2    1    3    3    0  502 -0.30218052543E+03 -0.90868699877E+03 -0.31891959568E+03  0.10093239521E+04  0.25500000920E-02 0. -1.
</event>
<event>
 5   0  0.2602060E-05  0.2080987E+04  0.7818609E-02  0.8569665E-01
        1   -1    0    0  501    0  0.00000000000E+00  0.00000000000E+00  0.25156443197E+04  0.25156443197E+04  0.50400001928E-02 0. -1.
       -1   -1    0    0    0  501  0.00000000000E+00  0.00000000000E+00 -0.43035749145E+03  0.43035749148E+03  0.50400001928E-02 0.  1.
    10030    2    1    2    0    0  0.00000000000E+00  0.00000000000E+00  0.20852868283E+04  0.29460018112E+04  0.20809866687E+04 0.  0.
        1    1    3    3  502    0  0.10005431082E+04  0.71833805599E+02  0.14338920982E+04  0.17499409008E+04  0.50400001928E-02 0.  1.
       -1    1    3    3    0  502 -0.10005431082E+04 -0.71833805599E+02  0.65139473005E+03  0.11960609104E+04  0.50400001928E-02 0. -1.
</event>
<event>
 5   0  0.2699285E-05  0.2097700E+04  0.7818609E-02  0.8562257E-01
        1   -1    0    0  501    0  0.00000000000E+00  0.00000000000E+00  0.13086043986E+04  0.13086043986E+04  0.50400001928E-02 0.  1.
       -1   -1    0    0    0  501  0.00000000000E+00  0.00000000000E+00 -0.84065599050E+03  0.84065599052E+03  0.50400001928E-02 0. -1.
    10030    2    1    2    0    0  0.00000000000E+00  0.00000000000E+00  0.46794840810E+03  0.21492603891E+04  0.20976998135E+04 0.  0.
        2    1    3    3  502    0  0.11435975306E+03  0.23677822496E+03 -0.80633692021E+03  0.84812812112E+03  0.25500000920E-02 0. -1.
       -2    1    3    3    0  502 -0.11435975306E+03 -0.23677822496E+03  0.12742853283E+04  0.13011322680E+04  0.25500000920E-02 0.  1.
</event>
<event>
 5   0  0.5967046E-05  0.2122302E+04  0.7818609E-02  0.8551482E-01
       -2   -1    0    0    0  501  0.00000000000E+00  0.00000000000E+00  0.92099207994E+03  0.92099207994E+03  0.25500000920E-02 0. -1.
        2   -1    0    0  501    0  0.00000000000E+00  0.00000000000E+00 -0.12226401396E+04  0.12226401396E+04  0.25500000920E-02 0.  1.
    10030    2    1    2    0    0  0.00000000000E+00  0.00000000000E+00 -0.30164805962E+03  0.21436322195E+04  0.21223024150E+04 0.  0.
        4    1    3    3  502    0 -0.53237751097E+03 -0.83743326242E+03 -0.53052770901E+03  0.11252473266E+04  0.12699999809E+01 0.  1.
       -4    1    3    3    0  502  0.53237751097E+03  0.83743326242E+03  0.22887964939E+03  0.10183848929E+04  0.12699999809E+01 0. -1.
</event>
<event>
 5   0  0.5967046E-05  0.2027552E+04  0.7818609E-02  0.8593846E-01
        2   -1    0    0  501    0  0.00000000000E+00  0.00000000000E+00  0.13731315900E+04  0.13731315900E+04  0.25500000920E-02 0. -1.
       -2   -1    0    0    0  501  0.00000000000E+00  0.00000000000E+00 -0.74846574747E+03  0.74846574748E+03  0.25500000920E-02 0.  1.
    10030    2    1    2    0    0  0.00000000000E+00  0.00000000000E+00  0.62466584250E+03  0.21215973375E+04  0.20275521812E+04 0.  0.
        4    1    3    3  502    0 -0.37632872713E+03  0.11704422546E+03 -0.66502390947E+03  0.77303368274E+03  0.12699999809E+01 0.  1.
       -4    1    3    3    0  502  0.37632872713E+03 -0.11704422546E+03  0.12896897520E+04  0.13485636547E+04  0.12699999809E+01 0. -1.
</event>
<event>
 5   0  0.5866610E-05  0.2094971E+04  0.7818609E-02  0.8563462E-01
        2   -1    0    0  501    0  0.00000000000E+00  0.00000000000E+00  0.14565681134E+04  0.14565681134E+04  0.25500000920E-02 0.  1.
       -2   -1    0    0    0  501  0.00000000000E+00  0.00000000000E+00 -0.75329538904E+03  0.75329538905E+03  0.25500000920E-02 0. -1.
    10030    2    1    2    0    0  0.00000000000E+00  0.00000000000E+00  0.70327272439E+03  0.22098635025E+04  0.20949711632E+04 0.  0.
        5    1    3    3  502    0  0.73958638496E+03 -0.32614777009E+03 -0.35111608028E+03  0.88128598116E+03  0.46999998093E+01 0.  1.
       -5    1    3    3    0  502 -0.73958638496E+03  0.32614777009E+03  0.10543888047E+04  0.13285775213E+04  0.46999998093E+01 0. -1.
</event>
<event>
 5   0  0.2732159E-05  0.2084812E+04  0.7818609E-02  0.8567964E-01
       -1   -1    0    0    0  501  0.00000000000E+00  0.00000000000E+00  0.11911249121E+04  0.11911249121E+04  0.50400001928E-02 0.  1.
        1   -1    0    0  501    0  0.00000000000E+00  0.00000000000E+00 -0.91225544150E+03  0.91225544152E+03  0.50400001928E-02 0. -1.
    10030    2    1    2    0    0  0.00000000000E+00  0.00000000000E+00  0.27886947064E+03  0.21033803537E+04  0.20848119173E+04 0.  0.
        3    1    3    3  502    0 -0.60263732881E+03  0.72575784015E+03 -0.30804002561E+03  0.99236327027E+03  0.10100000352E+00 0.  1.
       -3    1    3    3    0  502  0.60263732881E+03 -0.72575784015E+03  0.58690949624E+03  0.11110170834E+04  0.10100000352E+00 0. -1.
</event>
<event>
 5   0  0.2699285E-05  0.2088014E+04  0.7818609E-02  0.8566542E-01
       -1   -1    0    0    0  501  0.00000000000E+00  0.00000000000E+00  0.72046182922E+03  0.72046182924E+03  0.50400001928E-02 0.  1.
        1   -1    0    0  501    0  0.00000000000E+00  0.00000000000E+00 -0.15128493300E+04  0.15128493301E+04  0.50400001928E-02 0. -1.
    10030    2    1    2    0    0  0.00000000000E+00  0.00000000000E+00 -0.79238750083E+03  0.22333111593E+04  0.20880135974E+04 0.  0.
        2    1    3    3  502    0 -0.66680010084E+03 -0.66390537737E+03  0.87559155074E+02  0.94501816397E+03  0.25500000920E-02 0.  1.
       -2    1    3    3    0  502  0.66680010084E+03  0.66390537737E+03 -0.87994665590E+03  0.12882929953E+04  0.25500000920E-02 0. -1.
</event>
<event>
 5   0  0.5462851E-05  0.2093604E+04  0.7818609E-02  0.8564066E-01
       -2   -1    0    0    0  501  0.00000000000E+00  0.00000000000E+00  0.92453014122E+03  0.92453014122E+03  0.25500000920E-02 0.  1.
        2   -1    0    0  501    0  0.00000000000E+00  0.00000000000E+00 -0.11852443221E+04  0.11852443221E+04  0.25500000920E-02 0. -1.
    10030    2    1    2    0    0  0.00000000000E+00  0.00000000000E+00 -0.26071418087E+03  0.21097744633E+04  0.20936036879E+04 0.  0.
        1    1    3    3  502    0 -0.37681838439E+03  0.29447699712E+03  0.80800935444E+03  0.93892913126E+03  0.50400001928E-02 0.  1.
       -1    1    3    3    0  502  0.37681838439E+03 -0.29447699712E+03 -0.10687235353E+04  0.11708453321E+04  0.50400001928E-02 0. -1.
</event>
<event>
 5   0  0.2789662E-05  0.2123519E+04  0.7818609E-02  0.8550953E-01
       -1   -1    0    0    0  501  0.00000000000E+00  0.00000000000E+00  0.13268655062E+04  0.13268655062E+04  0.50400001928E-02 0. -1.
        1   -1    0    0  501    0  0.00000000000E+00  0.00000000000E+00 -0.84962099593E+03  0.84962099595E+03  0.50400001928E-02 0.  1.
    10030    2    1    2    0    0  0.00000000000E+00  0.00000000000E+00  0.47724451026E+03  0.21764865021E+04  0.21235185828E+04 0.  0.
        4    1    3    3  502    0  0.15878960494E+03 -0.88798344242E+03 -0.33534832696E+03  0.96238705620E+03  0.12699999809E+01 0.  1.
       -4    1    3    3    0  502 -0.15878960494E+03  0.88798344242E+03  0.81259283722E+03  0.12140994459E+04  0.12699999809E+01 0. -1.
</event>
<event>
 5   0  0.5462851E-05  0.2101382E+04  0.7818609E-02  0.8560635E-01
        2   -1    0    0  501    0  0.00000000000E+00  0.00000000000E+00  0.13204543940E+04  0.13204543940E+04  0.25500000920E-02 0. -1.
       -2   -1    0    0    0  501  0.00000000000E+00  0.00000000000E+00 -0.83603888220E+03  0.83603888221E+03  0.25500000920E-02 0.  1.
    10030    2    1    2    0    0  0.00000000000E+00  0.00000000000E+00  0.48441551184E+03  0.21564932763E+04  0.21013816556E+04 0.  0.
        1    1    3    3  502    0  0.53712615674E+02 -0.83997040294E+03 -0.40318656751E+03  0.93327098484E+03  0.50400001928E-02 0.  1.
       -1    1    3    3    0  502 -0.53712615674E+02  0.83997040294E+03  0.88760207935E+03  0.12232222914E+04  0.50400001928E-02 0. -1.
</event>
<event>
 5   0  0.5954140E-05  0.2199394E+04  0.7818609E-02  0.8518680E-01
       -2   -1    0    0    0  501  0.00000000000E+00  0.00000000000E+00  0.96715006950E+03  0.96715006950E+03  0.25500000920E-02 0. -1.
        2   -1    0    0  501    0  0.00000000000E+00  0.00000000000E+00 -0.12504090673E+04  0.12504090673E+04  0.25500000920E-02 0.  1.
    10030    2    1    2    0    0  0.00000000000E+00  0.00000000000E+00 -0.28325899777E+03  0.22175591368E+04  0.21993937495E+04 0.  0.
        2    1    3    3  502    0  0.52990127425E+03 -0.37111973918E+03 -0.10382481103E+04  0.12233087753E+04  0.25500000920E-02 0.  1.
       -2    1    3    3    0  502 -0.52990127425E+03  0.37111973918E+03  0.75498911251E+03  0.99425036146E+03  0.25500000920E-02 0. -1.
</event>
<event>
 5   0  0.2602060E-05  0.2056142E+04  0.7818609E-02  0.8580813E-01
        1   -1    0    0  501    0  0.00000000000E+00  0.00000000000E+00  0.16747422566E+04  0.16747422566E+04  0.50400001928E-02 0.  1.
       -1   -1    0    0    0  501  0.00000000000E+00  0.00000000000E+00 -0.63110027310E+03  0.63110027312E+03  0.50400001928E-02 0. -1.
    10030    2    1    2    0    0  0.00000000000E+00  0.00000000000E+00  0.10436419835E+04  0.23058425298E+04  0.20561423059E+04 0.  0.
        1    1    3    3  502    0  0.95474214190E+03 -0.12646938122E+02  0.94438923305E+02  0.95948486847E+03  0.50400001928E-02 0. -1.
       -1    1    3    3    0  502 -0.95474214190E+03  0.12646938122E+02  0.94920306024E+03  0.13463576613E+04  0.50400001928E-02 0.  1.
</event>
<event>
 5   0  0.5967046E-05  0.2083098E+04  0.7818609E-02  0.8568726E-01
        2   -1    0    0  501    0  0.00000000000E+00  0.00000000000E+00  0.10576628013E+04  0.10576628013E+04  0.25500000920E-02 0. -1.
       -2   -1    0    0    0  501  0.00000000000E+00  0.00000000000E+00 -0.10256804315E+04  0.10256804315E+04  0.25500000920E-02 0.  1.
    10030    2    1    2    0    0  0.00000000000E+00  0.00000000000E+00  0.31982369724E+02  0.20833432328E+04  0.20830977302E+04 0.  0.
        4    1    3    3  502    0  0.32009114419E+03 -0.68376844318E+03  0.73358867449E+03  0.10526877888E+04  0.12699999809E+01 0. -1.
       -4    1    3    3    0  502 -0.32009114419E+03  0.68376844318E+03 -0.70160630477E+03  0.10306554440E+04  0.12699999809E+01 0.  1.
</event>
<event>
 5   0  0.2732159E-05  0.1999622E+04  0.7818609E-02  0.8606798E-01
       -1   -1    0    0    0  501  0.00000000000E+00  0.00000000000E+00  0.82245464472E+03  0.82245464473E+03  0.50400001928E-02 0.  1.
        1   -1    0    0  501    0  0.00000000000E+00  0.00000000000E+00 -0.12154124785E+04  0.12154124786E+04  0.50400001928E-02 0. -1.
    10030    2    1    2    0    0  0.00000000000E+00  0.00000000000E+00 -0.39295783382E+03  0.20378671233E+04  0.19996216025E+04 0.  0.
        3    1    3    3  502    0 -0.16039417260E+03 -0.75661353418E+03  0.44922535181E+03  0.89442370139E+03  0.10100000352E+00 0.  1.
       -3    1    3    3    0  502  0.16039417260E+03  0.75661353418E+03 -0.84218318563E+03  0.11434434219E+04  0.10100000352E+00 0. -1.
</event>
<event>
 5   0  0.5866610E-05  0.2015894E+04  0.7818609E-02  0.8599226E-01
       -2   -1    0    0    0  501  0.00000000000E+00  0.00000000000E+00  0.12781021571E+04  0.12781021571E+04  0.25500000920E-02 0.  1.
        2   -1    0    0  501    0  0.00000000000E+00  0.00000000000E+00 -0.79489513451E+03  0.79489513452E+03  0.25500000920E-02 0. -1.
    10030    2    1    2    0    0  0.00000000000E+00  0.00000000000E+00  0.48320702259E+03  0.20729972916E+04  0.20158940310E+04 0.  0.
        5    1    3    3  502    0  0.92349548782E+03 -0.38256766139E+03  0.37462447089E+03  0.10675052767E+04  0.46999998093E+01 0.  1.
       -5    1    3    3    0  502 -0.92349548782E+03  0.38256766139E+03  0.10858255170E+03  0.10054920149E+04  0.46999998093E+01 0. -1.
</event>
<event>
 5   0  0.5866610E-05  0.2009762E+04  0.7818609E-02  0.8602070E-01
       -2   -1    0    0    0  501  0.00000000000E+00  0.00000000000E+00  0.54157714419E+03  0.54157714419E+03  0.25500000920E-02 0. -1.
        2   -1    0    0  501    0  0.00000000000E+00  0.00000000000E+00 -0.18645272131E+04  0.18645272131E+04  0.25500000920E-02 0.  1.
    10030    2    1    2    0    0  0.00000000000E+00  0.00000000000E+00 -0.13229500689E+04  0.24061043573E+04  0.20097615016E+04 0.  0.
        5    1    3    3  502    0  0.55875540026E+03  0.26877242039E+03 -0.16081917872E+04  0.17235861237E+04  0.46999998093E+01 0.  1.
       -5    1    3    3    0  502 -0.55875540026E+03 -0.26877242039E+03  0.28524171834E+03  0.68251823358E+03  0.46999998093E+01 0. -1.
</event>
<event>
 5   0  0.5462851E-05  0.2102169E+04  0.7818609E-02  0.8560288E-01
        2   -1    0    0  501    0  0.00000000000E+00  0.00000000000E+00  0.10643073751E+04  0.10643073751E+04  0.25500000920E-02 0. -1.
       -2   -1    0    0    0  501  0.00000000000E+00  0.00000000000E+00 -0.10380262639E+04  0.10380262639E+04  0.25500000920E-02 0.  1.
    10030    2    1    2    0    0  0.00000000000E+00  0.00000000000E+00  0.26281111238E+02  0.21023336390E+04  0.21021693635E+04 0.  0.
        1    1    3    3  502    0 -0.51858252051E+03 -0.57333439464E+03 -0.69905191423E+03  0.10422637562E+04  0.50400001928E-02 0.  1.
       -1    1    3    3    0  502  0.51858252051E+03  0.57333439464E+03  0.72533302547E+03  0.10600698828E+04  0.50400001928E-02 0. -1.
</event>
<event>
 5   0  0.2789662E-05  0.2081025E+04  0.7818609E-02  0.8569649E-01
       -1   -1    0    0    0  501  0.00000000000E+00  0.00000000000E+00  0.14692455364E+04  0.14692455364E+04  0.50400001928E-02 0. -1.
        1   -1    0    0  501    0  0.00000000000E+00  0.00000000000E+00 -0.73688564047E+03  0.73688564049E+03  0.50400001928E-02 0.  1.
    10030    2    1    2    0    0  0.00000000000E+00  0.00000000000E+00  0.73235989592E+03  0.22061311769E+04  0.20810246881E+04 0.  0.
        4    1    3    3  502    0  0.77807593088E+03  0.44794228355E+03  0.92373524350E+03  0.12881548263E+04  0.12699999809E+01 0. -1.
       -4    1    3    3    0  502 -0.77807593088E+03 -0.44794228355E+03 -0.19137534758E+03  0.91797635055E+03  0.12699999809E+01 0.  1.
</event>
<event>
 5   0  0.2732159E-05  0.2110056E+04  0.7818609E-02  0.8556827E-01
       -1   -1    0    0    0  501  0.00000000000E+00  0.00000000000E+00  0.14271939208E+04  0.14271939208E+04  0.50400001928E-02 0. -1.
        1   -1    0    0  501    0  0.00000000000E+00  0.00000000000E+00 -0.77991073559E+03  0.77991073561E+03  0.50400001928E-02 0.  1.
    10030    2    1    2    0    0  0.00000000000E+00  0.00000000000E+00  0.64728318523E+03  0.22071046564E+04  0.21100557913E+04 0.  0.
        3    1    3    3  502    0  0.27298706430E+03  0.83574502787E+03 -0.28635484640E+03  0.92465712410E+03  0.10100000352E+00 0.  1.
       -3    1    3    3    0  502 -0.27298706430E+03 -0.83574502787E+03  0.93363803162E+03  0.12824475323E+04  0.10100000352E+00 0. -1.
</event>
<event>
 5   0  0.2732159E-05  0.2098038E+04  0.7818609E-02  0.8562108E-01
       -1   -1    0    0    0  501  0.00000000000E+00  0.00000000000E+00  0.47187773216E+03  0.47187773219E+03  0.50400001928E-02 0.  1.
        1   -1    0    0  501    0  0.00000000000E+00  0.00000000000E+00 -0.23320470223E+04  0.23320470223E+04  0.50400001928E-02 0. -1.
    10030    2    1    2    0    0  0.00000000000E+00  0.00000000000E+00 -0.18601692902E+04  0.28039247545E+04  0.20980381886E+04 0.  0.
        3    1    3    3  502    0  0.19599766717E+03  0.93282288565E+03 -0.15154858248E+04  0.17903270419E+04  0.10100000352E+00 0. -1.
       -3    1    3    3    0  502 -0.19599766717E+03 -0.93282288565E+03 -0.34468346532E+03  0.10135977126E+04  0.10100000352E+00 0.  1.
</event>
<event>
 5   0  0.5967046E-05  0.2116940E+04  0.7818609E-02  0.8553818E-01
        2   -1    0    0  501    0  0.00000000000E+00  0.00000000000E+00  0.15239505564E+04  0.15239505564E+04  0.25500000920E-02 0.  1.
       -2   -1    0    0    0  501  0.00000000000E+00  0.00000000000E+00 -0.73516748804E+03  0.73516748805E+03  0.25500000920E-02 0. -1.
    10030    2    1    2    0    0  0.00000000000E+00  0.00000000000E+00  0.78878306832E+03  0.22591180444E+04  0.21169401526E+04 0.  0.
        4    1    3    3  502    0  0.35299821526E+03 -0.13813173659E+03 -0.66024808954E+03  0.76132599409E+03  0.12699999809E+01 0. -1.
       -4    1    3    3    0  502 -0.35299821526E+03  0.13813173659E+03  0.14490311579E+04  0.14977920503E+04  0.12699999809E+01 0.  1.
</event>
<event>
 5   0  0.2604390E-05  0.2103591E+04  0.7818609E-02  0.8559663E-01
        1   -1    0    0  501    0  0.00000000000E+00  0.00000000000E+00  0.83968208130E+03  0.83968208132E+03  0.50400001928E-02 0. -1.
       -1   -1    0    0    0  501  0.00000000000E+00  0.00000000000E+00 -0.13174906309E+04  0.13174906309E+04  0.50400001928E-02 0.  1.
    10030    2    1    2    0    0  0.00000000000E+00  0.00000000000E+00 -0.47780854958E+03  0.21571727122E+04  0.21035905258E+04 0.  0.
        5    1    3    3  502    0 -0.28140760506E+03 -0.51610029245E+03  0.65549374486E+03  0.88047935331E+03  0.46999998093E+01 0. -1.
       -5    1    3    3    0  502  0.28140760506E+03  0.51610029245E+03 -0.11333022944E+04  0.12766933589E+04  0.46999998093E+01 0.  1.
</event>
<event>
 5   0  0.2602060E-05  0.2172306E+04  0.7818609E-02  0.8530044E-01
       -1   -1    0    0    0  501  0.00000000000E+00  0.00000000000E+00  0.11851956345E+04  0.11851956345E+04  0.50400001928E-02 0. -1.
        1   -1    0    0  501    0  0.00000000000E+00  0.00000000000E+00 -0.99538710344E+03  0.99538710345E+03  0.50400001928E-02 0.  1.
    10030    2    1    2    0    0  0.00000000000E+00  0.00000000000E+00  0.18980853108E+03  0.21805827380E+04  0.21723061015E+04 0.  0.
        1    1    3    3  502    0  0.10306287994E+04  0.22230596499E+03  0.35688289640E+03  0.11130952637E+04  0.50400001928E-02 0. -1.
       -1    1    3    3    0  502 -0.10306287994E+04 -0.22230596499E+03 -0.16707436532E+03  0.10674874743E+04  0.50400001928E-02 0.  1.
</event>
<event>
 5   0  0.2699285E-05  0.2096412E+04  0.7818609E-02  0.8562825E-01
       -1   -1    0    0    0  501  0.00000000000E+00  0.00000000000E+00  0.79043493640E+03  0.79043493642E+03  0.50400001928E-02 0.  1.
        1   -1    0    0  501    0  0.00000000000E+00  0.00000000000E+00 -0.13900399445E+04  0.13900399445E+04  0.50400001928E-02 0. -1.
    10030    2    1    2    0    0  0.00000000000E+00  0.00000000000E+00 -0.59960500813E+03  0.21804748810E+04  0.20964123022E+04 0.  0.
        2    1    3    3  502    0 -0.98418994053E+03  0.49050467543E+02  0.71878553680E+02  0.98802951064E+03  0.25500000920E-02 0. -1.
       -2    1    3    3    0  502  0.98418994053E+03 -0.49050467543E+02 -0.67148356181E+03  0.11924453703E+04  0.25500000920E-02 0.  1.
</event>
<event>
 5   0  0.5506332E-05  0.2103184E+04  0.7818609E-02  0.8559842E-01
       -2   -1    0    0    0  501  0.00000000000E+00  0.00000000000E+00  0.59813210543E+03  0.59813210543E+03  0.25500000920E-02 0. -1.
        2   -1    0    0  501    0  0.00000000000E+00  0.00000000000E+00 -0.18488325240E+04  0.18488325240E+04  0.25500000920E-02 0.  1.
    10030    2    1    2    0    0  0.00000000000E+00  0.00000000000E+00 -0.12507004186E+04  0.24469646295E+04  0.21031843383E+04 0.  0.
        3    1    3    3  502    0 -0.51018573972E+03 -0.89205999066E+03 -0.36575177515E+03  0.10907955295E+04  0.10100000352E+00 0.  1.
       -3    1    3    3    0  502  0.51018573972E+03  0.89205999066E+03 -0.88494864344E+03  0.13561691000E+04  0.10100000352E+00 0. -1.
</event>
<event>
 5   0  0.5967046E-05  0.2099706E+04  0.7818609E-02  0.8561373E-01
        2   -1    0    0  501    0  0.00000000000E+00  0.00000000000E+00  0.70645800953E+03  0.70645800953E+03  0.25500000920E-02 0. -1.
       -2   -1    0    0    0  501  0.00000000000E+00  0.00000000000E+00 -0.15601652284E+04  0.15601652284E+04  0.25500000920E-02 0.  1.
    10030    2    1    2    0    0  0.00000000000E+00  0.00000000000E+00 -0.85370721889E+03  0.22666232380E+04  0.20997059049E+04 0.  0.
        4    1    3    3  502    0 -0.56434801177E+03 -0.72348089674E+03  0.12387571064E+03  0.92588341109E+03  0.12699999809E+01 0. -1.
       -4    1    3    3    0  502  0.56434801177E+03  0.72348089674E+03 -0.97758292953E+03  0.13407398269E+04  0.12699999809E+01 0.  1.
</event>
<event>
 5   0  0.5462851E-05  0.2103592E+04  0.7818609E-02  0.8559663E-01
       -2   -1    0    0    0  501  0.00000000000E+00  0.00000000000E+00  0.10509214280E+04  0.10509214280E+04  0.25500000920E-02 0.  1.
        2   -1    0    0  501    0  0.00000000000E+00  0.00000000000E+00 -0.10526715948E+04  0.10526715948E+04  0.25500000920E-02 0. -1.
    10030    2    1    2    0    0  0.00000000000E+00  0.00000000000E+00 -0.17501667923E+01  0.21035930228E+04  0.21035922947E+04 0.  0.
        1    1    3    3  502    0  0.26874736242E+03  0.10091400101E+04  0.12437044226E+03  0.10516923084E+04  0.50400001928E-02 0. -1.
       -1    1    3    3    0  502 -0.26874736242E+03 -0.10091400101E+04 -0.12612060905E+03  0.10519007143E+04  0.50400001928E-02 0.  1.
</event>
<event>
 5   0  0.5506332E-05  0.2094746E+04  0.7818609E-02  0.8563562E-01
        2   -1    0    0  501    0  0.00000000000E+00  0.00000000000E+00  0.21286717531E+04  0.21286717531E+04  0.25500000920E-02 0. -1.
       -2   -1    0    0    0  501  0.00000000000E+00  0.00000000000E+00 -0.51534002050E+03  0.51534002051E+03  0.25500000920E-02 0.  1.
    10030    2    1    2    0    0  0.00000000000E+00  0.00000000000E+00  0.16133317326E+04  0.26440117736E+04  0.20947455644E+04 0.  0.
        3    1    3    3  502    0  0.18335757429E+03  0.22152849385E+03 -0.46453511013E+03  0.54634032652E+03  0.10100000352E+00 0.  1.
       -3    1    3    3    0  502 -0.18335757429E+03 -0.22152849385E+03  0.20778668428E+04  0.20976714471E+04  0.10100000352E+00 0. -1.
</event>
<event>
 5   0  0.2604390E-05  0.2119712E+04  0.7818609E-02  0.8552610E-01
        1   -1    0    0  501    0  0.00000000000E+00  0.00000000000E+00  0.25143434104E+04  0.25143434104E+04  0.50400001928E-02 0. -1.
       -1   -1    0    0    0  501  0.00000000000E+00  0.00000000000E+00 -0.44675451076E+03  0.44675451078E+03  0.50400001928E-02 0.  1.
    10030    2    1    2    0    0  0.00000000000E+00  0.00000000000E+00  0.20675888997E+04  0.29610979212E+04  0.21197115466E+04 0.  0.
        5    1    3    3  502    0 -0.13270768515E+03 -0.71676563640E+03  0.21085335728E+04  0.22309863794E+04  0.46999998093E+01 0. -1.
       -5    1    3    3    0  502  0.13270768515E+03  0.71676563640E+03 -0.40944673189E+02  0.73011154181E+03  0.46999998093E+01 0.  1.
</event>
<event>
 5   0  0.2789662E-05  0.2072669E+04  0.7818609E-02  0.8573379E-01
        1   -1    0    0  501    0  0.00000000000E+00  0.00000000000E+00  0.74120733846E+03  0.74120733848E+03  0.50400001928E-02 0.  1.
       -1   -1    0    0    0  501  0.00000000000E+00  0.00000000000E+00 -0.14489726484E+04  0.14489726484E+04  0.50400001928E-02 0. -1.
    10030    2    1    2    0    0  0.00000000000E+00  0.00000000000E+00 -0.70776530993E+03  0.21901799869E+04  0.20726689656E+04 0.  0.
        4    1    3    3  502    0  0.95803895764E+03  0.34582389992E+03 -0.55591535645E+03  0.11603776586E+04  0.12699999809E+01 0. -1.
       -4    1    3    3    0  502 -0.95803895764E+03 -0.34582389992E+03 -0.15184995348E+03  0.10298023283E+04  0.12699999809E+01 0.  1.
</event>
<event>
 5   0  0.2604390E-05  0.2022821E+04  0.7818609E-02  0.8596025E-01
       -1   -1    0    0    0  501  0.00000000000E+00  0.00000000000E+00  0.14796899894E+04  0.14796899894E+04  0.50400001928E-02 0.  1.
        1   -1    0    0  501    0  0.00000000000E+00  0.00000000000E+00 -0.69132785132E+03  0.69132785134E+03  0.50400001928E-02 0. -1.
    10030    2    1    2    0    0  0.00000000000E+00  0.00000000000E+00  0.78836213806E+03  0.21710178407E+04  0.20228207049E+04 0.  0.
        5    1    3    3  502    0 -0.15186739403E+03 -0.21703317340E+02 -0.67875633725E+03  0.69589294773E+03  0.46999998093E+01 0. -1.
       -5    1    3    3    0  502  0.15186739403E+03  0.21703317340E+02  0.14671184753E+04  0.14751248930E+04  0.46999998093E+01 0.  1.
</event>
<event>
 5   0  0.2732159E-05  0.2104020E+04  0.7818609E-02  0.8559474E-01
        1   -1    0    0  501    0  0.00000000000E+00  0.00000000000E+00  0.95425246697E+03  0.95425246698E+03  0.50400001928E-02 0.  1.
       -1   -1    0    0    0  501  0.00000000000E+00  0.00000000000E+00 -0.11597826257E+04  0.11597826258E+04  0.50400001928E-02 0. -1.
    10030    2    1    2    0    0  0.00000000000E+00  0.00000000000E+00 -0.20553015877E+03  0.21140350927E+04  0.21040203723E+04 0.  0.
        3    1    3    3  502    0  0.26802390834E+03  0.99693244098E+03  0.10071878607E+03  0.10372344920E+04  0.10100000352E+00 0. -1.
       -3    1    3    3    0  502 -0.26802390834E+03 -0.99693244098E+03 -0.30624894485E+03  0.10768006007E+04  0.10100000352E+00 0.  1.
</event>
<event>
 5   0  0.5967046E-05  0.2101444E+04  0.7818609E-02  0.8560608E-01
       -2   -1    0    0    0  501  0.00000000000E+00  0.00000000000E+00  0.12320932008E+04  0.12320932008E+04  0.25500000920E-02 0. -1.
        2   -1    0    0  501    0  0.00000000000E+00  0.00000000000E+00 -0.89604938247E+03  0.89604938248E+03  0.25500000920E-02 0.  1.
    10030    2    1    2    0    0  0.00000000000E+00  0.00000000000E+00  0.33604381833E+03  0.21281425833E+04  0.21014436483E+04 0.  0.
        4    1    3    3  502    0  0.47186228616E+02 -0.31821798439E+03  0.11809930135E+04  0.12240242386E+04  0.12699999809E+01 0. -1.
       -4    1    3    3    0  502 -0.47186228616E+02  0.31821798439E+03 -0.84494919522E+03  0.90411834467E+03  0.12699999809E+01 0.  1.
</event>
<event>
 5   0  0.5462851E-05  0.2105905E+04  0.7818609E-02  0.8558647E-01
        2   -1    0    0  501    0  0.00000000000E+00  0.00000000000E+00  0.49900163511E+03  0.49900163512E+03  0.25500000920E-02 0.  1.
       -2   -1    0    0    0  501  0.00000000000E+00  0.00000000000E+00 -0.22218543176E+04  0.22218543176E+04  0.25500000920E-02 0. -1.
    10030    2    1    2    0    0  0.00000000000E+00  0.00000000000E+00 -0.17228526825E+04  0.27208559527E+04  0.21059049717E+04 0.  0.
        1    1    3    3  502    0  0.81387820045E+03  0.54430161809E+03 -0.36095365349E+03  0.10435274393E+04  0.50400001928E-02 0. -1.
       -1    1    3    3    0  502 -0.81387820045E+03 -0.54430161809E+03 -0.13618990290E+04  0.16773285134E+04  0.50400001928E-02 0.  1.
</event>
<event>
 5   0  0.5967046E-05  0.2093076E+04  0.7818609E-02  0.8564300E-01
       -2   -1    0    0    0  501  0.00000000000E+00  0.00000000000E+00  0.39796579529E+03  0.39796579530E+03  0.25500000920E-02 0.  1.
        2   -1    0    0  501    0  0.00000000000E+00  0.00000000000E+00 -0.27520990223E+04  0.27520990223E+04  0.25500000920E-02 0. -1.
    10030    2    1    2    0    0  0.00000000000E+00  0.00000000000E+00 -0.23541332270E+04  0.31500648176E+04  0.20930755134E+04 0.  0.
        4    1    3    3  502    0  0.22386938065E+03 -0.99289926823E+03 -0.81065957700E+03  0.13012059864E+04  0.12699999809E+01 0.  1.
       -4    1    3    3    0  502 -0.22386938065E+03  0.99289926823E+03 -0.15434736500E+04  0.18488588312E+04  0.12699999809E+01 0. -1.
</event>
<event>
 5   0  0.2732159E-05  0.2100534E+04  0.7818609E-02  0.8561008E-01
       -1   -1    0    0    0  501  0.00000000000E+00  0.00000000000E+00  0.77952900992E+03  0.77952900994E+03  0.50400001928E-02 0. -1.
        1   -1    0    0  501    0  0.00000000000E+00  0.00000000000E+00 -0.14150343952E+04  0.14150343952E+04  0.50400001928E-02 0.  1.
    10030    2    1    2    0    0  0.00000000000E+00  0.00000000000E+00 -0.63550538531E+03  0.21945634052E+04  0.21005336095E+04 0.  0.
        3    1    3    3  502    0  0.37003240181E+03 -0.68018628319E+03 -0.10590815408E+04  0.13119569652E+04  0.10100000352E+00 0.  1.
       -3    1    3    3    0  502 -0.37003240181E+03  0.68018628319E+03  0.42357615548E+03  0.88260644000E+03  0.10100000352E+00 0. -1.
</event>
<event>
 5   0  0.5506332E-05  0.2087712E+04  0.7818609E-02  0.8566676E-01
       -2   -1    0    0    0  501  0.00000000000E+00  0.00000000000E+00  0.79009592261E+03  0.79009592261E+03  0.25500000920E-02 0. -1.
        2   -1    0    0  501    0  0.00000000000E+00  0.00000000000E+00 -0.13791182406E+04  0.13791182406E+04  0.25500000920E-02 0.  1.
    10030    2    1    2    0    0  0.00000000000E+00  0.00000000000E+00 -0.58902231802E+03  0.21692141632E+04  0.20877123353E+04 0.  0.
        3    1    3    3  502    0 -0.29040966742E+03 -0.75612048094E+03 -0.97868467736E+03  0.12703856361E+04  0.10100000352E+00 0.  1.
       -3    1    3    3    0  502  0.29040966742E+03  0.75612048094E+03  0.38966235935E+03  0.89882852709E+03  0.10100000352E+00 0. -1.
</event>
<event>
 5   0  0.5866610E-05  0.2098052E+04  0.7818609E-02  0.8562102E-01
        2   -1    0    0  501    0  0.00000000000E+00  0.00000000000E+00  0.21054220180E+04  0.21054220180E+04  0.25500000920E-02 0.  1.
       -2   -1    0    0    0  501  0.00000000000E+00  0.00000000000E+00 -0.52267708010E+03  0.52267708011E+03  0.25500000920E-02 0. -1.
    10030    2    1    2    0    0  0.00000000000E+00  0.00000000000E+00  0.15827449379E+04  0.26280990981E+04  0.20980522708E+04 0.  0.
        5    1    3    3  502    0  0.36604969925E+03 -0.26715276831E+03 -0.39372512905E+03  0.60033703132E+03  0.46999998093E+01 0. -1.
       -5    1    3    3    0  502 -0.36604969925E+03  0.26715276831E+03  0.19764700670E+04  0.20277620668E+04  0.46999998093E+01 0.  1.
</event>
<event>
 5   0  0.5462851E-05  0.2087680E+04  0.7818609E-02  0.8566690E-01
        2   -1    0    0  501    0  0.00000000000E+00  0.00000000000E+00  0.16989524002E+04  0.16989524002E+04  0.25500000920E-02 0. -1.
       -2   -1    0    0    0  501  0.00000000000E+00  0.00000000000E+00 -0.64133723637E+03  0.64133723637E+03  0.25500000920E-02 0.  1.
    10030    2    1    2    0    0  0.00000000000E+00  0.00000000000E+00  0.10576151638E+04  0.23402896366E+04  0.20876795128E+04 0.  0.
        1    1    3    3  502    0  0.52816520483E+03 -0.23127998905E+03  0.15042406314E+04  0.16109589672E+04  0.50400001928E-02 0. -1.
       -1    1    3    3    0  502 -0.52816520483E+03  0.23127998905E+03 -0.44662546757E+03  0.72933066934E+03  0.50400001928E-02 0.  1.
</event>
<event>
 5   0  0.2732159E-05  0.2102370E+04  0.7818609E-02  0.8560200E-01
        1   -1    0    0  501    0  0.00000000000E+00  0.00000000000E+00  0.96550203380E+03  0.96550203382E+03  0.50400001928E-02 0. -1.
       -1   -1    0    0    0  501  0.00000000000E+00  0.00000000000E+00 -0.11444722747E+04  0.11444722747E+04  0.50400001928E-02 0.  1.
    10030    2    1    2    0    0  0.00000000000E+00  0.00000000000E+00 -0.17897024087E+03  0.21099743085E+04  0.21023703849E+04 0.  0.
        3    1    3    3  502    0 -0.75475411918E+03  0.71320736347E+03 -0.25339075965E+03  0.10688898030E+04  0.10100000352E+00 0.  1.
       -3    1    3    3    0  502  0.75475411918E+03 -0.71320736347E+03  0.74420518775E+02  0.10410845055E+04  0.10100000352E+00 0. -1.
</event>
<event>
 5   0  0.2789662E-05  0.2150768E+04  0.7818609E-02  0.8539204E-01
        1   -1    0    0  501    0  0.00000000000E+00  0.00000000000E+00  0.11266911858E+04  0.11266911858E+04  0.50400001928E-02 0.  1.
       -1   -1    0    0    0  501  0.00000000000E+00  0.00000000000E+00 -0.10264131222E+04  0.10264131222E+04  0.50400001928E-02 0. -1.
    10030    2    1    2    0    0  0.00000000000E+00  0.00000000000E+00  0.10027806361E+03  0.21531043079E+04  0.21507678794E+04 0.  0.
        4    1    3    3  502    0 -0.18662515580E+03  0.33563493514E+03 -0.95542676416E+03  0.10297192205E+04  0.12699999809E+01 0. -1.
       -4    1    3    3    0  502  0.18662515580E+03 -0.33563493514E+03  0.10557048278E+04  0.11233850875E+04  0.12699999809E+01 0.  1.
</event>
<event>
 5   0  0.2732159E-05  0.2079108E+04  0.7818609E-02  0.8570502E-01
        1   -1    0    0  501    0  0.00000000000E+00  0.00000000000E+00  0.21193402279E+04  0.21193402279E+04  0.50400001928E-02 0.  1.
       -1   -1    0    0    0  501  0.00000000000E+00  0.00000000000E+00 -0.50991011313E+03  0.50991011316E+03  0.50400001928E-02 0. -1.
    10030    2    1    2    0    0  0.00000000000E+00  0.00000000000E+00  0.16094301148E+04  0.26292503411E+04  0.20791084776E+04 0.  0.
        3    1    3    3  502    0  0.81261282810E+03 -0.24113054335E+03  0.43648406008E+02  0.84875717427E+03  0.10100000352E+00 0. -1.
       -3    1    3    3    0  502 -0.81261282810E+03  0.24113054335E+03  0.15657817088E+04  0.17804931668E+04  0.10100000352E+00 0.  1.
</event>
<event>
 5   0  0.5462851E-05  0.2098797E+04  0.7818609E-02  0.8561774E-01
       -2   -1    0    0    0  501  0.00000000000E+00  0.00000000000E+00  0.14346786279E+04  0.14346786279E+04  0.25500000920E-02 0. -1.
        2   -1    0    0  501    0  0.00000000000E+00  0.00000000000E+00 -0.76758450701E+03  0.76758450702E+03  0.25500000920E-02 0.  1.
    10030    2    1    2    0    0  0.00000000000E+00  0.00000000000E+00  0.66709412086E+03  0.22022631349E+04  0.20987968814E+04 0.  0.
        1    1    3    3  502    0  0.26415832637E+03  0.11088055641E+01  0.13992206473E+04  0.14239379448E+04  0.50400001928E-02 0. -1.
       -1    1    3    3    0  502 -0.26415832637E+03 -0.11088055641E+01 -0.73212652641E+03  0.77832519010E+03  0.50400001928E-02 0.  1.
</event>
<event>
 5   0  0.5866610E-05  0.2097270E+04  0.7818609E-02  0.8562447E-01
       -2   -1    0    0    0  501  0.00000000000E+00  0.00000000000E+00  0.90785932073E+03  0.90785932074E+03  0.25500000920E-02 0.  1.
        2   -1    0    0  501    0  0.00000000000E+00  0.00000000000E+00 -0.12112399726E+04  0.12112399726E+04  0.25500000920E-02 0. -1.
    10030    2    1    2    0    0  0.00000000000E+00  0.00000000000E+00 -0.30338065186E+03  0.21190992933E+04  0.20972701293E+04 0.  0.
        5    1    3    3  502    0 -0.22330835323E+03  0.87159224303E+03 -0.69588106909E+03  0.11374586634E+04  0.46999998093E+01 0. -1.
       -5    1    3    3    0  502  0.22330835323E+03 -0.87159224303E+03  0.39250041723E+03  0.98164062989E+03  0.46999998093E+01 0.  1.
</event>
<event>
 5   0  0.5954140E-05  0.2078102E+04  0.7818609E-02  0.8570951E-01
       -2   -1    0    0    0  501  0.00000000000E+00  0.00000000000E+00  0.55631932343E+03  0.55631932343E+03  0.25500000920E-02 0. -1.
        2   -1    0    0  501    0  0.00000000000E+00  0.00000000000E+00 -0.19406609096E+04  0.19406609096E+04  0.25500000920E-02 0.  1.
    10030    2    1    2    0    0  0.00000000000E+00  0.00000000000E+00 -0.13843415861E+04  0.24969802330E+04  0.20781021767E+04 0.  0.
        2    1    3    3  502    0  0.59261007999E+02 -0.15437578620E+03 -0.19247492408E+04  0.19318393801E+04  0.25500000920E-02 0.  1.
       -2    1    3    3    0  502 -0.59261007999E+02  0.15437578620E+03  0.54040765466E+03  0.56514085293E+03  0.25500000920E-02 0. -1.
</event>
<event>
 5   0  0.5506332E-05  0.2132548E+04  0.7818609E-02  0.8547040E-01
        2   -1    0    0  501    0  0.00000000000E+00  0.00000000000E+00  0.11384028642E+04  0.11384028642E+04  0.25500000920E-02 0.  1.
       -2   -1    0    0    0  501  0.00000000000E+00  0.00000000000E+00 -0.99871491933E+03  0.99871491933E+03  0.25500000920E-02 0. -1.
    10030    2    1    2    0    0  0.00000000000E+00  0.00000000000E+00  0.13968794492E+03  0.21371177836E+04  0.21325477014E+04 0.  0.
        3    1    3    3  502    0 -0.91622800336E+03  0.34124351611E+03 -0.35653110593E+03  0.10406898343E+04  0.10100000352E+00 0. -1.
       -3    1    3    3    0  502  0.91622800336E+03 -0.34124351611E+03  0.49621905085E+03  0.10964279493E+04  0.10100000352E+00 0.  1.
</event>
<event>
 5   0  0.5954140E-05  0.2056212E+04  0.7818609E-02  0.8580782E-01
        2   -1    0    0  501    0  0.00000000000E+00  0.00000000000E+00  0.73159526316E+03  0.73159526317E+03  0.25500000920E-02 0. -1.
       -2   -1    0    0    0  501  0.00000000000E+00  0.00000000000E+00 -0.14447901966E+04  0.14447901966E+04  0.25500000920E-02 0.  1.
    10030    2    1    2    0    0  0.00000000000E+00  0.00000000000E+00 -0.71319493340E+03  0.21763854597E+04  0.20562117246E+04 0.  0.
        2    1    3    3  502    0  0.76594711988E+03 -0.33944008947E+03 -0.98733352826E+03  0.12948830298E+04  0.25500000920E-02 0.  1.
       -2    1    3    3    0  502 -0.76594711988E+03  0.33944008947E+03  0.27413859486E+03  0.88150242994E+03  0.25500000920E-02 0. -1.
</event>
<event>
 5   0  0.5506332E-05  0.2146388E+04  0.7818609E-02  0.8541080E-01
       -2   -1    0    0    0  501  0.00000000000E+00  0.00000000000E+00  0.80066193450E+03  0.80066193450E+03  0.25500000920E-02 0.  1.
        2   -1    0    0  501    0  0.00000000000E+00  0.00000000000E+00 -0.14384915198E+04  0.14384915198E+04  0.25500000920E-02 0. -1.
    10030    2    1    2    0    0  0.00000000000E+00  0.00000000000E+00 -0.63782958529E+03  0.22391534543E+04  0.21463880385E+04 0.  0.
        3    1    3    3  502    0  0.20511049500E+03  0.16256858735E+03  0.76685879292E+03  0.81029086089E+03  0.10100000352E+00 0.  1.
       -3    1    3    3    0  502 -0.20511049500E+03 -0.16256858735E+03 -0.14046883782E+04  0.14288625934E+04  0.10100000352E+00 0. -1.
</event>
<event>
 5   0  0.5506332E-05  0.2096630E+04  0.7818609E-02  0.8562729E-01
       -2   -1    0    0    0  501  0.00000000000E+00  0.00000000000E+00  0.14489095556E+04  0.14489095556E+04  0.25500000920E-02 0.  1.
        2   -1    0    0  501    0  0.00000000000E+00  0.00000000000E+00 -0.75847666371E+03  0.75847666372E+03  0.25500000920E-02 0. -1.
    10030    2    1    2    0    0  0.00000000000E+00  0.00000000000E+00  0.69043289186E+03  0.22073862193E+04  0.20966297582E+04 0.  0.
        3    1    3    3  502    0  0.98710237360E+03  0.23324524356E+02 -0.25594991209E+02  0.98770959455E+03  0.10100000352E+00 0.  1.
       -3    1    3    3    0  502 -0.98710237360E+03 -0.23324524356E+02  0.71602788307E+03  0.12196766247E+04  0.10100000352E+00 0. -1.
</event>
<event>
 5   0  0.5967046E-05  0.2092082E+04  0.7818609E-02  0.8564739E-01
        2   -1    0    0  501    0  0.00000000000E+00  0.00000000000E+00  0.15756796341E+04  0.15756796341E+04  0.25500000920E-02 0.  1.
       -2   -1    0    0    0  501  0.00000000000E+00  0.00000000000E+00 -0.69443152292E+03  0.69443152292E+03  0.25500000920E-02 0. -1.
    10030    2    1    2    0    0  0.00000000000E+00  0.00000000000E+00  0.88124811121E+03  0.22701111571E+04  0.20920818416E+04 0.  0.
        4    1    3    3  502    0 -0.38201373010E+03 -0.17522978437E+03  0.14800311963E+04  0.15385492914E+04  0.12699999809E+01 0.  1.
       -4    1    3    3    0  502  0.38201373010E+03  0.17522978437E+03 -0.59878308509E+03  0.73156186560E+03  0.12699999809E+01 0. -1.
</event>
<event>
 5   0  0.2604390E-05  0.2119389E+04  0.7818609E-02  0.8552750E-01
        1   -1    0    0  501    0  0.00000000000E+00  0.00000000000E+00  0.14084870403E+04  0.14084870403E+04  0.50400001928E-02 0.  1.
       -1   -1    0    0    0  501  0.00000000000E+00  0.00000000000E+00 -0.79727541080E+03  0.79727541082E+03  0.50400001928E-02 0. -1.
    10030    2    1    2    0    0  0.00000000000E+00  0.00000000000E+00  0.61121162945E+03  0.22057624511E+04  0.21193886700E+04 0.  0.
        5    1    3    3  502    0  0.56325927838E+03  0.73006893512E+03 -0.23785155105E+03  0.95229045729E+03  0.46999998093E+01 0. -1.
       -5    1    3    3    0  502 -0.56325927838E+03 -0.73006893512E+03  0.84906318051E+03  0.12534719938E+04  0.46999998093E+01 0.  1.
</event>
<event>
 5   0  0.2699285E-05  0.2129340E+04  0.7818609E-02  0.8548428E-01
       -1   -1    0    0    0  501  0.00000000000E+00  0.00000000000E+00  0.53218370293E+03  0.53218370295E+03  0.50400001928E-02 0. -1.
        1   -1    0    0  501    0  0.00000000000E+00  0.00000000000E+00 -0.21299451009E+04  0.21299451009E+04  0.50400001928E-02 0.  1.
    10030    2    1    2    0    0  0.00000000000E+00  0.00000000000E+00 -0.15977613979E+04  0.26621288038E+04  0.21293398703E+04 0.  0.
        2    1    3    3  502    0 -0.25438031123E+03  0.52873864193E+03  0.31180421246E+03  0.66445147387E+03  0.25500000920E-02 0. -1.
       -2    1    3    3    0  502  0.25438031123E+03 -0.52873864193E+03 -0.19095656104E+04  0.19976773300E+04  0.25500000920E-02 0.  1.
</event>
<event>
 5   0  0.2699285E-05  0.2159008E+04  0.7818609E-02  0.8535686E-01
       -1   -1    0    0    0  501  0.00000000000E+00  0.00000000000E+00  0.47839731418E+03  0.47839731421E+03  0.50400001928E-02 0.  1.
        1   -1    0    0  501    0  0.00000000000E+00  0.00000000000E+00 -0.24359014876E+04  0.24359014876E+04  0.50400001928E-02 0. -1.
    10030    2    1    2    0    0  0.00000000000E+00  0.00000000000E+00 -0.19575041734E+04  0.29142988018E+04  0.21590078549E+04 0.  0.
        2    1    3    3  502    0 -0.75465015182E+03  0.13710019824E+01  0.63183899108E+02  0.75729184361E+03  0.25500000920E-02 0.  1.
       -2    1    3    3    0  502  0.75465015182E+03 -0.13710019824E+01 -0.20206880725E+04  0.21570069582E+04  0.25500000920E-02 0. -1.
</event>
<event>
 5   0  0.2732159E-05  0.2098689E+04  0.7818609E-02  0.8561821E-01
        1   -1    0    0  501    0  0.00000000000E+00  0.00000000000E+00  0.14172488228E+04  0.14172488228E+04  0.50400001928E-02 0.  1.
       -1   -1    0    0    0  501  0.00000000000E+00  0.00000000000E+00 -0.77694485839E+03  0.77694485841E+03  0.50400001928E-02 0. -1.
    10030    2    1    2    0    0  0.00000000000E+00  0.00000000000E+00  0.64030396436E+03  0.21941936812E+04  0.20986892919E+04 0.  0.
        3    1    3    3  502    0 -0.24179535139E+03  0.70514937885E+03 -0.45198392856E+03  0.87177412231E+03  0.10100000352E+00 0. -1.
       -3    1    3    3    0  502  0.24179535139E+03 -0.70514937885E+03  0.10922878929E+04  0.13224195589E+04  0.10100000352E+00 0.  1.
</event>
<event>
 5   0  0.5462851E-05  0.1989909E+04  0.7818609E-02  0.8611353E-01
       -2   -1    0    0    0  501  0.00000000000E+00  0.00000000000E+00  0.58111194390E+03  0.58111194390E+03  0.25500000920E-02 0.  1.
        2   -1    0    0  501    0  0.00000000000E+00  0.00000000000E+00 -0.17035168745E+04  0.17035168745E+04  0.25500000920E-02 0. -1.
    10030    2    1    2    0    0  0.00000000000E+00  0.00000000000E+00 -0.11224049306E+04  0.22846288184E+04  0.19899085430E+04 0.  0.
        1    1    3    3  502    0 -0.86273021783E+03 -0.37450707874E+03 -0.93389558260E+03  0.13254131205E+04  0.50400001928E-02 0. -1.
       -1    1    3    3    0  502  0.86273021783E+03  0.37450707874E+03 -0.18850934800E+03  0.95921569790E+03  0.50400001928E-02 0.  1.
</event>
<event>
 5   0  0.2732159E-05  0.2116000E+04  0.7818609E-02  0.8554228E-01
       -1   -1    0    0    0  501  0.00000000000E+00  0.00000000000E+00  0.97863527142E+03  0.97863527143E+03  0.50400001928E-02 0. -1.
        1   -1    0    0  501    0  0.00000000000E+00  0.00000000000E+00 -0.11438014179E+04  0.11438014179E+04  0.50400001928E-02 0.  1.
    10030    2    1    2    0    0  0.00000000000E+00  0.00000000000E+00 -0.16516614647E+03  0.21224366893E+04  0.21160003885E+04 0.  0.
        3    1    3    3  502    0  0.24381543925E+03  0.97837991394E+03  0.23884630335E+03  0.10362049948E+04  0.10100000352E+00 0. -1.
       -3    1    3    3    0  502 -0.24381543925E+03 -0.97837991394E+03 -0.40401244982E+03  0.10862316945E+04  0.10100000352E+00 0.  1.
</event>
<event>
 5   0  0.5506332E-05  0.2091650E+04  0.7818609E-02  0.8564930E-01
       -2   -1    0    0    0  501  0.00000000000E+00  0.00000000000E+00  0.76992746436E+03  0.76992746437E+03  0.25500000920E-02 0.  1.
        2   -1    0    0  501    0  0.00000000000E+00  0.00000000000E+00 -0.14205889374E+04  0.14205889374E+04  0.25500000920E-02 0. -1.
    10030    2    1    2    0    0  0.00000000000E+00  0.00000000000E+00 -0.65066147308E+03  0.21905164018E+04  0.20916504856E+04 0.  0.
        3    1    3    3  502    0  0.43568024338E+03  0.23480199688E+03  0.63952054930E+03  0.80866296774E+03  0.10100000352E+00 0.  1.
       -3    1    3    3    0  502 -0.43568024338E+03 -0.23480199688E+03 -0.12901820224E+04  0.13818534341E+04  0.10100000352E+00 0. -1.
</event>
<event>
 5   0  0.2602060E-05  0.2132287E+04  0.7818609E-02  0.8547153E-01
        1   -1    0    0  501    0  0.00000000000E+00  0.00000000000E+00  0.71341616046E+03  0.71341616048E+03  0.50400001928E-02 0. -1.
       -1   -1    0    0    0  501  0.00000000000E+00  0.00000000000E+00 -0.15932659816E+04  0.15932659816E+04  0.50400001928E-02 0.  1.
    10030    2    1    2    0    0  0.00000000000E+00  0.00000000000E+00 -0.87984982113E+03  0.23066821421E+04  0.21322867530E+04 0.  0.
        1    1    3    3  502    0  0.14471357828E+02 -0.47717775460E+03 -0.14711779305E+04  0.15466972984E+04  0.50400001928E-02 0.  1.
       -1    1    3    3    0  502 -0.14471357828E+02  0.47717775460E+03  0.59132810936E+03  0.75998484368E+03  0.50400001928E-02 0. -1.
</event>
<event>
 5   0  0.5967046E-05  0.2097549E+04  0.7818609E-02  0.8562324E-01
        2   -1    0    0  501    0  0.00000000000E+00  0.00000000000E+00  0.16075947715E+04  0.16075947715E+04  0.25500000920E-02 0. -1.
       -2   -1    0    0    0  501  0.00000000000E+00  0.00000000000E+00 -0.68420745586E+03  0.68420745587E+03  0.25500000920E-02 0.  1.
    10030    2    1    2    0    0  0.00000000000E+00  0.00000000000E+00  0.92338731565E+03  0.22918022274E+04  0.20975493593E+04 0.  0.
        4    1    3    3  502    0  0.47235262919E+03  0.73993452958E+03 -0.16530291390E+03  0.89327866906E+03  0.12699999809E+01 0.  1.
       -4    1    3    3    0  502 -0.47235262919E+03 -0.73993452958E+03  0.10886902296E+04  0.13985235583E+04  0.12699999809E+01 0. -1.
</event>
<event>
 5   0  0.5967046E-05  0.2102868E+04  0.7818609E-02  0.8559981E-01
        2   -1    0    0  501    0  0.00000000000E+00  0.00000000000E+00  0.11541233080E+04  0.11541233080E+04  0.25500000920E-02 0. -1.
       -2   -1    0    0    0  501  0.00000000000E+00  0.00000000000E+00 -0.95788176147E+03  0.95788176147E+03  0.25500000920E-02 0.  1.
    10030    2    1    2    0    0  0.00000000000E+00  0.00000000000E+00  0.19624154655E+03  0.21120050695E+04  0.21028682006E+04 0.  0.
        4    1    3    3  502    0  0.68805533690E+03 -0.14280657680E+02  0.89648845175E+03  0.11301846048E+04  0.12699999809E+01 0. -1.
       -4    1    3    3    0  502 -0.68805533690E+03  0.14280657680E+02 -0.70024690521E+03  0.98182046473E+03  0.12699999809E+01 0.  1.
</event>
<event>
 5   0  0.2604390E-05  0.2081671E+04  0.7818609E-02  0.8569361E-01
       -1   -1    0    0    0  501  0.00000000000E+00  0.00000000000E+00  0.52359659534E+03  0.52359659536E+03  0.50400001928E-02 0.  1.
        1   -1    0    0  501    0  0.00000000000E+00  0.00000000000E+00 -0.20690334740E+04  0.20690334740E+04  0.50400001928E-02 0. -1.
    10030    2    1    2    0    0  0.00000000000E+00  0.00000000000E+00 -0.15454368787E+04  0.25926300694E+04  0.20816713311E+04 0.  0.
        5    1    3    3  502    0  0.10311818209E+04  0.10528058490E+03 -0.89019368627E+03  0.13663406743E+04  0.46999998093E+01 0.  1.
       -5    1    3    3    0  502 -0.10311818209E+04 -0.10528058490E+03 -0.65524319243E+03  0.12262893951E+04  0.46999998093E+01 0. -1.
</event>
<event>
 5   0  0.2732159E-05  0.2095876E+04  0.7818609E-02  0.8563062E-01
       -1   -1    0    0    0  501  0.00000000000E+00  0.00000000000E+00  0.11128131386E+04  0.11128131386E+04  0.50400001928E-02 0.  1.
        1   -1    0    0  501    0  0.00000000000E+00  0.00000000000E+00 -0.98684496419E+03  0.98684496420E+03  0.50400001928E-02 0. -1.
    10030    2    1    2    0    0  0.00000000000E+00  0.00000000000E+00  0.12596817443E+03  0.20996581028E+04  0.20958759906E+04 0.  0.
        3    1    3    3  502    0  0.60700082952E+02 -0.93163957605E+03 -0.41383408052E+03  0.10212225302E+04  0.10100000352E+00 0. -1.
       -3    1    3    3    0  502 -0.60700082952E+02  0.93163957605E+03  0.53980225495E+03  0.10784355727E+04  0.10100000352E+00 0.  1.
</event>
<event>
 5   0  0.2699285E-05  0.2104056E+04  0.7818609E-02  0.8559459E-01
        1   -1    0    0  501    0  0.00000000000E+00  0.00000000000E+00  0.17456513551E+04  0.17456513551E+04  0.50400001928E-02 0.  1.
       -1   -1    0    0    0  501  0.00000000000E+00  0.00000000000E+00 -0.63401114582E+03  0.63401114584E+03  0.50400001928E-02 0. -1.
    10030    2    1    2    0    0  0.00000000000E+00  0.00000000000E+00  0.11116402093E+04  0.23796625010E+04  0.21040555277E+04 0.  0.
        2    1    3    3  502    0  0.76662215409E+03  0.51257278510E+03 -0.16779621329E+02  0.92234589112E+03  0.25500000920E-02 0. -1.
       -2    1    3    3    0  502 -0.76662215409E+03 -0.51257278510E+03  0.11284198306E+04  0.14573166099E+04  0.25500000920E-02 0.  1.
</event>
<event>
 5   0  0.5967046E-05  0.2049412E+04  0.7818609E-02  0.8583861E-01
       -2   -1    0    0    0  501  0.00000000000E+00  0.00000000000E+00  0.71407587168E+03  0.71407587168E+03  0.25500000920E-02 0.  1.
        2   -1    0    0  501    0  0.00000000000E+00  0.00000000000E+00 -0.14704637280E+04  0.14704637280E+04  0.25500000920E-02 0. -1.
    10030    2    1    2    0    0  0.00000000000E+00  0.00000000000E+00 -0.75638785633E+03  0.21845395997E+04  0.20494122751E+04 0.  0.
        4    1    3    3  502    0 -0.10044012962E+04  0.17035883588E+03 -0.26056882795E+03  0.10515425924E+04  0.12699999809E+01 0.  1.
       -4    1    3    3    0  502  0.10044012962E+04 -0.17035883588E+03 -0.49581902838E+03  0.11329970073E+04  0.12699999809E+01 0. -1.
</event>
<event>
 5   0  0.2732159E-05  0.2101237E+04  0.7818609E-02  0.8560699E-01
        1   -1    0    0  501    0  0.00000000000E+00  0.00000000000E+00  0.28870516899E+04  0.28870516899E+04  0.50400001928E-02 0.  1.
       -1   -1    0    0    0  501  0.00000000000E+00  0.00000000000E+00 -0.38232739644E+03  0.38232739647E+03  0.50400001928E-02 0. -1.
    10030    2    1    2    0    0  0.00000000000E+00  0.00000000000E+00  0.25047242935E+04  0.32693790864E+04  0.21012367368E+04 0.  0.
        3    1    3    3  502    0  0.22738957555E+03 -0.55145039970E+03  0.25980358132E+04  0.26656319437E+04  0.10100000352E+00 0.  1.
       -3    1    3    3    0  502 -0.22738957555E+03  0.55145039970E+03 -0.93311519715E+02  0.60374714270E+03  0.10100000352E+00 0. -1.
</event>
<event>
 5   0  0.5954140E-05  0.2094687E+04  0.7818609E-02  0.8563587E-01
       -2   -1    0    0    0  501  0.00000000000E+00  0.00000000000E+00  0.83670834084E+03  0.83670834085E+03  0.25500000920E-02 0. -1.
        2   -1    0    0  501    0  0.00000000000E+00  0.00000000000E+00 -0.13110050917E+04  0.13110050917E+04  0.25500000920E-02 0.  1.
    10030    2    1    2    0    0  0.00000000000E+00  0.00000000000E+00 -0.47429675086E+03  0.21477134326E+04  0.20946874661E+04 0.  0.
        2    1    3    3  502    0 -0.11810278896E+03  0.39206403401E+03 -0.12255358227E+04  0.12921302288E+04  0.25500000920E-02 0.  1.
       -2    1    3    3    0  502  0.11810278896E+03 -0.39206403401E+03  0.75123907181E+03  0.85558320375E+03  0.25500000920E-02 0. -1.
</event>
<event>
 5   0  0.5967046E-05  0.2100265E+04  0.7818609E-02  0.8561127E-01
        2   -1    0    0  501    0  0.00000000000E+00  0.00000000000E+00  0.11292379085E+04  0.11292379085E+04  0.25500000920E-02 0.  1.
       -2   -1    0    0    0  501  0.00000000000E+00  0.00000000000E+00 -0.97656840144E+03  0.97656840145E+03  0.25500000920E-02 0. -1.
    10030    2    1    2    0    0  0.00000000000E+00  0.00000000000E+00  0.15266950703E+03  0.21058063099E+04  0.21002648015E+04 0.  0.
        4    1    3    3  502    0 -0.33234124475E+03  0.84874771888E+03  0.59920188006E+03  0.10908106615E+04  0.12699999809E+01 0.  1.
       -4    1    3    3    0  502  0.33234124475E+03 -0.84874771888E+03 -0.44653237303E+03  0.10149956484E+04  0.12699999809E+01 0. -1.
</event>
<event>
 5   0  0.2604390E-05  0.2099038E+04  0.7818609E-02  0.8561667E-01
       -1   -1    0    0    0  501  0.00000000000E+00  0.00000000000E+00  0.92113771177E+03  0.92113771178E+03  0.50400001928E-02 0. -1.
        1   -1    0    0  501    0  0.00000000000E+00  0.00000000000E+00 -0.11957930060E+04  0.11957930061E+04  0.50400001928E-02 0.  1.
    10030    2    1    2    0    0  0.00000000000E+00  0.00000000000E+00 -0.27465529427E+03  0.21169307178E+04  0.20990379066E+04 0.  0.
        5    1    3    3  502    0  0.76606951972E+02 -0.10384083635E+04 -0.46486626250E+01  0.10412512927E+04  0.46999998093E+01 0.  1.
       -5    1    3    3    0  502 -0.76606951972E+02  0.10384083635E+04 -0.27000663165E+03  0.10756794251E+04  0.46999998093E+01 0. -1.
</event>
<event>
 5   0  0.2699285E-05  0.2118741E+04  0.7818609E-02  0.8553033E-01
       -1   -1    0    0    0  501  0.00000000000E+00  0.00000000000E+00  0.60998306361E+03  0.60998306363E+03  0.50400001928E-02 0.  1.
        1   -1    0    0  501    0  0.00000000000E+00  0.00000000000E+00 -0.18398310020E+04  0.18398310020E+04  0.50400001928E-02 0. -1.
    10030    2    1    2    0    0  0.00000000000E+00  0.00000000000E+00 -0.12298479384E+04  0.24498140656E+04  0.21187409008E+04 0.  0.
        2    1    3    3  502    0  0.75987637457E+03 -0.29124507401E+03  0.16931483706E+03  0.83120593827E+03  0.25500000920E-02 0.  1.
       -2    1    3    3    0  502 -0.75987637457E+03  0.29124507401E+03 -0.13991627755E+04  0.16186081274E+04  0.25500000920E-02 0. -1.
</event>
<event>
 5   0  0.5954140E-05  0.2100749E+04  0.7818609E-02  0.8560913E-01
       -2   -1    0    0    0  501  0.00000000000E+00  0.00000000000E+00  0.55755936554E+03  0.55755936554E+03  0.25500000920E-02 0.  1.
        2   -1    0    0  501    0  0.00000000000E+00  0.00000000000E+00 -0.19787788510E+04  0.19787788510E+04  0.25500000920E-02 0. -1.
    10030    2    1    2    0    0  0.00000000000E+00  0.00000000000E+00 -0.14212194854E+04  0.25363382165E+04  0.21007490861E+04 0.  0.
        2    1    3    3  502    0  0.22210222465E+03  0.22650452502E+03 -0.19195596527E+04  0.19455957850E+04  0.25500000920E-02 0. -1.
       -2    1    3    3    0  502 -0.22210222465E+03 -0.22650452502E+03  0.49834016732E+03  0.59074243154E+03  0.25500000920E-02 0.  1.
</event>
<event>
 5   0  0.5506332E-05  0.2077032E+04  0.7818609E-02  0.8571429E-01
       -2   -1    0    0    0  501  0.00000000000E+00  0.00000000000E+00  0.14851790343E+04  0.14851790343E+04  0.25500000920E-02 0.  1.
        2   -1    0    0  501    0  0.00000000000E+00  0.00000000000E+00 -0.72618568641E+03  0.72618568641E+03  0.25500000920E-02 0. -1.
    10030    2    1    2    0    0  0.00000000000E+00  0.00000000000E+00  0.75899334786E+03  0.22113647207E+04  0.20770322640E+04 0.  0.
        3    1    3    3  502    0  0.99688320870E+03 -0.28568498468E+03  0.31999186426E+03  0.10852588842E+04  0.10100000352E+00 0.  1.
       -3    1    3    3    0  502 -0.99688320870E+03  0.28568498468E+03  0.43900148361E+03  0.11261058365E+04  0.10100000352E+00 0. -1.
</event>
<event>
 5   0  0.5866610E-05  0.2101738E+04  0.7818609E-02  0.8560478E-01
        2   -1    0    0  501    0  0.00000000000E+00  0.00000000000E+00  0.59277327645E+03  0.59277327646E+03  0.25500000920E-02 0. -1.
       -2   -1    0    0    0  501  0.00000000000E+00  0.00000000000E+00 -0.18629812099E+04  0.18629812099E+04  0.25500000920E-02 0.  1.
    10030    2    1    2    0    0  0.00000000000E+00  0.00000000000E+00 -0.12702079334E+04  0.24557544863E+04  0.21017378293E+04 0.  0.
        5    1    3    3  502    0  0.92580515721E+03  0.49203337821E+03 -0.71847648883E+03  0.12710006253E+04  0.46999998093E+01 0.  1.
       -5    1    3    3    0  502 -0.92580515721E+03 -0.49203337821E+03 -0.55173144458E+03  0.11847538611E+04  0.46999998093E+01 0. -1.
</event>
<event>
 5   0  0.2699285E-05  0.2098748E+04  0.7818609E-02  0.8561795E-01
        1   -1    0    0  501    0  0.00000000000E+00  0.00000000000E+00  0.10337221983E+04  0.10337221983E+04  0.50400001928E-02 0. -1.
       -1   -1    0    0    0  501  0.00000000000E+00  0.00000000000E+00 -0.10652627519E+04  0.10652627520E+04  0.50400001928E-02 0.  1.
    10030    2    1    2    0    0  0.00000000000E+00  0.00000000000E+00 -0.31540553623E+02  0.20989849503E+04  0.20987479637E+04 0.  0.
        2    1    3    3  502    0  0.35744635296E+03  0.73375811699E+03  0.64386229695E+03  0.10395804572E+04  0.25500000920E-02 0. -1.
       -2    1    3    3    0  502 -0.35744635296E+03 -0.73375811699E+03 -0.67540285057E+03  0.10594044931E+04  0.25500000920E-02 0.  1.
</event>
<event>
 5   0  0.5954140E-05  0.2106823E+04  0.7818609E-02  0.8558244E-01
        2   -1    0    0  501    0  0.00000000000E+00  0.00000000000E+00  0.18274781070E+04  0.18274781070E+04  0.25500000920E-02 0. -1.
       -2   -1    0    0    0  501  0.00000000000E+00  0.00000000000E+00 -0.60721679026E+03  0.60721679027E+03  0.25500000920E-02 0.  1.
    10030    2    1    2    0    0  0.00000000000E+00  0.00000000000E+00  0.12202613167E+04  0.24346948973E+04  0.21068226223E+04 0.  0.
        2    1    3    3  502    0  0.71806056648E+03 -0.69029963508E+03  0.10063442935E+04  0.14159284588E+04  0.25500000920E-02 0. -1.
       -2    1    3    3    0  502 -0.71806056648E+03  0.69029963508E+03  0.21391702320E+03  0.10187664385E+04  0.25500000920E-02 0.  1.
</event>
<event>
 5   0  0.2699285E-05  0.2024665E+04  0.7818609E-02  0.8595175E-01
        1   -1    0    0  501    0  0.00000000000E+00  0.00000000000E+00  0.66481899166E+03  0.66481899168E+03  0.50400001928E-02 0.  1.
       -1   -1    0    0    0  501  0.00000000000E+00  0.00000000000E+00 -0.15414977380E+04  0.15414977380E+04  0.50400001928E-02 0. -1.
    10030    2    1    2    0    0  0.00000000000E+00  0.00000000000E+00 -0.87667874634E+03  0.22063167297E+04  0.20246648827E+04 0.  0.
        2    1    3    3  502    0  0.41815588780E+03  0.26041696683E+03 -0.14020763427E+04  0.14860987228E+04  0.25500000920E-02 0. -1.
       -2    1    3    3    0  502 -0.41815588780E+03 -0.26041696683E+03  0.52539759639E+03  0.72021800686E+03  0.25500000920E-02 0.  1.
</event>
<event>
 5   0  0.5866610E-05  0.2100958E+04  0.7818609E-02  0.8560822E-01
        2   -1    0    0  501    0  0.00000000000E+00  0.00000000000E+00  0.15430404386E+04  0.15430404386E+04  0.25500000920E-02 0.  1.
       -2   -1    0    0    0  501  0.00000000000E+00  0.00000000000E+00 -0.71515045496E+03  0.71515045497E+03  0.25500000920E-02 0. -1.
    10030    2    1    2    0    0  0.00000000000E+00  0.00000000000E+00  0.82788998368E+03  0.22581908936E+04  0.21009579451E+04 0.  0.
        5    1    3    3  502    0 -0.87994870985E+03  0.82722524607E+02 -0.19628631940E+03  0.90537459498E+03  0.46999998093E+01 0. -1.
       -5    1    3    3    0  502  0.87994870985E+03 -0.82722524607E+02  0.10241763031E+04  0.13528162986E+04  0.46999998093E+01 0.  1.
</event>
<event>
 5   0  0.2602060E-05  0.2112188E+04  0.7818609E-02  0.8555893E-01
       -1   -1    0    0    0  501  0.00000000000E+00  0.00000000000E+00  0.10187901016E+04  0.10187901017E+04  0.50400001928E-02 0.  1.
        1   -1    0    0  501    0  0.00000000000E+00  0.00000000000E+00 -0.10947637087E+04  0.10947637087E+04  0.50400001928E-02 0. -1.
    10030    2    1    2    0    0  0.00000000000E+00  0.00000000000E+00 -0.75973607022E+02  0.21135538103E+04  0.21121878989E+04 0.  0.
        1    1    3    3  502    0 -0.90608965791E+03  0.53917869975E+03  0.22237593935E+02  0.10546120846E+04  0.50400001928E-02 0. -1.
       -1    1    3    3    0  502  0.90608965791E+03 -0.53917869975E+03 -0.98211200957E+02  0.10589417257E+04  0.50400001928E-02 0.  1.
</event>
<event>
 5   0  0.2789662E-05  0.2102354E+04  0.7818609E-02  0.8560207E-01
       -1   -1    0    0    0  501  0.00000000000E+00  0.00000000000E+00  0.21088040581E+04  0.21088040582E+04  0.50400001928E-02 0.  1.
        1   -1    0    0  501    0  0.00000000000E+00  0.00000000000E+00 -0.52398115959E+03  0.52398115962E+03  0.50400001928E-02 0. -1.
    10030    2    1    2    0    0  0.00000000000E+00  0.00000000000E+00  0.15848228986E+04  0.26327852178E+04  0.21023544856E+04 0.  0.
        4    1    3    3  502    0  0.33387336621E+03  0.77444722999E+03  0.15782075455E+04  0.17894078927E+04  0.12699999809E+01 0.  1.
       -4    1    3    3    0  502 -0.33387336621E+03 -0.77444722999E+03  0.66153530290E+01  0.84337732510E+03  0.12699999809E+01 0. -1.
</event>
<event>
 5   0  0.2602060E-05  0.2104368E+04  0.7818609E-02  0.8559322E-01
        1   -1    0    0  501    0  0.00000000000E+00  0.00000000000E+00  0.15499257336E+04  0.15499257337E+04  0.50400001928E-02 0.  1.
       -1   -1    0    0    0  501  0.00000000000E+00  0.00000000000E+00 -0.71428648297E+03  0.71428648299E+03  0.50400001928E-02 0. -1.
    10030    2    1    2    0    0  0.00000000000E+00  0.00000000000E+00  0.83563925068E+03  0.22642122166E+04  0.21043678397E+04 0.  0.
        1    1    3    3  502    0  0.24339037416E+03  0.64876281390E+03  0.12697714207E+04  0.14465308582E+04  0.50400001928E-02 0.  1.
       -1    1    3    3    0  502 -0.24339037416E+03 -0.64876281390E+03 -0.43413216998E+03  0.81768135846E+03  0.50400001928E-02 0. -1.
</event>
<event>
 5   0  0.5866610E-05  0.2109656E+04  0.7818609E-02  0.8557002E-01
        2   -1    0    0  501    0  0.00000000000E+00  0.00000000000E+00  0.98229341406E+03  0.98229341406E+03  0.25500000920E-02 0.  1.
       -2   -1    0    0    0  501  0.00000000000E+00  0.00000000000E+00 -0.11327185378E+04  0.11327185378E+04  0.25500000920E-02 0. -1.
    10030    2    1    2    0    0  0.00000000000E+00  0.00000000000E+00 -0.15042512376E+03  0.21150119519E+04  0.21096558579E+04 0.  0.
        5    1    3    3  502    0  0.55587403648E+03 -0.56244333751E+03 -0.77505463414E+03  0.11072805553E+04  0.46999998093E+01 0. -1.
       -5    1    3    3    0  502 -0.55587403648E+03  0.56244333751E+03  0.62462951038E+03  0.10077313965E+04  0.46999998093E+01 0.  1.
</event>
<event>
 5   0  0.2604390E-05  0.2097344E+04  0.7818609E-02  0.8562414E-01
       -1   -1    0    0    0  501  0.00000000000E+00  0.00000000000E+00  0.68311313494E+03  0.68311313495E+03  0.50400001928E-02 0.  1.
        1   -1    0    0  501    0  0.00000000000E+00  0.00000000000E+00 -0.16098554044E+04  0.16098554044E+04  0.50400001928E-02 0. -1.
    10030    2    1    2    0    0  0.00000000000E+00  0.00000000000E+00 -0.92674226949E+03  0.22929685394E+04  0.20973443896E+04 0.  0.
        5    1    3    3  502    0 -0.58486788381E+03 -0.76842413896E+03 -0.91033794988E+03  0.13271335170E+04  0.46999998093E+01 0. -1.
       -5    1    3    3    0  502  0.58486788381E+03  0.76842413896E+03 -0.16404319608E+02  0.96583502243E+03  0.46999998093E+01 0.  1.
</event>
<event>
 5   0  0.2732159E-05  0.2092604E+04  0.7818609E-02  0.8564508E-01
        1   -1    0    0  501    0  0.00000000000E+00  0.00000000000E+00  0.18971572673E+04  0.18971572673E+04  0.50400001928E-02 0.  1.
       -1   -1    0    0    0  501  0.00000000000E+00  0.00000000000E+00 -0.57704659740E+03  0.57704659743E+03  0.50400001928E-02 0. -1.
    10030    2    1    2    0    0  0.00000000000E+00  0.00000000000E+00  0.13201106699E+04  0.24742038647E+04  0.20926042587E+04 0.  0.
        3    1    3    3  502    0  0.49547326524E+03 -0.24529255968E+03  0.17103484739E+04  0.17974854961E+04  0.10100000352E+00 0.  1.
       -3    1    3    3    0  502 -0.49547326524E+03  0.24529255968E+03 -0.39023780407E+03  0.67671836854E+03  0.10100000352E+00 0. -1.
</event>
<event>
 5   0  0.5462851E-05  0.2117952E+04  0.7818609E-02  0.8553376E-01
       -2   -1    0    0    0  501  0.00000000000E+00  0.00000000000E+00  0.95386122979E+03  0.95386122980E+03  0.25500000920E-02 0.  1.
        2   -1    0    0  501    0  0.00000000000E+00  0.00000000000E+00 -0.11756748170E+04  0.11756748170E+04  0.25500000920E-02 0. -1.
    10030    2    1    2    0    0  0.00000000000E+00  0.00000000000E+00 -0.22181358720E+03  0.21295360468E+04  0.21179524327E+04 0.  0.
        1    1    3    3  502    0  0.31112217447E+03  0.46689396721E+03  0.79213874522E+03  0.97070632828E+03  0.50400001928E-02 0.  1.
       -1    1    3    3    0  502 -0.31112217447E+03 -0.46689396721E+03 -0.10139523324E+04  0.11588297185E+04  0.50400001928E-02 0. -1.
</event>
<event>
 5   0  0.2732159E-05  0.2091574E+04  0.7818609E-02  0.8564964E-01
        1   -1    0    0  501    0  0.00000000000E+00  0.00000000000E+00  0.13662495648E+04  0.13662495649E+04  0.50400001928E-02 0. -1.
       -1   -1    0    0    0  501  0.00000000000E+00  0.00000000000E+00 -0.80049083478E+03  0.80049083479E+03  0.50400001928E-02 0.  1.
    10030    2    1    2    0    0  0.00000000000E+00  0.00000000000E+00  0.56575873007E+03  0.21667403997E+04  0.20915738139E+04 0.  0.
        3    1    3    3  502    0 -0.64921828802E+03 -0.75186799885E+03 -0.55795262627E+02  0.99493868893E+03  0.10100000352E+00 0. -1.
       -3    1    3    3    0  502  0.64921828802E+03  0.75186799885E+03  0.62155399270E+03  0.11718017107E+04  0.10100000352E+00 0.  1.
</event>
<event>
 5   0  0.5506332E-05  0.2109065E+04  0.7818609E-02  0.8557261E-01
       -2   -1    0    0    0  501  0.00000000000E+00  0.00000000000E+00  0.69419447024E+03  0.69419447024E+03  0.25500000920E-02 0. -1.
        2   -1    0    0  501    0  0.00000000000E+00  0.00000000000E+00 -0.16019121010E+04  0.16019121010E+04  0.25500000920E-02 0.  1.
    10030    2    1    2    0    0  0.00000000000E+00  0.00000000000E+00 -0.90771763077E+03  0.22961065712E+04  0.21090647428E+04 0.  0.
        3    1    3    3  502    0  0.99544602436E+03 -0.33575004270E+03 -0.35409326809E+03  0.11086130665E+04  0.10100000352E+00 0.  1.
       -3    1    3    3    0  502 -0.99544602436E+03  0.33575004270E+03 -0.55362436268E+03  0.11874935047E+04  0.10100000352E+00 0. -1.
</event>
<event>
 5   0  0.2602060E-05  0.2079158E+04  0.7818609E-02  0.8570480E-01
       -1   -1    0    0    0  501  0.00000000000E+00  0.00000000000E+00  0.55895477696E+03  0.55895477698E+03  0.50400001928E-02 0.  1.
        1   -1    0    0  501    0  0.00000000000E+00  0.00000000000E+00 -0.19334742191E+04  0.19334742191E+04  0.50400001928E-02 0. -1.
    10030    2    1    2    0    0  0.00000000000E+00  0.00000000000E+00 -0.13745194421E+04  0.24924289961E+04  0.20791581478E+04 0.  0.
        1    1    3    3  502    0  0.39964000707E+02  0.44640646036E+03  0.43718806575E+03  0.62610642391E+03  0.50400001928E-02 0.  1.
       -1    1    3    3    0  502 -0.39964000707E+02 -0.44640646036E+03 -0.18117075079E+04  0.18663225722E+04  0.50400001928E-02 0. -1.
</event>
<event>
 5   0  0.2602060E-05  0.2232171E+04  0.7818609E-02  0.8505156E-01
        1   -1    0    0  501    0  0.00000000000E+00  0.00000000000E+00  0.12789781577E+04  0.12789781577E+04  0.50400001928E-02 0.  1.
       -1   -1    0    0    0  501  0.00000000000E+00  0.00000000000E+00 -0.97393917712E+03  0.97393917713E+03  0.50400001928E-02 0. -1.
    10030    2    1    2    0    0  0.00000000000E+00  0.00000000000E+00  0.30503898055E+03  0.22529173348E+04  0.22321710817E+04 0.  0.
        1    1    3    3  502    0 -0.99655216200E+03  0.10562898021E+03 -0.34334423695E+03  0.10593200452E+04  0.50400001928E-02 0. -1.
       -1    1    3    3    0  502  0.99655216200E+03 -0.10562898021E+03  0.64838321750E+03  0.11935972896E+04  0.50400001928E-02 0.  1.
</event>
<event>
 5   0  0.5462851E-05  0.2099786E+04  0.7818609E-02  0.8561338E-01
       -2   -1    0    0    0  501  0.00000000000E+00  0.00000000000E+00  0.67071884470E+03  0.67071884470E+03  0.25500000920E-02 0.  1.
        2   -1    0    0  501    0  0.00000000000E+00  0.00000000000E+00 -0.16434242872E+04  0.16434242872E+04  0.25500000920E-02 0. -1.
    10030    2    1    2    0    0  0.00000000000E+00  0.00000000000E+00 -0.97270544248E+03  0.23141431319E+04  0.20997863122E+04 0.  0.
        1    1    3    3  502    0  0.45683608644E+03 -0.81546108619E+03 -0.10132826829E+04  0.13785564147E+04  0.50400001928E-02 0. -1.
       -1    1    3    3    0  502 -0.45683608644E+03  0.81546108619E+03  0.40577240411E+02  0.93558671721E+03  0.50400001928E-02 0.  1.
</event>
<event>
 5   0  0.2732159E-05  0.2080043E+04  0.7818609E-02  0.8570086E-01
        1   -1    0    0  501    0  0.00000000000E+00  0.00000000000E+00  0.20046680332E+04  0.20046680332E+04  0.50400001928E-02 0.  1.
       -1   -1    0    0    0  501  0.00000000000E+00  0.00000000000E+00 -0.53956301725E+03  0.53956301727E+03  0.50400001928E-02 0. -1.
    10030    2    1    2    0    0  0.00000000000E+00  0.00000000000E+00  0.14651050160E+04  0.25442310505E+04  0.20800430117E+04 0.  0.
        3    1    3    3  502    0 -0.71563951645E+03  0.14149978278E+02 -0.19035158712E+03  0.74065773223E+03  0.10100000352E+00 0. -1.
       -3    1    3    3    0  502  0.71563951645E+03 -0.14149978278E+02  0.16554566031E+04  0.18035733183E+04  0.10100000352E+00 0.  1.
</event>
<event>
 5   0  0.2602060E-05  0.2092493E+04  0.7818609E-02  0.8564557E-01
        1   -1    0    0  501    0  0.00000000000E+00  0.00000000000E+00  0.11048914408E+04  0.11048914408E+04  0.50400001928E-02 0. -1.
       -1   -1    0    0    0  501  0.00000000000E+00  0.00000000000E+00 -0.99071461060E+03  0.99071461062E+03  0.50400001928E-02 0.  1.
    10030    2    1    2    0    0  0.00000000000E+00  0.00000000000E+00  0.11417683020E+03  0.20956060514E+04  0.20924933391E+04 0.  0.
        1    1    3    3  502    0 -0.23899114265E+03  0.36362992152E+03  0.10099703362E+04  0.10997197670E+04  0.50400001928E-02 0. -1.
       -1    1    3    3    0  502  0.23899114265E+03 -0.36362992152E+03 -0.89579350596E+03  0.99588628439E+03  0.50400001928E-02 0.  1.
</event>
<event>
 5   0  0.5506332E-05  0.2102019E+04  0.7818609E-02  0.8560354E-01
       -2   -1    0    0    0  501  0.00000000000E+00  0.00000000000E+00  0.85398340666E+03  0.85398340666E+03  0.25500000920E-02 0.  1.
        2   -1    0    0  501    0  0.00000000000E+00  0.00000000000E+00 -0.12934927790E+04  0.12934927790E+04  0.25500000920E-02 0. -1.
    10030    2    1    2    0    0  0.00000000000E+00  0.00000000000E+00 -0.43950937231E+03  0.21474761856E+04  0.21020193813E+04 0.  0.
        3    1    3    3  502    0  0.99821778779E+03  0.27595171446E+03 -0.40260352370E+03  0.11111605231E+04  0.10100000352E+00 0. -1.
       -3    1    3    3    0  502 -0.99821778779E+03 -0.27595171446E+03 -0.36905848615E+02  0.10363156625E+04  0.10100000352E+00 0.  1.
</event>
<event>
 5   0  0.5866610E-05  0.2081264E+04  0.7818609E-02  0.8569542E-01
       -2   -1    0    0    0  501  0.00000000000E+00  0.00000000000E+00  0.47669503901E+03  0.47669503901E+03  0.25500000920E-02 0.  1.
        2   -1    0    0  501    0  0.00000000000E+00  0.00000000000E+00 -0.22717140293E+04  0.22717140293E+04  0.25500000920E-02 0. -1.
    10030    2    1    2    0    0  0.00000000000E+00  0.00000000000E+00 -0.17950189903E+04  0.27484090683E+04  0.20812638543E+04 0.  0.
        5    1    3    3  502    0  0.14986507573E+02  0.27977462017E+02 -0.22710607114E+04  0.22712873395E+04  0.46999998093E+01 0. -1.
       -5    1    3    3    0  502 -0.14986507573E+02 -0.27977462017E+02  0.47604172114E+03  0.47712172876E+03  0.46999998093E+01 0.  1.
</event>
<event>
 5   0  0.5954140E-05  0.2093763E+04  0.7818609E-02  0.8563996E-01
       -2   -1    0    0    0  501  0.00000000000E+00  0.00000000000E+00  0.87287506092E+03  0.87287506092E+03  0.25500000920E-02 0. -1.
        2   -1    0    0  501    0  0.00000000000E+00  0.00000000000E+00 -0.12555764016E+04  0.12555764016E+04  0.25500000920E-02 0.  1.
    10030    2    1    2    0    0  0.00000000000E+00  0.00000000000E+00 -0.38270134073E+03  0.21284514626E+04  0.20937634327E+04 0.  0.
        2    1    3    3  502    0  0.92031066731E+03  0.37267404976E+03  0.14596538345E+03  0.10035753907E+04  0.25500000920E-02 0. -1.
       -2    1    3    3    0  502 -0.92031066731E+03 -0.37267404976E+03 -0.52866672417E+03  0.11248760718E+04  0.25500000920E-02 0.  1.
</event>
<event>
 5   0  0.5954140E-05  0.2084910E+04  0.7818609E-02  0.8567920E-01
        2   -1    0    0  501    0  0.00000000000E+00  0.00000000000E+00  0.22566982010E+04  0.22566982010E+04  0.25500000920E-02 0.  1.
       -2   -1    0    0    0  501  0.00000000000E+00  0.00000000000E+00 -0.48154953378E+03  0.48154953378E+03  0.25500000920E-02 0. -1.
    10030    2    1    2    0    0  0.00000000000E+00  0.00000000000E+00  0.17751486672E+04  0.27382477348E+04  0.20849095583E+04 0.  0.
        2    1    3    3  502    0 -0.68227599737E+03 -0.78310168197E+03  0.10047746914E+04  0.14451024052E+04  0.25500000920E-02 0.  1.
       -2    1    3    3    0  502  0.68227599737E+03  0.78310168197E+03  0.77037397579E+03  0.12931453296E+04  0.25500000920E-02 0. -1.
</event>
<event>
 5   0  0.5506332E-05  0.2105533E+04  0.7818609E-02  0.8558810E-01
        2   -1    0    0  501    0  0.00000000000E+00  0.00000000000E+00  0.11664291031E+04  0.11664291031E+04  0.25500000920E-02 0. -1.
       -2   -1    0    0    0  501  0.00000000000E+00  0.00000000000E+00 -0.95017998596E+03  0.95017998597E+03  0.25500000920E-02 0.  1.
    10030    2    1    2    0    0  0.00000000000E+00  0.00000000000E+00  0.21624911709E+03  0.21166090890E+04  0.21055332710E+04 0.  0.
        3    1    3    3  502    0  0.32151966167E+02  0.10308403983E+04 -0.10429697236E+03  0.10366019218E+04  0.10100000352E+00 0.  1.
       -3    1    3    3    0  502 -0.32151966167E+02 -0.10308403983E+04  0.32054608945E+03  0.10800071672E+04  0.10100000352E+00 0. -1.
</event>
<event>
 5   0  0.2699285E-05  0.2095190E+04  0.7818609E-02  0.8563365E-01
       -1   -1    0    0    0  501  0.00000000000E+00  0.00000000000E+00  0.14951958199E+04  0.14951958199E+04  0.50400001928E-02 0. -1.
        1   -1    0    0  501    0  0.00000000000E+00  0.00000000000E+00 -0.73398774255E+03  0.73398774257E+03  0.50400001928E-02 0.  1.
    10030    2    1    2    0    0  0.00000000000E+00  0.00000000000E+00  0.76120807734E+03  0.22291835625E+04  0.20951901150E+04 0.  0.
        2    1    3    3  502    0 -0.10256567453E+04 -0.72376103107E+02  0.59404620626E+03  0.11874767176E+04  0.25500000920E-02 0.  1.
       -2    1    3    3    0  502  0.10256567453E+04  0.72376103107E+02  0.16716187108E+03  0.10417068449E+04  0.25500000920E-02 0. -1.
</event>
<event>
 5   0  0.5462851E-05  0.2104269E+04  0.7818609E-02  0.8559365E-01
       -2   -1    0    0    0  501  0.00000000000E+00  0.00000000000E+00  0.13889225283E+04  0.13889225283E+04  0.25500000920E-02 0. -1.
        2   -1    0    0  501    0  0.00000000000E+00  0.00000000000E+00 -0.79701138576E+03  0.79701138576E+03  0.25500000920E-02 0.  1.
    10030    2    1    2    0    0  0.00000000000E+00  0.00000000000E+00  0.59191114250E+03  0.21859339140E+04  0.21042690598E+04 0.  0.
        1    1    3    3  502    0  0.78433801947E+03  0.68171782356E+03  0.46684440693E+03  0.11392405453E+04  0.50400001928E-02 0.  1.
       -1    1    3    3    0  502 -0.78433801947E+03 -0.68171782356E+03  0.12506673557E+03  0.10466933687E+04  0.50400001928E-02 0. -1.
</event>
<event>
 5   0  0.2732159E-05  0.2093555E+04  0.7818609E-02  0.8564088E-01
        1   -1    0    0  501    0  0.00000000000E+00  0.00000000000E+00  0.20869798668E+04  0.20869798668E+04  0.50400001928E-02 0.  1.
       -1   -1    0    0    0  501  0.00000000000E+00  0.00000000000E+00 -0.52503762429E+03  0.52503762431E+03  0.50400001928E-02 0. -1.
    10030    2    1    2    0    0  0.00000000000E+00  0.00000000000E+00  0.15619422425E+04  0.26120174911E+04  0.20935548249E+04 0.  0.
        3    1    3    3  502    0 -0.14095287024E+03  0.83714561362E+03  0.16882845186E+02  0.84909689123E+03  0.10100000352E+00 0. -1.
       -3    1    3    3    0  502  0.14095287024E+03 -0.83714561362E+03  0.15450593973E+04  0.17629205999E+04  0.10100000352E+00 0.  1.
</event>
<event>
 5   0  0.2732159E-05  0.2130315E+04  0.7818609E-02  0.8548006E-01
        1   -1    0    0  501    0  0.00000000000E+00  0.00000000000E+00  0.19601203625E+04  0.19601203625E+04  0.50400001928E-02 0.  1.
       -1   -1    0    0    0  501  0.00000000000E+00  0.00000000000E+00 -0.57882197822E+03  0.57882197824E+03  0.50400001928E-02 0. -1.
    10030    2    1    2    0    0  0.00000000000E+00  0.00000000000E+00  0.13812983843E+04  0.25389423408E+04  0.21303152310E+04 0.  0.
        3    1    3    3  502    0 -0.90855513993E+03 -0.37369260636E+03  0.20005809141E+03  0.10025676319E+04  0.10100000352E+00 0. -1.
       -3    1    3    3    0  502  0.90855513993E+03  0.37369260636E+03  0.11812402929E+04  0.15363747089E+04  0.10100000352E+00 0.  1.
</event>
<event>
 5   0  0.2789662E-05  0.2139897E+04  0.7818609E-02  0.8543869E-01
        1   -1    0    0  501    0  0.00000000000E+00  0.00000000000E+00  0.24744602307E+04  0.24744602307E+04  0.50400001928E-02 0.  1.
       -1   -1    0    0    0  501  0.00000000000E+00  0.00000000000E+00 -0.46264206863E+03  0.46264206865E+03  0.50400001928E-02 0. -1.
    10030    2    1    2    0    0  0.00000000000E+00  0.00000000000E+00  0.20118181621E+04  0.29371022994E+04  0.21398966329E+04 0.  0.
        4    1    3    3  502    0  0.22660112597E+03  0.61626184949E+03  0.21654131448E+04  0.22627731742E+04  0.12699999809E+01 0.  1.
       -4    1    3    3    0  502 -0.22660112597E+03 -0.61626184949E+03 -0.15359498270E+03  0.67432912516E+03  0.12699999809E+01 0. -1.
</event>
<event>
 5   0  0.5967046E-05  0.2093501E+04  0.7818609E-02  0.8564112E-01
        2   -1    0    0  501    0  0.00000000000E+00  0.00000000000E+00  0.89914839549E+03  0.89914839549E+03  0.25500000920E-02 0.  1.
       -2   -1    0    0    0  501  0.00000000000E+00  0.00000000000E+00 -0.12185828670E+04  0.12185828670E+04  0.25500000920E-02 0. -1.
    10030    2    1    2    0    0  0.00000000000E+00  0.00000000000E+00 -0.31943447151E+03  0.21177312625E+04  0.20935012105E+04 0.  0.
        4    1    3    3  502    0 -0.32515075842E+03  0.72535917397E+03 -0.84864013544E+03  0.11627814237E+04  0.12699999809E+01 0. -1.
       -4    1    3    3    0  502  0.32515075842E+03 -0.72535917397E+03  0.52920566393E+03  0.95494983878E+03  0.12699999809E+01 0.  1.
</event>
<event>
 5   0  0.2732159E-05  0.2094744E+04  0.7818609E-02  0.8563562E-01
        1   -1    0    0  501    0  0.00000000000E+00  0.00000000000E+00  0.16804645823E+04  0.16804645824E+04  0.50400001928E-02 0. -1.
       -1   -1    0    0    0  501  0.00000000000E+00  0.00000000000E+00 -0.65278851129E+03  0.65278851131E+03  0.50400001928E-02 0.  1.
    10030    2    1    2    0    0  0.00000000000E+00  0.00000000000E+00  0.10276760711E+04  0.23332530937E+04  0.20947438727E+04 0.  0.
        3    1    3    3  502    0 -0.71325047197E+03 -0.70789034178E+03  0.84266851814E+03  0.13114591924E+04  0.10100000352E+00 0. -1.
       -3    1    3    3    0  502  0.71325047197E+03  0.70789034178E+03  0.18500755291E+03  0.10217939012E+04  0.10100000352E+00 0.  1.
</event>
<event>
 5   0  0.5866610E-05  0.2089120E+04  0.7818609E-02  0.8566051E-01
        2   -1    0    0  501    0  0.00000000000E+00  0.00000000000E+00  0.20870846847E+04  0.20870846847E+04  0.25500000920E-02 0. -1.
       -2   -1    0    0    0  501  0.00000000000E+00  0.00000000000E+00 -0.52278947697E+03  0.52278947698E+03  0.25500000920E-02 0.  1.
    10030    2    1    2    0    0  0.00000000000E+00  0.00000000000E+00  0.15642952078E+04  0.26098741617E+04  0.20891203036E+04 0.  0.
        5    1    3    3  502    0 -0.95461833048E+03 -0.36799639642E+03  0.51901006865E+03  0.11472188309E+04  0.46999998093E+01 0.  1.
       -5    1    3    3    0  502  0.95461833048E+03  0.36799639642E+03  0.10452851391E+04  0.14626553308E+04  0.46999998093E+01 0. -1.
</event>
<event>
 5   0  0.2732159E-05  0.2088825E+04  0.7818609E-02  0.8566182E-01
        1   -1    0    0  501    0  0.00000000000E+00  0.00000000000E+00  0.23954408799E+04  0.23954408799E+04  0.50400001928E-02 0. -1.
       -1   -1    0    0    0  501  0.00000000000E+00  0.00000000000E+00 -0.45536399673E+03  0.45536399675E+03  0.50400001928E-02 0.  1.
    10030    2    1    2    0    0  0.00000000000E+00  0.00000000000E+00  0.19400768831E+04  0.28508048766E+04  0.20888250602E+04 0.  0.
        3    1    3    3  502    0  0.28784853672E+03  0.29114660898E+02  0.23396588843E+04  0.23574791937E+04  0.10100000352E+00 0. -1.
       -3    1    3    3    0  502 -0.28784853672E+03 -0.29114660898E+02 -0.39958200118E+03  0.49332568293E+03  0.10100000352E+00 0.  1.
</event>
<event>
 5   0  0.5462851E-05  0.2105054E+04  0.7818609E-02  0.8559020E-01
       -2   -1    0    0    0  501  0.00000000000E+00  0.00000000000E+00  0.86821345496E+03  0.86821345497E+03  0.25500000920E-02 0.  1.
        2   -1    0    0  501    0  0.00000000000E+00  0.00000000000E+00 -0.12759690110E+04  0.12759690110E+04  0.25500000920E-02 0. -1.
    10030    2    1    2    0    0  0.00000000000E+00  0.00000000000E+00 -0.40775555600E+03  0.21441824659E+04  0.21050543589E+04 0.  0.
        1    1    3    3  502    0  0.90437094329E+03  0.53603728154E+03 -0.15203283364E+03  0.10622319675E+04  0.50400001928E-02 0. -1.
       -1    1    3    3    0  502 -0.90437094329E+03 -0.53603728154E+03 -0.25572272236E+03  0.10819504984E+04  0.50400001928E-02 0.  1.
</event>
<event>
 5   0  0.2732159E-05  0.2109556E+04  0.7818609E-02  0.8557045E-01
        1   -1    0    0  501    0  0.00000000000E+00  0.00000000000E+00  0.17900963051E+04  0.17900963051E+04  0.50400001928E-02 0.  1.
       -1   -1    0    0    0  501  0.00000000000E+00  0.00000000000E+00 -0.62150669765E+03  0.62150669767E+03  0.50400001928E-02 0. -1.
    10030    2    1    2    0    0  0.00000000000E+00  0.00000000000E+00  0.11685896074E+04  0.24116030028E+04  0.21095562027E+04 0.  0.
        3    1    3    3  502    0  0.55111129633E+03 -0.61688262705E+03 -0.16384571069E+03  0.84327531899E+03  0.10100000352E+00 0. -1.
       -3    1    3    3    0  502 -0.55111129633E+03  0.61688262705E+03  0.13324353181E+04  0.15683276838E+04  0.10100000352E+00 0.  1.
</event>
<event>
 5   0  0.5866610E-05  0.2067492E+04  0.7818609E-02  0.8575700E-01
        2   -1    0    0  501    0  0.00000000000E+00  0.00000000000E+00  0.14807128716E+04  0.14807128716E+04  0.25500000920E-02 0. -1.
       -2   -1    0    0    0  501  0.00000000000E+00  0.00000000000E+00 -0.72170005130E+03  0.72170005131E+03  0.25500000920E-02 0.  1.
    10030    2    1    2    0    0  0.00000000000E+00  0.00000000000E+00  0.75901282025E+03  0.22024129229E+04  0.20674917706E+04 0.  0.
        5    1    3    3  502    0  0.76690628297E+03  0.10158562895E+03  0.11099222981E+04  0.13529281151E+04  0.46999998093E+01 0. -1.
       -5    1    3    3    0  502 -0.76690628297E+03 -0.10158562895E+03 -0.35090947789E+03  0.84948480771E+03  0.46999998093E+01 0.  1.
</event>
<event>
 5   0  0.5506332E-05  0.2095731E+04  0.7818609E-02  0.8563126E-01
       -2   -1    0    0    0  501  0.00000000000E+00  0.00000000000E+00  0.10603630853E+04  0.10603630853E+04  0.25500000920E-02 0.  1.
        2   -1    0    0  501    0  0.00000000000E+00  0.00000000000E+00 -0.10355148831E+04  0.10355148831E+04  0.25500000920E-02 0. -1.
    10030    2    1    2    0    0  0.00000000000E+00  0.00000000000E+00  0.24848202221E+02  0.20958779684E+04  0.20957306662E+04 0.  0.
        3    1    3    3  502    0 -0.59221432355E+03  0.71543688680E+03 -0.47284603180E+03  0.10421857435E+04  0.10100000352E+00 0.  1.
       -3    1    3    3    0  502  0.59221432355E+03 -0.71543688680E+03  0.49769423402E+03  0.10536922249E+04  0.10100000352E+00 0. -1.
</event>
<event>
 5   0  0.5506332E-05  0.2105092E+04  0.7818609E-02  0.8559004E-01
        2   -1    0    0  501    0  0.00000000000E+00  0.00000000000E+00  0.26008070924E+04  0.26008070924E+04  0.25500000920E-02 0.  1.
       -2   -1    0    0    0  501  0.00000000000E+00  0.00000000000E+00 -0.42596502856E+03  0.42596502857E+03  0.25500000920E-02 0. -1.
    10030    2    1    2    0    0  0.00000000000E+00  0.00000000000E+00  0.21748420638E+04  0.30267721210E+04  0.21050917960E+04 0.  0.
        3    1    3    3  502    0 -0.56036943841E+03  0.73213714151E+03  0.18174869357E+04  0.20379640510E+04  0.10100000352E+00 0.  1.
       -3    1    3    3    0  502  0.56036943841E+03 -0.73213714151E+03  0.35735512816E+03  0.98880807000E+03  0.10100000352E+00 0. -1.
</event>
<event>
 5   0  0.2602060E-05  0.2112104E+04  0.7818609E-02  0.8555930E-01
        1   -1    0    0  501    0  0.00000000000E+00  0.00000000000E+00  0.10873301497E+04  0.10873301497E+04  0.50400001928E-02 0.  1.
       -1   -1    0    0    0  501  0.00000000000E+00  0.00000000000E+00 -0.10256734807E+04  0.10256734808E+04  0.50400001928E-02 0. -1.
    10030    2    1    2    0    0  0.00000000000E+00  0.00000000000E+00  0.61656668989E+02  0.21130036305E+04  0.21121038795E+04 0.  0.
        1    1    3    3  502    0 -0.61643765657E+03  0.42995926104E+03 -0.71136730970E+03  0.10348448193E+04  0.50400001928E-02 0. -1.
       -1    1    3    3    0  502  0.61643765657E+03 -0.42995926104E+03  0.77302397869E+03  0.10781588112E+04  0.50400001928E-02 0.  1.
</event>
<event>
 5   0  0.2789662E-05  0.1944023E+04  0.7818609E-02  0.8633248E-01
       -1   -1    0    0    0  501  0.00000000000E+00  0.00000000000E+00  0.92777466319E+03  0.92777466320E+03  0.50400001928E-02 0. -1.
        1   -1    0    0  501    0  0.00000000000E+00  0.00000000000E+00 -0.10183577137E+04  0.10183577138E+04  0.50400001928E-02 0.  1.
    10030    2    1    2    0    0  0.00000000000E+00  0.00000000000E+00 -0.90583050550E+02  0.19461323770E+04  0.19440231325E+04 0.  0.
        4    1    3    3  502    0 -0.45236747023E+01  0.90817720189E+03  0.30149243336E+03  0.95692507227E+03  0.12699999809E+01 0. -1.
       -4    1    3    3    0  502  0.45236747023E+01 -0.90817720189E+03 -0.39207548391E+03  0.98920730469E+03  0.12699999809E+01 0.  1.
</event>
<event>
 5   0  0.2602060E-05  0.1876695E+04  0.7818609E-02  0.8666544E-01
       -1   -1    0    0    0  501  0.00000000000E+00  0.00000000000E+00  0.13995763578E+04  0.13995763578E+04  0.50400001928E-02 0.  1.
        1   -1    0    0  501    0  0.00000000000E+00  0.00000000000E+00 -0.62911631655E+03  0.62911631657E+03  0.50400001928E-02 0. -1.
    10030    2    1    2    0    0  0.00000000000E+00  0.00000000000E+00  0.77046004129E+03  0.20286926744E+04  0.18766953115E+04 0.  0.
        1    1    3    3  502    0 -0.78967902944E+02  0.55247534582E+03 -0.43020733434E+03  0.70465827745E+03  0.50400001928E-02 0. -1.
       -1    1    3    3    0  502  0.78967902944E+02 -0.55247534582E+03  0.12006673756E+04  0.13240343970E+04  0.50400001928E-02 0.  1.
</event>
<event>
 5   0  0.2017750E-05  0.1992755E+04  0.7818609E-02  0.8610015E-01
       -3   -1    0    0    0  501  0.00000000000E+00  0.00000000000E+00  0.70640131652E+03  0.70640132374E+03  0.10100000352E+00 0. -1.
        3   -1    0    0  501    0  0.00000000000E+00  0.00000000000E+00 -0.14053884006E+04  0.14053884042E+04  0.10100000352E+00 0.  1.
    10030    2    1    2    0    0  0.00000000000E+00  0.00000000000E+00 -0.69898708408E+03  0.21117897280E+04  0.19927551057E+04 0.  0.
        3    1    3    3  502    0 -0.34264690823E+01 -0.78780416573E+03 -0.99594939978E+03  0.12698670644E+04  0.10100000352E+00 0.  1.
       -3    1    3    3    0  502  0.34264690823E+01  0.78780416573E+03  0.29696231569E+03  0.84192266354E+03  0.10100000352E+00 0. -1.
</event>
<event>
 5   0  0.2604390E-05  0.2101727E+04  0.7818609E-02  0.8560483E-01
       -1   -1    0    0    0  501  0.00000000000E+00  0.00000000000E+00  0.61070482038E+03  0.61070482040E+03  0.50400001928E-02 0. -1.
        1   -1    0    0  501    0  0.00000000000E+00  0.00000000000E+00 -0.18082613446E+04  0.18082613446E+04  0.50400001928E-02 0.  1.
    10030    2    1    2    0    0  0.00000000000E+00  0.00000000000E+00 -0.11975565242E+04  0.24189661650E+04  0.21017268325E+04 0.  0.
        5    1    3    3  502    0 -0.70630276830E+03 -0.67726697642E+03 -0.15789426340E+03  0.99121483356E+03  0.46999998093E+01 0. -1.
       -5    1    3    3    0  502  0.70630276830E+03  0.67726697642E+03 -0.10396622608E+04  0.14277513314E+04  0.46999998093E+01 0.  1.
</event>
<event>
 5   0  0.2789662E-05  0.2089160E+04  0.7818609E-02  0.8566034E-01
        1   -1    0    0  501    0  0.00000000000E+00  0.00000000000E+00  0.12412885041E+04  0.12412885041E+04  0.50400001928E-02 0.  1.
       -1   -1    0    0    0  501  0.00000000000E+00  0.00000000000E+00 -0.87904379259E+03  0.87904379260E+03  0.50400001928E-02 0. -1.
    10030    2    1    2    0    0  0.00000000000E+00  0.00000000000E+00  0.36224471152E+03  0.21203322967E+04  0.20891595960E+04 0.  0.
        4    1    3    3  502    0  0.67685259917E+02 -0.90549642863E+03 -0.34295473603E+03  0.97063105274E+03  0.12699999809E+01 0. -1.
       -4    1    3    3    0  502 -0.67685259917E+02  0.90549642863E+03  0.70519944755E+03  0.11497012440E+04  0.12699999809E+01 0.  1.
</event>
<event>
 5   0  0.2699285E-05  0.2226796E+04  0.7818609E-02  0.8507357E-01
       -1   -1    0    0    0  501  0.00000000000E+00  0.00000000000E+00  0.75603120409E+03  0.75603120411E+03  0.50400001928E-02 0.  1.
        1   -1    0    0  501    0  0.00000000000E+00  0.00000000000E+00 -0.16396870301E+04  0.16396870301E+04  0.50400001928E-02 0. -1.
    10030    2    1    2    0    0  0.00000000000E+00  0.00000000000E+00 -0.88365582599E+03  0.23957182342E+04  0.22267955090E+04 0.  0.
        2    1    3    3  502    0 -0.20094464267E+03  0.45253776957E+03  0.63106061734E+03  0.80212635231E+03  0.25500000920E-02 0.  1.
       -2    1    3    3    0  502  0.20094464267E+03 -0.45253776957E+03 -0.15147164433E+04  0.15935918819E+04  0.25500000920E-02 0. -1.
</event>
<event>
 5   0  0.5954140E-05  0.2112747E+04  0.7818609E-02  0.8555649E-01
        2   -1    0    0  501    0  0.00000000000E+00  0.00000000000E+00  0.19274966852E+04  0.19274966852E+04  0.25500000920E-02 0.  1.
       -2   -1    0    0    0  501  0.00000000000E+00  0.00000000000E+00 -0.57895026758E+03  0.57895026758E+03  0.25500000920E-02 0. -1.
    10030    2    1    2    0    0  0.00000000000E+00  0.00000000000E+00  0.13485464176E+04  0.25064469528E+04  0.21127467635E+04 0.  0.
        2    1    3    3  502    0  0.96948931879E+03  0.28658113429E+03  0.31076644289E+03  0.10576455303E+04  0.25500000920E-02 0. -1.
       -2    1    3    3    0  502 -0.96948931879E+03 -0.28658113429E+03  0.10377799748E+04  0.14488014225E+04  0.25500000920E-02 0.  1.
</event>
<event>
 5   0  0.2604390E-05  0.2005834E+04  0.7818609E-02  0.8603898E-01
       -1   -1    0    0    0  501  0.00000000000E+00  0.00000000000E+00  0.58936727689E+03  0.58936727691E+03  0.50400001928E-02 0.  1.
        1   -1    0    0  501    0  0.00000000000E+00  0.00000000000E+00 -0.17066482656E+04  0.17066482656E+04  0.50400001928E-02 0. -1.
    10030    2    1    2    0    0  0.00000000000E+00  0.00000000000E+00 -0.11172809887E+04  0.22960155425E+04  0.20058341317E+04 0.  0.
        5    1    3    3  502    0 -0.19431050873E+03  0.33870692502E+02  0.56693427402E+03  0.60028356522E+03  0.46999998093E+01 0.  1.
       -5    1    3    3    0  502  0.19431050873E+03 -0.33870692502E+02 -0.16842152627E+04  0.16957319773E+04  0.46999998093E+01 0. -1.
</event>
<event>
 5   0  0.2732159E-05  0.1907175E+04  0.7818609E-02  0.8651293E-01
        1   -1    0    0  501    0  0.00000000000E+00  0.00000000000E+00  0.11324017139E+04  0.11324017139E+04  0.50400001928E-02 0. -1.
       -1   -1    0    0    0  501  0.00000000000E+00  0.00000000000E+00 -0.80300939588E+03  0.80300939589E+03  0.50400001928E-02 0.  1.
    10030    2    1    2    0    0  0.00000000000E+00  0.00000000000E+00  0.32939231801E+03  0.19354111098E+04  0.19071751007E+04 0.  0.
        3    1    3    3  502    0 -0.38754022039E+03  0.91035019168E+00 -0.71949032625E+03  0.81722370923E+03  0.10100000352E+00 0.  1.
       -3    1    3    3    0  502  0.38754022039E+03 -0.91035019168E+00  0.10488826443E+04  0.11181874006E+04  0.10100000352E+00 0. -1.
</event>
<event>
 5   0  0.5954140E-05  0.2114419E+04  0.7818609E-02  0.8554918E-01
        2   -1    0    0  501    0  0.00000000000E+00  0.00000000000E+00  0.81905668010E+03  0.81905668011E+03  0.25500000920E-02 0.  1.
       -2   -1    0    0    0  501  0.00000000000E+00  0.00000000000E+00 -0.13646087110E+04  0.13646087110E+04  0.25500000920E-02 0. -1.
    10030    2    1    2    0    0  0.00000000000E+00  0.00000000000E+00 -0.54555203092E+03  0.21836653911E+04  0.21144189561E+04 0.  0.
        2    1    3    3  502    0 -0.59542592349E+03 -0.41150542028E+03 -0.10686120610E+04  0.12906589318E+04  0.25500000920E-02 0. -1.
       -2    1    3    3    0  502  0.59542592349E+03  0.41150542028E+03  0.52306003011E+03  0.89300645932E+03  0.25500000920E-02 0.  1.
</event>
<event>
 5   0  0.2699285E-05  0.2156525E+04  0.7818609E-02  0.8536744E-01
        1   -1    0    0  501    0  0.00000000000E+00  0.00000000000E+00  0.17175604022E+04  0.17175604022E+04  0.50400001928E-02 0. -1.
       -1   -1    0    0    0  501  0.00000000000E+00  0.00000000000E+00 -0.67691967598E+03  0.67691967600E+03  0.50400001928E-02 0.  1.
    10030    2    1    2    0    0  0.00000000000E+00  0.00000000000E+00  0.10406407262E+04  0.23944800782E+04  0.21565253822E+04 0.  0.
        2    1    3    3  502    0 -0.87837062893E+02  0.43063823570E+03  0.16135902304E+04  0.16723749792E+04  0.25500000920E-02 0. -1.
       -2    1    3    3    0  502  0.87837062893E+02 -0.43063823570E+03 -0.57294950414E+03  0.72210509898E+03  0.25500000920E-02 0.  1.
</event>
<event>
 5   0  0.2604390E-05  0.2099657E+04  0.7818609E-02  0.8561394E-01
        1   -1    0    0  501    0  0.00000000000E+00  0.00000000000E+00  0.82714686192E+03  0.82714686194E+03  0.50400001928E-02 0.  1.
       -1   -1    0    0    0  501  0.00000000000E+00  0.00000000000E+00 -0.13324601026E+04  0.13324601026E+04  0.50400001928E-02 0. -1.
    10030    2    1    2    0    0  0.00000000000E+00  0.00000000000E+00 -0.50531324069E+03  0.21596069646E+04  0.20996572983E+04 0.  0.
        5    1    3    3  502    0 -0.57286550976E+03 -0.57392125934E+03 -0.93844531636E+03  0.12402669898E+04  0.46999998093E+01 0.  1.
       -5    1    3    3    0  502  0.57286550976E+03  0.57392125934E+03  0.43313207567E+03  0.91933997475E+03  0.46999998093E+01 0. -1.
</event>
<event>
 5   0  0.5462851E-05  0.2083257E+04  0.7818609E-02  0.8568655E-01
       -2   -1    0    0    0  501  0.00000000000E+00  0.00000000000E+00  0.71441105733E+03  0.71441105734E+03  0.25500000920E-02 0. -1.
        2   -1    0    0  501    0  0.00000000000E+00  0.00000000000E+00 -0.15187199481E+04  0.15187199481E+04  0.25500000920E-02 0.  1.
    10030    2    1    2    0    0  0.00000000000E+00  0.00000000000E+00 -0.80430889077E+03  0.22331310054E+04  0.20832573762E+04 0.  0.
        1    1    3    3  502    0  0.23940511150E+03  0.10122176880E+04 -0.46174968143E+03  0.11380299748E+04  0.50400001928E-02 0.  1.
       -1    1    3    3    0  502 -0.23940511150E+03 -0.10122176880E+04 -0.34255920934E+03  0.10951010306E+04  0.50400001928E-02 0. -1.
</event>
<event>
 5   0  0.5954140E-05  0.2094123E+04  0.7818609E-02  0.8563837E-01
        2   -1    0    0  501    0  0.00000000000E+00  0.00000000000E+00  0.17515405140E+04  0.17515405140E+04  0.25500000920E-02 0. -1.
       -2   -1    0    0    0  501  0.00000000000E+00  0.00000000000E+00 -0.62592790233E+03  0.62592790233E+03  0.25500000920E-02 0.  1.
    10030    2    1    2    0    0  0.00000000000E+00  0.00000000000E+00  0.11256126117E+04  0.23774684163E+04  0.20941232817E+04 0.  0.
        2    1    3    3  502    0  0.10009957974E+03  0.69467460480E+03 -0.31933754179E+03  0.77108313302E+03  0.25500000920E-02 0.  1.
       -2    1    3    3    0  502 -0.10009957974E+03 -0.69467460480E+03  0.14449501535E+04  0.16063852833E+04  0.25500000920E-02 0. -1.
</event>
<event>
 5   0  0.5462851E-05  0.2108642E+04  0.7818609E-02  0.8557446E-01
        2   -1    0    0  501    0  0.00000000000E+00  0.00000000000E+00  0.12660824574E+04  0.12660824574E+04  0.25500000920E-02 0. -1.
       -2   -1    0    0    0  501  0.00000000000E+00  0.00000000000E+00 -0.87797778376E+03  0.87797778377E+03  0.25500000920E-02 0.  1.
    10030    2    1    2    0    0  0.00000000000E+00  0.00000000000E+00  0.38810467368E+03  0.21440602412E+04  0.21086415248E+04 0.  0.
        1    1    3    3  502    0  0.66551715106E+03 -0.77737322385E+03 -0.63921815568E+02  0.10253332171E+04  0.50400001928E-02 0.  1.
       -1    1    3    3    0  502 -0.66551715106E+03  0.77737322385E+03  0.45202648925E+03  0.11187270241E+04  0.50400001928E-02 0. -1.
</event>
<event>
 5   0  0.5866610E-05  0.2094436E+04  0.7818609E-02  0.8563698E-01
       -2   -1    0    0    0  501  0.00000000000E+00  0.00000000000E+00  0.53171585401E+03  0.53171585401E+03  0.25500000920E-02 0. -1.
        2   -1    0    0  501    0  0.00000000000E+00  0.00000000000E+00 -0.20625023703E+04  0.20625023703E+04  0.25500000920E-02 0.  1.
    10030    2    1    2    0    0  0.00000000000E+00  0.00000000000E+00 -0.15307865163E+04  0.25942182243E+04  0.20944356846E+04 0.  0.
        5    1    3    3  502    0 -0.79809541830E+03  0.42388234733E+03 -0.10996268383E+03  0.91035510815E+03  0.46999998093E+01 0. -1.
       -5    1    3    3    0  502  0.79809541830E+03 -0.42388234733E+03 -0.14208238324E+04  0.16838631162E+04  0.46999998093E+01 0.  1.
</event>
<event>
 5   0  0.5967046E-05  0.2099627E+04  0.7818609E-02  0.8561408E-01
       -2   -1    0    0    0  501  0.00000000000E+00  0.00000000000E+00  0.88712062871E+03  0.88712062872E+03  0.25500000920E-02 0.  1.
        2   -1    0    0  501    0  0.00000000000E+00  0.00000000000E+00 -0.12423436065E+04  0.12423436065E+04  0.25500000920E-02 0. -1.
    10030    2    1    2    0    0  0.00000000000E+00  0.00000000000E+00 -0.35522297778E+03  0.21294642352E+04  0.20996272443E+04 0.  0.
        4    1    3    3  502    0  0.42793457170E+03  0.68579553695E+03 -0.85695358489E+03  0.11780554213E+04  0.12699999809E+01 0. -1.
       -4    1    3    3    0  502 -0.42793457170E+03 -0.68579553695E+03  0.50173060710E+03  0.95140881390E+03  0.12699999809E+01 0.  1.
</event>
<event>
 5   0  0.5462851E-05  0.2111520E+04  0.7818609E-02  0.8556185E-01
       -2   -1    0    0    0  501  0.00000000000E+00  0.00000000000E+00  0.71360249744E+03  0.71360249745E+03  0.25500000920E-02 0.  1.
        2   -1    0    0  501    0  0.00000000000E+00  0.00000000000E+00 -0.15619756010E+04  0.15619756010E+04  0.25500000920E-02 0. -1.
    10030    2    1    2    0    0  0.00000000000E+00  0.00000000000E+00 -0.84837310352E+03  0.22755780984E+04  0.21115204851E+04 0.  0.
        1    1    3    3  502    0 -0.81271118044E+03 -0.29201262503E+03  0.23033891978E+03  0.89377114184E+03  0.50400001928E-02 0.  1.
       -1    1    3    3    0  502  0.81271118044E+03  0.29201262503E+03 -0.10787120233E+04  0.13818069566E+04  0.50400001928E-02 0. -1.
</event>
<event>
 5   0  0.2789662E-05  0.2097536E+04  0.7818609E-02  0.8562330E-01
       -1   -1    0    0    0  501  0.00000000000E+00  0.00000000000E+00  0.11507319808E+04  0.11507319808E+04  0.50400001928E-02 0.  1.
        1   -1    0    0  501    0  0.00000000000E+00  0.00000000000E+00 -0.95583867568E+03  0.95583867570E+03  0.50400001928E-02 0. -1.
    10030    2    1    2    0    0  0.00000000000E+00  0.00000000000E+00  0.19489330515E+03  0.21065706565E+04  0.20975358234E+04 0.  0.
        4    1    3    3  502    0  0.10159404123E+04  0.23907934263E+03  0.20093742525E+03  0.10628599697E+04  0.12699999809E+01 0. -1.
       -4    1    3    3    0  502 -0.10159404123E+04 -0.23907934263E+03 -0.60441200994E+01  0.10437106868E+04  0.12699999809E+01 0.  1.
</event>
<event>
 5   0  0.5954140E-05  0.2100920E+04  0.7818609E-02  0.8560838E-01
        2   -1    0    0  501    0  0.00000000000E+00  0.00000000000E+00  0.11590914326E+04  0.11590914326E+04  0.25500000920E-02 0. -1.
       -2   -1    0    0    0  501  0.00000000000E+00  0.00000000000E+00 -0.95201006573E+03  0.95201006574E+03  0.25500000920E-02 0.  1.
    10030    2    1    2    0    0  0.00000000000E+00  0.00000000000E+00  0.20708136684E+03  0.21111014983E+04  0.21009204753E+04 0.  0.
        2    1    3    3  502    0  0.12739975994E+03  0.86114978617E+02  0.11477203420E+04  0.11579760239E+04  0.25500000920E-02 0. -1.
       -2    1    3    3    0  502 -0.12739975994E+03 -0.86114978617E+02 -0.94063897519E+03  0.95312547444E+03  0.25500000920E-02 0.  1.
</event>
<event>
 5   0  0.5506332E-05  0.1991969E+04  0.7818609E-02  0.8610385E-01
       -2   -1    0    0    0  501  0.00000000000E+00  0.00000000000E+00  0.84878998946E+03  0.84878998947E+03  0.25500000920E-02 0.  1.
        2   -1    0    0  501    0  0.00000000000E+00  0.00000000000E+00 -0.11687051937E+04  0.11687051937E+04  0.25500000920E-02 0. -1.
    10030    2    1    2    0    0  0.00000000000E+00  0.00000000000E+00 -0.31991520420E+03  0.20174951831E+04  0.19919691454E+04 0.  0.
        3    1    3    3  502    0  0.51709739648E+03  0.80762754261E+03 -0.43235253229E+03  0.10519413897E+04  0.10100000352E+00 0. -1.
       -3    1    3    3    0  502 -0.51709739648E+03 -0.80762754261E+03  0.11243732809E+03  0.96555379342E+03  0.10100000352E+00 0.  1.
</event>
<event>
 5   0  0.2017750E-05  0.2088324E+04  0.7818609E-02  0.8566404E-01
        4   -1    0    0  501    0  0.00000000000E+00  0.00000000000E+00  0.97759495980E+03  0.97759578473E+03  0.12699999809E+01 0.  1.
       -4   -1    0    0    0  501  0.00000000000E+00  0.00000000000E+00 -0.11152601260E+04  0.11152608491E+04  0.12699999809E+01 0. -1.
    10030    2    1    2    0    0  0.00000000000E+00  0.00000000000E+00 -0.13766516622E+03  0.20928566339E+04  0.20883240151E+04 0.  0.
        4    1    3    3  502    0 -0.23799218401E+03 -0.10054027333E+04  0.82484368093E+02  0.10364749007E+04  0.12699999809E+01 0.  1.
       -4    1    3    3    0  502  0.23799218401E+03  0.10054027333E+04 -0.22014953431E+03  0.10563817332E+04  0.12699999809E+01 0. -1.
</event>
<event>
 5   0  0.5462851E-05  0.2101678E+04  0.7818609E-02  0.8560504E-01
       -2   -1    0    0    0  501  0.00000000000E+00  0.00000000000E+00  0.69466890417E+03  0.69466890418E+03  0.25500000920E-02 0. -1.
        2   -1    0    0  501    0  0.00000000000E+00  0.00000000000E+00 -0.15896250502E+04  0.15896250503E+04  0.25500000920E-02 0.  1.
    10030    2    1    2    0    0  0.00000000000E+00  0.00000000000E+00 -0.89495614608E+03  0.22842939544E+04  0.21016784642E+04 0.  0.
        1    1    3    3  502    0 -0.56869147192E+03  0.70384035584E+03 -0.10281886792E+04  0.13696617089E+04  0.50400001928E-02 0.  1.
       -1    1    3    3    0  502  0.56869147192E+03 -0.70384035584E+03  0.13323253308E+03  0.91463224557E+03  0.50400001928E-02 0. -1.
</event>
<event>
 5   0  0.2602060E-05  0.2116600E+04  0.7818609E-02  0.8553966E-01
       -1   -1    0    0    0  501  0.00000000000E+00  0.00000000000E+00  0.32084843712E+03  0.32084843716E+03  0.50400001928E-02 0.  1.
        1   -1    0    0  501    0  0.00000000000E+00  0.00000000000E+00 -0.34907421603E+04  0.34907421603E+04  0.50400001928E-02 0. -1.
    10030    2    1    2    0    0  0.00000000000E+00  0.00000000000E+00 -0.31698937232E+04  0.38115905974E+04  0.21166002613E+04 0.  0.
        1    1    3    3  502    0 -0.91465582593E+02  0.82368872728E+03 -0.39973323942E+03  0.92011723980E+03  0.50400001928E-02 0.  1.
       -1    1    3    3    0  502  0.91465582593E+02 -0.82368872728E+03 -0.27701604837E+04  0.28914733576E+04  0.50400001928E-02 0. -1.
</event>
<event>
 5   0  0.5954140E-05  0.2103182E+04  0.7818609E-02  0.8559843E-01
       -2   -1    0    0    0  501  0.00000000000E+00  0.00000000000E+00  0.58318958041E+03  0.58318958041E+03  0.25500000920E-02 0.  1.
        2   -1    0    0  501    0  0.00000000000E+00  0.00000000000E+00 -0.18961983358E+04  0.18961983358E+04  0.25500000920E-02 0. -1.
    10030    2    1    2    0    0  0.00000000000E+00  0.00000000000E+00 -0.13130087554E+04  0.24793879162E+04  0.21031815061E+04 0.  0.
        2    1    3    3  502    0  0.14275986136E+03 -0.10355385260E+04 -0.52145914987E+03  0.11681780951E+04  0.25500000920E-02 0. -1.
       -2    1    3    3    0  502 -0.14275986136E+03  0.10355385260E+04 -0.79154960555E+03  0.13112098211E+04  0.25500000920E-02 0.  1.
</event>
<event>
 5   0  0.2604390E-05  0.2091127E+04  0.7818609E-02  0.8565162E-01
        1   -1    0    0  501    0  0.00000000000E+00  0.00000000000E+00  0.16513254891E+04  0.16513254891E+04  0.50400001928E-02 0.  1.
       -1   -1    0    0    0  501  0.00000000000E+00  0.00000000000E+00 -0.66201523059E+03  0.66201523061E+03  0.50400001928E-02 0. -1.
    10030    2    1    2    0    0  0.00000000000E+00  0.00000000000E+00  0.98931025848E+03  0.23133407197E+04  0.20911266097E+04 0.  0.
        5    1    3    3  502    0 -0.78687644306E+03 -0.83808251665E+02  0.12506335966E+04  0.14799678519E+04  0.46999998093E+01 0.  1.
       -5    1    3    3    0  502  0.78687644306E+03  0.83808251665E+02 -0.26132333814E+03  0.83337286778E+03  0.46999998093E+01 0. -1.
</event>
<event>
 5   0  0.5866610E-05  0.2103638E+04  0.7818609E-02  0.8559643E-01
        2   -1    0    0  501    0  0.00000000000E+00  0.00000000000E+00  0.79709756272E+03  0.79709756272E+03  0.25500000920E-02 0. -1.
       -2   -1    0    0    0  501  0.00000000000E+00  0.00000000000E+00 -0.13879392995E+04  0.13879392995E+04  0.25500000920E-02 0.  1.
    10030    2    1    2    0    0  0.00000000000E+00  0.00000000000E+00 -0.59084173677E+03  0.21850368622E+04  0.21036378327E+04 0.  0.
        5    1    3    3  502    0 -0.63850441223E+03 -0.25510220923E+03 -0.11221693718E+04  0.13160741661E+04  0.46999998093E+01 0.  1.
       -5    1    3    3    0  502  0.63850441223E+03  0.25510220923E+03  0.53132763501E+03  0.86896269616E+03  0.46999998093E+01 0. -1.
</event>
<event>
 5   0  0.2789662E-05  0.2094366E+04  0.7818609E-02  0.8563729E-01
       -1   -1    0    0    0  501  0.00000000000E+00  0.00000000000E+00  0.11398962848E+04  0.11398962848E+04  0.50400001928E-02 0.  1.
        1   -1    0    0  501    0  0.00000000000E+00  0.00000000000E+00 -0.96201074919E+03  0.96201074921E+03  0.50400001928E-02 0. -1.
    10030    2    1    2    0    0  0.00000000000E+00  0.00000000000E+00  0.17788553560E+03  0.21019070340E+04  0.20943662325E+04 0.  0.
        4    1    3    3  502    0  0.58942490834E+03 -0.53731706197E+02  0.95592934465E+03  0.11243270626E+04  0.12699999809E+01 0.  1.
       -4    1    3    3    0  502 -0.58942490834E+03  0.53731706197E+02 -0.77804380905E+03  0.97757997142E+03  0.12699999809E+01 0. -1.
</event>
<event>
 5   0  0.5967046E-05  0.2045092E+04  0.7818609E-02  0.8585824E-01
       -2   -1    0    0    0  501  0.00000000000E+00  0.00000000000E+00  0.12378269056E+04  0.12378269056E+04  0.25500000920E-02 0. -1.
        2   -1    0    0  501    0  0.00000000000E+00  0.00000000000E+00 -0.84470611977E+03  0.84470611978E+03  0.25500000920E-02 0.  1.
    10030    2    1    2    0    0  0.00000000000E+00  0.00000000000E+00  0.39312078578E+03  0.20825330253E+04  0.20450916482E+04 0.  0.
        4    1    3    3  502    0 -0.83046788764E+03 -0.10288598763E+03  0.79497197843E+03  0.11542289627E+04  0.12699999809E+01 0. -1.
       -4    1    3    3    0  502  0.83046788764E+03  0.10288598763E+03 -0.40185119265E+03  0.92830406268E+03  0.12699999809E+01 0.  1.
</event>
<event>
 5   0  0.2602060E-05  0.2113107E+04  0.7818609E-02  0.8555491E-01
        1   -1    0    0  501    0  0.00000000000E+00  0.00000000000E+00  0.14510496410E+04  0.14510496410E+04  0.50400001928E-02 0. -1.
       -1   -1    0    0    0  501  0.00000000000E+00  0.00000000000E+00 -0.76930890697E+03  0.76930890699E+03  0.50400001928E-02 0.  1.
    10030    2    1    2    0    0  0.00000000000E+00  0.00000000000E+00  0.68174073402E+03  0.22203585480E+04  0.21131071088E+04 0.  0.
        1    1    3    3  502    0 -0.46594963491E+03 -0.71410990141E+03 -0.31468930363E+03  0.90889568786E+03  0.50400001928E-02 0.  1.
       -1    1    3    3    0  502  0.46594963491E+03  0.71410990141E+03  0.99643003765E+03  0.13114628601E+04  0.50400001928E-02 0. -1.
</event>
<event>
 5   0  0.5462851E-05  0.2093733E+04  0.7818609E-02  0.8564009E-01
       -2   -1    0    0    0  501  0.00000000000E+00  0.00000000000E+00  0.78374907560E+03  0.78374907561E+03  0.25500000920E-02 0. -1.
        2   -1    0    0  501    0  0.00000000000E+00  0.00000000000E+00 -0.13983170717E+04  0.13983170717E+04  0.25500000920E-02 0.  1.
    10030    2    1    2    0    0  0.00000000000E+00  0.00000000000E+00 -0.61456799605E+03  0.21820661473E+04  0.20937332326E+04 0.  0.
        1    1    3    3  502    0  0.90044031801E+02  0.45446934496E+03 -0.12856545544E+04  0.13665862382E+04  0.50400001928E-02 0.  1.
       -1    1    3    3    0  502 -0.90044031801E+02 -0.45446934496E+03  0.67108655838E+03  0.81547990903E+03  0.50400001928E-02 0. -1.
</event>
<event>
 5   0  0.2789662E-05  0.2085637E+04  0.7818609E-02  0.8567597E-01
       -1   -1    0    0    0  501  0.00000000000E+00  0.00000000000E+00  0.95066392217E+03  0.95066392218E+03  0.50400001928E-02 0.  1.
        1   -1    0    0  501    0  0.00000000000E+00  0.00000000000E+00 -0.11439063051E+04  0.11439063051E+04  0.50400001928E-02 0. -1.
    10030    2    1    2    0    0  0.00000000000E+00  0.00000000000E+00 -0.19324238296E+03  0.20945702273E+04  0.20856370294E+04 0.  0.
        4    1    3    3  502    0  0.76521546502E+03  0.11717478765E+03 -0.79831566846E+03  0.11120225529E+04  0.12699999809E+01 0. -1.
       -4    1    3    3    0  502 -0.76521546502E+03 -0.11717478765E+03  0.60507328550E+03  0.98254767441E+03  0.12699999809E+01 0.  1.
</event>
<event>
 5   0  0.5506332E-05  0.2092744E+04  0.7818609E-02  0.8564446E-01
       -2   -1    0    0    0  501  0.00000000000E+00  0.00000000000E+00  0.56181061050E+03  0.56181061050E+03  0.25500000920E-02 0. -1.
        2   -1    0    0  501    0  0.00000000000E+00  0.00000000000E+00 -0.19488673735E+04  0.19488673735E+04  0.25500000920E-02 0.  1.
    10030    2    1    2    0    0  0.00000000000E+00  0.00000000000E+00 -0.13870567630E+04  0.25106779840E+04  0.20927440062E+04 0.  0.
        3    1    3    3  502    0 -0.25226665151E+03  0.68467662411E+03 -0.15932870977E+04  0.17524224174E+04  0.10100000352E+00 0.  1.
       -3    1    3    3    0  502  0.25226665151E+03 -0.68467662411E+03  0.20623033474E+03  0.75825556657E+03  0.10100000352E+00 0. -1.
</event>
<event>
 5   0  0.2732159E-05  0.2091446E+04  0.7818609E-02  0.8565021E-01
       -1   -1    0    0    0  501  0.00000000000E+00  0.00000000000E+00  0.16848393890E+04  0.16848393890E+04  0.50400001928E-02 0.  1.
        1   -1    0    0  501    0  0.00000000000E+00  0.00000000000E+00 -0.64904498795E+03  0.64904498797E+03  0.50400001928E-02 0. -1.
    10030    2    1    2    0    0  0.00000000000E+00  0.00000000000E+00  0.10357944010E+04  0.23338843769E+04  0.20914459696E+04 0.  0.
        3    1    3    3  502    0 -0.34100654865E+03 -0.38735451227E+02  0.16202030494E+04  0.16561533241E+04  0.10100000352E+00 0.  1.
       -3    1    3    3    0  502  0.34100654865E+03  0.38735451227E+02 -0.58440864842E+03  0.67773105282E+03  0.10100000352E+00 0. -1.
</event>
<event>
 5   0  0.5462851E-05  0.2134880E+04  0.7818609E-02  0.8546032E-01
        2   -1    0    0  501    0  0.00000000000E+00  0.00000000000E+00  0.94058809470E+03  0.94058809471E+03  0.25500000920E-02 0.  1.
       -2   -1    0    0    0  501  0.00000000000E+00  0.00000000000E+00 -0.12113996251E+04  0.12113996251E+04  0.25500000920E-02 0. -1.
    10030    2    1    2    0    0  0.00000000000E+00  0.00000000000E+00 -0.27081153037E+03  0.21519877198E+04  0.21348799173E+04 0.  0.
        1    1    3    3  502    0  0.43788468435E+03  0.37242381035E+03 -0.10420496267E+04  0.11900881967E+04  0.50400001928E-02 0. -1.
       -1    1    3    3    0  502 -0.43788468435E+03 -0.37242381035E+03  0.77123809633E+03  0.96189952312E+03  0.50400001928E-02 0.  1.
</event>
<event>
 5   0  0.2789662E-05  0.2101201E+04  0.7818609E-02  0.8560715E-01
        1   -1    0    0  501    0  0.00000000000E+00  0.00000000000E+00  0.12959806768E+04  0.12959806768E+04  0.50400001928E-02 0.  1.
       -1   -1    0    0    0  501  0.00000000000E+00  0.00000000000E+00 -0.85168025869E+03  0.85168025871E+03  0.50400001928E-02 0. -1.
    10030    2    1    2    0    0  0.00000000000E+00  0.00000000000E+00  0.44430041812E+03  0.21476609355E+04  0.21012007597E+04 0.  0.
        4    1    3    3  502    0  0.53389333045E+03  0.36215395323E+03 -0.62537786412E+03  0.89849688924E+03  0.12699999809E+01 0. -1.
       -4    1    3    3    0  502 -0.53389333045E+03 -0.36215395323E+03  0.10696782822E+04  0.12491640463E+04  0.12699999809E+01 0.  1.
</event>
<event>
 5   0  0.5506332E-05  0.2128822E+04  0.7818609E-02  0.8548652E-01
        2   -1    0    0  501    0  0.00000000000E+00  0.00000000000E+00  0.12671990533E+04  0.12671990533E+04  0.25500000920E-02 0. -1.
       -2   -1    0    0    0  501  0.00000000000E+00  0.00000000000E+00 -0.89407489994E+03  0.89407489994E+03  0.25500000920E-02 0.  1.
    10030    2    1    2    0    0  0.00000000000E+00  0.00000000000E+00  0.37312415338E+03  0.21612739533E+04  0.21288220844E+04 0.  0.
        3    1    3    3  502    0  0.91354200964E+03  0.52604744648E+03  0.37055756868E+02  0.10548260798E+04  0.10100000352E+00 0.  1.
       -3    1    3    3    0  502 -0.91354200964E+03 -0.52604744648E+03  0.33606839651E+03  0.11064478735E+04  0.10100000352E+00 0. -1.
</event>
<event>
 5   0  0.2789662E-05  0.2085788E+04  0.7818609E-02  0.8567530E-01
        1   -1    0    0  501    0  0.00000000000E+00  0.00000000000E+00  0.10594848880E+04  0.10594848880E+04  0.50400001928E-02 0.  1.
       -1   -1    0    0    0  501  0.00000000000E+00  0.00000000000E+00 -0.10265631065E+04  0.10265631065E+04  0.50400001928E-02 0. -1.
    10030    2    1    2    0    0  0.00000000000E+00  0.00000000000E+00  0.32921781513E+02  0.20860479945E+04  0.20857881943E+04 0.  0.
        4    1    3    3  502    0 -0.61081306709E+03  0.13093572809E+03  0.85166353559E+03  0.10562050741E+04  0.12699999809E+01 0.  1.
       -4    1    3    3    0  502  0.61081306709E+03 -0.13093572809E+03 -0.81874175408E+03  0.10298429203E+04  0.12699999809E+01 0. -1.
</event>
<event>
 5   0  0.2017750E-05  0.2098589E+04  0.7818609E-02  0.8561865E-01
       -3   -1    0    0    0  501  0.00000000000E+00  0.00000000000E+00  0.62866009194E+03  0.62866010005E+03  0.10100000352E+00 0. -1.
        3   -1    0    0  501    0  0.00000000000E+00  0.00000000000E+00 -0.17513742996E+04  0.17513743025E+04  0.10100000352E+00 0.  1.
    10030    2    1    2    0    0  0.00000000000E+00  0.00000000000E+00 -0.11227142077E+04  0.23800344026E+04  0.20985891845E+04 0.  0.
        3    1    3    3  502    0 -0.11135848481E+03  0.10097598044E+04 -0.26344267233E+03  0.10494844575E+04  0.10100000352E+00 0. -1.
       -3    1    3    3    0  502  0.11135848481E+03 -0.10097598044E+04 -0.85927153533E+03  0.13305499451E+04  0.10100000352E+00 0.  1.
</event>
<event>
 5   0  0.2789662E-05  0.2097074E+04  0.7818609E-02  0.8562533E-01
        1   -1    0    0  501    0  0.00000000000E+00  0.00000000000E+00  0.15626037256E+04  0.15626037256E+04  0.50400001928E-02 0.  1.
       -1   -1    0    0    0  501  0.00000000000E+00  0.00000000000E+00 -0.70358843094E+03  0.70358843096E+03  0.50400001928E-02 0. -1.
    10030    2    1    2    0    0  0.00000000000E+00  0.00000000000E+00  0.85901529463E+03  0.22661921565E+04  0.20970740602E+04 0.  0.
        4    1    3    3  502    0 -0.85084443721E+03 -0.29646646955E+03  0.10090392892E+04  0.13527714234E+04  0.12699999809E+01 0.  1.
       -4    1    3    3    0  502  0.85084443721E+03  0.29646646955E+03 -0.15002399457E+03  0.91342073315E+03  0.12699999809E+01 0. -1.
</event>
<event>
 5   0  0.2604390E-05  0.2125739E+04  0.7818609E-02  0.8549989E-01
       -1   -1    0    0    0  501  0.00000000000E+00  0.00000000000E+00  0.63481320061E+03  0.63481320063E+03  0.50400001928E-02 0.  1.
        1   -1    0    0  501    0  0.00000000000E+00  0.00000000000E+00 -0.17795653369E+04  0.17795653369E+04  0.50400001928E-02 0. -1.
    10030    2    1    2    0    0  0.00000000000E+00  0.00000000000E+00 -0.11447521363E+04  0.24143785376E+04  0.21257389936E+04 0.  0.
        5    1    3    3  502    0  0.17022098545E+03 -0.10090374064E+04 -0.89867968112E+03  0.13619026877E+04  0.46999998093E+01 0.  1.
       -5    1    3    3    0  502 -0.17022098545E+03  0.10090374064E+04 -0.24607245519E+03  0.10524758499E+04  0.46999998093E+01 0. -1.
</event>
<event>
 5   0  0.5954140E-05  0.2097006E+04  0.7818609E-02  0.8562564E-01
       -2   -1    0    0    0  501  0.00000000000E+00  0.00000000000E+00  0.92323874639E+03  0.92323874639E+03  0.25500000920E-02 0. -1.
        2   -1    0    0  501    0  0.00000000000E+00  0.00000000000E+00 -0.11907625001E+04  0.11907625001E+04  0.25500000920E-02 0.  1.
    10030    2    1    2    0    0  0.00000000000E+00  0.00000000000E+00 -0.26752375369E+03  0.21140012465E+04  0.20970055582E+04 0.  0.
        2    1    3    3  502    0  0.28188841491E+03 -0.67187996807E+03 -0.89384498014E+03  0.11531880239E+04  0.25500000920E-02 0.  1.
       -2    1    3    3    0  502 -0.28188841491E+03  0.67187996807E+03  0.62632122645E+03  0.96081322257E+03  0.25500000920E-02 0. -1.
</event>
<event>
 5   0  0.5967046E-05  0.2096216E+04  0.7818609E-02  0.8562912E-01
       -2   -1    0    0    0  501  0.00000000000E+00  0.00000000000E+00  0.19921516834E+04  0.19921516834E+04  0.25500000920E-02 0. -1.
        2   -1    0    0  501    0  0.00000000000E+00  0.00000000000E+00 -0.55142896218E+03  0.55142896219E+03  0.25500000920E-02 0.  1.
    10030    2    1    2    0    0  0.00000000000E+00  0.00000000000E+00  0.14407227212E+04  0.25435806456E+04  0.20962157669E+04 0.  0.
        4    1    3    3  502    0 -0.94578688030E+02  0.24776608006E+03  0.19507642692E+04  0.19687092232E+04  0.12699999809E+01 0. -1.
       -4    1    3    3    0  502  0.94578688030E+02 -0.24776608006E+03 -0.51004154800E+03  0.57487142236E+03  0.12699999809E+01 0.  1.
</event>
<event>
 5   0  0.5866610E-05  0.2089573E+04  0.7818609E-02  0.8565850E-01
        2   -1    0    0  501    0  0.00000000000E+00  0.00000000000E+00  0.11196743177E+04  0.11196743177E+04  0.25500000920E-02 0.  1.
       -2   -1    0    0    0  501  0.00000000000E+00  0.00000000000E+00 -0.97490754591E+03  0.97490754591E+03  0.25500000920E-02 0. -1.
    10030    2    1    2    0    0  0.00000000000E+00  0.00000000000E+00  0.14476677175E+03  0.20945818636E+04  0.20895731059E+04 0.  0.
        5    1    3    3  502    0 -0.47174999155E+03  0.68443356438E+03 -0.56203138059E+03  0.10034434321E+04  0.46999998093E+01 0. -1.
       -5    1    3    3    0  502  0.47174999155E+03 -0.68443356438E+03  0.70679815234E+03  0.10911384315E+04  0.46999998093E+01 0.  1.
</event>
<event>
 5   0  0.5866610E-05  0.2119696E+04  0.7818609E-02  0.8552617E-01
       -2   -1    0    0    0  501  0.00000000000E+00  0.00000000000E+00  0.68521998931E+03  0.68521998932E+03  0.25500000920E-02 0.  1.
        2   -1    0    0  501    0  0.00000000000E+00  0.00000000000E+00 -0.16392944268E+04  0.16392944268E+04  0.25500000920E-02 0. -1.
    10030    2    1    2    0    0  0.00000000000E+00  0.00000000000E+00 -0.95407443746E+03  0.23245144161E+04  0.21196955532E+04 0.  0.
        5    1    3    3  502    0 -0.18716289785E+02 -0.99197926014E+03 -0.88571576685E+03  0.13299953615E+04  0.46999998093E+01 0.  1.
       -5    1    3    3    0  502  0.18716289785E+02  0.99197926014E+03 -0.68358670618E+02  0.99451905457E+03  0.46999998093E+01 0. -1.
</event>
<event>
 5   0  0.2789662E-05  0.2058291E+04  0.7818609E-02  0.8579842E-01
        1   -1    0    0  501    0  0.00000000000E+00  0.00000000000E+00  0.17360540949E+04  0.17360540949E+04  0.50400001928E-02 0. -1.
       -1   -1    0    0    0  501  0.00000000000E+00  0.00000000000E+00 -0.61008488813E+03  0.61008488815E+03  0.50400001928E-02 0.  1.
    10030    2    1    2    0    0  0.00000000000E+00  0.00000000000E+00  0.11259692068E+04  0.23461389831E+04  0.20582909107E+04 0.  0.
        4    1    3    3  502    0 -0.54460008353E+03 -0.99455081937E+01  0.15582819179E+04  0.16507368999E+04  0.12699999809E+01 0. -1.
       -4    1    3    3    0  502  0.54460008353E+03  0.99455081937E+01 -0.43231271115E+03  0.69540208314E+03  0.12699999809E+01 0.  1.
</event>
<event>
 5   0  0.2602060E-05  0.2111954E+04  0.7818609E-02  0.8555996E-01
        1   -1    0    0  501    0  0.00000000000E+00  0.00000000000E+00  0.11595706841E+04  0.11595706841E+04  0.50400001928E-02 0.  1.
       -1   -1    0    0    0  501  0.00000000000E+00  0.00000000000E+00 -0.96163844649E+03  0.96163844651E+03  0.50400001928E-02 0. -1.
    10030    2    1    2    0    0  0.00000000000E+00  0.00000000000E+00  0.19793223757E+03  0.21212091306E+04  0.21119543094E+04 0.  0.
        1    1    3    3  502    0 -0.88883206683E+03  0.54165804836E+03  0.27771190025E+03  0.10772835207E+04  0.50400001928E-02 0.  1.
       -1    1    3    3    0  502  0.88883206683E+03 -0.54165804836E+03 -0.79779662683E+02  0.10439256099E+04  0.50400001928E-02 0. -1.
</event>
<event>
 5   0  0.5506332E-05  0.2089001E+04  0.7818609E-02  0.8566104E-01
       -2   -1    0    0    0  501  0.00000000000E+00  0.00000000000E+00  0.66162652484E+03  0.66162652485E+03  0.25500000920E-02 0. -1.
        2   -1    0    0  501    0  0.00000000000E+00  0.00000000000E+00 -0.16489384974E+04  0.16489384974E+04  0.25500000920E-02 0.  1.
    10030    2    1    2    0    0  0.00000000000E+00  0.00000000000E+00 -0.98731197255E+03  0.23105650222E+04  0.20890011467E+04 0.  0.
        3    1    3    3  502    0  0.68448816028E+03 -0.20683503610E+03  0.34846099476E+03  0.79544317760E+03  0.10100000352E+00 0. -1.
       -3    1    3    3    0  502 -0.68448816028E+03  0.20683503610E+03 -0.13357729673E+04  0.15151218446E+04  0.10100000352E+00 0.  1.
</event>
<event>
 5   0  0.5462851E-05  0.2068063E+04  0.7818609E-02  0.8575444E-01
        2   -1    0    0  501    0  0.00000000000E+00  0.00000000000E+00  0.91722272304E+03  0.91722272304E+03  0.25500000920E-02 0.  1.
       -2   -1    0    0    0  501  0.00000000000E+00  0.00000000000E+00 -0.11657154752E+04  0.11657154752E+04  0.25500000920E-02 0. -1.
    10030    2    1    2    0    0  0.00000000000E+00  0.00000000000E+00 -0.24849275216E+03  0.20829381983E+04  0.20680625933E+04 0.  0.
        1    1    3    3  502    0  0.75984177019E+03 -0.37778384355E+03  0.47088502561E+03  0.97047043002E+03  0.50400001928E-02 0.  1.
       -1    1    3    3    0  502 -0.75984177019E+03  0.37778384355E+03 -0.71937777777E+03  0.11124677682E+04  0.50400001928E-02 0. -1.
</event>
<event>
 5   0  0.5866610E-05  0.2098581E+04  0.7818609E-02  0.8561869E-01
        2   -1    0    0  501    0  0.00000000000E+00  0.00000000000E+00  0.12178537843E+04  0.12178537843E+04  0.25500000920E-02 0.  1.
       -2   -1    0    0    0  501  0.00000000000E+00  0.00000000000E+00 -0.90405831932E+03  0.90405831932E+03  0.25500000920E-02 0. -1.
    10030    2    1    2    0    0  0.00000000000E+00  0.00000000000E+00  0.31379546502E+03  0.21219121037E+04  0.20985812783E+04 0.  0.
        5    1    3    3  502    0  0.49804720785E+03 -0.45627688225E+03 -0.65499187442E+03  0.94089109895E+03  0.46999998093E+01 0. -1.
       -5    1    3    3    0  502 -0.49804720785E+03  0.45627688225E+03  0.96878733943E+03  0.11810210047E+04  0.46999998093E+01 0.  1.
</event>
<event>
 5   0  0.2732159E-05  0.2106150E+04  0.7818609E-02  0.8558539E-01
       -1   -1    0    0    0  501  0.00000000000E+00  0.00000000000E+00  0.13679185902E+04  0.13679185902E+04  0.50400001928E-02 0.  1.
        1   -1    0    0  501    0  0.00000000000E+00  0.00000000000E+00 -0.81069631309E+03  0.81069631311E+03  0.50400001928E-02 0. -1.
    10030    2    1    2    0    0  0.00000000000E+00  0.00000000000E+00  0.55722227711E+03  0.21786149033E+04  0.21061496221E+04 0.  0.
        3    1    3    3  502    0 -0.79520437473E+03 -0.37320133939E+03 -0.32217988961E+03  0.93564369756E+03  0.10100000352E+00 0.  1.
       -3    1    3    3    0  502  0.79520437473E+03  0.37320133939E+03  0.87940216672E+03  0.12429712058E+04  0.10100000352E+00 0. -1.
</event>
<event>
 5   0  0.5954140E-05  0.2107683E+04  0.7818609E-02  0.8557867E-01
        2   -1    0    0  501    0  0.00000000000E+00  0.00000000000E+00  0.14589270192E+04  0.14589270192E+04  0.25500000920E-02 0. -1.
       -2   -1    0    0    0  501  0.00000000000E+00  0.00000000000E+00 -0.76123184497E+03  0.76123184498E+03  0.25500000920E-02 0.  1.
    10030    2    1    2    0    0  0.00000000000E+00  0.00000000000E+00  0.69769517418E+03  0.22201588641E+04  0.21076828096E+04 0.  0.
        2    1    3    3  502    0  0.14886452719E+03 -0.10041493691E+04  0.50715382864E+02  0.10163900103E+04  0.25500000920E-02 0.  1.
       -2    1    3    3    0  502 -0.14886452719E+03  0.10041493691E+04  0.64697979132E+03  0.12037688538E+04  0.25500000920E-02 0. -1.
</event>
<event>
 5   0  0.2602060E-05  0.2090061E+04  0.7818609E-02  0.8565634E-01
       -1   -1    0    0    0  501  0.00000000000E+00  0.00000000000E+00  0.78911364320E+03  0.78911364322E+03  0.50400001928E-02 0. -1.
        1   -1    0    0  501    0  0.00000000000E+00  0.00000000000E+00 -0.13839433783E+04  0.13839433783E+04  0.50400001928E-02 0.  1.
    10030    2    1    2    0    0  0.00000000000E+00  0.00000000000E+00 -0.59482973505E+03  0.21730570215E+04  0.20900608615E+04 0.  0.
        1    1    3    3  502    0  0.35998115535E+03 -0.58562785246E+03 -0.11157809699E+04  0.13105394258E+04  0.50400001928E-02 0.  1.
       -1    1    3    3    0  502 -0.35998115535E+03  0.58562785246E+03  0.52095123482E+03  0.86251759569E+03  0.50400001928E-02 0. -1.
</event>
<event>
 5   0  0.5506332E-05  0.2107541E+04  0.7818609E-02  0.8557929E-01
       -2   -1    0    0    0  501  0.00000000000E+00  0.00000000000E+00  0.54199451466E+03  0.54199451467E+03  0.25500000920E-02 0. -1.
        2   -1    0    0  501    0  0.00000000000E+00  0.00000000000E+00 -0.20487878409E+04  0.20487878409E+04  0.25500000920E-02 0.  1.
    10030    2    1    2    0    0  0.00000000000E+00  0.00000000000E+00 -0.15067933262E+04  0.25907823555E+04  0.21075405301E+04 0.  0.
        3    1    3    3  502    0  0.63538164421E+03 -0.13611122554E+03 -0.17731871601E+04  0.18884990904E+04  0.10100000352E+00 0.  1.
       -3    1    3    3    0  502 -0.63538164421E+03  0.13611122554E+03  0.26639383391E+03  0.70228326512E+03  0.10100000352E+00 0. -1.
</event>
<event>
 5   0  0.5954140E-05  0.2113451E+04  0.7818609E-02  0.8555341E-01
        2   -1    0    0  501    0  0.00000000000E+00  0.00000000000E+00  0.12792435877E+04  0.12792435877E+04  0.25500000920E-02 0.  1.
       -2   -1    0    0    0  501  0.00000000000E+00  0.00000000000E+00 -0.87291365743E+03  0.87291365744E+03  0.25500000920E-02 0. -1.
    10030    2    1    2    0    0  0.00000000000E+00  0.00000000000E+00  0.40632993028E+03  0.21521572451E+04  0.21134513942E+04 0.  0.
        2    1    3    3  502    0  0.85933614549E+03 -0.15626933563E+03 -0.40253117779E+03  0.96172244712E+03  0.25500000920E-02 0.  1.
       -2    1    3    3    0  502 -0.85933614549E+03  0.15626933563E+03  0.80886110807E+03  0.11904347980E+04  0.25500000920E-02 0. -1.
</event>
<event>
 5   0  0.2602060E-05  0.2089251E+04  0.7818609E-02  0.8565993E-01
       -1   -1    0    0    0  501  0.00000000000E+00  0.00000000000E+00  0.75791330889E+03  0.75791330891E+03  0.50400001928E-02 0. -1.
        1   -1    0    0  501    0  0.00000000000E+00  0.00000000000E+00 -0.14397979860E+04  0.14397979860E+04  0.50400001928E-02 0.  1.
    10030    2    1    2    0    0  0.00000000000E+00  0.00000000000E+00 -0.68188467707E+03  0.21977112949E+04  0.20892506367E+04 0.  0.
        1    1    3    3  502    0 -0.82782560585E+03  0.19100607105E+03 -0.98033238126E+03  0.12972394269E+04  0.50400001928E-02 0.  1.
       -1    1    3    3    0  502  0.82782560585E+03 -0.19100607105E+03  0.29844770420E+03  0.90047186799E+03  0.50400001928E-02 0. -1.
</event>
<event>
 5   0  0.5866610E-05  0.2104516E+04  0.7818609E-02  0.8559256E-01
       -2   -1    0    0    0  501  0.00000000000E+00  0.00000000000E+00  0.12423775590E+04  0.12423775590E+04  0.25500000920E-02 0. -1.
        2   -1    0    0  501    0  0.00000000000E+00  0.00000000000E+00 -0.89123261128E+03  0.89123261129E+03  0.25500000920E-02 0.  1.
    10030    2    1    2    0    0  0.00000000000E+00  0.00000000000E+00  0.35114494776E+03  0.21336101703E+04  0.21045164729E+04 0.  0.
        5    1    3    3  502    0 -0.16230468429E+02 -0.83544278094E+03 -0.47279755443E+03  0.96009774805E+03  0.46999998093E+01 0.  1.
       -5    1    3    3    0  502  0.16230468429E+02  0.83544278094E+03  0.82394250218E+03  0.11735124223E+04  0.46999998093E+01 0. -1.
</event>
<event>
 5   0  0.5954140E-05  0.2102671E+04  0.7818609E-02  0.8560068E-01
       -2   -1    0    0    0  501  0.00000000000E+00  0.00000000000E+00  0.64662983862E+03  0.64662983862E+03  0.25500000920E-02 0.  1.
        2   -1    0    0  501    0  0.00000000000E+00  0.00000000000E+00 -0.17093340377E+04  0.17093340377E+04  0.25500000920E-02 0. -1.
    10030    2    1    2    0    0  0.00000000000E+00  0.00000000000E+00 -0.10627041991E+04  0.23559638763E+04  0.21026710565E+04 0.  0.
        2    1    3    3  502    0  0.34525811762E+03 -0.32042309224E+03 -0.15844867916E+04  0.16530192130E+04  0.25500000920E-02 0. -1.
       -2    1    3    3    0  502 -0.34525811762E+03  0.32042309224E+03  0.52178259252E+03  0.70294466331E+03  0.25500000920E-02 0.  1.
</event>
<event>
 5   0  0.5866610E-05  0.2035295E+04  0.7818609E-02  0.8590295E-01
       -2   -1    0    0    0  501  0.00000000000E+00  0.00000000000E+00  0.33174798269E+03  0.33174798270E+03  0.25500000920E-02 0. -1.
        2   -1    0    0  501    0  0.00000000000E+00  0.00000000000E+00 -0.31216654612E+04  0.31216654612E+04  0.25500000920E-02 0.  1.
    10030    2    1    2    0    0  0.00000000000E+00  0.00000000000E+00 -0.27899174785E+04  0.34534134439E+04  0.20352947889E+04 0.  0.
        5    1    3    3  502    0 -0.59618920021E+03 -0.19302346055E+03 -0.34492603928E+02  0.62762365196E+03  0.46999998093E+01 0. -1.
       -5    1    3    3    0  502  0.59618920021E+03  0.19302346055E+03 -0.27554248745E+04  0.28257897919E+04  0.46999998093E+01 0.  1.
</event>
<event>
 5   0  0.2602060E-05  0.2087428E+04  0.7818609E-02  0.8566802E-01
       -1   -1    0    0    0  501  0.00000000000E+00  0.00000000000E+00  0.91753590166E+03  0.91753590167E+03  0.50400001928E-02 0. -1.
        1   -1    0    0  501    0  0.00000000000E+00  0.00000000000E+00 -0.11872439537E+04  0.11872439537E+04  0.50400001928E-02 0.  1.
    10030    2    1    2    0    0  0.00000000000E+00  0.00000000000E+00 -0.26970805206E+03  0.21047798554E+04  0.20874280362E+04 0.  0.
        1    1    3    3  502    0 -0.65091183410E+03 -0.77337410208E+03  0.12720101697E+03  0.10188100001E+04  0.50400001928E-02 0.  1.
       -1    1    3    3    0  502  0.65091183410E+03  0.77337410208E+03 -0.39690906903E+03  0.10859698553E+04  0.50400001928E-02 0. -1.
</event>
<event>
 5   0  0.5967046E-05  0.2091581E+04  0.7818609E-02  0.8564961E-01
       -2   -1    0    0    0  501  0.00000000000E+00  0.00000000000E+00  0.86351833847E+03  0.86351833848E+03  0.25500000920E-02 0. -1.
        2   -1    0    0  501    0  0.00000000000E+00  0.00000000000E+00 -0.12665373426E+04  0.12665373426E+04  0.25500000920E-02 0.  1.
    10030    2    1    2    0    0  0.00000000000E+00  0.00000000000E+00 -0.40301900409E+03  0.21300556810E+04  0.20915814320E+04 0.  0.
        4    1    3    3  502    0  0.73272880811E+03  0.61008204834E+02 -0.95887151950E+03  0.12083251678E+04  0.12699999809E+01 0.  1.
       -4    1    3    3    0  502 -0.73272880811E+03 -0.61008204834E+02  0.55585251541E+03  0.92173051326E+03  0.12699999809E+01 0. -1.
</event>
<event>
 5   0  0.5506332E-05  0.2096961E+04  0.7818609E-02  0.8562583E-01
       -2   -1    0    0    0  501  0.00000000000E+00  0.00000000000E+00  0.62950955089E+03  0.62950955090E+03  0.25500000920E-02 0. -1.
        2   -1    0    0  501    0  0.00000000000E+00  0.00000000000E+00 -0.17462978368E+04  0.17462978368E+04  0.25500000920E-02 0.  1.
    10030    2    1    2    0    0  0.00000000000E+00  0.00000000000E+00 -0.11167882859E+04  0.23758073877E+04  0.20969608170E+04 0.  0.
        3    1    3    3  502    0  0.91802105751E+02 -0.48836675080E+02  0.62365309436E+03  0.63226247695E+03  0.10100000352E+00 0. -1.
       -3    1    3    3    0  502 -0.91802105751E+02  0.48836675080E+02 -0.17404413803E+04  0.17435449108E+04  0.10100000352E+00 0.  1.
</event>
<event>
 5   0  0.5866610E-05  0.2083922E+04  0.7818609E-02  0.8568359E-01
       -2   -1    0    0    0  501  0.00000000000E+00  0.00000000000E+00  0.78048766028E+03  0.78048766029E+03  0.25500000920E-02 0. -1.
        2   -1    0    0  501    0  0.00000000000E+00  0.00000000000E+00 -0.13910307055E+04  0.13910307055E+04  0.25500000920E-02 0.  1.
    10030    2    1    2    0    0  0.00000000000E+00  0.00000000000E+00 -0.61054304524E+03  0.21715183658E+04  0.20839215923E+04 0.  0.
        5    1    3    3  502    0  0.31912027750E+03  0.82195145475E+03 -0.88378211891E+03  0.12484129402E+04  0.46999998093E+01 0.  1.
       -5    1    3    3    0  502 -0.31912027750E+03 -0.82195145475E+03  0.27323907367E+03  0.92310542565E+03  0.46999998093E+01 0. -1.
</event>
<event>
 5   0  0.5506332E-05  0.2098274E+04  0.7818609E-02  0.8562004E-01
        2   -1    0    0  501    0  0.00000000000E+00  0.00000000000E+00  0.16477324612E+04  0.16477324612E+04  0.25500000920E-02 0.  1.
       -2   -1    0    0    0  501  0.00000000000E+00  0.00000000000E+00 -0.66800166996E+03  0.66800166997E+03  0.25500000920E-02 0. -1.
    10030    2    1    2    0    0  0.00000000000E+00  0.00000000000E+00  0.97973079120E+03  0.23157341311E+04  0.20982736101E+04 0.  0.
        3    1    3    3  502    0  0.96752767787E+02 -0.73151269704E+03 -0.33322655874E+03  0.80963687765E+03  0.10100000352E+00 0. -1.
       -3    1    3    3    0  502 -0.96752767787E+02  0.73151269704E+03  0.13129573499E+04  0.15060972535E+04  0.10100000352E+00 0.  1.
</event>
<event>
 5   0  0.2732159E-05  0.2099999E+04  0.7818609E-02  0.8561244E-01
        1   -1    0    0  501    0  0.00000000000E+00  0.00000000000E+00  0.84964140216E+03  0.84964140218E+03  0.50400001928E-02 0. -1.
       -1   -1    0    0    0  501  0.00000000000E+00  0.00000000000E+00 -0.12976053376E+04  0.12976053376E+04  0.50400001928E-02 0.  1.
    10030    2    1    2    0    0  0.00000000000E+00  0.00000000000E+00 -0.44796393540E+03  0.21472467397E+04  0.20999992557E+04 0.  0.
        3    1    3    3  502    0  0.51338889000E+03  0.27623192436E+03  0.66895107449E+03  0.88733746606E+03  0.10100000352E+00 0. -1.
       -3    1    3    3    0  502 -0.51338889000E+03 -0.27623192436E+03 -0.11169150099E+04  0.12599092737E+04  0.10100000352E+00 0.  1.
</event>
<event>
 5   0  0.2732159E-05  0.2113395E+04  0.7818609E-02  0.8555366E-01
        1   -1    0    0  501    0  0.00000000000E+00  0.00000000000E+00  0.17099806325E+04  0.17099806325E+04  0.50400001928E-02 0.  1.
       -1   -1    0    0    0  501  0.00000000000E+00  0.00000000000E+00 -0.65299551000E+03  0.65299551002E+03  0.50400001928E-02 0. -1.
    10030    2    1    2    0    0  0.00000000000E+00  0.00000000000E+00  0.10569851225E+04  0.23629761426E+04  0.21133950651E+04 0.  0.
        3    1    3    3  502    0 -0.15636632661E+03 -0.93432235213E+03  0.10519723192E+04  0.14156463034E+04  0.10100000352E+00 0. -1.
       -3    1    3    3    0  502  0.15636632661E+03  0.93432235213E+03  0.50128033493E+01  0.94732983917E+03  0.10100000352E+00 0.  1.
</event>
<event>
 5   0  0.5967046E-05  0.2148551E+04  0.7818609E-02  0.8540153E-01
        2   -1    0    0  501    0  0.00000000000E+00  0.00000000000E+00  0.25219947304E+04  0.25219947304E+04  0.25500000920E-02 0. -1.
       -2   -1    0    0    0  501  0.00000000000E+00  0.00000000000E+00 -0.45760120542E+03  0.45760120543E+03  0.25500000920E-02 0.  1.
    10030    2    1    2    0    0  0.00000000000E+00  0.00000000000E+00  0.20643935250E+04  0.29795959358E+04  0.21485509803E+04 0.  0.
        4    1    3    3  502    0 -0.23916182403E+03  0.93060335336E+02 -0.41446695664E+03  0.48748648713E+03  0.12699999809E+01 0.  1.
       -4    1    3    3    0  502  0.23916182403E+03 -0.93060335336E+02  0.24788604816E+04  0.24921094487E+04  0.12699999809E+01 0. -1.
</event>
<event>
 5   0  0.2604390E-05  0.2105670E+04  0.7818609E-02  0.8558750E-01
        1   -1    0    0  501    0  0.00000000000E+00  0.00000000000E+00  0.23057021860E+04  0.23057021860E+04  0.50400001928E-02 0. -1.
       -1   -1    0    0    0  501  0.00000000000E+00  0.00000000000E+00 -0.48074788387E+03  0.48074788390E+03  0.50400001928E-02 0.  1.
    10030    2    1    2    0    0  0.00000000000E+00  0.00000000000E+00  0.18249543022E+04  0.27864500699E+04  0.21056699141E+04 0.  0.
        5    1    3    3  502    0 -0.61994209095E+03  0.57306980699E+03  0.80052021768E+02  0.84803750860E+03  0.46999998093E+01 0.  1.
       -5    1    3    3    0  502  0.61994209095E+03 -0.57306980699E+03  0.17449022804E+04  0.19384125613E+04  0.46999998093E+01 0. -1.
</event>
<event>
 5   0  0.2604390E-05  0.2089559E+04  0.7818609E-02  0.8565857E-01
        1   -1    0    0  501    0  0.00000000000E+00  0.00000000000E+00  0.12434330509E+04  0.12434330509E+04  0.50400001928E-02 0. -1.
       -1   -1    0    0    0  501  0.00000000000E+00  0.00000000000E+00 -0.87786362855E+03  0.87786362856E+03  0.50400001928E-02 0.  1.
    10030    2    1    2    0    0  0.00000000000E+00  0.00000000000E+00  0.36556942232E+03  0.21212966794E+04  0.20895594272E+04 0.  0.
        5    1    3    3  502    0  0.57760149524E+03 -0.53089815216E+03  0.88323992213E+03  0.11813598881E+04  0.46999998093E+01 0. -1.
       -5    1    3    3    0  502 -0.57760149524E+03  0.53089815216E+03 -0.51767049980E+03  0.93993679130E+03  0.46999998093E+01 0.  1.
</event>
<event>
 5   0  0.2017750E-05  0.2108403E+04  0.7818609E-02  0.8557551E-01
       -3   -1    0    0    0  501  0.00000000000E+00  0.00000000000E+00  0.90070032061E+03  0.90070032627E+03  0.10100000352E+00 0. -1.
        3   -1    0    0  501    0  0.00000000000E+00  0.00000000000E+00 -0.12338631377E+04  0.12338631419E+04  0.10100000352E+00 0.  1.
    10030    2    1    2    0    0  0.00000000000E+00  0.00000000000E+00 -0.33316281711E+03  0.21345634681E+04  0.21084031248E+04 0.  0.
        5    1    3    3  502    0 -0.31496442463E+03 -0.40021288455E+03 -0.11010429460E+04  0.12131325569E+04  0.46999998093E+01 0.  1.
       -5    1    3    3    0  502  0.31496442463E+03  0.40021288455E+03  0.76788012890E+03  0.92143091119E+03  0.46999998093E+01 0. -1.
</event>
<event>
 5   0  0.2732159E-05  0.2113500E+04  0.7818609E-02  0.8555320E-01
       -1   -1    0    0    0  501  0.00000000000E+00  0.00000000000E+00  0.66112501420E+03  0.66112501422E+03  0.50400001928E-02 0. -1.
        1   -1    0    0  501    0  0.00000000000E+00  0.00000000000E+00 -0.16891213731E+04  0.16891213731E+04  0.50400001928E-02 0.  1.
    10030    2    1    2    0    0  0.00000000000E+00  0.00000000000E+00 -0.10279963589E+04  0.23502463873E+04  0.21134998385E+04 0.  0.
        3    1    3    3  502    0 -0.34315357941E+03  0.47436166933E+03 -0.14922863183E+04  0.16030258383E+04  0.10100000352E+00 0.  1.
       -3    1    3    3    0  502  0.34315357941E+03 -0.47436166933E+03  0.46428995934E+03  0.74722054906E+03  0.10100000352E+00 0. -1.
</event>
<event>
 5   0  0.5462851E-05  0.2078497E+04  0.7818609E-02  0.8570775E-01
       -2   -1    0    0    0  501  0.00000000000E+00  0.00000000000E+00  0.82132214712E+03  0.82132214713E+03  0.25500000920E-02 0.  1.
        2   -1    0    0  501    0  0.00000000000E+00  0.00000000000E+00 -0.13149980206E+04  0.13149980206E+04  0.25500000920E-02 0. -1.
    10030    2    1    2    0    0  0.00000000000E+00  0.00000000000E+00 -0.49367587352E+03  0.21363201678E+04  0.20784965699E+04 0.  0.
        1    1    3    3  502    0 -0.11015370432E+03  0.74556100957E+03  0.48864024806E+03  0.89820061769E+03  0.50400001928E-02 0.  1.
       -1    1    3    3    0  502  0.11015370432E+03 -0.74556100957E+03 -0.98231612157E+03  0.12381195501E+04  0.50400001928E-02 0. -1.
</event>
<event>
 5   0  0.2699285E-05  0.2099224E+04  0.7818609E-02  0.8561585E-01
       -1   -1    0    0    0  501  0.00000000000E+00  0.00000000000E+00  0.16815717916E+04  0.16815717916E+04  0.50400001928E-02 0. -1.
        1   -1    0    0  501    0  0.00000000000E+00  0.00000000000E+00 -0.65515212653E+03  0.65515212655E+03  0.50400001928E-02 0.  1.
    10030    2    1    2    0    0  0.00000000000E+00  0.00000000000E+00  0.10264196651E+04  0.23367239182E+04  0.20992239854E+04 0.  0.
        2    1    3    3  502    0 -0.69247006155E+03 -0.77250016066E+03  0.69066374187E+03  0.12463096279E+04  0.25500000920E-02 0.  1.
       -2    1    3    3    0  502  0.69247006155E+03  0.77250016066E+03  0.33575592322E+03  0.10904142902E+04  0.25500000920E-02 0. -1.
</event>
<event>
 5   0  0.2732159E-05  0.2090600E+04  0.7818609E-02  0.8565395E-01
       -1   -1    0    0    0  501  0.00000000000E+00  0.00000000000E+00  0.12339108730E+04  0.12339108730E+04  0.50400001928E-02 0.  1.
        1   -1    0    0  501    0  0.00000000000E+00  0.00000000000E+00 -0.88551958867E+03  0.88551958869E+03  0.50400001928E-02 0. -1.
    10030    2    1    2    0    0  0.00000000000E+00  0.00000000000E+00  0.34839128430E+03  0.21194304617E+04  0.20906001518E+04 0.  0.
        3    1    3    3  502    0  0.61914610639E+03  0.79018813949E+03 -0.12122129655E+03  0.10111546913E+04  0.10100000352E+00 0. -1.
       -3    1    3    3    0  502 -0.61914610639E+03 -0.79018813949E+03  0.46961258086E+03  0.11082757704E+04  0.10100000352E+00 0.  1.
</event>
<event>
 5   0  0.2699285E-05  0.2092279E+04  0.7818609E-02  0.8564652E-01
        1   -1    0    0  501    0  0.00000000000E+00  0.00000000000E+00  0.94533959327E+03  0.94533959329E+03  0.50400001928E-02 0.  1.
       -1   -1    0    0    0  501  0.00000000000E+00  0.00000000000E+00 -0.11576873637E+04  0.11576873637E+04  0.50400001928E-02 0. -1.
    10030    2    1    2    0    0  0.00000000000E+00  0.00000000000E+00 -0.21234777039E+03  0.21030269570E+04  0.20922788548E+04 0.  0.
        2    1    3    3  502    0 -0.38540287209E+02  0.98707606738E+03 -0.45233114914E+03  0.10864658232E+04  0.25500000920E-02 0. -1.
       -2    1    3    3    0  502  0.38540287209E+02 -0.98707606738E+03  0.23998337876E+03  0.10165611337E+04  0.25500000920E-02 0.  1.
</event>
<event>
 5   0  0.2732159E-05  0.1888855E+04  0.7818609E-02  0.8660424E-01
        1   -1    0    0  501    0  0.00000000000E+00  0.00000000000E+00  0.87750036679E+03  0.87750036680E+03  0.50400001928E-02 0. -1.
       -1   -1    0    0    0  501  0.00000000000E+00  0.00000000000E+00 -0.10164586868E+04  0.10164586869E+04  0.50400001928E-02 0.  1.
    10030    2    1    2    0    0  0.00000000000E+00  0.00000000000E+00 -0.13895832006E+03  0.18939590537E+04  0.18888545424E+04 0.  0.
        3    1    3    3  502    0  0.20387491716E+03 -0.76457830273E+03  0.44747000871E+03  0.90905136365E+03  0.10100000352E+00 0. -1.
       -3    1    3    3    0  502 -0.20387491716E+03  0.76457830273E+03 -0.58642832877E+03  0.98490769001E+03  0.10100000352E+00 0.  1.
</event>
<event>
 5   0  0.5866610E-05  0.2118655E+04  0.7818609E-02  0.8553070E-01
       -2   -1    0    0    0  501  0.00000000000E+00  0.00000000000E+00  0.94893523849E+03  0.94893523849E+03  0.25500000920E-02 0. -1.
        2   -1    0    0  501    0  0.00000000000E+00  0.00000000000E+00 -0.11825624761E+04  0.11825624761E+04  0.25500000920E-02 0.  1.
    10030    2    1    2    0    0  0.00000000000E+00  0.00000000000E+00 -0.23362723758E+03  0.21314977146E+04  0.21186554276E+04 0.  0.
        5    1    3    3  502    0 -0.80850895574E+03 -0.68091128019E+03 -0.18670566432E+03  0.10734095202E+04  0.46999998093E+01 0.  1.
       -5    1    3    3    0  502  0.80850895574E+03  0.68091128019E+03 -0.46921573262E+02  0.10580881944E+04  0.46999998093E+01 0. -1.
</event>
<event>
 5   0  0.5462851E-05  0.1914715E+04  0.7818609E-02  0.8647566E-01
       -2   -1    0    0    0  501  0.00000000000E+00  0.00000000000E+00  0.41758930104E+03  0.41758930105E+03  0.25500000920E-02 0.  1.
        2   -1    0    0  501    0  0.00000000000E+00  0.00000000000E+00 -0.21948205619E+04  0.21948205619E+04  0.25500000920E-02 0. -1.
    10030    2    1    2    0    0  0.00000000000E+00  0.00000000000E+00 -0.17772312609E+04  0.26124098629E+04  0.19147152105E+04 0.  0.
        1    1    3    3  502    0 -0.19535233463E+03  0.55864096288E+03 -0.19153475918E+04  0.20046941556E+04  0.50400001928E-02 0. -1.
       -1    1    3    3    0  502  0.19535233463E+03 -0.55864096288E+03  0.13811633096E+03  0.60771570734E+03  0.50400001928E-02 0.  1.
</event>
<event>
 5   0  0.2602060E-05  0.2092573E+04  0.7818609E-02  0.8564522E-01
        1   -1    0    0  501    0  0.00000000000E+00  0.00000000000E+00  0.66390419420E+03  0.66390419422E+03  0.50400001928E-02 0. -1.
       -1   -1    0    0    0  501  0.00000000000E+00  0.00000000000E+00 -0.16489050553E+04  0.16489050553E+04  0.50400001928E-02 0.  1.
    10030    2    1    2    0    0  0.00000000000E+00  0.00000000000E+00 -0.98500086113E+03  0.23128092495E+04  0.20925725623E+04 0.  0.
        1    1    3    3  502    0  0.12442309382E+03 -0.57259248706E+03 -0.14505472014E+04  0.15644265550E+04  0.50400001928E-02 0.  1.
       -1    1    3    3    0  502 -0.12442309382E+03  0.57259248706E+03  0.46554634027E+03  0.74838269454E+03  0.50400001928E-02 0. -1.
</event>
<event>
 5   0  0.5954140E-05  0.2084853E+04  0.7818609E-02  0.8567945E-01
        2   -1    0    0  501    0  0.00000000000E+00  0.00000000000E+00  0.11516454443E+04  0.11516454443E+04  0.25500000920E-02 0.  1.
       -2   -1    0    0    0  501  0.00000000000E+00  0.00000000000E+00 -0.94356587329E+03  0.94356587330E+03  0.25500000920E-02 0. -1.
    10030    2    1    2    0    0  0.00000000000E+00  0.00000000000E+00  0.20807957099E+03  0.20952113176E+04  0.20848533180E+04 0.  0.
        2    1    3    3  502    0 -0.87058977900E+03 -0.50397875969E+03 -0.17069026674E+03  0.10203216751E+04  0.25500000920E-02 0. -1.
       -2    1    3    3    0  502  0.87058977900E+03  0.50397875969E+03  0.37876983772E+03  0.10748896425E+04  0.25500000920E-02 0.  1.
</event>
<event>
 5   0  0.5866610E-05  0.2057420E+04  0.7818609E-02  0.8580236E-01
        2   -1    0    0  501    0  0.00000000000E+00  0.00000000000E+00  0.10624921224E+04  0.10624921224E+04  0.25500000920E-02 0. -1.
       -2   -1    0    0    0  501  0.00000000000E+00  0.00000000000E+00 -0.99600233896E+03  0.99600233897E+03  0.25500000920E-02 0.  1.
    10030    2    1    2    0    0  0.00000000000E+00  0.00000000000E+00  0.66489783411E+02  0.20584944613E+04  0.20574203645E+04 0.  0.
        5    1    3    3  502    0  0.76563976800E+02  0.39308278607E+03  0.98128715548E+03  0.10598691857E+04  0.46999998093E+01 0. -1.
       -5    1    3    3    0  502 -0.76563976800E+02 -0.39308278607E+03 -0.91479737207E+03  0.99862527566E+03  0.46999998093E+01 0.  1.
</event>
<event>
 5   0  0.2699285E-05  0.2080565E+04  0.7818609E-02  0.8569853E-01
        1   -1    0    0  501    0  0.00000000000E+00  0.00000000000E+00  0.16483543450E+04  0.16483543450E+04  0.50400001928E-02 0.  1.
       -1   -1    0    0    0  501  0.00000000000E+00  0.00000000000E+00 -0.65652640683E+03  0.65652640685E+03  0.50400001928E-02 0. -1.
    10030    2    1    2    0    0  0.00000000000E+00  0.00000000000E+00  0.99182793813E+03  0.23048807518E+04  0.20805654571E+04 0.  0.
        2    1    3    3  502    0  0.21262855468E+03 -0.69272453320E+03 -0.33095661899E+03  0.79662441892E+03  0.25500000920E-02 0. -1.
       -2    1    3    3    0  502 -0.21262855468E+03  0.69272453320E+03  0.13227845571E+04  0.15082563329E+04  0.25500000920E-02 0.  1.
</event>
<event>
 5   0  0.5954140E-05  0.1912443E+04  0.7818609E-02  0.8648687E-01
        2   -1    0    0  501    0  0.00000000000E+00  0.00000000000E+00  0.14985986066E+04  0.14985986066E+04  0.25500000920E-02 0. -1.
       -2   -1    0    0    0  501  0.00000000000E+00  0.00000000000E+00 -0.61014332433E+03  0.61014332433E+03  0.25500000920E-02 0.  1.
    10030    2    1    2    0    0  0.00000000000E+00  0.00000000000E+00  0.88845528225E+03  0.21087419309E+04  0.19124433959E+04 0.  0.
        2    1    3    3  502    0 -0.25540821923E+03  0.24592466046E+03 -0.53498350329E+03  0.64180966483E+03  0.25500000920E-02 0.  1.
       -2    1    3    3    0  502  0.25540821923E+03 -0.24592466046E+03  0.14234387855E+04  0.14669322661E+04  0.25500000920E-02 0. -1.
</event>
<event>
 5   0  0.5506332E-05  0.2130770E+04  0.7818609E-02  0.8547809E-01
       -2   -1    0    0    0  501  0.00000000000E+00  0.00000000000E+00  0.44801476760E+03  0.44801476761E+03  0.25500000920E-02 0. -1.
        2   -1    0    0  501    0  0.00000000000E+00  0.00000000000E+00 -0.25334999452E+04  0.25334999452E+04  0.25500000920E-02 0.  1.
    10030    2    1    2    0    0  0.00000000000E+00  0.00000000000E+00 -0.20854851776E+04  0.29815147128E+04  0.21307701792E+04 0.  0.
        3    1    3    3  502    0  0.27867943011E+03  0.10119078926E+04 -0.12985656930E+04  0.16696983791E+04  0.10100000352E+00 0.  1.
       -3    1    3    3    0  502 -0.27867943011E+03 -0.10119078926E+04 -0.78691948456E+03  0.13118163337E+04  0.10100000352E+00 0. -1.
</event>
<event>
 5   0  0.2017750E-05  0.2096304E+04  0.7818609E-02  0.8562873E-01
       -3   -1    0    0    0  501  0.00000000000E+00  0.00000000000E+00  0.17206327768E+04  0.17206327798E+04  0.10100000352E+00 0.  1.
        3   -1    0    0  501    0  0.00000000000E+00  0.00000000000E+00 -0.63849945275E+03  0.63849946074E+03  0.10100000352E+00 0. -1.
    10030    2    1    2    0    0  0.00000000000E+00  0.00000000000E+00  0.10821333241E+04  0.23591322405E+04  0.20963044620E+04 0.  0.
        1    1    3    3  502    0  0.11788409325E+03 -0.66587754436E+03 -0.36017218258E+03  0.76616810469E+03  0.50400001928E-02 0. -1.
       -1    1    3    3    0  502 -0.11788409325E+03  0.66587754436E+03  0.14423055067E+04  0.15929641358E+04  0.50400001928E-02 0.  1.
</event>
<event>
 5   0  0.2604390E-05  0.2103698E+04  0.7818609E-02  0.8559616E-01
        1   -1    0    0  501    0  0.00000000000E+00  0.00000000000E+00  0.19871252883E+04  0.19871252883E+04  0.50400001928E-02 0.  1.
       -1   -1    0    0    0  501  0.00000000000E+00  0.00000000000E+00 -0.55677732342E+03  0.55677732344E+03  0.50400001928E-02 0. -1.
    10030    2    1    2    0    0  0.00000000000E+00  0.00000000000E+00  0.14303479648E+04  0.25439026117E+04  0.21036979815E+04 0.  0.
        5    1    3    3  502    0  0.38719769221E+03 -0.90503863360E+03  0.11633277384E+04  0.15239325766E+04  0.46999998093E+01 0.  1.
       -5    1    3    3    0  502 -0.38719769221E+03  0.90503863360E+03  0.26702022645E+03  0.10199700351E+04  0.46999998093E+01 0. -1.
</event>
<event>
 5   0  0.5462851E-05  0.2122107E+04  0.7818609E-02  0.8551567E-01
        2   -1    0    0  501    0  0.00000000000E+00  0.00000000000E+00  0.16056085292E+04  0.16056085292E+04  0.25500000920E-02 0.  1.
       -2   -1    0    0    0  501  0.00000000000E+00  0.00000000000E+00 -0.70118889831E+03  0.70118889831E+03  0.25500000920E-02 0. -1.
    10030    2    1    2    0    0  0.00000000000E+00  0.00000000000E+00  0.90441963088E+03  0.23067974275E+04  0.21221073259E+04 0.  0.
        1    1    3    3  502    0  0.91188833166E+03 -0.11883202060E+03  0.10275909779E+04  0.13789868007E+04  0.50400001928E-02 0.  1.
       -1    1    3    3    0  502 -0.91188833166E+03  0.11883202060E+03 -0.12317134700E+03  0.92781062685E+03  0.50400001928E-02 0. -1.
</event>
<event>
 5   0  0.2789662E-05  0.2096975E+04  0.7818609E-02  0.8562577E-01
        1   -1    0    0  501    0  0.00000000000E+00  0.00000000000E+00  0.57437260214E+03  0.57437260216E+03  0.50400001928E-02 0. -1.
       -1   -1    0    0    0  501  0.00000000000E+00  0.00000000000E+00 -0.19139603750E+04  0.19139603750E+04  0.50400001928E-02 0.  1.
    10030    2    1    2    0    0  0.00000000000E+00  0.00000000000E+00 -0.13395877729E+04  0.24883329772E+04  0.20969753466E+04 0.  0.
        4    1    3    3  502    0  0.11934153553E+03 -0.92966377669E+03 -0.11219457764E+03  0.94398430916E+03  0.12699999809E+01 0.  1.
       -4    1    3    3    0  502 -0.11934153553E+03  0.92966377669E+03 -0.12273931952E+04  0.15443486680E+04  0.12699999809E+01 0. -1.
</event>
<event>
 5   0  0.2699285E-05  0.2093499E+04  0.7818609E-02  0.8564112E-01
       -1   -1    0    0    0  501  0.00000000000E+00  0.00000000000E+00  0.59224873013E+03  0.59224873015E+03  0.50400001928E-02 0.  1.
        1   -1    0    0  501    0  0.00000000000E+00  0.00000000000E+00 -0.18500417777E+04  0.18500417777E+04  0.50400001928E-02 0. -1.
    10030    2    1    2    0    0  0.00000000000E+00  0.00000000000E+00 -0.12577930475E+04  0.24422905078E+04  0.20934993609E+04 0.  0.
        2    1    3    3  502    0  0.45752302459E+03 -0.30222269534E+03 -0.16690878972E+04  0.17568495337E+04  0.25500000920E-02 0. -1.
       -2    1    3    3    0  502 -0.45752302459E+03  0.30222269534E+03  0.41129484965E+03  0.68544097409E+03  0.25500000920E-02 0.  1.
</event>
<event>
 5   0  0.5967046E-05  0.2104617E+04  0.7818609E-02  0.8559212E-01
       -2   -1    0    0    0  501  0.00000000000E+00  0.00000000000E+00  0.89248386433E+03  0.89248386433E+03  0.25500000920E-02 0.  1.
        2   -1    0    0  501    0  0.00000000000E+00  0.00000000000E+00 -0.12407538386E+04  0.12407538386E+04  0.25500000920E-02 0. -1.
    10030    2    1    2    0    0  0.00000000000E+00  0.00000000000E+00 -0.34826997425E+03  0.21332377029E+04  0.21046166212E+04 0.  0.
        4    1    3    3  502    0 -0.49119307155E+03 -0.18102824291E+03  0.75113690993E+03  0.91556000821E+03  0.12699999809E+01 0.  1.
       -4    1    3    3    0  502  0.49119307155E+03  0.18102824291E+03 -0.10994068842E+04  0.12176776947E+04  0.12699999809E+01 0. -1.
</event>
<event>
 5   0  0.5954140E-05  0.2102988E+04  0.7818609E-02  0.8559928E-01
       -2   -1    0    0    0  501  0.00000000000E+00  0.00000000000E+00  0.10367351259E+04  0.10367351259E+04  0.25500000920E-02 0.  1.
        2   -1    0    0  501    0  0.00000000000E+00  0.00000000000E+00 -0.10664628766E+04  0.10664628767E+04  0.25500000920E-02 0. -1.
    10030    2    1    2    0    0  0.00000000000E+00  0.00000000000E+00 -0.29727750766E+02  0.21031980025E+04  0.21029878979E+04 0.  0.
        2    1    3    3  502    0  0.11012639254E+03  0.72327657603E+03 -0.77017617755E+03  0.10622749984E+04  0.25500000920E-02 0. -1.
       -2    1    3    3    0  502 -0.11012639254E+03 -0.72327657603E+03  0.74044842679E+03  0.10409230041E+04  0.25500000920E-02 0.  1.
</event>
<event>
 5   0  0.5866610E-05  0.2110209E+04  0.7818609E-02  0.8556760E-01
       -2   -1    0    0    0  501  0.00000000000E+00  0.00000000000E+00  0.75682567864E+03  0.75682567865E+03  0.25500000920E-02 0. -1.
        2   -1    0    0  501    0  0.00000000000E+00  0.00000000000E+00 -0.14709401084E+04  0.14709401084E+04  0.25500000920E-02 0.  1.
    10030    2    1    2    0    0  0.00000000000E+00  0.00000000000E+00 -0.71411442978E+03  0.22277657871E+04  0.21102087535E+04 0.  0.
        5    1    3    3  502    0 -0.62730792445E+03 -0.33938215550E+03  0.46377086318E+03  0.85076493997E+03  0.46999998093E+01 0. -1.
       -5    1    3    3    0  502  0.62730792445E+03  0.33938215550E+03 -0.11778852930E+04  0.13770008471E+04  0.46999998093E+01 0.  1.
</event>
<event>
 5   0  0.2699285E-05  0.2093799E+04  0.7818609E-02  0.8563980E-01
        1   -1    0    0  501    0  0.00000000000E+00  0.00000000000E+00  0.57639486419E+03  0.57639486421E+03  0.50400001928E-02 0.  1.
       -1   -1    0    0    0  501  0.00000000000E+00  0.00000000000E+00 -0.19014721600E+04  0.19014721600E+04  0.50400001928E-02 0. -1.
    10030    2    1    2    0    0  0.00000000000E+00  0.00000000000E+00 -0.13250772958E+04  0.24778670242E+04  0.20937992143E+04 0.  0.
        2    1    3    3  502    0 -0.22166445917E+03 -0.10168092116E+04 -0.79727674245E+03  0.13109867693E+04  0.25500000920E-02 0.  1.
       -2    1    3    3    0  502  0.22166445917E+03  0.10168092116E+04 -0.52780055332E+03  0.11668802549E+04  0.25500000920E-02 0. -1.
</event>
<event>
 5   0  0.5967046E-05  0.2105253E+04  0.7818609E-02  0.8558933E-01
        2   -1    0    0  501    0  0.00000000000E+00  0.00000000000E+00  0.10810151952E+04  0.10810151952E+04  0.25500000920E-02 0. -1.
       -2   -1    0    0    0  501  0.00000000000E+00  0.00000000000E+00 -0.10249828649E+04  0.10249828649E+04  0.25500000920E-02 0.  1.
    10030    2    1    2    0    0  0.00000000000E+00  0.00000000000E+00  0.56032330251E+02  0.21059980602E+04  0.21052525282E+04 0.  0.
        4    1    3    3  502    0 -0.17983226010E+03 -0.55094276799E+03 -0.85101161458E+03  0.10296115561E+04  0.12699999809E+01 0.  1.
       -4    1    3    3    0  502  0.17983226010E+03  0.55094276799E+03  0.90704394483E+03  0.10763865041E+04  0.12699999809E+01 0. -1.
</event>
<event>
 5   0  0.5506332E-05  0.2102957E+04  0.7818609E-02  0.8559942E-01
        2   -1    0    0  501    0  0.00000000000E+00  0.00000000000E+00  0.11328335445E+04  0.11328335445E+04  0.25500000920E-02 0. -1.
       -2   -1    0    0    0  501  0.00000000000E+00  0.00000000000E+00 -0.97596643049E+03  0.97596643049E+03  0.25500000920E-02 0.  1.
    10030    2    1    2    0    0  0.00000000000E+00  0.00000000000E+00  0.15686711400E+03  0.21087999750E+04  0.21029574516E+04 0.  0.
        3    1    3    3  502    0  0.77680191137E+03  0.39571884140E+02  0.78794459252E+03  0.11071783211E+04  0.10100000352E+00 0. -1.
       -3    1    3    3    0  502 -0.77680191137E+03 -0.39571884140E+02 -0.63107747852E+03  0.10016216539E+04  0.10100000352E+00 0.  1.
</event>
<event>
 5   0  0.2732159E-05  0.2095498E+04  0.7818609E-02  0.8563229E-01
        1   -1    0    0  501    0  0.00000000000E+00  0.00000000000E+00  0.79169058123E+03  0.79169058125E+03  0.50400001928E-02 0.  1.
       -1   -1    0    0    0  501  0.00000000000E+00  0.00000000000E+00 -0.13866244027E+04  0.13866244027E+04  0.50400001928E-02 0. -1.
    10030    2    1    2    0    0  0.00000000000E+00  0.00000000000E+00 -0.59493382150E+03  0.21783149840E+04  0.20954975346E+04 0.  0.
        3    1    3    3  502    0 -0.47082935070E+03  0.61356353713E+03 -0.10322528057E+04  0.12898396632E+04  0.10100000352E+00 0. -1.
       -3    1    3    3    0  502  0.47082935070E+03 -0.61356353713E+03  0.43731898421E+03  0.88847532083E+03  0.10100000352E+00 0.  1.
</event>
<event>
 5   0  0.5506332E-05  0.2108372E+04  0.7818609E-02  0.8557564E-01
       -2   -1    0    0    0  501  0.00000000000E+00  0.00000000000E+00  0.51440997455E+03  0.51440997456E+03  0.25500000920E-02 0.  1.
        2   -1    0    0  501    0  0.00000000000E+00  0.00000000000E+00 -0.21603549476E+04  0.21603549476E+04  0.25500000920E-02 0. -1.
    10030    2    1    2    0    0  0.00000000000E+00  0.00000000000E+00 -0.16459449731E+04  0.26747649222E+04  0.21083720105E+04 0.  0.
        3    1    3    3  502    0  0.56016049927E+03 -0.89225973205E+03 -0.87045605488E+03  0.13666019787E+04  0.10100000352E+00 0. -1.
       -3    1    3    3    0  502 -0.56016049927E+03  0.89225973205E+03 -0.77548891818E+03  0.13081629435E+04  0.10100000352E+00 0.  1.
</event>
<event>
 5   0  0.2699285E-05  0.2082105E+04  0.7818609E-02  0.8569168E-01
        1   -1    0    0  501    0  0.00000000000E+00  0.00000000000E+00  0.14553185674E+04  0.14553185674E+04  0.50400001928E-02 0. -1.
       -1   -1    0    0    0  501  0.00000000000E+00  0.00000000000E+00 -0.74470996439E+03  0.74470996441E+03  0.50400001928E-02 0.  1.
    10030    2    1    2    0    0  0.00000000000E+00  0.00000000000E+00  0.71060860302E+03  0.22000285318E+04  0.20821049335E+04 0.  0.
        2    1    3    3  502    0  0.25337829238E+03  0.34137030508E+03  0.13594183419E+04  0.14243428213E+04  0.25500000920E-02 0. -1.
       -2    1    3    3    0  502 -0.25337829238E+03 -0.34137030508E+03 -0.64880973889E+03  0.77568571053E+03  0.25500000920E-02 0.  1.
</event>
<event>
 5   0  0.2602060E-05  0.2115749E+04  0.7818609E-02  0.8554337E-01
       -1   -1    0    0    0  501  0.00000000000E+00  0.00000000000E+00  0.78024184778E+03  0.78024184780E+03  0.50400001928E-02 0. -1.
        1   -1    0    0  501    0  0.00000000000E+00  0.00000000000E+00 -0.14342974312E+04  0.14342974312E+04  0.50400001928E-02 0.  1.
    10030    2    1    2    0    0  0.00000000000E+00  0.00000000000E+00 -0.65405558346E+03  0.22145392790E+04  0.21157493973E+04 0.  0.
        1    1    3    3  502    0  0.79793689962E+03 -0.14220476227E+03 -0.10386043449E+04  0.13174310135E+04  0.50400001928E-02 0.  1.
       -1    1    3    3    0  502 -0.79793689962E+03  0.14220476227E+03  0.38454876139E+03  0.89710826554E+03  0.50400001928E-02 0. -1.
</event>
<event>
 5   0  0.5967046E-05  0.2143711E+04  0.7818609E-02  0.8542229E-01
       -2   -1    0    0    0  501  0.00000000000E+00  0.00000000000E+00  0.87206010389E+03  0.87206010390E+03  0.25500000920E-02 0.  1.
        2   -1    0    0  501    0  0.00000000000E+00  0.00000000000E+00 -0.13174255075E+04  0.13174255075E+04  0.25500000920E-02 0. -1.
    10030    2    1    2    0    0  0.00000000000E+00  0.00000000000E+00 -0.44536540364E+03  0.21894856114E+04  0.21437110113E+04 0.  0.
        4    1    3    3  502    0 -0.42038529206E+03  0.98586970731E+03 -0.23747429453E+03  0.10977515780E+04  0.12699999809E+01 0. -1.
       -4    1    3    3    0  502  0.42038529206E+03 -0.98586970731E+03 -0.20789110911E+03  0.10917340334E+04  0.12699999809E+01 0.  1.
</event>
<event>
 5   0  0.5967046E-05  0.2113108E+04  0.7818609E-02  0.8555491E-01
        2   -1    0    0  501    0  0.00000000000E+00  0.00000000000E+00  0.27369549517E+04  0.27369549517E+04  0.25500000920E-02 0.  1.
       -2   -1    0    0    0  501  0.00000000000E+00  0.00000000000E+00 -0.40786445884E+03  0.40786445885E+03  0.25500000920E-02 0. -1.
    10030    2    1    2    0    0  0.00000000000E+00  0.00000000000E+00  0.23290904929E+04  0.31448194106E+04  0.21131082795E+04 0.  0.
        4    1    3    3  502    0 -0.97018839444E+03 -0.30539644811E+03  0.73896871870E+03  0.12572226896E+04  0.12699999809E+01 0. -1.
       -4    1    3    3    0  502  0.97018839444E+03  0.30539644811E+03  0.15901217742E+04  0.18875967209E+04  0.12699999809E+01 0.  1.
</event>
<event>
 5   0  0.5967046E-05  0.2099512E+04  0.7818609E-02  0.8561458E-01
        2   -1    0    0  501    0  0.00000000000E+00  0.00000000000E+00  0.15982672123E+04  0.15982672123E+04  0.25500000920E-02 0. -1.
       -2   -1    0    0    0  501  0.00000000000E+00  0.00000000000E+00 -0.68948885810E+03  0.68948885810E+03  0.25500000920E-02 0.  1.
    10030    2    1    2    0    0  0.00000000000E+00  0.00000000000E+00  0.90877835421E+03  0.22877560704E+04  0.20995117863E+04 0.  0.
        4    1    3    3  502    0 -0.96027528210E+03 -0.13190018930E+03  0.89359088022E+03  0.13183446255E+04  0.12699999809E+01 0. -1.
       -4    1    3    3    0  502  0.96027528210E+03  0.13190018930E+03  0.15187473986E+02  0.96941144496E+03  0.12699999809E+01 0.  1.
</event>
<event>
 5   0  0.2732159E-05  0.2105048E+04  0.7818609E-02  0.8559023E-01
        1   -1    0    0  501    0  0.00000000000E+00  0.00000000000E+00  0.14188558905E+04  0.14188558905E+04  0.50400001928E-02 0.  1.
       -1   -1    0    0    0  501  0.00000000000E+00  0.00000000000E+00 -0.78077503316E+03  0.78077503317E+03  0.50400001928E-02 0. -1.
    10030    2    1    2    0    0  0.00000000000E+00  0.00000000000E+00  0.63808085738E+03  0.21996309237E+04  0.21050484603E+04 0.  0.
        3    1    3    3  502    0 -0.17523223700E+03 -0.27096709621E+03  0.13658914106E+04  0.14034916672E+04  0.10100000352E+00 0.  1.
       -3    1    3    3    0  502  0.17523223700E+03  0.27096709621E+03 -0.72781055326E+03  0.79613925650E+03  0.10100000352E+00 0. -1.
</event>
<event>
 5   0  0.5506332E-05  0.2104604E+04  0.7818609E-02  0.8559218E-01
        2   -1    0    0  501    0  0.00000000000E+00  0.00000000000E+00  0.64411695473E+03  0.64411695473E+03  0.25500000920E-02 0. -1.
       -2   -1    0    0    0  501  0.00000000000E+00  0.00000000000E+00 -0.17191588701E+04  0.17191588701E+04  0.25500000920E-02 0.  1.
    10030    2    1    2    0    0  0.00000000000E+00  0.00000000000E+00 -0.10750419154E+04  0.23632758249E+04  0.21046038830E+04 0.  0.
        3    1    3    3  502    0  0.14778188003E+03  0.75132690974E+02 -0.17044024694E+04  0.17124462600E+04  0.10100000352E+00 0.  1.
       -3    1    3    3    0  502 -0.14778188003E+03 -0.75132690974E+02  0.62936055405E+03  0.65082956487E+03  0.10100000352E+00 0. -1.
</event>
<event>
 5   0  0.5462851E-05  0.2127385E+04  0.7818609E-02  0.8549275E-01
       -2   -1    0    0    0  501  0.00000000000E+00  0.00000000000E+00  0.78066384659E+03  0.78066384659E+03  0.25500000920E-02 0.  1.
        2   -1    0    0  501    0  0.00000000000E+00  0.00000000000E+00 -0.14493325522E+04  0.14493325522E+04  0.25500000920E-02 0. -1.
    10030    2    1    2    0    0  0.00000000000E+00  0.00000000000E+00 -0.66866870563E+03  0.22299963988E+04  0.21273848032E+04 0.  0.
        1    1    3    3  502    0  0.39720025685E+03  0.89897987116E+03 -0.76078471409E+03  0.12428701598E+04  0.50400001928E-02 0.  1.
       -1    1    3    3    0  502 -0.39720025685E+03 -0.89897987116E+03  0.92116008452E+02  0.98712623906E+03  0.50400001928E-02 0. -1.
</event>
<event>
 5   0  0.2699285E-05  0.2095130E+04  0.7818609E-02  0.8563392E-01
        1   -1    0    0  501    0  0.00000000000E+00  0.00000000000E+00  0.17327269444E+04  0.17327269444E+04  0.50400001928E-02 0. -1.
       -1   -1    0    0    0  501  0.00000000000E+00  0.00000000000E+00 -0.63333276533E+03  0.63333276535E+03  0.50400001928E-02 0.  1.
    10030    2    1    2    0    0  0.00000000000E+00  0.00000000000E+00  0.10993941791E+04  0.23660597098E+04  0.20951303036E+04 0.  0.
        2    1    3    3  502    0  0.45633522237E+02  0.49876303433E+03  0.15887553095E+04  0.16658302483E+04  0.25500000920E-02 0. -1.
       -2    1    3    3    0  502 -0.45633522237E+02 -0.49876303433E+03 -0.48936113039E+03  0.70022946147E+03  0.25500000920E-02 0.  1.
</event>
<event>
 5   0  0.2602060E-05  0.2102641E+04  0.7818609E-02  0.8560081E-01
        1   -1    0    0  501    0  0.00000000000E+00  0.00000000000E+00  0.13019734789E+04  0.13019734790E+04  0.50400001928E-02 0.  1.
       -1   -1    0    0    0  501  0.00000000000E+00  0.00000000000E+00 -0.84892245663E+03  0.84892245664E+03  0.50400001928E-02 0. -1.
    10030    2    1    2    0    0  0.00000000000E+00  0.00000000000E+00  0.45305102231E+03  0.21508959356E+04  0.21026407437E+04 0.  0.
        1    1    3    3  502    0 -0.16935556123E+03 -0.12698859558E+03 -0.82689780339E+03  0.85356158934E+03  0.50400001928E-02 0. -1.
       -1    1    3    3    0  502  0.16935556123E+03  0.12698859558E+03  0.12799488257E+04  0.12973343463E+04  0.50400001928E-02 0.  1.
</event>
<event>
 5   0  0.2699285E-05  0.2096697E+04  0.7818609E-02  0.8562700E-01
       -1   -1    0    0    0  501  0.00000000000E+00  0.00000000000E+00  0.52875029715E+03  0.52875029718E+03  0.50400001928E-02 0.  1.
        1   -1    0    0  501    0  0.00000000000E+00  0.00000000000E+00 -0.20785520032E+04  0.20785520032E+04  0.50400001928E-02 0. -1.
    10030    2    1    2    0    0  0.00000000000E+00  0.00000000000E+00 -0.15498017061E+04  0.26073023004E+04  0.20966973929E+04 0.  0.
        2    1    3    3  502    0 -0.90341251898E+03  0.17064577266E+03 -0.14847752012E+03  0.93130002317E+03  0.25500000920E-02 0.  1.
       -2    1    3    3    0  502  0.90341251898E+03 -0.17064577266E+03 -0.14013241859E+04  0.16760022772E+04  0.25500000920E-02 0. -1.
</event>
<event>
 5   0  0.5506332E-05  0.2093724E+04  0.7818609E-02  0.8564013E-01
        2   -1    0    0  501    0  0.00000000000E+00  0.00000000000E+00  0.10040045427E+04  0.10040045427E+04  0.25500000920E-02 0.  1.
       -2   -1    0    0    0  501  0.00000000000E+00  0.00000000000E+00 -0.10915485134E+04  0.10915485134E+04  0.25500000920E-02 0. -1.
    10030    2    1    2    0    0  0.00000000000E+00  0.00000000000E+00 -0.87543970708E+02  0.20955530562E+04  0.20937236361E+04 0.  0.
        3    1    3    3  502    0  0.52474668834E+03 -0.82090872688E+03 -0.42708106691E+03  0.10637896750E+04  0.10100000352E+00 0.  1.
       -3    1    3    3    0  502 -0.52474668834E+03  0.82090872688E+03  0.33953709620E+03  0.10317633812E+04  0.10100000352E+00 0. -1.
</event>
<event>
 5   0  0.2699285E-05  0.2314453E+04  0.7818609E-02  0.8472244E-01
       -1   -1    0    0    0  501  0.00000000000E+00  0.00000000000E+00  0.10355595845E+04  0.10355595845E+04  0.50400001928E-02 0. -1.
        1   -1    0    0  501    0  0.00000000000E+00  0.00000000000E+00 -0.12931881438E+04  0.12931881438E+04  0.50400001928E-02 0.  1.
    10030    2    1    2    0    0  0.00000000000E+00  0.00000000000E+00 -0.25762855925E+03  0.23287477283E+04  0.23144531768E+04 0.  0.
        2    1    3    3  502    0  0.48548059797E+03  0.95125200191E+03  0.31958552114E+03  0.11147675486E+04  0.25500000920E-02 0. -1.
       -2    1    3    3    0  502 -0.48548059797E+03 -0.95125200191E+03 -0.57721408040E+03  0.12139801797E+04  0.25500000920E-02 0.  1.
</event>
<event>
 5   0  0.5967046E-05  0.2111394E+04  0.7818609E-02  0.8556241E-01
       -2   -1    0    0    0  501  0.00000000000E+00  0.00000000000E+00  0.72640943947E+03  0.72640943947E+03  0.25500000920E-02 0. -1.
        2   -1    0    0  501    0  0.00000000000E+00  0.00000000000E+00 -0.15342539204E+04  0.15342539204E+04  0.25500000920E-02 0.  1.
    10030    2    1    2    0    0  0.00000000000E+00  0.00000000000E+00 -0.80784448095E+03  0.22606633599E+04  0.21113943548E+04 0.  0.
        4    1    3    3  502    0  0.26660479908E+03  0.95644176429E+03 -0.19907656073E+02  0.99310467476E+03  0.12699999809E+01 0. -1.
       -4    1    3    3    0  502 -0.26660479908E+03 -0.95644176429E+03 -0.78793682488E+03  0.12675586851E+04  0.12699999809E+01 0.  1.
</event>
<event>
 5   0  0.2732159E-05  0.2102027E+04  0.7818609E-02  0.8560351E-01
        1   -1    0    0  501    0  0.00000000000E+00  0.00000000000E+00  0.23871234363E+04  0.23871234363E+04  0.50400001928E-02 0.  1.
       -1   -1    0    0    0  501  0.00000000000E+00  0.00000000000E+00 -0.46274508597E+03  0.46274508599E+03  0.50400001928E-02 0. -1.
    10030    2    1    2    0    0  0.00000000000E+00  0.00000000000E+00  0.19243783503E+04  0.28498685223E+04  0.21020272498E+04 0.  0.
        3    1    3    3  502    0 -0.37739076155E+03  0.97146609938E+03  0.11463918719E+04  0.15493174314E+04  0.10100000352E+00 0.  1.
       -3    1    3    3    0  502  0.37739076155E+03 -0.97146609938E+03  0.77798647844E+03  0.13005510909E+04  0.10100000352E+00 0. -1.
</event>
<event>
 5   0  0.2602060E-05  0.2117660E+04  0.7818609E-02  0.8553504E-01
       -1   -1    0    0    0  501  0.00000000000E+00  0.00000000000E+00  0.16805892177E+04  0.16805892177E+04  0.50400001928E-02 0. -1.
        1   -1    0    0  501    0  0.00000000000E+00  0.00000000000E+00 -0.66710008645E+03  0.66710008647E+03  0.50400001928E-02 0.  1.
    10030    2    1    2    0    0  0.00000000000E+00  0.00000000000E+00  0.10134891312E+04  0.23476893041E+04  0.21176602300E+04 0.  0.
        1    1    3    3  502    0  0.94939894884E+03  0.46517058783E+03  0.44229952158E+03  0.11460239555E+04  0.50400001928E-02 0. -1.
       -1    1    3    3    0  502 -0.94939894884E+03 -0.46517058783E+03  0.57118960962E+03  0.12016653486E+04  0.50400001928E-02 0.  1.
</event>
<event>
 5   0  0.5967046E-05  0.2098105E+04  0.7818609E-02  0.8562079E-01
        2   -1    0    0  501    0  0.00000000000E+00  0.00000000000E+00  0.13140534331E+04  0.13140534331E+04  0.25500000920E-02 0.  1.
       -2   -1    0    0    0  501  0.00000000000E+00  0.00000000000E+00 -0.83749355247E+03  0.83749355247E+03  0.25500000920E-02 0. -1.
    10030    2    1    2    0    0  0.00000000000E+00  0.00000000000E+00  0.47655988065E+03  0.21515469856E+04  0.20981051240E+04 0.  0.
        4    1    3    3  502    0 -0.81285807244E+03 -0.47749668534E+03  0.71018442082E+03  0.11802986296E+04  0.12699999809E+01 0.  1.
       -4    1    3    3    0  502  0.81285807244E+03  0.47749668534E+03 -0.23362454017E+03  0.97124835604E+03  0.12699999809E+01 0. -1.
</event>
<event>
 5   0  0.5866610E-05  0.2086333E+04  0.7818609E-02  0.8567288E-01
        2   -1    0    0  501    0  0.00000000000E+00  0.00000000000E+00  0.15017341795E+04  0.15017341795E+04  0.25500000920E-02 0.  1.
       -2   -1    0    0    0  501  0.00000000000E+00  0.00000000000E+00 -0.72462672414E+03  0.72462672414E+03  0.25500000920E-02 0. -1.
    10030    2    1    2    0    0  0.00000000000E+00  0.00000000000E+00  0.77710745531E+03  0.22263609036E+04  0.20863333569E+04 0.  0.
        5    1    3    3  502    0  0.13913695667E+03  0.59962680920E+03  0.12872554762E+04  0.14268707559E+04  0.46999998093E+01 0.  1.
       -5    1    3    3    0  502 -0.13913695667E+03 -0.59962680920E+03 -0.51014802090E+03  0.79949014769E+03  0.46999998093E+01 0. -1.
</event>
<event>
 5   0  0.2699285E-05  0.2102044E+04  0.7818609E-02  0.8560343E-01
        1   -1    0    0  501    0  0.00000000000E+00  0.00000000000E+00  0.13841460546E+04  0.13841460546E+04  0.50400001928E-02 0.  1.
       -1   -1    0    0    0  501  0.00000000000E+00  0.00000000000E+00 -0.79807147726E+03  0.79807147728E+03  0.50400001928E-02 0. -1.
    10030    2    1    2    0    0  0.00000000000E+00  0.00000000000E+00  0.58607457733E+03  0.21822175319E+04  0.21020442303E+04 0.  0.
        2    1    3    3  502    0  0.48498831537E+02  0.91858092769E+03  0.82086256633E+03  0.12328659336E+04  0.25500000920E-02 0.  1.
       -2    1    3    3    0  502 -0.48498831537E+02 -0.91858092769E+03 -0.23478798901E+03  0.94935159829E+03  0.25500000920E-02 0. -1.
</event>
<event>
 5   0  0.2789662E-05  0.2094844E+04  0.7818609E-02  0.8563518E-01
       -1   -1    0    0    0  501  0.00000000000E+00  0.00000000000E+00  0.75552839495E+03  0.75552839497E+03  0.50400001928E-02 0. -1.
        1   -1    0    0  501    0  0.00000000000E+00  0.00000000000E+00 -0.14520865351E+04  0.14520865351E+04  0.50400001928E-02 0.  1.
    10030    2    1    2    0    0  0.00000000000E+00  0.00000000000E+00 -0.69655814017E+03  0.22076149301E+04  0.20948437739E+04 0.  0.
        4    1    3    3  502    0  0.55869756810E+03  0.65301790409E+03  0.28271566519E+03  0.90471272563E+03  0.12699999809E+01 0.  1.
       -4    1    3    3    0  502 -0.55869756810E+03 -0.65301790409E+03 -0.97927380536E+03  0.13029022045E+04  0.12699999809E+01 0. -1.
</event>
<event>
 5   0  0.2602060E-05  0.2097341E+04  0.7818609E-02  0.8562416E-01
       -1   -1    0    0    0  501  0.00000000000E+00  0.00000000000E+00  0.10287649928E+04  0.10287649928E+04  0.50400001928E-02 0.  1.
        1   -1    0    0  501    0  0.00000000000E+00  0.00000000000E+00 -0.10689611813E+04  0.10689611813E+04  0.50400001928E-02 0. -1.
    10030    2    1    2    0    0  0.00000000000E+00  0.00000000000E+00 -0.40196188561E+02  0.20977261741E+04  0.20973410233E+04 0.  0.
        1    1    3    3  502    0  0.74165888210E+03  0.53465859201E+03  0.49360320781E+03  0.10390196505E+04  0.50400001928E-02 0.  1.
       -1    1    3    3    0  502 -0.74165888210E+03 -0.53465859201E+03 -0.53379939638E+03  0.10587065236E+04  0.50400001928E-02 0. -1.
</event>
<event>
 5   0  0.2604390E-05  0.2095045E+04  0.7818609E-02  0.8563429E-01
        1   -1    0    0  501    0  0.00000000000E+00  0.00000000000E+00  0.14503242712E+04  0.14503242712E+04  0.50400001928E-02 0. -1.
       -1   -1    0    0    0  501  0.00000000000E+00  0.00000000000E+00 -0.75659200205E+03  0.75659200206E+03  0.50400001928E-02 0.  1.
    10030    2    1    2    0    0  0.00000000000E+00  0.00000000000E+00  0.69373226918E+03  0.22069162733E+04  0.20950453399E+04 0.  0.
        5    1    3    3  502    0  0.22253341049E+02  0.74389193386E+02 -0.75354530025E+03  0.75754971640E+03  0.46999998093E+01 0.  1.
       -5    1    3    3    0  502 -0.22253341049E+02 -0.74389193386E+02  0.14472775694E+04  0.14493665569E+04  0.46999998093E+01 0. -1.
</event>
<event>
 5   0  0.2732159E-05  0.2162893E+04  0.7818609E-02  0.8534034E-01
       -1   -1    0    0    0  501  0.00000000000E+00  0.00000000000E+00  0.92138968564E+03  0.92138968565E+03  0.50400001928E-02 0. -1.
        1   -1    0    0  501    0  0.00000000000E+00  0.00000000000E+00 -0.12693068886E+04  0.12693068886E+04  0.50400001928E-02 0.  1.
    10030    2    1    2    0    0  0.00000000000E+00  0.00000000000E+00 -0.34791720298E+03  0.21906965743E+04  0.21628927621E+04 0.  0.
        3    1    3    3  502    0  0.10455259716E+04 -0.34356856864E+02  0.10383209701E+03  0.10512307384E+04  0.10100000352E+00 0. -1.
       -3    1    3    3    0  502 -0.10455259716E+04  0.34356856864E+02 -0.45174929999E+03  0.11394658359E+04  0.10100000352E+00 0.  1.
</event>
<event>
 5   0  0.5462851E-05  0.2083810E+04  0.7818609E-02  0.8568409E-01
       -2   -1    0    0    0  501  0.00000000000E+00  0.00000000000E+00  0.67607478630E+03  0.67607478630E+03  0.25500000920E-02 0.  1.
        2   -1    0    0  501    0  0.00000000000E+00  0.00000000000E+00 -0.16056898296E+04  0.16056898296E+04  0.25500000920E-02 0. -1.
    10030    2    1    2    0    0  0.00000000000E+00  0.00000000000E+00 -0.92961504328E+03  0.22817646159E+04  0.20838103641E+04 0.  0.
        1    1    3    3  502    0 -0.61190966637E+03 -0.81936224949E+03 -0.24641553477E+03  0.10519071021E+04  0.50400001928E-02 0.  1.
       -1    1    3    3    0  502  0.61190966637E+03  0.81936224949E+03 -0.68319950851E+03  0.12298575138E+04  0.50400001928E-02 0. -1.
</event>
<event>
 5   0  0.2604390E-05  0.2104740E+04  0.7818609E-02  0.8559158E-01
        1   -1    0    0  501    0  0.00000000000E+00  0.00000000000E+00  0.14022740365E+04  0.14022740365E+04  0.50400001928E-02 0. -1.
       -1   -1    0    0    0  501  0.00000000000E+00  0.00000000000E+00 -0.78977622648E+03  0.78977622649E+03  0.50400001928E-02 0.  1.
    10030    2    1    2    0    0  0.00000000000E+00  0.00000000000E+00  0.61249781003E+03  0.21920502630E+04  0.21047400762E+04 0.  0.
        5    1    3    3  502    0 -0.77522386978E+03 -0.66913875848E+03  0.53827627091E+02  0.10254941393E+04  0.46999998093E+01 0.  1.
       -5    1    3    3    0  502  0.77522386978E+03  0.66913875848E+03  0.55867018294E+03  0.11665561237E+04  0.46999998093E+01 0. -1.
</event>
<event>
 5   0  0.2602060E-05  0.2121796E+04  0.7818609E-02  0.8551702E-01
       -1   -1    0    0    0  501  0.00000000000E+00  0.00000000000E+00  0.85299879721E+03  0.85299879722E+03  0.50400001928E-02 0.  1.
        1   -1    0    0  501    0  0.00000000000E+00  0.00000000000E+00 -0.13194683104E+04  0.13194683104E+04  0.50400001928E-02 0. -1.
    10030    2    1    2    0    0  0.00000000000E+00  0.00000000000E+00 -0.46646951323E+03  0.21724671077E+04  0.21217962973E+04 0.  0.
        1    1    3    3  502    0  0.24916296219E+03  0.76481962456E+03 -0.94147162637E+03  0.12383053190E+04  0.50400001928E-02 0. -1.
       -1    1    3    3    0  502 -0.24916296219E+03 -0.76481962456E+03  0.47500211314E+03  0.93416178864E+03  0.50400001928E-02 0.  1.
</event>
<event>
 5   0  0.2732159E-05  0.2098475E+04  0.7818609E-02  0.8561915E-01
        1   -1    0    0  501    0  0.00000000000E+00  0.00000000000E+00  0.11656225422E+04  0.11656225422E+04  0.50400001928E-02 0.  1.
       -1   -1    0    0    0  501  0.00000000000E+00  0.00000000000E+00 -0.94447335294E+03  0.94447335295E+03  0.50400001928E-02 0. -1.
    10030    2    1    2    0    0  0.00000000000E+00  0.00000000000E+00  0.22114918923E+03  0.21100958951E+04  0.20984750946E+04 0.  0.
        3    1    3    3  502    0  0.70615155486E+02  0.74302144161E+03  0.85210809452E+03  0.11327645730E+04  0.10100000352E+00 0.  1.
       -3    1    3    3    0  502 -0.70615155486E+02 -0.74302144161E+03 -0.63095890528E+03  0.97733132214E+03  0.10100000352E+00 0. -1.
</event>
<event>
 5   0  0.2789662E-05  0.2102924E+04  0.7818609E-02  0.8559956E-01
       -1   -1    0    0    0  501  0.00000000000E+00  0.00000000000E+00  0.10281264763E+04  0.10281264763E+04  0.50400001928E-02 0.  1.
        1   -1    0    0  501    0  0.00000000000E+00  0.00000000000E+00 -0.10753272160E+04  0.10753272160E+04  0.50400001928E-02 0. -1.
    10030    2    1    2    0    0  0.00000000000E+00  0.00000000000E+00 -0.47200739693E+02  0.21034536923E+04  0.21029240419E+04 0.  0.
        4    1    3    3  502    0 -0.86862732391E+03 -0.53989579126E+03  0.22053050916E+03  0.10462486376E+04  0.12699999809E+01 0. -1.
       -4    1    3    3    0  502  0.86862732391E+03  0.53989579126E+03 -0.26773124885E+03  0.10572050547E+04  0.12699999809E+01 0.  1.
</event>
<event>
 5   0  0.2732159E-05  0.2091896E+04  0.7818609E-02  0.8564822E-01
        1   -1    0    0  501    0  0.00000000000E+00  0.00000000000E+00  0.19405845168E+04  0.19405845168E+04  0.50400001928E-02 0.  1.
       -1   -1    0    0    0  501  0.00000000000E+00  0.00000000000E+00 -0.56375133726E+03  0.56375133728E+03  0.50400001928E-02 0. -1.
    10030    2    1    2    0    0  0.00000000000E+00  0.00000000000E+00  0.13768331796E+04  0.25043358541E+04  0.20918959023E+04 0.  0.
        3    1    3    3  502    0  0.11898359401E+03 -0.56510304995E+03 -0.35559315782E+03  0.67819249244E+03  0.10100000352E+00 0. -1.
       -3    1    3    3    0  502 -0.11898359401E+03  0.56510304995E+03  0.17324263374E+04  0.18261433617E+04  0.10100000352E+00 0.  1.
</event>
<event>
 5   0  0.5462851E-05  0.2090130E+04  0.7818609E-02  0.8565604E-01
       -2   -1    0    0    0  501  0.00000000000E+00  0.00000000000E+00  0.78599281579E+03  0.78599281579E+03  0.25500000920E-02 0.  1.
        2   -1    0    0  501    0  0.00000000000E+00  0.00000000000E+00 -0.13895301441E+04  0.13895301441E+04  0.25500000920E-02 0. -1.
    10030    2    1    2    0    0  0.00000000000E+00  0.00000000000E+00 -0.60353732832E+03  0.21755229599E+04  0.20901298626E+04 0.  0.
        1    1    3    3  502    0  0.46040293772E+03  0.36928666892E+03 -0.11994527162E+04  0.13367985365E+04  0.50400001928E-02 0. -1.
       -1    1    3    3    0  502 -0.46040293772E+03 -0.36928666892E+03  0.59591538783E+03  0.83872442339E+03  0.50400001928E-02 0.  1.
</event>
<event>
 5   0  0.5506332E-05  0.2091888E+04  0.7818609E-02  0.8564825E-01
       -2   -1    0    0    0  501  0.00000000000E+00  0.00000000000E+00  0.15170623180E+04  0.15170623180E+04  0.25500000920E-02 0. -1.
        2   -1    0    0  501    0  0.00000000000E+00  0.00000000000E+00 -0.72113012297E+03  0.72113012297E+03  0.25500000920E-02 0.  1.
    10030    2    1    2    0    0  0.00000000000E+00  0.00000000000E+00  0.79593219501E+03  0.22381924409E+04  0.20918884635E+04 0.  0.
        3    1    3    3  502    0 -0.16392234567E+03  0.37903499088E+03 -0.63021174811E+03  0.75346195483E+03  0.10100000352E+00 0.  1.
       -3    1    3    3    0  502  0.16392234567E+03 -0.37903499088E+03  0.14261439431E+04  0.14847304861E+04  0.10100000352E+00 0. -1.
</event>
<event>
 5   0  0.2732159E-05  0.2091422E+04  0.7818609E-02  0.8565032E-01
        1   -1    0    0  501    0  0.00000000000E+00  0.00000000000E+00  0.11635112978E+04  0.11635112978E+04  0.50400001928E-02 0. -1.
       -1   -1    0    0    0  501  0.00000000000E+00  0.00000000000E+00 -0.93983740061E+03  0.93983740063E+03  0.50400001928E-02 0.  1.
    10030    2    1    2    0    0  0.00000000000E+00  0.00000000000E+00  0.22367389717E+03  0.21033486984E+04  0.20914219409E+04 0.  0.
        3    1    3    3  502    0 -0.28246974127E+02  0.84093519184E+03 -0.51262388343E+03  0.98526805717E+03  0.10100000352E+00 0.  1.
       -3    1    3    3    0  502  0.28246974127E+02 -0.84093519184E+03  0.73629778060E+03  0.11180806413E+04  0.10100000352E+00 0. -1.
</event>
<event>
 5   0  0.2017750E-05  0.2059909E+04  0.7818609E-02  0.8579112E-01
       -4   -1    0    0    0  501  0.00000000000E+00  0.00000000000E+00  0.10071428329E+04  0.10071436336E+04  0.12699999809E+01 0. -1.
        4   -1    0    0  501    0  0.00000000000E+00  0.00000000000E+00 -0.10532811679E+04  0.10532819336E+04  0.12699999809E+01 0.  1.
    10030    2    1    2    0    0  0.00000000000E+00  0.00000000000E+00 -0.46138335090E+02  0.20604255672E+04  0.20599089232E+04 0.  0.
        3    1    3    3  502    0 -0.17665009200E+03  0.96869385968E+03  0.27905482016E+03  0.10234474347E+04  0.10100000352E+00 0. -1.
       -3    1    3    3    0  502  0.17665009200E+03 -0.96869385968E+03 -0.32519315525E+03  0.10369781325E+04  0.10100000352E+00 0.  1.
</event>
<event>
 5   0  0.2789662E-05  0.2101187E+04  0.7818609E-02  0.8560721E-01
       -1   -1    0    0    0  501  0.00000000000E+00  0.00000000000E+00  0.20077672281E+04  0.20077672281E+04  0.50400001928E-02 0. -1.
        1   -1    0    0  501    0  0.00000000000E+00  0.00000000000E+00 -0.54973822033E+03  0.54973822035E+03  0.50400001928E-02 0.  1.
    10030    2    1    2    0    0  0.00000000000E+00  0.00000000000E+00  0.14580290077E+04  0.25575054484E+04  0.21011866960E+04 0.  0.
        4    1    3    3  502    0 -0.79719382340E+03 -0.40274734673E+03  0.55684774153E+02  0.89488872177E+03  0.12699999809E+01 0. -1.
       -4    1    3    3    0  502  0.79719382340E+03  0.40274734673E+03  0.14023442336E+04  0.16626167266E+04  0.12699999809E+01 0.  1.
</event>
<event>
 5   0  0.2699285E-05  0.2121611E+04  0.7818609E-02  0.8551783E-01
        1   -1    0    0  501    0  0.00000000000E+00  0.00000000000E+00  0.68249102697E+03  0.68249102699E+03  0.50400001928E-02 0. -1.
       -1   -1    0    0    0  501  0.00000000000E+00  0.00000000000E+00 -0.16488252409E+04  0.16488252409E+04  0.50400001928E-02 0.  1.
    10030    2    1    2    0    0  0.00000000000E+00  0.00000000000E+00 -0.96633421390E+03  0.23313162679E+04  0.21216111161E+04 0.  0.
        2    1    3    3  502    0  0.63087188119E+01  0.37070545712E+03 -0.15753114885E+04  0.16183536764E+04  0.25500000920E-02 0.  1.
       -2    1    3    3    0  502 -0.63087188119E+01 -0.37070545712E+03  0.60897727463E+03  0.71296259152E+03  0.25500000920E-02 0. -1.
</event>
<event>
 5   0  0.2602060E-05  0.2094546E+04  0.7818609E-02  0.8563650E-01
        1   -1    0    0  501    0  0.00000000000E+00  0.00000000000E+00  0.91919772695E+03  0.91919772696E+03  0.50400001928E-02 0. -1.
       -1   -1    0    0    0  501  0.00000000000E+00  0.00000000000E+00 -0.11931940284E+04  0.11931940284E+04  0.50400001928E-02 0.  1.
    10030    2    1    2    0    0  0.00000000000E+00  0.00000000000E+00 -0.27399630149E+03  0.21123917554E+04  0.20945464796E+04 0.  0.
        1    1    3    3  502    0  0.39161563053E+03 -0.25318854623E+03  0.80870852507E+03  0.93352917499E+03  0.50400001928E-02 0. -1.
       -1    1    3    3    0  502 -0.39161563053E+03  0.25318854623E+03 -0.10827048266E+04  0.11788625804E+04  0.50400001928E-02 0.  1.
</event>
<event>
 5   0  0.2604390E-05  0.2182006E+04  0.7818609E-02  0.8525955E-01
       -1   -1    0    0    0  501  0.00000000000E+00  0.00000000000E+00  0.64794061993E+03  0.64794061995E+03  0.50400001928E-02 0.  1.
        1   -1    0    0  501    0  0.00000000000E+00  0.00000000000E+00 -0.18370320454E+04  0.18370320454E+04  0.50400001928E-02 0. -1.
    10030    2    1    2    0    0  0.00000000000E+00  0.00000000000E+00 -0.11890914255E+04  0.24849726653E+04  0.21820061250E+04 0.  0.
        5    1    3    3  502    0  0.54489803813E+03  0.53955303589E+03  0.28924284197E+03  0.81958212653E+03  0.46999998093E+01 0.  1.
       -5    1    3    3    0  502 -0.54489803813E+03 -0.53955303589E+03 -0.14783342674E+04  0.16653905388E+04  0.46999998093E+01 0. -1.
</event>
<event>
 5   0  0.5866610E-05  0.2100327E+04  0.7818609E-02  0.8561100E-01
       -2   -1    0    0    0  501  0.00000000000E+00  0.00000000000E+00  0.42373056665E+03  0.42373056666E+03  0.25500000920E-02 0.  1.
        2   -1    0    0  501    0  0.00000000000E+00  0.00000000000E+00 -0.26026983684E+04  0.26026983684E+04  0.25500000920E-02 0. -1.
    10030    2    1    2    0    0  0.00000000000E+00  0.00000000000E+00 -0.21789678018E+04  0.30264289351E+04  0.21003265027E+04 0.  0.
        5    1    3    3  502    0 -0.60834699427E+03 -0.76597156694E+03 -0.16401054418E+04  0.19096508731E+04  0.46999998093E+01 0. -1.
       -5    1    3    3    0  502  0.60834699427E+03  0.76597156694E+03 -0.53886235997E+03  0.11167780620E+04  0.46999998093E+01 0.  1.
</event>
<event>
 5   0  0.5967046E-05  0.2123210E+04  0.7818609E-02  0.8551087E-01
        2   -1    0    0  501    0  0.00000000000E+00  0.00000000000E+00  0.76713910333E+03  0.76713910333E+03  0.25500000920E-02 0.  1.
       -2   -1    0    0    0  501  0.00000000000E+00  0.00000000000E+00 -0.14691019176E+04  0.14691019176E+04  0.25500000920E-02 0. -1.
    10030    2    1    2    0    0  0.00000000000E+00  0.00000000000E+00 -0.70196281427E+03  0.22362410209E+04  0.21232103313E+04 0.  0.
        4    1    3    3  502    0 -0.45550796417E+03  0.24890149147E+03 -0.13263280139E+04  0.14242847578E+04  0.12699999809E+01 0. -1.
       -4    1    3    3    0  502  0.45550796417E+03 -0.24890149147E+03  0.62436519962E+03  0.81195626316E+03  0.12699999809E+01 0.  1.
</event>
<event>
 5   0  0.2604390E-05  0.2086478E+04  0.7818609E-02  0.8567223E-01
        1   -1    0    0  501    0  0.00000000000E+00  0.00000000000E+00  0.10717144045E+04  0.10717144045E+04  0.50400001928E-02 0. -1.
       -1   -1    0    0    0  501  0.00000000000E+00  0.00000000000E+00 -0.10155203371E+04  0.10155203371E+04  0.50400001928E-02 0.  1.
    10030    2    1    2    0    0  0.00000000000E+00  0.00000000000E+00  0.56194067349E+02  0.20872347416E+04  0.20864781555E+04 0.  0.
        5    1    3    3  502    0  0.71074516575E+02  0.61526076164E+03  0.86788240680E+03  0.10662266897E+04  0.46999998093E+01 0. -1.
       -5    1    3    3    0  502 -0.71074516575E+02 -0.61526076164E+03 -0.81168833945E+03  0.10210080519E+04  0.46999998093E+01 0.  1.
</event>
<event>
 5   0  0.2017750E-05  0.2073718E+04  0.7818609E-02  0.8572910E-01
       -3   -1    0    0    0  501  0.00000000000E+00  0.00000000000E+00  0.81096357992E+03  0.81096358621E+03  0.10100000352E+00 0.  1.
        3   -1    0    0  501    0  0.00000000000E+00  0.00000000000E+00 -0.13256780564E+04  0.13256780603E+04  0.10100000352E+00 0. -1.
    10030    2    1    2    0    0  0.00000000000E+00  0.00000000000E+00 -0.51471447650E+03  0.21366416465E+04  0.20737180457E+04 0.  0.
        5    1    3    3  502    0  0.85762672420E+03 -0.48682265391E+02  0.34091746146E+03  0.92419714702E+03  0.46999998093E+01 0.  1.
       -5    1    3    3    0  502 -0.85762672420E+03  0.48682265391E+02 -0.85563193796E+03  0.12124444995E+04  0.46999998093E+01 0. -1.
</event>
<event>
 5   0  0.5506332E-05  0.2102492E+04  0.7818609E-02  0.8560146E-01
       -2   -1    0    0    0  501  0.00000000000E+00  0.00000000000E+00  0.44168737478E+03  0.44168737479E+03  0.25500000920E-02 0. -1.
        2   -1    0    0  501    0  0.00000000000E+00  0.00000000000E+00 -0.25020370020E+04  0.25020370020E+04  0.25500000920E-02 0.  1.
    10030    2    1    2    0    0  0.00000000000E+00  0.00000000000E+00 -0.20603496272E+04  0.29437243768E+04  0.21024920024E+04 0.  0.
        3    1    3    3  502    0 -0.75986286674E+03  0.27141605312E+03 -0.19736258454E+04  0.21321954034E+04  0.10100000352E+00 0.  1.
       -3    1    3    3    0  502  0.75986286674E+03 -0.27141605312E+03 -0.86723781750E+02  0.81152897340E+03  0.10100000352E+00 0. -1.
</event>
<event>
 5   0  0.5967046E-05  0.2086227E+04  0.7818609E-02  0.8567335E-01
        2   -1    0    0  501    0  0.00000000000E+00  0.00000000000E+00  0.94049240799E+03  0.94049240799E+03  0.25500000920E-02 0. -1.
       -2   -1    0    0    0  501  0.00000000000E+00  0.00000000000E+00 -0.11569323583E+04  0.11569323583E+04  0.25500000920E-02 0.  1.
    10030    2    1    2    0    0  0.00000000000E+00  0.00000000000E+00 -0.21643995035E+03  0.20974247663E+04  0.20862273122E+04 0.  0.
        4    1    3    3  502    0  0.50174074589E+03 -0.88726682391E+03  0.11455067134E+03  0.10257239697E+04  0.12699999809E+01 0. -1.
       -4    1    3    3    0  502 -0.50174074589E+03  0.88726682391E+03 -0.33099062168E+03  0.10717007966E+04  0.12699999809E+01 0.  1.
</event>
<event>
 5   0  0.5967046E-05  0.2093334E+04  0.7818609E-02  0.8564186E-01
        2   -1    0    0  501    0  0.00000000000E+00  0.00000000000E+00  0.29126795479E+04  0.29126795479E+04  0.25500000920E-02 0. -1.
       -2   -1    0    0    0  501  0.00000000000E+00  0.00000000000E+00 -0.37611817405E+03  0.37611817406E+03  0.25500000920E-02 0.  1.
    10030    2    1    2    0    0  0.00000000000E+00  0.00000000000E+00  0.25365613738E+04  0.32887977220E+04  0.20933339086E+04 0.  0.
        4    1    3    3  502    0 -0.11405634196E+03  0.64060525790E+02 -0.36322311746E+03  0.38606378497E+03  0.12699999809E+01 0.  1.
       -4    1    3    3    0  502  0.11405634196E+03 -0.64060525790E+02  0.28997844913E+04  0.29027339370E+04  0.12699999809E+01 0. -1.
</event>
<event>
 5   0  0.2602060E-05  0.2098650E+04  0.7818609E-02  0.8561838E-01
       -1   -1    0    0    0  501  0.00000000000E+00  0.00000000000E+00  0.61494328317E+03  0.61494328319E+03  0.50400001928E-02 0.  1.
        1   -1    0    0  501    0  0.00000000000E+00  0.00000000000E+00 -0.17905432544E+04  0.17905432544E+04  0.50400001928E-02 0. -1.
    10030    2    1    2    0    0  0.00000000000E+00  0.00000000000E+00 -0.11755999712E+04  0.24054865376E+04  0.20986496111E+04 0.  0.
        1    1    3    3  502    0 -0.44017532920E+02 -0.37513893972E+03 -0.17099217176E+04  0.17511422123E+04  0.50400001928E-02 0. -1.
       -1    1    3    3    0  502  0.44017532920E+02  0.37513893972E+03  0.53432174641E+03  0.65434432527E+03  0.50400001928E-02 0.  1.
</event>
<event>
 5   0  0.2604390E-05  0.2091566E+04  0.7818609E-02  0.8564968E-01
        1   -1    0    0  501    0  0.00000000000E+00  0.00000000000E+00  0.17116388987E+04  0.17116388987E+04  0.50400001928E-02 0. -1.
       -1   -1    0    0    0  501  0.00000000000E+00  0.00000000000E+00 -0.63895604040E+03  0.63895604042E+03  0.50400001928E-02 0.  1.
    10030    2    1    2    0    0  0.00000000000E+00  0.00000000000E+00  0.10726828583E+04  0.23505949391E+04  0.20915659333E+04 0.  0.
        5    1    3    3  502    0  0.41979664720E+03  0.60598330523E+02  0.16106207326E+04  0.16655397374E+04  0.46999998093E+01 0. -1.
       -5    1    3    3    0  502 -0.41979664720E+03 -0.60598330523E+02 -0.53793787435E+03  0.68505520166E+03  0.46999998093E+01 0.  1.
</event>
<event>
 5   0  0.2732159E-05  0.2109514E+04  0.7818609E-02  0.8557064E-01
        1   -1    0    0  501    0  0.00000000000E+00  0.00000000000E+00  0.16727536737E+04  0.16727536737E+04  0.50400001928E-02 0. -1.
       -1   -1    0    0    0  501  0.00000000000E+00  0.00000000000E+00 -0.66507815301E+03  0.66507815303E+03  0.50400001928E-02 0.  1.
    10030    2    1    2    0    0  0.00000000000E+00  0.00000000000E+00  0.10076755207E+04  0.23378318268E+04  0.21095136158E+04 0.  0.
        3    1    3    3  502    0 -0.37202513743E+03  0.97791664650E+03  0.35602992274E+03  0.11052063095E+04  0.10100000352E+00 0. -1.
       -3    1    3    3    0  502  0.37202513743E+03 -0.97791664650E+03  0.65164559799E+03  0.12326255173E+04  0.10100000352E+00 0.  1.
</event>
<event>
 5   0  0.5462851E-05  0.1847168E+04  0.7818609E-02  0.8681610E-01
       -2   -1    0    0    0  501  0.00000000000E+00  0.00000000000E+00  0.31485052555E+03  0.31485052556E+03  0.25500000920E-02 0.  1.
        2   -1    0    0  501    0  0.00000000000E+00  0.00000000000E+00 -0.27092466800E+04  0.27092466800E+04  0.25500000920E-02 0. -1.
    10030    2    1    2    0    0  0.00000000000E+00  0.00000000000E+00 -0.23943961544E+04  0.30240972055E+04  0.18471683638E+04 0.  0.
        1    1    3    3  502    0 -0.14587587860E+03  0.78789188242E+03 -0.19491386317E+04  0.21074142440E+04  0.50400001928E-02 0. -1.
       -1    1    3    3    0  502  0.14587587860E+03 -0.78789188242E+03 -0.44525752273E+03  0.91668296151E+03  0.50400001928E-02 0.  1.
</event>
<event>
 5   0  0.2789662E-05  0.2095536E+04  0.7818609E-02  0.8563212E-01
        1   -1    0    0  501    0  0.00000000000E+00  0.00000000000E+00  0.39044406606E+03  0.39044406610E+03  0.50400001928E-02 0.  1.
       -1   -1    0    0    0  501  0.00000000000E+00  0.00000000000E+00 -0.28117166737E+04  0.28117166737E+04  0.50400001928E-02 0. -1.
    10030    2    1    2    0    0  0.00000000000E+00  0.00000000000E+00 -0.24212726077E+04  0.32021607398E+04  0.20955362949E+04 0.  0.
        4    1    3    3  502    0 -0.37905584827E+02 -0.10412678611E+04 -0.10422630399E+04  0.14737670946E+04  0.12699999809E+01 0.  1.
       -4    1    3    3    0  502  0.37905584827E+02  0.10412678611E+04 -0.13790095678E+04  0.17283936452E+04  0.12699999809E+01 0. -1.
</event>
<event>
 5   0  0.5506332E-05  0.2098331E+04  0.7818609E-02  0.8561979E-01
       -2   -1    0    0    0  501  0.00000000000E+00  0.00000000000E+00  0.34169649123E+03  0.34169649124E+03  0.25500000920E-02 0.  1.
        2   -1    0    0  501    0  0.00000000000E+00  0.00000000000E+00 -0.32214218862E+04  0.32214218862E+04  0.25500000920E-02 0. -1.
    10030    2    1    2    0    0  0.00000000000E+00  0.00000000000E+00 -0.28797253950E+04  0.35631183775E+04  0.20983312944E+04 0.  0.
        3    1    3    3  502    0  0.36635775894E+03 -0.90402504229E+03 -0.78380598397E+03  0.12513317367E+04  0.10100000352E+00 0.  1.
       -3    1    3    3    0  502 -0.36635775894E+03  0.90402504229E+03 -0.20959194110E+04  0.23117866407E+04  0.10100000352E+00 0. -1.
</event>
<event>
 5   0  0.2604390E-05  0.2088308E+04  0.7818609E-02  0.8566411E-01
       -1   -1    0    0    0  501  0.00000000000E+00  0.00000000000E+00  0.75943868594E+03  0.75943868596E+03  0.50400001928E-02 0.  1.
        1   -1    0    0  501    0  0.00000000000E+00  0.00000000000E+00 -0.14356093560E+04  0.14356093560E+04  0.50400001928E-02 0. -1.
    10030    2    1    2    0    0  0.00000000000E+00  0.00000000000E+00 -0.67617067009E+03  0.21950480420E+04  0.20883077196E+04 0.  0.
        5    1    3    3  502    0  0.67022551722E+03 -0.57620662435E+03  0.24622294363E+03  0.91753155032E+03  0.46999998093E+01 0.  1.
       -5    1    3    3    0  502 -0.67022551722E+03  0.57620662435E+03 -0.92239361372E+03  0.12775164917E+04  0.46999998093E+01 0. -1.
</event>
<event>
 5   0  0.5506332E-05  0.2112128E+04  0.7818609E-02  0.8555920E-01
        2   -1    0    0  501    0  0.00000000000E+00  0.00000000000E+00  0.16898356441E+04  0.16898356441E+04  0.25500000920E-02 0. -1.
       -2   -1    0    0    0  501  0.00000000000E+00  0.00000000000E+00 -0.65998787791E+03  0.65998787792E+03  0.25500000920E-02 0.  1.
    10030    2    1    2    0    0  0.00000000000E+00  0.00000000000E+00  0.10298477662E+04  0.23498235221E+04  0.21121278757E+04 0.  0.
        3    1    3    3  502    0  0.22569567983E+03  0.10953707959E+03 -0.62635521675E+03  0.67472792995E+03  0.10100000352E+00 0.  1.
       -3    1    3    3    0  502 -0.22569567983E+03 -0.10953707959E+03  0.16562029830E+04  0.16750955921E+04  0.10100000352E+00 0. -1.
</event>
<event>
 5   0  0.5462851E-05  0.2103952E+04  0.7818609E-02  0.8559505E-01
        2   -1    0    0  501    0  0.00000000000E+00  0.00000000000E+00  0.63261468812E+03  0.63261468812E+03  0.25500000920E-02 0.  1.
       -2   -1    0    0    0  501  0.00000000000E+00  0.00000000000E+00 -0.17493322591E+04  0.17493322591E+04  0.25500000920E-02 0. -1.
    10030    2    1    2    0    0  0.00000000000E+00  0.00000000000E+00 -0.11167175710E+04  0.23819469473E+04  0.21039517880E+04 0.  0.
        1    1    3    3  502    0 -0.10357439053E+04 -0.15275622469E+03 -0.44205547168E+03  0.11364475094E+04  0.50400001928E-02 0. -1.
       -1    1    3    3    0  502  0.10357439053E+04  0.15275622469E+03 -0.67466209935E+03  0.12454994379E+04  0.50400001928E-02 0.  1.
</event>
<event>
 5   0  0.2604390E-05  0.1962702E+04  0.7818609E-02  0.8624260E-01
        1   -1    0    0  501    0  0.00000000000E+00  0.00000000000E+00  0.11824732338E+04  0.11824732338E+04  0.50400001928E-02 0.  1.
       -1   -1    0    0    0  501  0.00000000000E+00  0.00000000000E+00 -0.81443713510E+03  0.81443713511E+03  0.50400001928E-02 0. -1.
    10030    2    1    2    0    0  0.00000000000E+00  0.00000000000E+00  0.36803609873E+03  0.19969103689E+04  0.19627023339E+04 0.  0.
        5    1    3    3  502    0 -0.82360282137E+03  0.17017140235E+03 -0.33051153291E+03  0.90362596074E+03  0.46999998093E+01 0. -1.
       -5    1    3    3    0  502  0.82360282137E+03 -0.17017140235E+03  0.69854763164E+03  0.10932844082E+04  0.46999998093E+01 0.  1.
</event>
<event>
 5   0  0.2699285E-05  0.2114961E+04  0.7818609E-02  0.8554682E-01
        1   -1    0    0  501    0  0.00000000000E+00  0.00000000000E+00  0.10605540048E+04  0.10605540048E+04  0.50400001928E-02 0.  1.
       -1   -1    0    0    0  501  0.00000000000E+00  0.00000000000E+00 -0.10544155895E+04  0.10544155895E+04  0.50400001928E-02 0. -1.
    10030    2    1    2    0    0  0.00000000000E+00  0.00000000000E+00  0.61384152901E+01  0.21149695943E+04  0.21149606863E+04 0.  0.
        2    1    3    3  502    0  0.18407872939E+03 -0.34548441705E+03  0.98542776960E+03  0.10603359610E+04  0.25500000920E-02 0.  1.
       -2    1    3    3    0  502 -0.18407872939E+03  0.34548441705E+03 -0.97928935431E+03  0.10546336333E+04  0.25500000920E-02 0. -1.
</event>
<event>
 5   0  0.5954140E-05  0.2109557E+04  0.7818609E-02  0.8557045E-01
        2   -1    0    0  501    0  0.00000000000E+00  0.00000000000E+00  0.14269621278E+04  0.14269621278E+04  0.25500000920E-02 0.  1.
       -2   -1    0    0    0  501  0.00000000000E+00  0.00000000000E+00 -0.77966875659E+03  0.77966875659E+03  0.25500000920E-02 0. -1.
    10030    2    1    2    0    0  0.00000000000E+00  0.00000000000E+00  0.64729337117E+03  0.22066308844E+04  0.21095570984E+04 0.  0.
        2    1    3    3  502    0 -0.58185144823E+03 -0.28551629553E+03 -0.54680417550E+03  0.84797728104E+03  0.25500000920E-02 0. -1.
       -2    1    3    3    0  502  0.58185144823E+03  0.28551629553E+03  0.11940975467E+04  0.13586536033E+04  0.25500000920E-02 0.  1.
</event>
<event>
 5   0  0.5954140E-05  0.2085104E+04  0.7818609E-02  0.8567834E-01
       -2   -1    0    0    0  501  0.00000000000E+00  0.00000000000E+00  0.64933289413E+03  0.64933289414E+03  0.25500000920E-02 0. -1.
        2   -1    0    0  501    0  0.00000000000E+00  0.00000000000E+00 -0.16738945471E+04  0.16738945471E+04  0.25500000920E-02 0.  1.
    10030    2    1    2    0    0  0.00000000000E+00  0.00000000000E+00 -0.10245616530E+04  0.23232274412E+04  0.20851041132E+04 0.  0.
        2    1    3    3  502    0  0.67352685129E+03  0.64470303221E+03  0.75089420787E+01  0.93238232682E+03  0.25500000920E-02 0. -1.
       -2    1    3    3    0  502 -0.67352685129E+03 -0.64470303221E+03 -0.10320705951E+04  0.13908451144E+04  0.25500000920E-02 0.  1.
</event>
<event>
 5   0  0.2732159E-05  0.2100320E+04  0.7818609E-02  0.8561102E-01
        1   -1    0    0  501    0  0.00000000000E+00  0.00000000000E+00  0.79419761005E+03  0.79419761007E+03  0.50400001928E-02 0.  1.
       -1   -1    0    0    0  501  0.00000000000E+00  0.00000000000E+00 -0.13886169954E+04  0.13886169954E+04  0.50400001928E-02 0. -1.
    10030    2    1    2    0    0  0.00000000000E+00  0.00000000000E+00 -0.59441938539E+03  0.21828146055E+04  0.21003202604E+04 0.  0.
        3    1    3    3  502    0  0.57660014073E+03  0.82385380182E+03 -0.61180947589E+03  0.11770784401E+04  0.10100000352E+00 0. -1.
       -3    1    3    3    0  502 -0.57660014073E+03 -0.82385380182E+03  0.17390090508E+02  0.10057361655E+04  0.10100000352E+00 0.  1.
</event>
<event>
 5   0  0.2699285E-05  0.2112778E+04  0.7818609E-02  0.8555636E-01
       -1   -1    0    0    0  501  0.00000000000E+00  0.00000000000E+00  0.88306565992E+03  0.88306565994E+03  0.50400001928E-02 0. -1.
        1   -1    0    0  501    0  0.00000000000E+00  0.00000000000E+00 -0.12637308263E+04  0.12637308263E+04  0.50400001928E-02 0.  1.
    10030    2    1    2    0    0  0.00000000000E+00  0.00000000000E+00 -0.38066516636E+03  0.21467964862E+04  0.21127775994E+04 0.  0.
        2    1    3    3  502    0  0.99423823539E+03  0.20833216156E+03  0.10424107344E+03  0.10211650991E+04  0.25500000920E-02 0.  1.
       -2    1    3    3    0  502 -0.99423823539E+03 -0.20833216156E+03 -0.48490623980E+03  0.11256313871E+04  0.25500000920E-02 0. -1.
</event>
<event>
 5   0  0.5462851E-05  0.2100546E+04  0.7818609E-02  0.8561003E-01
       -2   -1    0    0    0  501  0.00000000000E+00  0.00000000000E+00  0.40847754915E+03  0.40847754916E+03  0.25500000920E-02 0. -1.
        2   -1    0    0  501    0  0.00000000000E+00  0.00000000000E+00 -0.27004496506E+04  0.27004496506E+04  0.25500000920E-02 0.  1.
    10030    2    1    2    0    0  0.00000000000E+00  0.00000000000E+00 -0.22919721014E+04  0.31089271997E+04  0.21005456957E+04 0.  0.
        1    1    3    3  502    0  0.79560975382E+03  0.53050241397E+03 -0.50314813200E+03  0.10805488117E+04  0.50400001928E-02 0. -1.
       -1    1    3    3    0  502 -0.79560975382E+03 -0.53050241397E+03 -0.17888239694E+04  0.20283783881E+04  0.50400001928E-02 0.  1.
</event>
<event>
 5   0  0.2789662E-05  0.2093890E+04  0.7818609E-02  0.8563940E-01
       -1   -1    0    0    0  501  0.00000000000E+00  0.00000000000E+00  0.63049541281E+03  0.63049541283E+03  0.50400001928E-02 0. -1.
        1   -1    0    0  501    0  0.00000000000E+00  0.00000000000E+00 -0.17384648430E+04  0.17384648431E+04  0.50400001928E-02 0.  1.
    10030    2    1    2    0    0  0.00000000000E+00  0.00000000000E+00 -0.11079694302E+04  0.23689602559E+04  0.20938902635E+04 0.  0.
        4    1    3    3  502    0 -0.48571115586E+03  0.91972733096E+03 -0.41879308653E+03  0.11212506198E+04  0.12699999809E+01 0.  1.
       -4    1    3    3    0  502  0.48571115586E+03 -0.91972733096E+03 -0.68917634371E+03  0.12477096360E+04  0.12699999809E+01 0. -1.
</event>
<event>
 5   0  0.5462851E-05  0.2082784E+04  0.7818609E-02  0.8568866E-01
       -2   -1    0    0    0  501  0.00000000000E+00  0.00000000000E+00  0.55517745264E+03  0.55517745264E+03  0.25500000920E-02 0.  1.
        2   -1    0    0  501    0  0.00000000000E+00  0.00000000000E+00 -0.19534236835E+04  0.19534236835E+04  0.25500000920E-02 0. -1.
    10030    2    1    2    0    0  0.00000000000E+00  0.00000000000E+00 -0.13982462309E+04  0.25086011362E+04  0.20827835073E+04 0.  0.
        1    1    3    3  502    0  0.46472385378E+03  0.89948683008E+03 -0.40544566731E+03  0.10906103827E+04  0.50400001928E-02 0. -1.
       -1    1    3    3    0  502 -0.46472385378E+03 -0.89948683008E+03 -0.99280056358E+03  0.14179907534E+04  0.50400001928E-02 0.  1.
</event>
<event>
 5   0  0.2602060E-05  0.2109865E+04  0.7818609E-02  0.8556910E-01
        1   -1    0    0  501    0  0.00000000000E+00  0.00000000000E+00  0.14735856267E+04  0.14735856267E+04  0.50400001928E-02 0. -1.
       -1   -1    0    0    0  501  0.00000000000E+00  0.00000000000E+00 -0.75522091815E+03  0.75522091817E+03  0.50400001928E-02 0.  1.
    10030    2    1    2    0    0  0.00000000000E+00  0.00000000000E+00  0.71836470858E+03  0.22288065449E+04  0.21098651047E+04 0.  0.
        1    1    3    3  502    0  0.34008997028E+03 -0.54573076768E+03  0.12426289925E+04  0.13991461939E+04  0.50400001928E-02 0. -1.
       -1    1    3    3    0  502 -0.34008997028E+03  0.54573076768E+03 -0.52426428394E+03  0.82966035106E+03  0.50400001928E-02 0.  1.
</event>
<event>
 5   0  0.5967046E-05  0.2121568E+04  0.7818609E-02  0.8551802E-01
        2   -1    0    0  501    0  0.00000000000E+00  0.00000000000E+00  0.18671999627E+04  0.18671999627E+04  0.25500000920E-02 0. -1.
       -2   -1    0    0    0  501  0.00000000000E+00  0.00000000000E+00 -0.60264691387E+03  0.60264691387E+03  0.25500000920E-02 0.  1.
    10030    2    1    2    0    0  0.00000000000E+00  0.00000000000E+00  0.12645530489E+04  0.24698468766E+04  0.21215676234E+04 0.  0.
        4    1    3    3  502    0  0.84491903408E+03  0.46167093048E+02  0.13770132581E+04  0.16162260672E+04  0.12699999809E+01 0. -1.
       -4    1    3    3    0  502 -0.84491903408E+03 -0.46167093048E+02 -0.11246020920E+03  0.85362080937E+03  0.12699999809E+01 0.  1.
</event>
<event>
 5   0  0.2017750E-05  0.1930336E+04  0.7818609E-02  0.8639902E-01
        3   -1    0    0  501    0  0.00000000000E+00  0.00000000000E+00  0.28749079972E+04  0.28749079990E+04  0.10100000352E+00 0.  1.
       -3   -1    0    0    0  501  0.00000000000E+00  0.00000000000E+00 -0.32402761667E+03  0.32402763241E+03  0.10100000352E+00 0. -1.
    10030    2    1    2    0    0  0.00000000000E+00  0.00000000000E+00  0.25508803806E+04  0.31989356314E+04  0.19303363588E+04 0.  0.
        3    1    3    3  502    0  0.74648063047E+03 -0.60393996545E+03  0.14375807970E+04  0.17287612246E+04  0.10100000352E+00 0.  1.
       -3    1    3    3    0  502 -0.74648063047E+03  0.60393996545E+03  0.11132995835E+04  0.14701744068E+04  0.10100000352E+00 0. -1.
</event>
<event>
 5   0  0.5506332E-05  0.2133300E+04  0.7818609E-02  0.8546715E-01
        2   -1    0    0  501    0  0.00000000000E+00  0.00000000000E+00  0.19099552200E+04  0.19099552200E+04  0.25500000920E-02 0. -1.
       -2   -1    0    0    0  501  0.00000000000E+00  0.00000000000E+00 -0.59569035486E+03  0.59569035487E+03  0.25500000920E-02 0.  1.
    10030    2    1    2    0    0  0.00000000000E+00  0.00000000000E+00  0.13142648651E+04  0.25056455749E+04  0.21332997003E+04 0.  0.
        3    1    3    3  502    0 -0.66194093916E+03 -0.64494661997E+03  0.31619706045E+02  0.92472794138E+03  0.10100000352E+00 0.  1.
       -3    1    3    3    0  502  0.66194093916E+03  0.64494661997E+03  0.12826451591E+04  0.15809176335E+04  0.10100000352E+00 0. -1.
</event>
<event>
 5   0  0.5954140E-05  0.2097496E+04  0.7818609E-02  0.8562347E-01
       -2   -1    0    0    0  501  0.00000000000E+00  0.00000000000E+00  0.12333979239E+04  0.12333979239E+04  0.25500000920E-02 0. -1.
        2   -1    0    0  501    0  0.00000000000E+00  0.00000000000E+00 -0.89174138996E+03  0.89174138996E+03  0.25500000920E-02 0.  1.
    10030    2    1    2    0    0  0.00000000000E+00  0.00000000000E+00  0.34165653398E+03  0.21251393139E+04  0.20974956296E+04 0.  0.
        2    1    3    3  502    0  0.31009231527E+03  0.58156968191E+03 -0.65569974683E+03  0.92968957018E+03  0.25500000920E-02 0.  1.
       -2    1    3    3    0  502 -0.31009231527E+03 -0.58156968191E+03  0.99735628080E+03  0.11954497437E+04  0.25500000920E-02 0. -1.
</event>
<event>
 5   0  0.5462851E-05  0.2097793E+04  0.7818609E-02  0.8562216E-01
       -2   -1    0    0    0  501  0.00000000000E+00  0.00000000000E+00  0.13054916216E+04  0.13054916216E+04  0.25500000920E-02 0. -1.
        2   -1    0    0  501    0  0.00000000000E+00  0.00000000000E+00 -0.84273540075E+03  0.84273540076E+03  0.25500000920E-02 0.  1.
    10030    2    1    2    0    0  0.00000000000E+00  0.00000000000E+00  0.46275622089E+03  0.21482270224E+04  0.20977931308E+04 0.  0.
        1    1    3    3  502    0  0.62930843785E+03  0.20526847133E+03 -0.60182904146E+03  0.89462978401E+03  0.50400001928E-02 0.  1.
       -1    1    3    3    0  502 -0.62930843785E+03 -0.20526847133E+03  0.10645852623E+04  0.12535972384E+04  0.50400001928E-02 0. -1.
</event>
<event>
 5   0  0.2789662E-05  0.2046491E+04  0.7818609E-02  0.8585188E-01
        1   -1    0    0  501    0  0.00000000000E+00  0.00000000000E+00  0.14661661082E+04  0.14661661082E+04  0.50400001928E-02 0.  1.
       -1   -1    0    0    0  501  0.00000000000E+00  0.00000000000E+00 -0.71412839136E+03  0.71412839138E+03  0.50400001928E-02 0. -1.
    10030    2    1    2    0    0  0.00000000000E+00  0.00000000000E+00  0.75203771683E+03  0.21802944996E+04  0.20464905026E+04 0.  0.
        4    1    3    3  502    0  0.95011147663E+03 -0.13154539588E+02 -0.28467863960E+02  0.95062973450E+03  0.12699999809E+01 0. -1.
       -4    1    3    3    0  502 -0.95011147663E+03  0.13154539588E+02  0.78050558079E+03  0.12296647651E+04  0.12699999809E+01 0.  1.
</event>
<event>
 5   0  0.5954140E-05  0.1991774E+04  0.7818609E-02  0.8610476E-01
        2   -1    0    0  501    0  0.00000000000E+00  0.00000000000E+00  0.12012215254E+04  0.12012215254E+04  0.25500000920E-02 0. -1.
       -2   -1    0    0    0  501  0.00000000000E+00  0.00000000000E+00 -0.82565163502E+03  0.82565163502E+03  0.25500000920E-02 0.  1.
    10030    2    1    2    0    0  0.00000000000E+00  0.00000000000E+00  0.37556989041E+03  0.20268731604E+04  0.19917735981E+04 0.  0.
        2    1    3    3  502    0  0.91273175327E+03  0.38476657753E+03  0.82688930530E+02  0.99396279198E+03  0.25500000920E-02 0. -1.
       -2    1    3    3    0  502 -0.91273175327E+03 -0.38476657753E+03  0.29288095988E+03  0.10329103685E+04  0.25500000920E-02 0.  1.
</event>
<event>
 5   0  0.2604390E-05  0.2107057E+04  0.7818609E-02  0.8558141E-01
       -1   -1    0    0    0  501  0.00000000000E+00  0.00000000000E+00  0.13116853865E+04  0.13116853865E+04  0.50400001928E-02 0.  1.
        1   -1    0    0  501    0  0.00000000000E+00  0.00000000000E+00 -0.84618013384E+03  0.84618013386E+03  0.50400001928E-02 0. -1.
    10030    2    1    2    0    0  0.00000000000E+00  0.00000000000E+00  0.46550525265E+03  0.21578655204E+04  0.21070568250E+04 0.  0.
        5    1    3    3  502    0 -0.29750228171E+03  0.13347199128E+02 -0.80216686169E+03  0.85567489115E+03  0.46999998093E+01 0. -1.
       -5    1    3    3    0  502  0.29750228171E+03 -0.13347199128E+02  0.12676721143E+04  0.13021906292E+04  0.46999998093E+01 0.  1.
</event>
<event>
 5   0  0.2789662E-05  0.2181188E+04  0.7818609E-02  0.8526299E-01
       -1   -1    0    0    0  501  0.00000000000E+00  0.00000000000E+00  0.49246493226E+03  0.49246493228E+03  0.50400001928E-02 0. -1.
        1   -1    0    0  501    0  0.00000000000E+00  0.00000000000E+00 -0.24151880212E+04  0.24151880212E+04  0.50400001928E-02 0.  1.
    10030    2    1    2    0    0  0.00000000000E+00  0.00000000000E+00 -0.19227230889E+04  0.29076529535E+04  0.21811881215E+04 0.  0.
        4    1    3    3  502    0 -0.10563636835E+02 -0.86988672813E+03 -0.84598363877E+02  0.87405549382E+03  0.12699999809E+01 0. -1.
       -4    1    3    3    0  502  0.10563636835E+02  0.86988672813E+03 -0.18381247251E+04  0.20335974597E+04  0.12699999809E+01 0.  1.
</event>
<event>
 5   0  0.2699285E-05  0.2086002E+04  0.7818609E-02  0.8567435E-01
        1   -1    0    0  501    0  0.00000000000E+00  0.00000000000E+00  0.18918755079E+04  0.18918755079E+04  0.50400001928E-02 0.  1.
       -1   -1    0    0    0  501  0.00000000000E+00  0.00000000000E+00 -0.57501171541E+03  0.57501171543E+03  0.50400001928E-02 0. -1.
    10030    2    1    2    0    0  0.00000000000E+00  0.00000000000E+00  0.13168637925E+04  0.24668872234E+04  0.20860015160E+04 0.  0.
        2    1    3    3  502    0 -0.61228580429E+03  0.74927288732E+03  0.19806076404E+03  0.98769014983E+03  0.25500000920E-02 0. -1.
       -2    1    3    3    0  502  0.61228580429E+03 -0.74927288732E+03  0.11188030285E+04  0.14791970735E+04  0.25500000920E-02 0.  1.
</event>
<event>
 5   0  0.2604390E-05  0.2092257E+04  0.7818609E-02  0.8564662E-01
        1   -1    0    0  501    0  0.00000000000E+00  0.00000000000E+00  0.11710023698E+04  0.11710023698E+04  0.50400001928E-02 0. -1.
       -1   -1    0    0    0  501  0.00000000000E+00  0.00000000000E+00 -0.93457085969E+03  0.93457085970E+03  0.50400001928E-02 0.  1.
    10030    2    1    2    0    0  0.00000000000E+00  0.00000000000E+00  0.23643151007E+03  0.21055732295E+04  0.20922568594E+04 0.  0.
        5    1    3    3  502    0  0.64211131744E+03 -0.67725557267E+03  0.59385537640E+03  0.11061954406E+04  0.46999998093E+01 0. -1.
       -5    1    3    3    0  502 -0.64211131744E+03  0.67725557267E+03 -0.35742386632E+03  0.99937778889E+03  0.46999998093E+01 0.  1.
</event>
<event>
 5   0  0.5506332E-05  0.2038078E+04  0.7818609E-02  0.8589022E-01
       -2   -1    0    0    0  501  0.00000000000E+00  0.00000000000E+00  0.81310197361E+03  0.81310197361E+03  0.25500000920E-02 0.  1.
        2   -1    0    0  501    0  0.00000000000E+00  0.00000000000E+00 -0.12771345491E+04  0.12771345491E+04  0.25500000920E-02 0. -1.
    10030    2    1    2    0    0  0.00000000000E+00  0.00000000000E+00 -0.46403257547E+03  0.20902365227E+04  0.20380781363E+04 0.  0.
        3    1    3    3  502    0  0.91486048708E+03  0.36568397140E+03 -0.49895825804E+03  0.11043793874E+04  0.10100000352E+00 0.  1.
       -3    1    3    3    0  502 -0.91486048708E+03 -0.36568397140E+03  0.34925682573E+02  0.98585713532E+03  0.10100000352E+00 0. -1.
</event>
<event>
 5   0  0.5967046E-05  0.2116220E+04  0.7818609E-02  0.8554132E-01
       -2   -1    0    0    0  501  0.00000000000E+00  0.00000000000E+00  0.20879340550E+04  0.20879340550E+04  0.25500000920E-02 0.  1.
        2   -1    0    0  501    0  0.00000000000E+00  0.00000000000E+00 -0.53622250629E+03  0.53622250629E+03  0.25500000920E-02 0. -1.
    10030    2    1    2    0    0  0.00000000000E+00  0.00000000000E+00  0.15517115488E+04  0.26241565613E+04  0.21162204346E+04 0.  0.
        4    1    3    3  502    0  0.58711181636E+03 -0.84212128292E+03  0.10937634433E+04  0.15000628730E+04  0.12699999809E+01 0.  1.
       -4    1    3    3    0  502 -0.58711181636E+03  0.84212128292E+03  0.45794810549E+03  0.11240936884E+04  0.12699999809E+01 0. -1.
</event>
<event>
 5   0  0.5866610E-05  0.2104824E+04  0.7818609E-02  0.8559121E-01
        2   -1    0    0  501    0  0.00000000000E+00  0.00000000000E+00  0.18360553262E+04  0.18360553262E+04  0.25500000920E-02 0. -1.
       -2   -1    0    0    0  501  0.00000000000E+00  0.00000000000E+00 -0.60323427346E+03  0.60323427346E+03  0.25500000920E-02 0.  1.
    10030    2    1    2    0    0  0.00000000000E+00  0.00000000000E+00  0.12328210527E+04  0.24392895996E+04  0.21048244589E+04 0.  0.
        5    1    3    3  502    0 -0.24393496820E+03  0.46939917467E+03 -0.43794351523E+03  0.68677249975E+03  0.46999998093E+01 0.  1.
       -5    1    3    3    0  502  0.24393496820E+03 -0.46939917467E+03  0.16707645679E+04  0.17525170999E+04  0.46999998093E+01 0. -1.
</event>
<event>
 5   0  0.2699285E-05  0.2107118E+04  0.7818609E-02  0.8558114E-01
       -1   -1    0    0    0  501  0.00000000000E+00  0.00000000000E+00  0.10443505082E+04  0.10443505082E+04  0.50400001928E-02 0. -1.
        1   -1    0    0  501    0  0.00000000000E+00  0.00000000000E+00 -0.10628486640E+04  0.10628486640E+04  0.50400001928E-02 0.  1.
    10030    2    1    2    0    0  0.00000000000E+00  0.00000000000E+00 -0.18498155832E+02  0.21071991723E+04  0.21071179772E+04 0.  0.
        2    1    3    3  502    0 -0.88417575187E+02 -0.94169675497E+03  0.45485510794E+03  0.10495254238E+04  0.25500000920E-02 0. -1.
       -2    1    3    3    0  502  0.88417575187E+02  0.94169675497E+03 -0.47335326377E+03  0.10576737485E+04  0.25500000920E-02 0.  1.
</event>
<event>
 5   0  0.2699285E-05  0.2101181E+04  0.7818609E-02  0.8560723E-01
       -1   -1    0    0    0  501  0.00000000000E+00  0.00000000000E+00  0.69770960795E+03  0.69770960797E+03  0.50400001928E-02 0.  1.
        1   -1    0    0  501    0  0.00000000000E+00  0.00000000000E+00 -0.15819486136E+04  0.15819486136E+04  0.50400001928E-02 0. -1.
    10030    2    1    2    0    0  0.00000000000E+00  0.00000000000E+00 -0.88423900561E+03  0.22796582215E+04  0.21011813315E+04 0.  0.
        2    1    3    3  502    0 -0.34994990190E+02  0.74107094639E+03  0.36492650872E+03  0.82679027189E+03  0.25500000920E-02 0.  1.
       -2    1    3    3    0  502  0.34994990190E+02 -0.74107094639E+03 -0.12491655143E+04  0.14528679496E+04  0.25500000920E-02 0. -1.
</event>
<event>
 5   0  0.2017750E-05  0.2112777E+04  0.7818609E-02  0.8555636E-01
        3   -1    0    0  501    0  0.00000000000E+00  0.00000000000E+00  0.12367508391E+04  0.12367508432E+04  0.10100000352E+00 0. -1.
       -3   -1    0    0    0  501  0.00000000000E+00  0.00000000000E+00 -0.90232956848E+03  0.90232957414E+03  0.10100000352E+00 0.  1.
    10030    2    1    2    0    0  0.00000000000E+00  0.00000000000E+00  0.33442127059E+03  0.21390804173E+04  0.21127771879E+04 0.  0.
        3    1    3    3  502    0  0.40127810616E+03 -0.54663761196E+03 -0.65288607314E+03  0.94132727146E+03  0.10100000352E+00 0.  1.
       -3    1    3    3    0  502 -0.40127810616E+03  0.54663761196E+03  0.98730734372E+03  0.11977531459E+04  0.10100000352E+00 0. -1.
</event>
<event>
 5   0  0.2789662E-05  0.2103555E+04  0.7818609E-02  0.8559679E-01
        1   -1    0    0  501    0  0.00000000000E+00  0.00000000000E+00  0.21232600159E+04  0.21232600159E+04  0.50400001928E-02 0.  1.
       -1   -1    0    0    0  501  0.00000000000E+00  0.00000000000E+00 -0.52100839732E+03  0.52100839734E+03  0.50400001928E-02 0. -1.
    10030    2    1    2    0    0  0.00000000000E+00  0.00000000000E+00  0.16022516186E+04  0.26442684133E+04  0.21035553694E+04 0.  0.
        4    1    3    3  502    0  0.74982779864E+03 -0.44784917735E+01 -0.12600331014E+03  0.76035533244E+03  0.12699999809E+01 0. -1.
       -4    1    3    3    0  502 -0.74982779864E+03  0.44784917735E+01  0.17282549288E+04  0.18839130808E+04  0.12699999809E+01 0.  1.
</event>
<event>
 5   0  0.2732159E-05  0.2095985E+04  0.7818609E-02  0.8563014E-01
       -1   -1    0    0    0  501  0.00000000000E+00  0.00000000000E+00  0.10523921589E+04  0.10523921589E+04  0.50400001928E-02 0.  1.
        1   -1    0    0  501    0  0.00000000000E+00  0.00000000000E+00 -0.10436108211E+04  0.10436108211E+04  0.50400001928E-02 0. -1.
    10030    2    1    2    0    0  0.00000000000E+00  0.00000000000E+00  0.87813378209E+01  0.20960029799E+04  0.20959845849E+04 0.  0.
        3    1    3    3  502    0 -0.72186591550E+03  0.34011194811E+03 -0.67496888139E+03  0.10451552699E+04  0.10100000352E+00 0. -1.
       -3    1    3    3    0  502  0.72186591550E+03 -0.34011194811E+03  0.68375021921E+03  0.10508477100E+04  0.10100000352E+00 0.  1.
</event>
<event>
 5   0  0.5967046E-05  0.2094420E+04  0.7818609E-02  0.8563705E-01
       -2   -1    0    0    0  501  0.00000000000E+00  0.00000000000E+00  0.12027980862E+04  0.12027980862E+04  0.25500000920E-02 0. -1.
        2   -1    0    0  501    0  0.00000000000E+00  0.00000000000E+00 -0.91174812350E+03  0.91174812351E+03  0.25500000920E-02 0.  1.
    10030    2    1    2    0    0  0.00000000000E+00  0.00000000000E+00  0.29104996272E+03  0.21145462097E+04  0.20944201088E+04 0.  0.
        4    1    3    3  502    0  0.80011066223E+03 -0.38372843939E+03 -0.41589654947E+03  0.97999803049E+03  0.12699999809E+01 0.  1.
       -4    1    3    3    0  502 -0.80011066223E+03  0.38372843939E+03  0.70694651218E+03  0.11345481792E+04  0.12699999809E+01 0. -1.
</event>
<event>
 5   0  0.5866610E-05  0.2072216E+04  0.7818609E-02  0.8573582E-01
       -2   -1    0    0    0  501  0.00000000000E+00  0.00000000000E+00  0.10551215529E+04  0.10551215529E+04  0.25500000920E-02 0. -1.
        2   -1    0    0  501    0  0.00000000000E+00  0.00000000000E+00 -0.10174366768E+04  0.10174366768E+04  0.25500000920E-02 0.  1.
    10030    2    1    2    0    0  0.00000000000E+00  0.00000000000E+00  0.37684876039E+02  0.20725582297E+04  0.20722155934E+04 0.  0.
        5    1    3    3  502    0  0.34403022814E+03  0.17552300793E+01  0.99631534482E+03  0.10540522924E+04  0.46999998093E+01 0. -1.
       -5    1    3    3    0  502 -0.34403022814E+03 -0.17552300793E+01 -0.95863046878E+03  0.10185059373E+04  0.46999998093E+01 0.  1.
</event>
<event>
 5   0  0.2604390E-05  0.2099772E+04  0.7818609E-02  0.8561344E-01
        1   -1    0    0  501    0  0.00000000000E+00  0.00000000000E+00  0.14637505827E+04  0.14637505827E+04  0.50400001928E-02 0.  1.
       -1   -1    0    0    0  501  0.00000000000E+00  0.00000000000E+00 -0.75303842656E+03  0.75303842658E+03  0.50400001928E-02 0. -1.
    10030    2    1    2    0    0  0.00000000000E+00  0.00000000000E+00  0.71071215616E+03  0.22167890093E+04  0.20997718311E+04 0.  0.
        5    1    3    3  502    0  0.44335633326E+03 -0.64061998100E+02 -0.64706889193E+03  0.78701271828E+03  0.46999998093E+01 0. -1.
       -5    1    3    3    0  502 -0.44335633326E+03  0.64061998100E+02  0.13577810481E+04  0.14297762910E+04  0.46999998093E+01 0.  1.
</event>
<event>
 5   0  0.5462851E-05  0.2062477E+04  0.7818609E-02  0.8577955E-01
        2   -1    0    0  501    0  0.00000000000E+00  0.00000000000E+00  0.13101114063E+04  0.13101114064E+04  0.25500000920E-02 0.  1.
       -2   -1    0    0    0  501  0.00000000000E+00  0.00000000000E+00 -0.81172695375E+03  0.81172695376E+03  0.25500000920E-02 0. -1.
    10030    2    1    2    0    0  0.00000000000E+00  0.00000000000E+00  0.49838445260E+03  0.21218383601E+04  0.20624769002E+04 0.  0.
        1    1    3    3  502    0  0.99331720739E+03  0.15070860190E+03  0.48839354467E+03  0.11171035814E+04  0.50400001928E-02 0.  1.
       -1    1    3    3    0  502 -0.99331720739E+03 -0.15070860190E+03  0.99909079312E+01  0.10047347787E+04  0.50400001928E-02 0. -1.
</event>
<event>
 5   0  0.5954140E-05  0.2081018E+04  0.7818609E-02  0.8569652E-01
        2   -1    0    0  501    0  0.00000000000E+00  0.00000000000E+00  0.17884335077E+04  0.17884335077E+04  0.25500000920E-02 0.  1.
       -2   -1    0    0    0  501  0.00000000000E+00  0.00000000000E+00 -0.60536712233E+03  0.60536712234E+03  0.25500000920E-02 0. -1.
    10030    2    1    2    0    0  0.00000000000E+00  0.00000000000E+00  0.11830663854E+04  0.23938006301E+04  0.20810178722E+04 0.  0.
        2    1    3    3  502    0 -0.32626848762E+02 -0.43008120743E+03  0.16807578529E+04  0.17352179450E+04  0.25500000920E-02 0.  1.
       -2    1    3    3    0  502  0.32626848762E+02  0.43008120743E+03 -0.49769146755E+03  0.65858268511E+03  0.25500000920E-02 0. -1.
</event>
<event>
 5   0  0.5954140E-05  0.2019768E+04  0.7818609E-02  0.8597434E-01
       -2   -1    0    0    0  501  0.00000000000E+00  0.00000000000E+00  0.61019386017E+03  0.61019386017E+03  0.25500000920E-02 0.  1.
        2   -1    0    0  501    0  0.00000000000E+00  0.00000000000E+00 -0.16713790643E+04  0.16713790643E+04  0.25500000920E-02 0. -1.
    10030    2    1    2    0    0  0.00000000000E+00  0.00000000000E+00 -0.10611852041E+04  0.22815729244E+04  0.20197675540E+04 0.  0.
        2    1    3    3  502    0  0.46782132806E+03 -0.65200920046E+03  0.16197913533E+03  0.81866356506E+03  0.25500000920E-02 0.  1.
       -2    1    3    3    0  502 -0.46782132806E+03  0.65200920046E+03 -0.12231643394E+04  0.14629093594E+04  0.25500000920E-02 0. -1.
</event>
<event>
 5   0  0.2789662E-05  0.2105544E+04  0.7818609E-02  0.8558805E-01
        1   -1    0    0  501    0  0.00000000000E+00  0.00000000000E+00  0.98300539858E+03  0.98300539859E+03  0.50400001928E-02 0. -1.
       -1   -1    0    0    0  501  0.00000000000E+00  0.00000000000E+00 -0.11274898848E+04  0.11274898848E+04  0.50400001928E-02 0.  1.
    10030    2    1    2    0    0  0.00000000000E+00  0.00000000000E+00 -0.14448448618E+03  0.21104952834E+04  0.21055437717E+04 0.  0.
        4    1    3    3  502    0  0.15755386349E+03 -0.46276982662E+03  0.86233868871E+03  0.99126624036E+03  0.12699999809E+01 0. -1.
       -4    1    3    3    0  502 -0.15755386349E+03  0.46276982662E+03 -0.10068231749E+04  0.11192290430E+04  0.12699999809E+01 0.  1.
</event>
<event>
 5   0  0.2602060E-05  0.2141788E+04  0.7818609E-02  0.8543056E-01
       -1   -1    0    0    0  501  0.00000000000E+00  0.00000000000E+00  0.11775837133E+04  0.11775837133E+04  0.50400001928E-02 0. -1.
        1   -1    0    0  501    0  0.00000000000E+00  0.00000000000E+00 -0.97387043987E+03  0.97387043989E+03  0.50400001928E-02 0.  1.
    10030    2    1    2    0    0  0.00000000000E+00  0.00000000000E+00  0.20371327345E+03  0.21514541532E+04  0.21417880090E+04 0.  0.
        1    1    3    3  502    0  0.92241960021E+03 -0.42142499632E+03 -0.24372656873E+03  0.10430050751E+04  0.50400001928E-02 0. -1.
       -1    1    3    3    0  502 -0.92241960021E+03  0.42142499632E+03  0.44743984218E+03  0.11084490781E+04  0.50400001928E-02 0.  1.
</event>
<event>
 5   0  0.5866610E-05  0.2110183E+04  0.7818609E-02  0.8556771E-01
       -2   -1    0    0    0  501  0.00000000000E+00  0.00000000000E+00  0.51753168063E+03  0.51753168064E+03  0.25500000920E-02 0. -1.
        2   -1    0    0  501    0  0.00000000000E+00  0.00000000000E+00 -0.21510148789E+04  0.21510148789E+04  0.25500000920E-02 0.  1.
    10030    2    1    2    0    0  0.00000000000E+00  0.00000000000E+00 -0.16334831982E+04  0.26685465595E+04  0.21101832578E+04 0.  0.
        5    1    3    3  502    0  0.79071363844E+03  0.14593963041E+03  0.47150436274E+02  0.80546364746E+03  0.46999998093E+01 0. -1.
       -5    1    3    3    0  502 -0.79071363844E+03 -0.14593963041E+03 -0.16806336345E+04  0.18630829120E+04  0.46999998093E+01 0.  1.
</event>
<event>
 5   0  0.2604390E-05  0.2103792E+04  0.7818609E-02  0.8559575E-01
        1   -1    0    0  501    0  0.00000000000E+00  0.00000000000E+00  0.12128928576E+04  0.12128928576E+04  0.50400001928E-02 0.  1.
       -1   -1    0    0    0  501  0.00000000000E+00  0.00000000000E+00 -0.91226976704E+03  0.91226976706E+03  0.50400001928E-02 0. -1.
    10030    2    1    2    0    0  0.00000000000E+00  0.00000000000E+00  0.30062309057E+03  0.21251626247E+04  0.21037922756E+04 0.  0.
        5    1    3    3  502    0  0.89705162026E+03  0.47907595806E+03  0.42183181907E+03  0.11009902618E+04  0.46999998093E+01 0.  1.
       -5    1    3    3    0  502 -0.89705162026E+03 -0.47907595806E+03 -0.12120872850E+03  0.10241723629E+04  0.46999998093E+01 0. -1.
</event>
<event>
 5   0  0.5954140E-05  0.2092883E+04  0.7818609E-02  0.8564385E-01
        2   -1    0    0  501    0  0.00000000000E+00  0.00000000000E+00  0.21287484698E+04  0.21287484698E+04  0.25500000920E-02 0.  1.
       -2   -1    0    0    0  501  0.00000000000E+00  0.00000000000E+00 -0.51440542733E+03  0.51440542734E+03  0.25500000920E-02 0. -1.
    10030    2    1    2    0    0  0.00000000000E+00  0.00000000000E+00  0.16143430425E+04  0.26431538971E+04  0.20928829554E+04 0.  0.
        2    1    3    3  502    0 -0.24403380043E+03 -0.61676385370E+03 -0.21500962969E+03  0.69726557914E+03  0.25500000920E-02 0. -1.
       -2    1    3    3    0  502  0.24403380043E+03  0.61676385370E+03  0.18293526722E+04  0.19458883180E+04  0.25500000920E-02 0.  1.
</event>
<event>
 5   0  0.5967046E-05  0.2090816E+04  0.7818609E-02  0.8565300E-01
        2   -1    0    0  501    0  0.00000000000E+00  0.00000000000E+00  0.11803681050E+04  0.11803681050E+04  0.25500000920E-02 0. -1.
       -2   -1    0    0    0  501  0.00000000000E+00  0.00000000000E+00 -0.92587853305E+03  0.92587853305E+03  0.25500000920E-02 0.  1.
    10030    2    1    2    0    0  0.00000000000E+00  0.00000000000E+00  0.25448957198E+03  0.21062466381E+04  0.20908156203E+04 0.  0.
        4    1    3    3  502    0 -0.48532747717E+03  0.55936421517E+03  0.87055553409E+03  0.11429346596E+04  0.12699999809E+01 0. -1.
       -4    1    3    3    0  502  0.48532747717E+03 -0.55936421517E+03 -0.61606596210E+03  0.96331197847E+03  0.12699999809E+01 0.  1.
</event>
<event>
 5   0  0.2789662E-05  0.2095219E+04  0.7818609E-02  0.8563352E-01
        1   -1    0    0  501    0  0.00000000000E+00  0.00000000000E+00  0.78657537924E+03  0.78657537926E+03  0.50400001928E-02 0.  1.
       -1   -1    0    0    0  501  0.00000000000E+00  0.00000000000E+00 -0.13952713197E+04  0.13952713198E+04  0.50400001928E-02 0. -1.
    10030    2    1    2    0    0  0.00000000000E+00  0.00000000000E+00 -0.60869594050E+03  0.21818466990E+04  0.20952193847E+04 0.  0.
        4    1    3    3  502    0 -0.10045733700E+04  0.29643362702E+03 -0.28240784659E+03  0.10848024501E+04  0.12699999809E+01 0.  1.
       -4    1    3    3    0  502  0.10045733700E+04 -0.29643362702E+03 -0.32628809391E+03  0.10970442489E+04  0.12699999809E+01 0. -1.
</event>
<event>
 5   0  0.5866610E-05  0.2099930E+04  0.7818609E-02  0.8561274E-01
        2   -1    0    0  501    0  0.00000000000E+00  0.00000000000E+00  0.52514315167E+03  0.52514315167E+03  0.25500000920E-02 0.  1.
       -2   -1    0    0    0  501  0.00000000000E+00  0.00000000000E+00 -0.20992880353E+04  0.20992880353E+04  0.25500000920E-02 0. -1.
    10030    2    1    2    0    0  0.00000000000E+00  0.00000000000E+00 -0.15741448836E+04  0.26244311870E+04  0.20999302228E+04 0.  0.
        5    1    3    3  502    0  0.32671281941E+03  0.54819015443E+03  0.25493274556E+03  0.68721649175E+03  0.46999998093E+01 0.  1.
       -5    1    3    3    0  502 -0.32671281941E+03 -0.54819015443E+03 -0.18290776292E+04  0.19372146952E+04  0.46999998093E+01 0. -1.
</event>
<event>
 5   0  0.5506332E-05  0.2104130E+04  0.7818609E-02  0.8559426E-01
       -2   -1    0    0    0  501  0.00000000000E+00  0.00000000000E+00  0.80111903131E+03  0.80111903131E+03  0.25500000920E-02 0.  1.
        2   -1    0    0  501    0  0.00000000000E+00  0.00000000000E+00 -0.13816184671E+04  0.13816184671E+04  0.25500000920E-02 0. -1.
    10030    2    1    2    0    0  0.00000000000E+00  0.00000000000E+00 -0.58049943575E+03  0.21827374984E+04  0.21041300796E+04 0.  0.
        3    1    3    3  502    0  0.35333735445E+03 -0.61609849587E+03  0.51490111030E+03  0.87723873960E+03  0.10100000352E+00 0.  1.
       -3    1    3    3    0  502 -0.35333735445E+03  0.61609849587E+03 -0.10954005461E+04  0.13054987588E+04  0.10100000352E+00 0. -1.
</event>
<event>
 5   0  0.5967046E-05  0.2092627E+04  0.7818609E-02  0.8564498E-01
       -2   -1    0    0    0  501  0.00000000000E+00  0.00000000000E+00  0.62815492229E+03  0.62815492230E+03  0.25500000920E-02 0.  1.
        2   -1    0    0  501    0  0.00000000000E+00  0.00000000000E+00 -0.17428378985E+04  0.17428378985E+04  0.25500000920E-02 0. -1.
    10030    2    1    2    0    0  0.00000000000E+00  0.00000000000E+00 -0.11146829762E+04  0.23709928208E+04  0.20926272527E+04 0.  0.
        4    1    3    3  502    0 -0.30689806768E+03 -0.73407505762E+03  0.21254510069E+03  0.82354699131E+03  0.12699999809E+01 0.  1.
       -4    1    3    3    0  502  0.30689806768E+03  0.73407505762E+03 -0.13272280769E+04  0.15474458295E+04  0.12699999809E+01 0. -1.
</event>
<event>
 5   0  0.2699285E-05  0.2092753E+04  0.7818609E-02  0.8564443E-01
       -1   -1    0    0    0  501  0.00000000000E+00  0.00000000000E+00  0.66783443866E+03  0.66783443868E+03  0.50400001928E-02 0.  1.
        1   -1    0    0  501    0  0.00000000000E+00  0.00000000000E+00 -0.16394835804E+04  0.16394835804E+04  0.50400001928E-02 0. -1.
    10030    2    1    2    0    0  0.00000000000E+00  0.00000000000E+00 -0.97164914170E+03  0.23073180190E+04  0.20927528250E+04 0.  0.
        2    1    3    3  502    0 -0.36249512589E+03  0.68650587785E+02 -0.15653945786E+04  0.16082834968E+04  0.25500000920E-02 0. -1.
       -2    1    3    3    0  502  0.36249512589E+03 -0.68650587785E+02  0.59374543685E+03  0.69903452225E+03  0.25500000920E-02 0.  1.
</event>
<event>
 5   0  0.5866610E-05  0.2184269E+04  0.7818609E-02  0.8525004E-01
       -2   -1    0    0    0  501  0.00000000000E+00  0.00000000000E+00  0.65812158300E+03  0.65812158300E+03  0.25500000920E-02 0. -1.
        2   -1    0    0  501    0  0.00000000000E+00  0.00000000000E+00 -0.18123664076E+04  0.18123664076E+04  0.25500000920E-02 0.  1.
    10030    2    1    2    0    0  0.00000000000E+00  0.00000000000E+00 -0.11542448246E+04  0.24704879906E+04  0.21842687098E+04 0.  0.
        5    1    3    3  502    0 -0.79091896606E+03  0.54064749912E+03  0.15871847361E+02  0.95818919568E+03  0.46999998093E+01 0. -1.
       -5    1    3    3    0  502  0.79091896606E+03 -0.54064749912E+03 -0.11701166720E+04  0.15122987950E+04  0.46999998093E+01 0.  1.
</event>
<event>
 5   0  0.2604390E-05  0.2098881E+04  0.7818609E-02  0.8561736E-01
        1   -1    0    0  501    0  0.00000000000E+00  0.00000000000E+00  0.11492530011E+04  0.11492530012E+04  0.50400001928E-02 0. -1.
       -1   -1    0    0    0  501  0.00000000000E+00  0.00000000000E+00 -0.95829708399E+03  0.95829708400E+03  0.50400001928E-02 0.  1.
    10030    2    1    2    0    0  0.00000000000E+00  0.00000000000E+00  0.19095591715E+03  0.21075500852E+04  0.20988814162E+04 0.  0.
        5    1    3    3  502    0  0.27240572980E+03 -0.76650092515E+03  0.76122090443E+03  0.11140951060E+04  0.46999998093E+01 0. -1.
       -5    1    3    3    0  502 -0.27240572980E+03  0.76650092515E+03 -0.57026498728E+03  0.99345497915E+03  0.46999998093E+01 0.  1.
</event>
<event>
 5   0  0.5967046E-05  0.2100255E+04  0.7818609E-02  0.8561131E-01
       -2   -1    0    0    0  501  0.00000000000E+00  0.00000000000E+00  0.10741887306E+04  0.10741887306E+04  0.25500000920E-02 0.  1.
        2   -1    0    0  501    0  0.00000000000E+00  0.00000000000E+00 -0.10266053167E+04  0.10266053168E+04  0.25500000920E-02 0. -1.
    10030    2    1    2    0    0  0.00000000000E+00  0.00000000000E+00  0.47583413890E+02  0.21007940474E+04  0.21002550912E+04 0.  0.
        4    1    3    3  502    0 -0.55588248325E+02 -0.79337520025E+03 -0.66211889599E+03  0.10348610086E+04  0.12699999809E+01 0. -1.
       -4    1    3    3    0  502  0.55588248325E+02  0.79337520025E+03  0.70970230988E+03  0.10659330388E+04  0.12699999809E+01 0.  1.
</event>
<event>
 5   0  0.2602060E-05  0.2103155E+04  0.7818609E-02  0.8559855E-01
       -1   -1    0    0    0  501  0.00000000000E+00  0.00000000000E+00  0.12113458231E+04  0.12113458231E+04  0.50400001928E-02 0. -1.
        1   -1    0    0  501    0  0.00000000000E+00  0.00000000000E+00 -0.91288160286E+03  0.91288160288E+03  0.50400001928E-02 0.  1.
    10030    2    1    2    0    0  0.00000000000E+00  0.00000000000E+00  0.29846422027E+03  0.21242274260E+04  0.21031550743E+04 0.  0.
        1    1    3    3  502    0  0.26936936726E+03  0.98910667479E+03  0.38593775039E+03  0.10953719995E+04  0.50400001928E-02 0. -1.
       -1    1    3    3    0  502 -0.26936936726E+03 -0.98910667479E+03 -0.87473530122E+02  0.10288554265E+04  0.50400001928E-02 0.  1.
</event>
<event>
 5   0  0.5866610E-05  0.2107254E+04  0.7818609E-02  0.8558055E-01
        2   -1    0    0  501    0  0.00000000000E+00  0.00000000000E+00  0.15578005495E+04  0.15578005495E+04  0.25500000920E-02 0.  1.
       -2   -1    0    0    0  501  0.00000000000E+00  0.00000000000E+00 -0.71262636864E+03  0.71262636865E+03  0.25500000920E-02 0. -1.
    10030    2    1    2    0    0  0.00000000000E+00  0.00000000000E+00  0.84517418085E+03  0.22704269181E+04  0.21072538990E+04 0.  0.
        5    1    3    3  502    0  0.10378245792E+04 -0.17993667182E+03  0.39510522473E+03  0.11249832406E+04  0.46999998093E+01 0.  1.
       -5    1    3    3    0  502 -0.10378245792E+04  0.17993667182E+03  0.45006895612E+03  0.11454436775E+04  0.46999998093E+01 0. -1.
</event>
<event>
 5   0  0.2604390E-05  0.2113683E+04  0.7818609E-02  0.8555240E-01
       -1   -1    0    0    0  501  0.00000000000E+00  0.00000000000E+00  0.86422716700E+03  0.86422716702E+03  0.50400001928E-02 0.  1.
        1   -1    0    0  501    0  0.00000000000E+00  0.00000000000E+00 -0.12923844834E+04  0.12923844834E+04  0.50400001928E-02 0. -1.
    10030    2    1    2    0    0  0.00000000000E+00  0.00000000000E+00 -0.42815731636E+03  0.21566116504E+04  0.21136828341E+04 0.  0.
        5    1    3    3  502    0 -0.31960020217E+03  0.56877746252E+03  0.63421541294E+03  0.90989195573E+03  0.46999998093E+01 0.  1.
       -5    1    3    3    0  502  0.31960020217E+03 -0.56877746252E+03 -0.10623727293E+04  0.12467196947E+04  0.46999998093E+01 0. -1.
</event>
<event>
 5   0  0.2604390E-05  0.2103563E+04  0.7818609E-02  0.8559676E-01
        1   -1    0    0  501    0  0.00000000000E+00  0.00000000000E+00  0.17368943848E+04  0.17368943848E+04  0.50400001928E-02 0. -1.
       -1   -1    0    0    0  501  0.00000000000E+00  0.00000000000E+00 -0.63690932259E+03  0.63690932261E+03  0.50400001928E-02 0.  1.
    10030    2    1    2    0    0  0.00000000000E+00  0.00000000000E+00  0.10999850622E+04  0.23738037074E+04  0.21035629071E+04 0.  0.
        5    1    3    3  502    0  0.16835075661E+03 -0.24255082228E+03  0.16891581999E+04  0.17147741521E+04  0.46999998093E+01 0. -1.
       -5    1    3    3    0  502 -0.16835075661E+03  0.24255082228E+03 -0.58917313764E+03  0.65902955530E+03  0.46999998093E+01 0.  1.
</event>
<event>
 5   0  0.5866610E-05  0.2119106E+04  0.7818609E-02  0.8552873E-01
        2   -1    0    0  501    0  0.00000000000E+00  0.00000000000E+00  0.11686331780E+04  0.11686331780E+04  0.25500000920E-02 0.  1.
       -2   -1    0    0    0  501  0.00000000000E+00  0.00000000000E+00 -0.96065473050E+03  0.96065473050E+03  0.25500000920E-02 0. -1.
    10030    2    1    2    0    0  0.00000000000E+00  0.00000000000E+00  0.20797844746E+03  0.21292879085E+04  0.21191064066E+04 0.  0.
        5    1    3    3  502    0  0.18434912007E+03  0.48256594048E+03  0.10335157335E+04  0.11554355656E+04  0.46999998093E+01 0.  1.
       -5    1    3    3    0  502 -0.18434912007E+03 -0.48256594048E+03 -0.82553728604E+03  0.97385234282E+03  0.46999998093E+01 0. -1.
</event>
<event>
 5   0  0.2602060E-05  0.2096425E+04  0.7818609E-02  0.8562820E-01
        1   -1    0    0  501    0  0.00000000000E+00  0.00000000000E+00  0.16407468828E+04  0.16407468828E+04  0.50400001928E-02 0. -1.
       -1   -1    0    0    0  501  0.00000000000E+00  0.00000000000E+00 -0.66966436318E+03  0.66966436320E+03  0.50400001928E-02 0.  1.
    10030    2    1    2    0    0  0.00000000000E+00  0.00000000000E+00  0.97108251965E+03  0.23104112460E+04  0.20964252588E+04 0.  0.
        1    1    3    3  502    0  0.88604683433E+03 -0.51615807735E+03  0.24597922376E+03  0.10545159705E+04  0.50400001928E-02 0.  1.
       -1    1    3    3    0  502 -0.88604683433E+03  0.51615807735E+03  0.72510329589E+03  0.12558952756E+04  0.50400001928E-02 0. -1.
</event>
<event>
 5   0  0.2789662E-05  0.2081585E+04  0.7818609E-02  0.8569399E-01
        1   -1    0    0  501    0  0.00000000000E+00  0.00000000000E+00  0.68144897624E+03  0.68144897626E+03  0.50400001928E-02 0. -1.
       -1   -1    0    0    0  501  0.00000000000E+00  0.00000000000E+00 -0.15896252853E+04  0.15896252853E+04  0.50400001928E-02 0.  1.
    10030    2    1    2    0    0  0.00000000000E+00  0.00000000000E+00 -0.90817630906E+03  0.22710742616E+04  0.20815845150E+04 0.  0.
        4    1    3    3  502    0  0.56032563210E+03 -0.77446190963E+03 -0.49184961183E+01  0.95591938361E+03  0.12699999809E+01 0. -1.
       -4    1    3    3    0  502 -0.56032563210E+03  0.77446190963E+03 -0.90325781295E+03  0.13151548780E+04  0.12699999809E+01 0.  1.
</event>
<event>
 5   0  0.2604390E-05  0.2117619E+04  0.7818609E-02  0.8553522E-01
        1   -1    0    0  501    0  0.00000000000E+00  0.00000000000E+00  0.99219587250E+03  0.99219587251E+03  0.50400001928E-02 0.  1.
       -1   -1    0    0    0  501  0.00000000000E+00  0.00000000000E+00 -0.11298953565E+04  0.11298953565E+04  0.50400001928E-02 0. -1.
    10030    2    1    2    0    0  0.00000000000E+00  0.00000000000E+00 -0.13769948397E+03  0.21220912290E+04  0.21176189545E+04 0.  0.
        5    1    3    3  502    0  0.57376673144E+03 -0.30794309983E+03 -0.90548910756E+03  0.11153339539E+04  0.46999998093E+01 0. -1.
       -5    1    3    3    0  502 -0.57376673144E+03  0.30794309983E+03  0.76778962359E+03  0.10067572751E+04  0.46999998093E+01 0.  1.
</event>
<event>
 5   0  0.2789662E-05  0.2080188E+04  0.7818609E-02  0.8570021E-01
        1   -1    0    0  501    0  0.00000000000E+00  0.00000000000E+00  0.12569622287E+04  0.12569622287E+04  0.50400001928E-02 0.  1.
       -1   -1    0    0    0  501  0.00000000000E+00  0.00000000000E+00 -0.86064272258E+03  0.86064272259E+03  0.50400001928E-02 0. -1.
    10030    2    1    2    0    0  0.00000000000E+00  0.00000000000E+00  0.39631950616E+03  0.21176049513E+04  0.20801878711E+04 0.  0.
        4    1    3    3  502    0  0.89122478233E+03 -0.40046268225E+03  0.56114299711E+03  0.11267364593E+04  0.12699999809E+01 0.  1.
       -4    1    3    3    0  502 -0.89122478233E+03  0.40046268225E+03 -0.16482349096E+03  0.99086849208E+03  0.12699999809E+01 0. -1.
</event>
<event>
 5   0  0.2789662E-05  0.2115435E+04  0.7818609E-02  0.8554474E-01
        1   -1    0    0  501    0  0.00000000000E+00  0.00000000000E+00  0.15079164134E+04  0.15079164134E+04  0.50400001928E-02 0. -1.
       -1   -1    0    0    0  501  0.00000000000E+00  0.00000000000E+00 -0.74192860353E+03  0.74192860354E+03  0.50400001928E-02 0.  1.
    10030    2    1    2    0    0  0.00000000000E+00  0.00000000000E+00  0.76598780991E+03  0.22498450170E+04  0.21154350086E+04 0.  0.
        4    1    3    3  502    0 -0.18296000387E+03 -0.92008037018E+03 -0.13666424528E+03  0.94799840688E+03  0.12699999809E+01 0. -1.
       -4    1    3    3    0  502  0.18296000387E+03  0.92008037018E+03  0.90265205519E+03  0.13018466101E+04  0.12699999809E+01 0.  1.
</event>
<event>
 5   0  0.2789662E-05  0.2110363E+04  0.7818609E-02  0.8556692E-01
        1   -1    0    0  501    0  0.00000000000E+00  0.00000000000E+00  0.11708607970E+04  0.11708607970E+04  0.50400001928E-02 0.  1.
       -1   -1    0    0    0  501  0.00000000000E+00  0.00000000000E+00 -0.95093126621E+03  0.95093126623E+03  0.50400001928E-02 0. -1.
    10030    2    1    2    0    0  0.00000000000E+00  0.00000000000E+00  0.21992953077E+03  0.21217920632E+04  0.21103631349E+04 0.  0.
        4    1    3    3  502    0 -0.65398400895E+03 -0.76663712743E+03  0.42467584847E+03  0.10935166932E+04  0.12699999809E+01 0.  1.
       -4    1    3    3    0  502  0.65398400895E+03  0.76663712743E+03 -0.20474631770E+03  0.10282753700E+04  0.12699999809E+01 0. -1.
</event>
<event>
 5   0  0.2732159E-05  0.2104557E+04  0.7818609E-02  0.8559239E-01
        1   -1    0    0  501    0  0.00000000000E+00  0.00000000000E+00  0.13164072240E+04  0.13164072240E+04  0.50400001928E-02 0. -1.
       -1   -1    0    0    0  501  0.00000000000E+00  0.00000000000E+00 -0.84114512330E+03  0.84114512332E+03  0.50400001928E-02 0.  1.
    10030    2    1    2    0    0  0.00000000000E+00  0.00000000000E+00  0.47526210073E+03  0.21575523474E+04  0.21045565013E+04 0.  0.
        3    1    3    3  502    0  0.87895436065E+03 -0.34934177382E+03 -0.23516444633E+03  0.97462955529E+03  0.10100000352E+00 0. -1.
       -3    1    3    3    0  502 -0.87895436065E+03  0.34934177382E+03  0.71042654706E+03  0.11829227921E+04  0.10100000352E+00 0.  1.
</event>
<event>
 5   0  0.5954140E-05  0.2097943E+04  0.7818609E-02  0.8562150E-01
       -2   -1    0    0    0  501  0.00000000000E+00  0.00000000000E+00  0.88539488359E+03  0.88539488360E+03  0.25500000920E-02 0.  1.
        2   -1    0    0  501    0  0.00000000000E+00  0.00000000000E+00 -0.12427692711E+04  0.12427692711E+04  0.25500000920E-02 0. -1.
    10030    2    1    2    0    0  0.00000000000E+00  0.00000000000E+00 -0.35737438753E+03  0.21281641547E+04  0.20979433302E+04 0.  0.
        2    1    3    3  502    0  0.13048616491E+03 -0.79137222454E+03 -0.86447666449E+03  0.11792440547E+04  0.25500000920E-02 0. -1.
       -2    1    3    3    0  502 -0.13048616491E+03  0.79137222454E+03  0.50710227695E+03  0.94892010007E+03  0.25500000920E-02 0.  1.
</event>
<event>
 5   0  0.2602060E-05  0.2180983E+04  0.7818609E-02  0.8526385E-01
        1   -1    0    0  501    0  0.00000000000E+00  0.00000000000E+00  0.15846587793E+04  0.15846587793E+04  0.50400001928E-02 0. -1.
       -1   -1    0    0    0  501  0.00000000000E+00  0.00000000000E+00 -0.75042757795E+03  0.75042757797E+03  0.50400001928E-02 0.  1.
    10030    2    1    2    0    0  0.00000000000E+00  0.00000000000E+00  0.83423120137E+03  0.23350863573E+04  0.21809829432E+04 0.  0.
        1    1    3    3  502    0 -0.75581490605E+03  0.22589888534E+03 -0.38900166973E+03  0.87955032698E+03  0.50400001928E-02 0.  1.
       -1    1    3    3    0  502  0.75581490605E+03 -0.22589888534E+03  0.12232328711E+04  0.14555360303E+04  0.50400001928E-02 0. -1.
</event>
<event>
 5   0  0.2602060E-05  0.2257362E+04  0.7818609E-02  0.8494925E-01
       -1   -1    0    0    0  501  0.00000000000E+00  0.00000000000E+00  0.11595384866E+04  0.11595384866E+04  0.50400001928E-02 0.  1.
        1   -1    0    0  501    0  0.00000000000E+00  0.00000000000E+00 -0.10986443756E+04  0.10986443756E+04  0.50400001928E-02 0. -1.
    10030    2    1    2    0    0  0.00000000000E+00  0.00000000000E+00  0.60894111031E+02  0.22581828622E+04  0.22573616782E+04 0.  0.
        1    1    3    3  502    0 -0.65004871770E+03 -0.92084370147E+03 -0.27917794357E+02  0.11275175658E+04  0.50400001928E-02 0.  1.
       -1    1    3    3    0  502  0.65004871770E+03  0.92084370147E+03  0.88811905389E+02  0.11306652964E+04  0.50400001928E-02 0. -1.
</event>
<event>
 5   0  0.5866610E-05  0.2078086E+04  0.7818609E-02  0.8570958E-01
        2   -1    0    0  501    0  0.00000000000E+00  0.00000000000E+00  0.21169746197E+04  0.21169746197E+04  0.25500000920E-02 0. -1.
       -2   -1    0    0    0  501  0.00000000000E+00  0.00000000000E+00 -0.50997804998E+03  0.50997804998E+03  0.25500000920E-02 0.  1.
    10030    2    1    2    0    0  0.00000000000E+00  0.00000000000E+00  0.16069965697E+04  0.26269526697E+04  0.20780862238E+04 0.  0.
        5    1    3    3  502    0  0.28165948732E+03 -0.65320405574E+03 -0.15388540110E+03  0.72781207183E+03  0.46999998093E+01 0.  1.
       -5    1    3    3    0  502 -0.28165948732E+03  0.65320405574E+03  0.17608819708E+04  0.18991405978E+04  0.46999998093E+01 0. -1.
</event>
<event>
 5   0  0.2017750E-05  0.2092257E+04  0.7818609E-02  0.8564662E-01
       -4   -1    0    0    0  501  0.00000000000E+00  0.00000000000E+00  0.88989892897E+03  0.88989983520E+03  0.12699999809E+01 0.  1.
        4   -1    0    0  501    0  0.00000000000E+00  0.00000000000E+00 -0.12297834173E+04  0.12297840730E+04  0.12699999809E+01 0. -1.
    10030    2    1    2    0    0  0.00000000000E+00  0.00000000000E+00 -0.33988448828E+03  0.21196839082E+04  0.20922567733E+04 0.  0.
        5    1    3    3  502    0  0.19278446808E+03 -0.29476343286E+03 -0.11678988052E+04  0.12198610748E+04  0.46999998093E+01 0. -1.
       -5    1    3    3    0  502 -0.19278446808E+03  0.29476343286E+03  0.82801431696E+03  0.89982283344E+03  0.46999998093E+01 0.  1.
</event>
<event>
 5   0  0.2604390E-05  0.2094309E+04  0.7818609E-02  0.8563754E-01
       -1   -1    0    0    0  501  0.00000000000E+00  0.00000000000E+00  0.90501444644E+03  0.90501444645E+03  0.50400001928E-02 0. -1.
        1   -1    0    0  501    0  0.00000000000E+00  0.00000000000E+00 -0.12116190745E+04  0.12116190745E+04  0.50400001928E-02 0.  1.
    10030    2    1    2    0    0  0.00000000000E+00  0.00000000000E+00 -0.30660462802E+03  0.21166335209E+04  0.20943092093E+04 0.  0.
        5    1    3    3  502    0  0.10393074838E+04  0.12668992355E+03 -0.13578861889E+03  0.10557798168E+04  0.46999998093E+01 0.  1.
       -5    1    3    3    0  502 -0.10393074838E+04 -0.12668992355E+03 -0.17081600913E+03  0.10608537041E+04  0.46999998093E+01 0. -1.
</event>
<event>
 5   0  0.2789662E-05  0.2088790E+04  0.7818609E-02  0.8566198E-01
       -1   -1    0    0    0  501  0.00000000000E+00  0.00000000000E+00  0.56386360644E+03  0.56386360647E+03  0.50400001928E-02 0.  1.
        1   -1    0    0  501    0  0.00000000000E+00  0.00000000000E+00 -0.19344405389E+04  0.19344405389E+04  0.50400001928E-02 0. -1.
    10030    2    1    2    0    0  0.00000000000E+00  0.00000000000E+00 -0.13705769325E+04  0.24983041454E+04  0.20887897154E+04 0.  0.
        4    1    3    3  502    0  0.28891126332E+03 -0.28808923033E+03 -0.18351766934E+04  0.18799841041E+04  0.12699999809E+01 0. -1.
       -4    1    3    3    0  502 -0.28891126332E+03  0.28808923033E+03  0.46459976094E+03  0.61832004129E+03  0.12699999809E+01 0.  1.
</event>
<event>
 5   0  0.2789662E-05  0.2104377E+04  0.7818609E-02  0.8559318E-01
        1   -1    0    0  501    0  0.00000000000E+00  0.00000000000E+00  0.13486127520E+04  0.13486127520E+04  0.50400001928E-02 0. -1.
       -1   -1    0    0    0  501  0.00000000000E+00  0.00000000000E+00 -0.82091822348E+03  0.82091822350E+03  0.50400001928E-02 0.  1.
    10030    2    1    2    0    0  0.00000000000E+00  0.00000000000E+00  0.52769452850E+03  0.21695309755E+04  0.21043771378E+04 0.  0.
        4    1    3    3  502    0 -0.36170894038E+03  0.13421260992E+03 -0.74536455090E+03  0.83929512619E+03  0.12699999809E+01 0.  1.
       -4    1    3    3    0  502  0.36170894038E+03 -0.13421260992E+03  0.12730590794E+04  0.13302358493E+04  0.12699999809E+01 0. -1.
</event>
<event>
 5   0  0.5967046E-05  0.2030356E+04  0.7818609E-02  0.8592558E-01
       -2   -1    0    0    0  501  0.00000000000E+00  0.00000000000E+00  0.86533298138E+03  0.86533298139E+03  0.25500000920E-02 0. -1.
        2   -1    0    0  501    0  0.00000000000E+00  0.00000000000E+00 -0.11909712774E+04  0.11909712774E+04  0.25500000920E-02 0.  1.
    10030    2    1    2    0    0  0.00000000000E+00  0.00000000000E+00 -0.32563829598E+03  0.20563042588E+04  0.20303563492E+04 0.  0.
        4    1    3    3  502    0  0.21217948256E+03 -0.15651709536E+03 -0.11556883178E+04  0.11853838344E+04  0.12699999809E+01 0.  1.
       -4    1    3    3    0  502 -0.21217948256E+03  0.15651709536E+03  0.83005002183E+03  0.87092042438E+03  0.12699999809E+01 0. -1.
</event>
<event>
 5   0  0.2732159E-05  0.2107337E+04  0.7818609E-02  0.8558018E-01
       -1   -1    0    0    0  501  0.00000000000E+00  0.00000000000E+00  0.10767551085E+04  0.10767551085E+04  0.50400001928E-02 0. -1.
        1   -1    0    0  501    0  0.00000000000E+00  0.00000000000E+00 -0.10310765286E+04  0.10310765286E+04  0.50400001928E-02 0.  1.
    10030    2    1    2    0    0  0.00000000000E+00  0.00000000000E+00  0.45678579903E+02  0.21078316370E+04  0.21073366313E+04 0.  0.
        3    1    3    3  502    0  0.17198802991E+03 -0.41854154610E+03  0.97461942710E+03  0.10745417377E+04  0.10100000352E+00 0. -1.
       -3    1    3    3    0  502 -0.17198802991E+03  0.41854154610E+03 -0.92894084720E+03  0.10332898993E+04  0.10100000352E+00 0.  1.
</event>
<event>
 5   0  0.5954140E-05  0.2097201E+04  0.7818609E-02  0.8562477E-01
        2   -1    0    0  501    0  0.00000000000E+00  0.00000000000E+00  0.17512500562E+04  0.17512500562E+04  0.25500000920E-02 0.  1.
       -2   -1    0    0    0  501  0.00000000000E+00  0.00000000000E+00 -0.62787329753E+03  0.62787329754E+03  0.25500000920E-02 0. -1.
    10030    2    1    2    0    0  0.00000000000E+00  0.00000000000E+00  0.11233767586E+04  0.23791233537E+04  0.20972011325E+04 0.  0.
        2    1    3    3  502    0  0.30655290940E+03 -0.89892882472E+03  0.57517926354E+02  0.95150198635E+03  0.25500000920E-02 0.  1.
       -2    1    3    3    0  502 -0.30655290940E+03  0.89892882472E+03  0.10658588323E+04  0.14276213673E+04  0.25500000920E-02 0. -1.
</event>
<event>
 5   0  0.5866610E-05  0.2077425E+04  0.7818609E-02  0.8571254E-01
       -2   -1    0    0    0  501  0.00000000000E+00  0.00000000000E+00  0.10521803336E+04  0.10521803336E+04  0.25500000920E-02 0.  1.
        2   -1    0    0  501    0  0.00000000000E+00  0.00000000000E+00 -0.10254166959E+04  0.10254166959E+04  0.25500000920E-02 0. -1.
    10030    2    1    2    0    0  0.00000000000E+00  0.00000000000E+00  0.26763637757E+02  0.20775970295E+04  0.20774246375E+04 0.  0.
        5    1    3    3  502    0  0.69830309547E+03  0.75742707436E+03 -0.11921200657E+03  0.10370904390E+04  0.46999998093E+01 0. -1.
       -5    1    3    3    0  502 -0.69830309547E+03 -0.75742707436E+03  0.14597564433E+03  0.10405065905E+04  0.46999998093E+01 0.  1.
</event>
<event>
 5   0  0.5506332E-05  0.2103629E+04  0.7818609E-02  0.8559647E-01
       -2   -1    0    0    0  501  0.00000000000E+00  0.00000000000E+00  0.10535313876E+04  0.10535313876E+04  0.25500000920E-02 0. -1.
        2   -1    0    0  501    0  0.00000000000E+00  0.00000000000E+00 -0.10501002695E+04  0.10501002695E+04  0.25500000920E-02 0.  1.
    10030    2    1    2    0    0  0.00000000000E+00  0.00000000000E+00  0.34311180663E+01  0.21036316571E+04  0.21036288589E+04 0.  0.
        3    1    3    3  502    0  0.48874491328E+03  0.41508586797E+03 -0.83203953996E+03  0.10504559364E+04  0.10100000352E+00 0.  1.
       -3    1    3    3    0  502 -0.48874491328E+03 -0.41508586797E+03  0.83547065803E+03  0.10531757207E+04  0.10100000352E+00 0. -1.
</event>
<event>
 5   0  0.2699285E-05  0.2146021E+04  0.7818609E-02  0.8541237E-01
       -1   -1    0    0    0  501  0.00000000000E+00  0.00000000000E+00  0.12439047329E+04  0.12439047329E+04  0.50400001928E-02 0.  1.
        1   -1    0    0  501    0  0.00000000000E+00  0.00000000000E+00 -0.92559490168E+03  0.92559490169E+03  0.50400001928E-02 0. -1.
    10030    2    1    2    0    0  0.00000000000E+00  0.00000000000E+00  0.31830983121E+03  0.21694996346E+04  0.21460213223E+04 0.  0.
        2    1    3    3  502    0  0.26516268980E+03 -0.14503217487E+03 -0.88167501102E+03  0.93203884515E+03  0.25500000920E-02 0. -1.
       -2    1    3    3    0  502 -0.26516268980E+03  0.14503217487E+03  0.11999848422E+04  0.12374607894E+04  0.25500000920E-02 0.  1.
</event>
<event>
 5   0  0.5506332E-05  0.2099573E+04  0.7818609E-02  0.8561432E-01
        2   -1    0    0  501    0  0.00000000000E+00  0.00000000000E+00  0.12846756381E+04  0.12846756381E+04  0.25500000920E-02 0.  1.
       -2   -1    0    0    0  501  0.00000000000E+00  0.00000000000E+00 -0.85784395042E+03  0.85784395042E+03  0.25500000920E-02 0. -1.
    10030    2    1    2    0    0  0.00000000000E+00  0.00000000000E+00  0.42683168765E+03  0.21425195885E+04  0.20995725511E+04 0.  0.
        3    1    3    3  502    0  0.10370029294E+04  0.49216252302E+02  0.54493596281E+02  0.10395993831E+04  0.10100000352E+00 0. -1.
       -3    1    3    3    0  502 -0.10370029294E+04 -0.49216252302E+02  0.37233809137E+03  0.11029202054E+04  0.10100000352E+00 0.  1.
</event>
<event>
 5   0  0.2604390E-05  0.2102185E+04  0.7818609E-02  0.8560281E-01
       -1   -1    0    0    0  501  0.00000000000E+00  0.00000000000E+00  0.13395242566E+04  0.13395242566E+04  0.50400001928E-02 0. -1.
        1   -1    0    0  501    0  0.00000000000E+00  0.00000000000E+00 -0.82476709914E+03  0.82476709915E+03  0.50400001928E-02 0.  1.
    10030    2    1    2    0    0  0.00000000000E+00  0.00000000000E+00  0.51475715747E+03  0.21642913558E+04  0.21021850873E+04 0.  0.
        5    1    3    3  502    0  0.93778681015E+03  0.47405225215E+03  0.28267701013E+03  0.10881626814E+04  0.46999998093E+01 0.  1.
       -5    1    3    3    0  502 -0.93778681015E+03 -0.47405225215E+03  0.23208014734E+03  0.10761286744E+04  0.46999998093E+01 0. -1.
</event>
<event>
 5   0  0.2732159E-05  0.2086427E+04  0.7818609E-02  0.8567246E-01
        1   -1    0    0  501    0  0.00000000000E+00  0.00000000000E+00  0.92782211399E+03  0.92782211401E+03  0.50400001928E-02 0.  1.
       -1   -1    0    0    0  501  0.00000000000E+00  0.00000000000E+00 -0.11729555841E+04  0.11729555841E+04  0.50400001928E-02 0. -1.
    10030    2    1    2    0    0  0.00000000000E+00  0.00000000000E+00 -0.24513347014E+03  0.21007776981E+04  0.20864267346E+04 0.  0.
        3    1    3    3  502    0 -0.69750494077E+03  0.76708464901E+03 -0.61770168576E+01  0.10368076808E+04  0.10100000352E+00 0.  1.
       -3    1    3    3    0  502  0.69750494077E+03 -0.76708464901E+03 -0.23895645328E+03  0.10639700174E+04  0.10100000352E+00 0. -1.
</event>
<event>
 5   0  0.2602060E-05  0.2117110E+04  0.7818609E-02  0.8553744E-01
       -1   -1    0    0    0  501  0.00000000000E+00  0.00000000000E+00  0.14042177794E+04  0.14042177794E+04  0.50400001928E-02 0.  1.
        1   -1    0    0  501    0  0.00000000000E+00  0.00000000000E+00 -0.79798055905E+03  0.79798055907E+03  0.50400001928E-02 0. -1.
    10030    2    1    2    0    0  0.00000000000E+00  0.00000000000E+00  0.60623722032E+03  0.22021983384E+04  0.21171098116E+04 0.  0.
        1    1    3    3  502    0 -0.42489457360E+03 -0.81382011952E+03  0.85127049246E+03  0.12519984173E+04  0.50400001928E-02 0.  1.
       -1    1    3    3    0  502  0.42489457360E+03  0.81382011952E+03 -0.24503327214E+03  0.95019992112E+03  0.50400001928E-02 0. -1.
</event>
<event>
 5   0  0.5967046E-05  0.2100513E+04  0.7818609E-02  0.8561017E-01
       -2   -1    0    0    0  501  0.00000000000E+00  0.00000000000E+00  0.14410293206E+04  0.14410293206E+04  0.25500000920E-02 0. -1.
        2   -1    0    0  501    0  0.00000000000E+00  0.00000000000E+00 -0.76545224970E+03  0.76545224970E+03  0.25500000920E-02 0.  1.
    10030    2    1    2    0    0  0.00000000000E+00  0.00000000000E+00  0.67557707086E+03  0.22064815703E+04  0.21005133994E+04 0.  0.
        4    1    3    3  502    0  0.75809811795E+03 -0.12865147351E+03 -0.41368514131E+03  0.87315575192E+03  0.12699999809E+01 0.  1.
       -4    1    3    3    0  502 -0.75809811795E+03  0.12865147351E+03  0.10892622122E+04  0.13333258183E+04  0.12699999809E+01 0. -1.
</event>
<event>
 5   0  0.2789662E-05  0.2114712E+04  0.7818609E-02  0.8554790E-01
        1   -1    0    0  501    0  0.00000000000E+00  0.00000000000E+00  0.18159606323E+04  0.18159606323E+04  0.50400001928E-02 0. -1.
       -1   -1    0    0    0  501  0.00000000000E+00  0.00000000000E+00 -0.61565289422E+03  0.61565289424E+03  0.50400001928E-02 0.  1.
    10030    2    1    2    0    0  0.00000000000E+00  0.00000000000E+00  0.12003077381E+04  0.24316135265E+04  0.21147117242E+04 0.  0.
        4    1    3    3  502    0  0.21101277431E+03 -0.98333180375E+03  0.22484971195E+03  0.10305468612E+04  0.12699999809E+01 0.  1.
       -4    1    3    3    0  502 -0.21101277431E+03  0.98333180375E+03  0.97545802611E+03  0.14010666654E+04  0.12699999809E+01 0. -1.
</event>
<event>
 5   0  0.2017750E-05  0.2103820E+04  0.7818609E-02  0.8559563E-01
       -4   -1    0    0    0  501  0.00000000000E+00  0.00000000000E+00  0.74910184398E+03  0.74910292054E+03  0.12699999809E+01 0. -1.
        4   -1    0    0  501    0  0.00000000000E+00  0.00000000000E+00 -0.14771191360E+04  0.14771196820E+04  0.12699999809E+01 0.  1.
    10030    2    1    2    0    0  0.00000000000E+00  0.00000000000E+00 -0.72801729207E+03  0.22262226025E+04  0.21038198351E+04 0.  0.
        4    1    3    3  502    0  0.10044366516E+04  0.90615456769E+02 -0.47598817408E+02  0.10096392467E+04  0.12699999809E+01 0. -1.
       -4    1    3    3    0  502 -0.10044366516E+04 -0.90615456769E+02 -0.68041847466E+03  0.12165833558E+04  0.12699999809E+01 0.  1.
</event>
<event>
 5   0  0.2604390E-05  0.2088602E+04  0.7818609E-02  0.8566281E-01
       -1   -1    0    0    0  501  0.00000000000E+00  0.00000000000E+00  0.59332062827E+03  0.59332062829E+03  0.50400001928E-02 0. -1.
        1   -1    0    0  501    0  0.00000000000E+00  0.00000000000E+00 -0.18380698657E+04  0.18380698657E+04  0.50400001928E-02 0.  1.
    10030    2    1    2    0    0  0.00000000000E+00  0.00000000000E+00 -0.12447492374E+04  0.24313904940E+04  0.20886021809E+04 0.  0.
        5    1    3    3  502    0  0.87958095421E+03 -0.49723542780E+03 -0.92957295821E+03  0.13729652946E+04  0.46999998093E+01 0.  1.
       -5    1    3    3    0  502 -0.87958095421E+03  0.49723542780E+03 -0.31517627923E+03  0.10584251994E+04  0.46999998093E+01 0. -1.
</event>
<event>
 5   0  0.5954140E-05  0.2098099E+04  0.7818609E-02  0.8562081E-01
       -2   -1    0    0    0  501  0.00000000000E+00  0.00000000000E+00  0.83149261632E+03  0.83149261633E+03  0.25500000920E-02 0.  1.
        2   -1    0    0  501    0  0.00000000000E+00  0.00000000000E+00 -0.13235297074E+04  0.13235297074E+04  0.25500000920E-02 0. -1.
    10030    2    1    2    0    0  0.00000000000E+00  0.00000000000E+00 -0.49203709112E+03  0.21550223238E+04  0.20980993105E+04 0.  0.
        2    1    3    3  502    0 -0.40427432062E+03  0.93436296411E+03 -0.50593195645E+03  0.11368548806E+04  0.25500000920E-02 0. -1.
       -2    1    3    3    0  502  0.40427432062E+03 -0.93436296411E+03  0.13894865322E+02  0.10181674432E+04  0.25500000920E-02 0.  1.
</event>
<event>
 5   0  0.5967046E-05  0.2100558E+04  0.7818609E-02  0.8560997E-01
        2   -1    0    0  501    0  0.00000000000E+00  0.00000000000E+00  0.10807181485E+04  0.10807181485E+04  0.25500000920E-02 0. -1.
       -2   -1    0    0    0  501  0.00000000000E+00  0.00000000000E+00 -0.10206975177E+04  0.10206975177E+04  0.25500000920E-02 0.  1.
    10030    2    1    2    0    0  0.00000000000E+00  0.00000000000E+00  0.60020630783E+02  0.21014156662E+04  0.21005583367E+04 0.  0.
        4    1    3    3  502    0  0.11992182994E+03 -0.27351037347E+03 -0.97732445902E+03  0.10219363389E+04  0.12699999809E+01 0.  1.
       -4    1    3    3    0  502 -0.11992182994E+03  0.27351037347E+03  0.10373450898E+04  0.10794793272E+04  0.12699999809E+01 0. -1.
</event>
<event>
 5   0  0.5954140E-05  0.2099608E+04  0.7818609E-02  0.8561416E-01
       -2   -1    0    0    0  501  0.00000000000E+00  0.00000000000E+00  0.61237480669E+03  0.61237480669E+03  0.25500000920E-02 0.  1.
        2   -1    0    0  501    0  0.00000000000E+00  0.00000000000E+00 -0.17996960863E+04  0.17996960863E+04  0.25500000920E-02 0. -1.
    10030    2    1    2    0    0  0.00000000000E+00  0.00000000000E+00 -0.11873212796E+04  0.24120708930E+04  0.20996080996E+04 0.  0.
        2    1    3    3  502    0 -0.80753468574E+03 -0.55044119046E+03 -0.15321038948E+03  0.98922757558E+03  0.25500000920E-02 0.  1.
       -2    1    3    3    0  502  0.80753468574E+03  0.55044119046E+03 -0.10341108902E+04  0.14228433174E+04  0.25500000920E-02 0. -1.
</event>
<event>
 5   0  0.2789662E-05  0.2091881E+04  0.7818609E-02  0.8564828E-01
        1   -1    0    0  501    0  0.00000000000E+00  0.00000000000E+00  0.21544677662E+04  0.21544677662E+04  0.50400001928E-02 0. -1.
       -1   -1    0    0    0  501  0.00000000000E+00  0.00000000000E+00 -0.50777829342E+03  0.50777829344E+03  0.50400001928E-02 0.  1.
    10030    2    1    2    0    0  0.00000000000E+00  0.00000000000E+00  0.16466894728E+04  0.26622460596E+04  0.20918814169E+04 0.  0.
        4    1    3    3  502    0  0.34881019742E+03 -0.96830215984E+03  0.58623166733E+03  0.11844605554E+04  0.12699999809E+01 0. -1.
       -4    1    3    3    0  502 -0.34881019742E+03  0.96830215984E+03  0.10604578054E+04  0.14777855043E+04  0.12699999809E+01 0.  1.
</event>
<event>
 5   0  0.5866610E-05  0.2103125E+04  0.7818609E-02  0.8559868E-01
       -2   -1    0    0    0  501  0.00000000000E+00  0.00000000000E+00  0.95611130178E+03  0.95611130178E+03  0.25500000920E-02 0.  1.
        2   -1    0    0  501    0  0.00000000000E+00  0.00000000000E+00 -0.11565431797E+04  0.11565431797E+04  0.25500000920E-02 0. -1.
    10030    2    1    2    0    0  0.00000000000E+00  0.00000000000E+00 -0.20043187796E+03  0.21126544815E+04  0.21031252984E+04 0.  0.
        5    1    3    3  502    0 -0.60331391242E+03 -0.42057439545E+03  0.65478208583E+03  0.98469902455E+03  0.46999998093E+01 0.  1.
       -5    1    3    3    0  502  0.60331391242E+03  0.42057439545E+03 -0.85521396379E+03  0.11279554570E+04  0.46999998093E+01 0. -1.
</event>
<event>
 5   0  0.2699285E-05  0.2074086E+04  0.7818609E-02  0.8572745E-01
       -1   -1    0    0    0  501  0.00000000000E+00  0.00000000000E+00  0.13850669430E+04  0.13850669430E+04  0.50400001928E-02 0. -1.
        1   -1    0    0  501    0  0.00000000000E+00  0.00000000000E+00 -0.77646661771E+03  0.77646661773E+03  0.50400001928E-02 0.  1.
    10030    2    1    2    0    0  0.00000000000E+00  0.00000000000E+00  0.60860032531E+03  0.21615335608E+04  0.20740860586E+04 0.  0.
        2    1    3    3  502    0  0.43565918797E+03 -0.67272034052E+03 -0.38155536258E+03  0.88765763632E+03  0.25500000920E-02 0.  1.
       -2    1    3    3    0  502 -0.43565918797E+03  0.67272034052E+03  0.99015568789E+03  0.12738759244E+04  0.25500000920E-02 0. -1.
</event>
<event>
 5   0  0.2602060E-05  0.2140769E+04  0.7818609E-02  0.8543494E-01
       -1   -1    0    0    0  501  0.00000000000E+00  0.00000000000E+00  0.10266914527E+04  0.10266914527E+04  0.50400001928E-02 0.  1.
        1   -1    0    0  501    0  0.00000000000E+00  0.00000000000E+00 -0.11159370524E+04  0.11159370524E+04  0.50400001928E-02 0. -1.
    10030    2    1    2    0    0  0.00000000000E+00  0.00000000000E+00 -0.89245599731E+02  0.21426285051E+04  0.21407690520E+04 0.  0.
        1    1    3    3  502    0 -0.28247918615E+03 -0.72851502524E+03 -0.77682805448E+03  0.11018123519E+04  0.50400001928E-02 0. -1.
       -1    1    3    3    0  502  0.28247918615E+03  0.72851502524E+03  0.68758245475E+03  0.10408161532E+04  0.50400001928E-02 0.  1.
</event>
<event>
 5   0  0.2604390E-05  0.2097788E+04  0.7818609E-02  0.8562218E-01
       -1   -1    0    0    0  501  0.00000000000E+00  0.00000000000E+00  0.76207286837E+03  0.76207286839E+03  0.50400001928E-02 0.  1.
        1   -1    0    0  501    0  0.00000000000E+00  0.00000000000E+00 -0.14436657976E+04  0.14436657976E+04  0.50400001928E-02 0. -1.
    10030    2    1    2    0    0  0.00000000000E+00  0.00000000000E+00 -0.68159292926E+03  0.22057386660E+04  0.20977879163E+04 0.  0.
        5    1    3    3  502    0 -0.92467941389E+03 -0.12499573060E+03  0.16291784604E+03  0.94721711645E+03  0.46999998093E+01 0. -1.
       -5    1    3    3    0  502  0.92467941389E+03  0.12499573060E+03 -0.84451077530E+03  0.12585215496E+04  0.46999998093E+01 0.  1.
</event>
<event>
 5   0  0.2789662E-05  0.2111947E+04  0.7818609E-02  0.8555999E-01
       -1   -1    0    0    0  501  0.00000000000E+00  0.00000000000E+00  0.98387093089E+03  0.98387093090E+03  0.50400001928E-02 0.  1.
        1   -1    0    0  501    0  0.00000000000E+00  0.00000000000E+00 -0.11333605171E+04  0.11333605171E+04  0.50400001928E-02 0. -1.
    10030    2    1    2    0    0  0.00000000000E+00  0.00000000000E+00 -0.14948958625E+03  0.21172314480E+04  0.21119474113E+04 0.  0.
        4    1    3    3  502    0 -0.62881413741E+03 -0.59012580684E+03  0.53622498832E+03  0.10154774928E+04  0.12699999809E+01 0.  1.
       -4    1    3    3    0  502  0.62881413741E+03  0.59012580684E+03 -0.68571457457E+03  0.11017539553E+04  0.12699999809E+01 0. -1.
</event>
<event>
 5   0  0.5462851E-05  0.2099072E+04  0.7818609E-02  0.8561652E-01
        2   -1    0    0  501    0  0.00000000000E+00  0.00000000000E+00  0.12604486007E+04  0.12604486007E+04  0.25500000920E-02 0.  1.
       -2   -1    0    0    0  501  0.00000000000E+00  0.00000000000E+00 -0.87391596404E+03  0.87391596405E+03  0.25500000920E-02 0. -1.
    10030    2    1    2    0    0  0.00000000000E+00  0.00000000000E+00  0.38653263667E+03  0.21343645648E+04  0.20990723227E+04 0.  0.
        1    1    3    3  502    0 -0.50714415880E+03 -0.88592016561E+03  0.44124457146E+03  0.11120910527E+04  0.50400001928E-02 0. -1.
       -1    1    3    3    0  502  0.50714415880E+03  0.88592016561E+03 -0.54711934791E+02  0.10222735121E+04  0.50400001928E-02 0.  1.
</event>
<event>
 5   0  0.2602060E-05  0.2147310E+04  0.7818609E-02  0.8540684E-01
        1   -1    0    0  501    0  0.00000000000E+00  0.00000000000E+00  0.14905228025E+04  0.14905228025E+04  0.50400001928E-02 0.  1.
       -1   -1    0    0    0  501  0.00000000000E+00  0.00000000000E+00 -0.77337650461E+03  0.77337650462E+03  0.50400001928E-02 0. -1.
    10030    2    1    2    0    0  0.00000000000E+00  0.00000000000E+00  0.71714629788E+03  0.22638993071E+04  0.21473102385E+04 0.  0.
        1    1    3    3  502    0 -0.52938379818E+03  0.65581252261E+03 -0.34267045164E+03  0.90981333747E+03  0.50400001928E-02 0. -1.
       -1    1    3    3    0  502  0.52938379818E+03 -0.65581252261E+03  0.10598167495E+04  0.13540859696E+04  0.50400001928E-02 0.  1.
</event>
<event>
 5   0  0.5506332E-05  0.2110720E+04  0.7818609E-02  0.8556536E-01
       -2   -1    0    0    0  501  0.00000000000E+00  0.00000000000E+00  0.85893645630E+03  0.85893645631E+03  0.25500000920E-02 0.  1.
        2   -1    0    0  501    0  0.00000000000E+00  0.00000000000E+00 -0.12967018000E+04  0.12967018000E+04  0.25500000920E-02 0. -1.
    10030    2    1    2    0    0  0.00000000000E+00  0.00000000000E+00 -0.43776534367E+03  0.21556382563E+04  0.21107197341E+04 0.  0.
        3    1    3    3  502    0  0.36430712824E+03  0.17469366046E+03 -0.12145908685E+04  0.12800267757E+04  0.10100000352E+00 0. -1.
       -3    1    3    3    0  502 -0.36430712824E+03 -0.17469366046E+03  0.77682552478E+03  0.87561148054E+03  0.10100000352E+00 0.  1.
</event>
<event>
 5   0  0.5462851E-05  0.2092591E+04  0.7818609E-02  0.8564514E-01
        2   -1    0    0  501    0  0.00000000000E+00  0.00000000000E+00  0.95575408137E+03  0.95575408138E+03  0.25500000920E-02 0.  1.
       -2   -1    0    0    0  501  0.00000000000E+00  0.00000000000E+00 -0.11454139885E+04  0.11454139885E+04  0.25500000920E-02 0. -1.
    10030    2    1    2    0    0  0.00000000000E+00  0.00000000000E+00 -0.18965990714E+03  0.21011680699E+04  0.20925908290E+04 0.  0.
        1    1    3    3  502    0  0.42489566054E+03  0.56150735570E+03  0.68223310688E+03  0.98044318805E+03  0.50400001928E-02 0.  1.
       -1    1    3    3    0  502 -0.42489566054E+03 -0.56150735570E+03 -0.87189301402E+03  0.11207248818E+04  0.50400001928E-02 0. -1.
</event>
<event>
 5   0  0.5462851E-05  0.2092831E+04  0.7818609E-02  0.8564408E-01
        2   -1    0    0  501    0  0.00000000000E+00  0.00000000000E+00  0.14458938951E+04  0.14458938951E+04  0.25500000920E-02 0. -1.
       -2   -1    0    0    0  501  0.00000000000E+00  0.00000000000E+00 -0.75730689675E+03  0.75730689676E+03  0.25500000920E-02 0.  1.
    10030    2    1    2    0    0  0.00000000000E+00  0.00000000000E+00  0.68858699835E+03  0.22032007919E+04  0.20928310192E+04 0.  0.
        1    1    3    3  502    0  0.82339219980E+03  0.63495330579E+03  0.22042341001E+03  0.10628861157E+04  0.50400001928E-02 0. -1.
       -1    1    3    3    0  502 -0.82339219980E+03 -0.63495330579E+03  0.46816358834E+03  0.11403146762E+04  0.50400001928E-02 0.  1.
</event>
<event>
 5   0  0.5866610E-05  0.2097458E+04  0.7818609E-02  0.8562364E-01
        2   -1    0    0  501    0  0.00000000000E+00  0.00000000000E+00  0.11259415876E+04  0.11259415876E+04  0.25500000920E-02 0. -1.
       -2   -1    0    0    0  501  0.00000000000E+00  0.00000000000E+00 -0.97681115898E+03  0.97681115898E+03  0.25500000920E-02 0.  1.
    10030    2    1    2    0    0  0.00000000000E+00  0.00000000000E+00  0.14913042859E+03  0.21027527465E+04  0.20974578013E+04 0.  0.
        5    1    3    3  502    0 -0.10100624135E+04  0.28203423718E+03  0.80970952650E+02  0.10518306780E+04  0.46999998093E+01 0.  1.
       -5    1    3    3    0  502  0.10100624135E+04 -0.28203423718E+03  0.68159475939E+02  0.10509220685E+04  0.46999998093E+01 0. -1.
</event>
<event>
 5   0  0.2604390E-05  0.2095197E+04  0.7818609E-02  0.8563362E-01
        1   -1    0    0  501    0  0.00000000000E+00  0.00000000000E+00  0.48133149844E+03  0.48133149846E+03  0.50400001928E-02 0. -1.
       -1   -1    0    0    0  501  0.00000000000E+00  0.00000000000E+00 -0.22800560680E+04  0.22800560680E+04  0.50400001928E-02 0.  1.
    10030    2    1    2    0    0  0.00000000000E+00  0.00000000000E+00 -0.17987245695E+04  0.27613875665E+04  0.20951971781E+04 0.  0.
        5    1    3    3  502    0  0.33488822035E+03 -0.76607400554E+03 -0.17312672004E+04  0.19225836032E+04  0.46999998093E+01 0.  1.
       -5    1    3    3    0  502 -0.33488822035E+03  0.76607400554E+03 -0.67457369126E+02  0.83880396324E+03  0.46999998093E+01 0. -1.
</event>
<event>
 5   0  0.5506332E-05  0.2123277E+04  0.7818609E-02  0.8551058E-01
       -2   -1    0    0    0  501  0.00000000000E+00  0.00000000000E+00  0.55535235908E+03  0.55535235909E+03  0.25500000920E-02 0. -1.
        2   -1    0    0  501    0  0.00000000000E+00  0.00000000000E+00 -0.20294802864E+04  0.20294802864E+04  0.25500000920E-02 0.  1.
    10030    2    1    2    0    0  0.00000000000E+00  0.00000000000E+00 -0.14741279274E+04  0.25848326455E+04  0.21232773392E+04 0.  0.
        3    1    3    3  502    0 -0.57456464841E+03  0.87284215811E+03 -0.50899240172E+03  0.11623472990E+04  0.10100000352E+00 0. -1.
       -3    1    3    3    0  502  0.57456464841E+03 -0.87284215811E+03 -0.96513552563E+03  0.14224853466E+04  0.10100000352E+00 0.  1.
</event>
<event>
 5   0  0.2699285E-05  0.2117027E+04  0.7818609E-02  0.8553780E-01
       -1   -1    0    0    0  501  0.00000000000E+00  0.00000000000E+00  0.91958027605E+03  0.91958027606E+03  0.50400001928E-02 0.  1.
        1   -1    0    0  501    0  0.00000000000E+00  0.00000000000E+00 -0.12184368775E+04  0.12184368775E+04  0.50400001928E-02 0. -1.
    10030    2    1    2    0    0  0.00000000000E+00  0.00000000000E+00 -0.29885660146E+03  0.21380171536E+04  0.21170267076E+04 0.  0.
        2    1    3    3  502    0  0.68958463241E+02 -0.69001730845E+03 -0.95708974973E+03  0.11819052181E+04  0.25500000920E-02 0. -1.
       -2    1    3    3    0  502 -0.68958463241E+02  0.69001730845E+03  0.65823314827E+03  0.95611193545E+03  0.25500000920E-02 0.  1.
</event>
<event>
 5   0  0.2602060E-05  0.2092756E+04  0.7818609E-02  0.8564441E-01
        1   -1    0    0  501    0  0.00000000000E+00  0.00000000000E+00  0.99035875761E+03  0.99035875762E+03  0.50400001928E-02 0.  1.
       -1   -1    0    0    0  501  0.00000000000E+00  0.00000000000E+00 -0.11055655008E+04  0.11055655008E+04  0.50400001928E-02 0. -1.
    10030    2    1    2    0    0  0.00000000000E+00  0.00000000000E+00 -0.11520674322E+03  0.20959242585E+04  0.20927555766E+04 0.  0.
        1    1    3    3  502    0 -0.71597587273E+03  0.70181073832E+03 -0.35763452555E+03  0.10644539523E+04  0.50400001928E-02 0. -1.
       -1    1    3    3    0  502  0.71597587273E+03 -0.70181073832E+03  0.24242778233E+03  0.10314703061E+04  0.50400001928E-02 0.  1.
</event>
<event>
 5   0  0.2732159E-05  0.2111803E+04  0.7818609E-02  0.8556062E-01
       -1   -1    0    0    0  501  0.00000000000E+00  0.00000000000E+00  0.10461262496E+04  0.10461262496E+04  0.50400001928E-02 0. -1.
        1   -1    0    0  501    0  0.00000000000E+00  0.00000000000E+00 -0.10657676333E+04  0.10657676334E+04  0.50400001928E-02 0.  1.
    10030    2    1    2    0    0  0.00000000000E+00  0.00000000000E+00 -0.19641383766E+02  0.21118938829E+04  0.21118025449E+04 0.  0.
        3    1    3    3  502    0 -0.41983662086E+03  0.96501891832E+03  0.76224798939E+02  0.10551466870E+04  0.10100000352E+00 0.  1.
       -3    1    3    3    0  502  0.41983662086E+03 -0.96501891832E+03 -0.95866182704E+02  0.10567471959E+04  0.10100000352E+00 0. -1.
</event>
<event>
 5   0  0.2732159E-05  0.2088719E+04  0.7818609E-02  0.8566229E-01
       -1   -1    0    0    0  501  0.00000000000E+00  0.00000000000E+00  0.83423403173E+03  0.83423403175E+03  0.50400001928E-02 0.  1.
        1   -1    0    0  501    0  0.00000000000E+00  0.00000000000E+00 -0.13074109069E+04  0.13074109069E+04  0.50400001928E-02 0. -1.
    10030    2    1    2    0    0  0.00000000000E+00  0.00000000000E+00 -0.47317687512E+03  0.21416449386E+04  0.20887189107E+04 0.  0.
        3    1    3    3  502    0 -0.26415025021E+03 -0.24921678462E+03 -0.12405844925E+04  0.12926462214E+04  0.10100000352E+00 0. -1.
       -3    1    3    3    0  502  0.26415025021E+03  0.24921678462E+03  0.76740761739E+03  0.84899871722E+03  0.10100000352E+00 0.  1.
</event>
<event>
 5   0  0.5954140E-05  0.2104860E+04  0.7818609E-02  0.8559106E-01
       -2   -1    0    0    0  501  0.00000000000E+00  0.00000000000E+00  0.15648994094E+04  0.15648994094E+04  0.25500000920E-02 0. -1.
        2   -1    0    0  501    0  0.00000000000E+00  0.00000000000E+00 -0.70778274569E+03  0.70778274570E+03  0.25500000920E-02 0.  1.
    10030    2    1    2    0    0  0.00000000000E+00  0.00000000000E+00  0.85711666374E+03  0.22726821551E+04  0.21048599010E+04 0.  0.
        2    1    3    3  502    0  0.84417456448E+03  0.14614931496E+03 -0.23142001002E+03  0.88743762520E+03  0.25500000920E-02 0.  1.
       -2    1    3    3    0  502 -0.84417456448E+03 -0.14614931496E+03  0.10885366738E+04  0.13852445299E+04  0.25500000920E-02 0. -1.
</event>
<event>
 5   0  0.2604390E-05  0.2104805E+04  0.7818609E-02  0.8559130E-01
       -1   -1    0    0    0  501  0.00000000000E+00  0.00000000000E+00  0.10016620417E+04  0.10016620417E+04  0.50400001928E-02 0.  1.
        1   -1    0    0  501    0  0.00000000000E+00  0.00000000000E+00 -0.11057135150E+04  0.11057135150E+04  0.50400001928E-02 0. -1.
    10030    2    1    2    0    0  0.00000000000E+00  0.00000000000E+00 -0.10405147329E+03  0.21073755567E+04  0.21048052233E+04 0.  0.
        5    1    3    3  502    0 -0.20197627418E+03  0.19069101738E+03 -0.10683375738E+04  0.11038680814E+04  0.46999998093E+01 0. -1.
       -5    1    3    3    0  502  0.20197627418E+03 -0.19069101738E+03  0.96428610053E+03  0.10035074754E+04  0.46999998093E+01 0.  1.
</event>
<event>
 5   0  0.5866610E-05  0.2074552E+04  0.7818609E-02  0.8572537E-01
       -2   -1    0    0    0  501  0.00000000000E+00  0.00000000000E+00  0.77596957306E+03  0.77596957306E+03  0.25500000920E-02 0.  1.
        2   -1    0    0  501    0  0.00000000000E+00  0.00000000000E+00 -0.13865764609E+04  0.13865764609E+04  0.25500000920E-02 0. -1.
    10030    2    1    2    0    0  0.00000000000E+00  0.00000000000E+00 -0.61060688785E+03  0.21625460340E+04  0.20745516570E+04 0.  0.
        5    1    3    3  502    0  0.76703843436E+03 -0.47949189955E+03  0.22382784085E+03  0.93186985886E+03  0.46999998093E+01 0.  1.
       -5    1    3    3    0  502 -0.76703843436E+03  0.47949189955E+03 -0.83443472869E+03  0.12306761751E+04  0.46999998093E+01 0. -1.
</event>
<event>
 5   0  0.2699285E-05  0.2089158E+04  0.7818609E-02  0.8566034E-01
       -1   -1    0    0    0  501  0.00000000000E+00  0.00000000000E+00  0.80256143322E+03  0.80256143323E+03  0.50400001928E-02 0.  1.
        1   -1    0    0  501    0  0.00000000000E+00  0.00000000000E+00 -0.13595784109E+04  0.13595784109E+04  0.50400001928E-02 0. -1.
    10030    2    1    2    0    0  0.00000000000E+00  0.00000000000E+00 -0.55701697771E+03  0.21621398442E+04  0.20891579146E+04 0.  0.
        2    1    3    3  502    0  0.55079926646E+03 -0.36753077370E+03  0.55760422122E+03  0.86566804785E+03  0.25500000920E-02 0.  1.
       -2    1    3    3    0  502 -0.55079926646E+03  0.36753077370E+03 -0.11146211989E+04  0.12964717963E+04  0.25500000920E-02 0. -1.
</event>
<event>
 5   0  0.2699285E-05  0.2136938E+04  0.7818609E-02  0.8545144E-01
        1   -1    0    0  501    0  0.00000000000E+00  0.00000000000E+00  0.77026143574E+03  0.77026143576E+03  0.50400001928E-02 0. -1.
       -1   -1    0    0    0  501  0.00000000000E+00  0.00000000000E+00 -0.14821273951E+04  0.14821273951E+04  0.50400001928E-02 0.  1.
    10030    2    1    2    0    0  0.00000000000E+00  0.00000000000E+00 -0.71186595936E+03  0.22523888309E+04  0.21369375988E+04 0.  0.
        2    1    3    3  502    0 -0.20647077724E+03  0.28398368808E+03 -0.14195854975E+04  0.14623610709E+04  0.25500000920E-02 0.  1.
       -2    1    3    3    0  502  0.20647077724E+03 -0.28398368808E+03  0.70771953811E+03  0.79002776000E+03  0.25500000920E-02 0. -1.
</event>
<event>
 5   0  0.2602060E-05  0.2111952E+04  0.7818609E-02  0.8555997E-01
        1   -1    0    0  501    0  0.00000000000E+00  0.00000000000E+00  0.13098570269E+04  0.13098570269E+04  0.50400001928E-02 0.  1.
       -1   -1    0    0    0  501  0.00000000000E+00  0.00000000000E+00 -0.85130295306E+03  0.85130295307E+03  0.50400001928E-02 0. -1.
    10030    2    1    2    0    0  0.00000000000E+00  0.00000000000E+00  0.45855407381E+03  0.21611599800E+04  0.21119518509E+04 0.  0.
        1    1    3    3  502    0  0.15467833308E+03  0.74748080532E+03  0.97595797762E+03  0.12390104581E+04  0.50400001928E-02 0.  1.
       -1    1    3    3    0  502 -0.15467833308E+03 -0.74748080532E+03 -0.51740390381E+03  0.92214952191E+03  0.50400001928E-02 0. -1.
</event>
<event>
 5   0  0.2699285E-05  0.2089393E+04  0.7818609E-02  0.8565930E-01
        1   -1    0    0  501    0  0.00000000000E+00  0.00000000000E+00  0.12412626797E+04  0.12412626797E+04  0.50400001928E-02 0.  1.
       -1   -1    0    0    0  501  0.00000000000E+00  0.00000000000E+00 -0.87925852600E+03  0.87925852601E+03  0.50400001928E-02 0. -1.
    10030    2    1    2    0    0  0.00000000000E+00  0.00000000000E+00  0.36200415365E+03  0.21205212057E+04  0.20893930163E+04 0.  0.
        2    1    3    3  502    0  0.75680590673E+02 -0.27817066676E+03 -0.83809132176E+03  0.88628637317E+03  0.25500000920E-02 0. -1.
       -2    1    3    3    0  502 -0.75680590673E+02  0.27817066676E+03  0.12000954754E+04  0.12342348325E+04  0.25500000920E-02 0.  1.
</event>
<event>
 5   0  0.5462851E-05  0.2118350E+04  0.7818609E-02  0.8553203E-01
        2   -1    0    0  501    0  0.00000000000E+00  0.00000000000E+00  0.21200661602E+04  0.21200661602E+04  0.25500000920E-02 0.  1.
       -2   -1    0    0    0  501  0.00000000000E+00  0.00000000000E+00 -0.52915864691E+03  0.52915864691E+03  0.25500000920E-02 0. -1.
    10030    2    1    2    0    0  0.00000000000E+00  0.00000000000E+00  0.15909075133E+04  0.26492248071E+04  0.21183496791E+04 0.  0.
        1    1    3    3  502    0  0.33649261475E+03  0.16973350373E+03 -0.44246776891E+03  0.58121809041E+03  0.50400001928E-02 0. -1.
       -1    1    3    3    0  502 -0.33649261475E+03 -0.16973350373E+03  0.20333752822E+04  0.20680067167E+04  0.50400001928E-02 0.  1.
</event>
<event>
 5   0  0.5462851E-05  0.2089494E+04  0.7818609E-02  0.8565886E-01
       -2   -1    0    0    0  501  0.00000000000E+00  0.00000000000E+00  0.12670468198E+04  0.12670468198E+04  0.25500000920E-02 0. -1.
        2   -1    0    0  501    0  0.00000000000E+00  0.00000000000E+00 -0.86144905319E+03  0.86144905319E+03  0.25500000920E-02 0.  1.
    10030    2    1    2    0    0  0.00000000000E+00  0.00000000000E+00  0.40559776660E+03  0.21284958730E+04  0.20894939897E+04 0.  0.
        1    1    3    3  502    0 -0.55415895579E+03  0.88118925975E+03  0.29339500169E+03  0.10815115750E+04  0.50400001928E-02 0. -1.
       -1    1    3    3    0  502  0.55415895579E+03 -0.88118925975E+03  0.11220276491E+03  0.10469842980E+04  0.50400001928E-02 0.  1.
</event>
<event>
 5   0  0.2789662E-05  0.2124067E+04  0.7818609E-02  0.8550715E-01
        1   -1    0    0  501    0  0.00000000000E+00  0.00000000000E+00  0.28967029310E+04  0.28967029310E+04  0.50400001928E-02 0. -1.
       -1   -1    0    0    0  501  0.00000000000E+00  0.00000000000E+00 -0.38937892466E+03  0.38937892470E+03  0.50400001928E-02 0.  1.
    10030    2    1    2    0    0  0.00000000000E+00  0.00000000000E+00  0.25073240063E+04  0.32860818557E+04  0.21240669221E+04 0.  0.
        4    1    3    3  502    0 -0.28304108282E+03 -0.10233239261E+04  0.12154726247E+04  0.16139019260E+04  0.12699999809E+01 0.  1.
       -4    1    3    3    0  502  0.28304108282E+03  0.10233239261E+04  0.12918513816E+04  0.16721799297E+04  0.12699999809E+01 0. -1.
</event>
<event>
 5   0  0.5866610E-05  0.2098092E+04  0.7818609E-02  0.8562084E-01
       -2   -1    0    0    0  501  0.00000000000E+00  0.00000000000E+00  0.58754461255E+03  0.58754461256E+03  0.25500000920E-02 0.  1.
        2   -1    0    0  501    0  0.00000000000E+00  0.00000000000E+00 -0.18730452639E+04  0.18730452639E+04  0.25500000920E-02 0. -1.
    10030    2    1    2    0    0  0.00000000000E+00  0.00000000000E+00 -0.12855006514E+04  0.24605898765E+04  0.20980921370E+04 0.  0.
        5    1    3    3  502    0  0.55537616546E+03 -0.85879168034E+03 -0.36893882457E+03  0.10872459619E+04  0.46999998093E+01 0. -1.
       -5    1    3    3    0  502 -0.55537616546E+03  0.85879168034E+03 -0.91656182678E+03  0.13733439146E+04  0.46999998093E+01 0.  1.
</event>
<event>
 5   0  0.2604390E-05  0.2075019E+04  0.7818609E-02  0.8572328E-01
        1   -1    0    0  501    0  0.00000000000E+00  0.00000000000E+00  0.10583422879E+04  0.10583422879E+04  0.50400001928E-02 0.  1.
       -1   -1    0    0    0  501  0.00000000000E+00  0.00000000000E+00 -0.10170863616E+04  0.10170863616E+04  0.50400001928E-02 0. -1.
    10030    2    1    2    0    0  0.00000000000E+00  0.00000000000E+00  0.41255926233E+02  0.20754286495E+04  0.20750185608E+04 0.  0.
        5    1    3    3  502    0  0.32176780490E+03  0.40898570935E+03 -0.87710141767E+03  0.10198690198E+04  0.46999998093E+01 0. -1.
       -5    1    3    3    0  502 -0.32176780490E+03 -0.40898570935E+03  0.91835734391E+03  0.10555596297E+04  0.46999998093E+01 0.  1.
</event>
<event>
 5   0  0.2699285E-05  0.2110469E+04  0.7818609E-02  0.8556646E-01
        1   -1    0    0  501    0  0.00000000000E+00  0.00000000000E+00  0.69680112812E+03  0.69680112814E+03  0.50400001928E-02 0. -1.
       -1   -1    0    0    0  501  0.00000000000E+00  0.00000000000E+00 -0.15980459841E+04  0.15980459841E+04  0.50400001928E-02 0.  1.
    10030    2    1    2    0    0  0.00000000000E+00  0.00000000000E+00 -0.90124485598E+03  0.22948471123E+04  0.21104693739E+04 0.  0.
        2    1    3    3  502    0 -0.53459398545E+03  0.20879949077E+03 -0.14134962320E+04  0.15255686004E+04  0.25500000920E-02 0.  1.
       -2    1    3    3    0  502  0.53459398545E+03 -0.20879949077E+03  0.51225137599E+03  0.76927851188E+03  0.25500000920E-02 0. -1.
</event>
<event>
 5   0  0.5866610E-05  0.2087799E+04  0.7818609E-02  0.8566637E-01
       -2   -1    0    0    0  501  0.00000000000E+00  0.00000000000E+00  0.14294781884E+04  0.14294781884E+04  0.25500000920E-02 0. -1.
        2   -1    0    0  501    0  0.00000000000E+00  0.00000000000E+00 -0.76232477403E+03  0.76232477404E+03  0.25500000920E-02 0.  1.
    10030    2    1    2    0    0  0.00000000000E+00  0.00000000000E+00  0.66715341438E+03  0.21918029625E+04  0.20877994511E+04 0.  0.
        5    1    3    3  502    0  0.35062302896E+03 -0.32446202739E+02 -0.69808493288E+03  0.78187846116E+03  0.46999998093E+01 0.  1.
       -5    1    3    3    0  502 -0.35062302896E+03  0.32446202739E+02  0.13652383473E+04  0.14099245013E+04  0.46999998093E+01 0. -1.
</event>
<event>
 5   0  0.5462851E-05  0.2095581E+04  0.7818609E-02  0.8563192E-01
       -2   -1    0    0    0  501  0.00000000000E+00  0.00000000000E+00  0.55857918204E+03  0.55857918204E+03  0.25500000920E-02 0.  1.
        2   -1    0    0  501    0  0.00000000000E+00  0.00000000000E+00 -0.19654602130E+04  0.19654602130E+04  0.25500000920E-02 0. -1.
    10030    2    1    2    0    0  0.00000000000E+00  0.00000000000E+00 -0.14068810310E+04  0.25240393951E+04  0.20955812159E+04 0.  0.
        1    1    3    3  502    0  0.77562808774E+03  0.59784585035E+03 -0.25463394639E+03  0.10118582104E+04  0.50400001928E-02 0.  1.
       -1    1    3    3    0  502 -0.77562808774E+03 -0.59784585035E+03 -0.11522470846E+04  0.15121811847E+04  0.50400001928E-02 0. -1.
</event>
<event>
 5   0  0.2789662E-05  0.2079263E+04  0.7818609E-02  0.8570434E-01
       -1   -1    0    0    0  501  0.00000000000E+00  0.00000000000E+00  0.11916172541E+04  0.11916172542E+04  0.50400001928E-02 0.  1.
        1   -1    0    0  501    0  0.00000000000E+00  0.00000000000E+00 -0.90703056953E+03  0.90703056954E+03  0.50400001928E-02 0. -1.
    10030    2    1    2    0    0  0.00000000000E+00  0.00000000000E+00  0.28458668461E+03  0.20986478237E+04  0.20792626354E+04 0.  0.
        4    1    3    3  502    0 -0.33782511977E+03 -0.61338632742E+03  0.91787331220E+03  0.11544962661E+04  0.12699999809E+01 0.  1.
       -4    1    3    3    0  502  0.33782511977E+03  0.61338632742E+03 -0.63328662758E+03  0.94415155764E+03  0.12699999809E+01 0. -1.
</event>
<event>
 5   0  0.2017750E-05  0.2084568E+04  0.7818609E-02  0.8568072E-01
        3   -1    0    0  501    0  0.00000000000E+00  0.00000000000E+00  0.17596407005E+04  0.17596407034E+04  0.10100000352E+00 0. -1.
       -3   -1    0    0    0  501  0.00000000000E+00  0.00000000000E+00 -0.61737347572E+03  0.61737348398E+03  0.10100000352E+00 0.  1.
    10030    2    1    2    0    0  0.00000000000E+00  0.00000000000E+00  0.11422672248E+04  0.23770141874E+04  0.20845675893E+04 0.  0.
        4    1    3    3  502    0 -0.56989521533E+03  0.79699626237E+03  0.16577603495E+03  0.99371369385E+03  0.12699999809E+01 0.  1.
       -4    1    3    3    0  502  0.56989521533E+03 -0.79699626237E+03  0.97649118984E+03  0.13833004935E+04  0.12699999809E+01 0. -1.
</event>
<event>
 5   0  0.2604390E-05  0.2113835E+04  0.7818609E-02  0.8555173E-01
       -1   -1    0    0    0  501  0.00000000000E+00  0.00000000000E+00  0.95842626420E+03  0.95842626421E+03  0.50400001928E-02 0.  1.
        1   -1    0    0  501    0  0.00000000000E+00  0.00000000000E+00 -0.11655305471E+04  0.11655305471E+04  0.50400001928E-02 0. -1.
    10030    2    1    2    0    0  0.00000000000E+00  0.00000000000E+00 -0.20710428292E+03  0.21239568113E+04  0.21138354601E+04 0.  0.
        5    1    3    3  502    0 -0.66069105942E+03 -0.82240952868E+03 -0.38567206871E+02  0.10556418087E+04  0.46999998093E+01 0. -1.
       -5    1    3    3    0  502  0.66069105942E+03  0.82240952868E+03 -0.16853707605E+03  0.10683150026E+04  0.46999998093E+01 0.  1.
</event>
<event>
 5   0  0.2732159E-05  0.2083956E+04  0.7818609E-02  0.8568344E-01
        1   -1    0    0  501    0  0.00000000000E+00  0.00000000000E+00  0.15477454865E+04  0.15477454865E+04  0.50400001928E-02 0.  1.
       -1   -1    0    0    0  501  0.00000000000E+00  0.00000000000E+00 -0.70148335590E+03  0.70148335592E+03  0.50400001928E-02 0. -1.
    10030    2    1    2    0    0  0.00000000000E+00  0.00000000000E+00  0.84626213058E+03  0.22492288424E+04  0.20839555638E+04 0.  0.
        3    1    3    3  502    0 -0.22773974233E+03 -0.26988631715E+02  0.15201683708E+04  0.15373697220E+04  0.10100000352E+00 0.  1.
       -3    1    3    3    0  502  0.22773974233E+03  0.26988631715E+02 -0.67390624021E+03  0.71185912038E+03  0.10100000352E+00 0. -1.
</event>
<event>
 5   0  0.2604390E-05  0.2109103E+04  0.7818609E-02  0.8557244E-01
       -1   -1    0    0    0  501  0.00000000000E+00  0.00000000000E+00  0.90106483335E+03  0.90106483336E+03  0.50400001928E-02 0. -1.
        1   -1    0    0  501    0  0.00000000000E+00  0.00000000000E+00 -0.12341825625E+04  0.12341825625E+04  0.50400001928E-02 0.  1.
    10030    2    1    2    0    0  0.00000000000E+00  0.00000000000E+00 -0.33311772917E+03  0.21352473959E+04  0.21091026576E+04 0.  0.
        5    1    3    3  502    0  0.49754443409E+03 -0.58930006254E+03 -0.89466202764E+03  0.11812143164E+04  0.46999998093E+01 0.  1.
       -5    1    3    3    0  502 -0.49754443409E+03  0.58930006254E+03  0.56154429847E+03  0.95403307948E+03  0.46999998093E+01 0. -1.
</event>
<event>
 5   0  0.2789662E-05  0.2117782E+04  0.7818609E-02  0.8553450E-01
       -1   -1    0    0    0  501  0.00000000000E+00  0.00000000000E+00  0.98765343697E+03  0.98765343698E+03  0.50400001928E-02 0.  1.
        1   -1    0    0  501    0  0.00000000000E+00  0.00000000000E+00 -0.11352669598E+04  0.11352669598E+04  0.50400001928E-02 0. -1.
    10030    2    1    2    0    0  0.00000000000E+00  0.00000000000E+00 -0.14761352284E+03  0.21229203968E+04  0.21177821557E+04 0.  0.
        4    1    3    3  502    0  0.41118272968E+03 -0.48078107297E+03  0.77738653838E+03  0.10022739747E+04  0.12699999809E+01 0.  1.
       -4    1    3    3    0  502 -0.41118272968E+03  0.48078107297E+03 -0.92500006122E+03  0.11206464221E+04  0.12699999809E+01 0. -1.
</event>
<event>
 5   0  0.2604390E-05  0.2094415E+04  0.7818609E-02  0.8563707E-01
       -1   -1    0    0    0  501  0.00000000000E+00  0.00000000000E+00  0.50168248001E+03  0.50168248004E+03  0.50400001928E-02 0.  1.
        1   -1    0    0  501    0  0.00000000000E+00  0.00000000000E+00 -0.21859321916E+04  0.21859321916E+04  0.50400001928E-02 0. -1.
    10030    2    1    2    0    0  0.00000000000E+00  0.00000000000E+00 -0.16842497116E+04  0.26876146717E+04  0.20944153199E+04 0.  0.
        5    1    3    3  502    0 -0.29387814448E+03  0.26354860135E+03  0.40254092856E+03  0.56381159818E+03  0.46999998093E+01 0.  1.
       -5    1    3    3    0  502  0.29387814448E+03 -0.26354860135E+03 -0.20867906402E+04  0.21238030735E+04  0.46999998093E+01 0. -1.
</event>
<event>
 5   0  0.5967046E-05  0.2092525E+04  0.7818609E-02  0.8564543E-01
        2   -1    0    0  501    0  0.00000000000E+00  0.00000000000E+00  0.13429276826E+04  0.13429276826E+04  0.25500000920E-02 0.  1.
       -2   -1    0    0    0  501  0.00000000000E+00  0.00000000000E+00 -0.81513337006E+03  0.81513337007E+03  0.25500000920E-02 0. -1.
    10030    2    1    2    0    0  0.00000000000E+00  0.00000000000E+00  0.52779431255E+03  0.21580610527E+04  0.20925249510E+04 0.  0.
        4    1    3    3  502    0  0.78335286449E+02 -0.72064627755E+03  0.10419767620E+04  0.12693244896E+04  0.12699999809E+01 0.  1.
       -4    1    3    3    0  502 -0.78335286449E+02  0.72064627755E+03 -0.51418244940E+03  0.88873656312E+03  0.12699999809E+01 0. -1.
</event>
<event>
 5   0  0.2604390E-05  0.2085358E+04  0.7818609E-02  0.8567721E-01
        1   -1    0    0  501    0  0.00000000000E+00  0.00000000000E+00  0.10751650439E+04  0.10751650439E+04  0.50400001928E-02 0.  1.
       -1   -1    0    0    0  501  0.00000000000E+00  0.00000000000E+00 -0.10111748805E+04  0.10111748805E+04  0.50400001928E-02 0. -1.
    10030    2    1    2    0    0  0.00000000000E+00  0.00000000000E+00  0.63990163394E+02  0.20863399244E+04  0.20853583718E+04 0.  0.
        5    1    3    3  502    0  0.93557625735E+03 -0.30962737587E+03 -0.30873202520E+03  0.10327195159E+04  0.46999998093E+01 0. -1.
       -5    1    3    3    0  502 -0.93557625735E+03  0.30962737587E+03  0.37272218860E+03  0.10536204084E+04  0.46999998093E+01 0.  1.
</event>
<event>
 5   0  0.5506332E-05  0.2084459E+04  0.7818609E-02  0.8568121E-01
       -2   -1    0    0    0  501  0.00000000000E+00  0.00000000000E+00  0.92303174741E+03  0.92303174741E+03  0.25500000920E-02 0.  1.
        2   -1    0    0  501    0  0.00000000000E+00  0.00000000000E+00 -0.11768196746E+04  0.11768196746E+04  0.25500000920E-02 0. -1.
    10030    2    1    2    0    0  0.00000000000E+00  0.00000000000E+00 -0.25378792721E+03  0.20998514220E+04  0.20844586066E+04 0.  0.
        3    1    3    3  502    0 -0.96539374729E+03 -0.39189981513E+03 -0.10079204718E+03  0.10467710348E+04  0.10100000352E+00 0. -1.
       -3    1    3    3    0  502  0.96539374729E+03  0.39189981513E+03 -0.15299588002E+03  0.10530803872E+04  0.10100000352E+00 0.  1.
</event>
<event>
 5   0  0.5506332E-05  0.2069132E+04  0.7818609E-02  0.8574964E-01
        2   -1    0    0  501    0  0.00000000000E+00  0.00000000000E+00  0.63536462018E+03  0.63536462019E+03  0.25500000920E-02 0. -1.
       -2   -1    0    0    0  501  0.00000000000E+00  0.00000000000E+00 -0.16845867790E+04  0.16845867790E+04  0.25500000920E-02 0.  1.
    10030    2    1    2    0    0  0.00000000000E+00  0.00000000000E+00 -0.10492221588E+04  0.23199513992E+04  0.20691320296E+04 0.  0.
        3    1    3    3  502    0 -0.79250320271E+03 -0.12283597934E+03  0.20820421530E+03  0.82855235779E+03  0.10100000352E+00 0. -1.
       -3    1    3    3    0  502  0.79250320271E+03  0.12283597934E+03 -0.12574263741E+04  0.14913990414E+04  0.10100000352E+00 0.  1.
</event>
<event>
 5   0  0.2699285E-05  0.2092477E+04  0.7818609E-02  0.8564565E-01
        1   -1    0    0  501    0  0.00000000000E+00  0.00000000000E+00  0.13271509070E+04  0.13271509070E+04  0.50400001928E-02 0.  1.
       -1   -1    0    0    0  501  0.00000000000E+00  0.00000000000E+00 -0.82478545352E+03  0.82478545354E+03  0.50400001928E-02 0. -1.
    10030    2    1    2    0    0  0.00000000000E+00  0.00000000000E+00  0.50236545345E+03  0.21519363605E+04  0.20924767743E+04 0.  0.
        2    1    3    3  502    0 -0.34463977821E+03 -0.89532455090E+03 -0.17808961367E+03  0.97575536825E+03  0.25500000920E-02 0. -1.
       -2    1    3    3    0  502  0.34463977821E+03  0.89532455090E+03  0.68045506712E+03  0.11761809923E+04  0.25500000920E-02 0.  1.
</event>
<event>
 5   0  0.5866610E-05  0.2109730E+04  0.7818609E-02  0.8556969E-01
        2   -1    0    0  501    0  0.00000000000E+00  0.00000000000E+00  0.13341084785E+04  0.13341084785E+04  0.25500000920E-02 0.  1.
       -2   -1    0    0    0  501  0.00000000000E+00  0.00000000000E+00 -0.83406997774E+03  0.83406997775E+03  0.25500000920E-02 0. -1.
    10030    2    1    2    0    0  0.00000000000E+00  0.00000000000E+00  0.50003850071E+03  0.21681784562E+04  0.21097296784E+04 0.  0.
        5    1    3    3  502    0  0.95318072671E+03 -0.40551999241E+03  0.45204760233E+02  0.10368536649E+04  0.46999998093E+01 0.  1.
       -5    1    3    3    0  502 -0.95318072671E+03  0.40551999241E+03  0.45483374048E+03  0.11313247913E+04  0.46999998093E+01 0. -1.
</event>
<event>
 5   0  0.2604390E-05  0.2079185E+04  0.7818609E-02  0.8570468E-01
       -1   -1    0    0    0  501  0.00000000000E+00  0.00000000000E+00  0.67926197032E+03  0.67926197034E+03  0.50400001928E-02 0. -1.
        1   -1    0    0  501    0  0.00000000000E+00  0.00000000000E+00 -0.15910688978E+04  0.15910688978E+04  0.50400001928E-02 0.  1.
    10030    2    1    2    0    0  0.00000000000E+00  0.00000000000E+00 -0.91180692752E+03  0.22703308682E+04  0.20791850274E+04 0.  0.
        5    1    3    3  502    0  0.41054665135E+03  0.45559275340E+03  0.46068129929E+03  0.76704801636E+03  0.46999998093E+01 0. -1.
       -5    1    3    3    0  502 -0.41054665135E+03 -0.45559275340E+03 -0.13724882268E+04  0.15032828518E+04  0.46999998093E+01 0.  1.
</event>
<event>
 5   0  0.2699285E-05  0.2097611E+04  0.7818609E-02  0.8562296E-01
        1   -1    0    0  501    0  0.00000000000E+00  0.00000000000E+00  0.17721906451E+04  0.17721906451E+04  0.50400001928E-02 0.  1.
       -1   -1    0    0    0  501  0.00000000000E+00  0.00000000000E+00 -0.62069690692E+03  0.62069690694E+03  0.50400001928E-02 0. -1.
    10030    2    1    2    0    0  0.00000000000E+00  0.00000000000E+00  0.11514937382E+04  0.23928875520E+04  0.20976112623E+04 0.  0.
        2    1    3    3  502    0  0.27429262890E+03  0.26538586384E+02  0.17301523960E+04  0.17519612028E+04  0.25500000920E-02 0.  1.
       -2    1    3    3    0  502 -0.27429262890E+03 -0.26538586384E+02 -0.57865865782E+03  0.64092634921E+03  0.25500000920E-02 0. -1.
</event>
<event>
 5   0  0.5866610E-05  0.2106289E+04  0.7818609E-02  0.8558478E-01
       -2   -1    0    0    0  501  0.00000000000E+00  0.00000000000E+00  0.12325110926E+04  0.12325110926E+04  0.25500000920E-02 0.  1.
        2   -1    0    0  501    0  0.00000000000E+00  0.00000000000E+00 -0.89988084840E+03  0.89988084840E+03  0.25500000920E-02 0. -1.
    10030    2    1    2    0    0  0.00000000000E+00  0.00000000000E+00  0.33263024417E+03  0.21323919410E+04  0.21062888004E+04 0.  0.
        5    1    3    3  502    0 -0.16602754110E+03  0.35452602456E+03 -0.82347035303E+03  0.91180006515E+03  0.46999998093E+01 0. -1.
       -5    1    3    3    0  502  0.16602754110E+03 -0.35452602456E+03  0.11561005972E+04  0.12205918758E+04  0.46999998093E+01 0.  1.
</event>
<event>
 5   0  0.5462851E-05  0.2100373E+04  0.7818609E-02  0.8561079E-01
        2   -1    0    0  501    0  0.00000000000E+00  0.00000000000E+00  0.10090742845E+04  0.10090742845E+04  0.25500000920E-02 0.  1.
       -2   -1    0    0    0  501  0.00000000000E+00  0.00000000000E+00 -0.10929739647E+04  0.10929739647E+04  0.25500000920E-02 0. -1.
    10030    2    1    2    0    0  0.00000000000E+00  0.00000000000E+00 -0.83899680286E+02  0.21020482492E+04  0.21003732253E+04 0.  0.
        1    1    3    3  502    0  0.73720907989E+03  0.69138278089E+03 -0.32749219146E+03  0.10624210619E+04  0.50400001928E-02 0. -1.
       -1    1    3    3    0  502 -0.73720907989E+03 -0.69138278089E+03  0.24359251117E+03  0.10396271874E+04  0.50400001928E-02 0.  1.
</event>
<event>
 5   0  0.2699285E-05  0.2114025E+04  0.7818609E-02  0.8555090E-01
       -1   -1    0    0    0  501  0.00000000000E+00  0.00000000000E+00  0.74863217667E+03  0.74863217669E+03  0.50400001928E-02 0.  1.
        1   -1    0    0  501    0  0.00000000000E+00  0.00000000000E+00 -0.14924221192E+04  0.14924221192E+04  0.50400001928E-02 0. -1.
    10030    2    1    2    0    0  0.00000000000E+00  0.00000000000E+00 -0.74378994253E+03  0.22410542959E+04  0.21140248056E+04 0.  0.
        2    1    3    3  502    0  0.47213426416E+03  0.41715953113E+03  0.52783416270E+03  0.82191346328E+03  0.25500000920E-02 0.  1.
       -2    1    3    3    0  502 -0.47213426416E+03 -0.41715953113E+03 -0.12716241052E+04  0.14191408326E+04  0.25500000920E-02 0. -1.
</event>
<event>
 5   0  0.5462851E-05  0.2096240E+04  0.7818609E-02  0.8562902E-01
       -2   -1    0    0    0  501  0.00000000000E+00  0.00000000000E+00  0.87060367439E+03  0.87060367440E+03  0.25500000920E-02 0.  1.
        2   -1    0    0  501    0  0.00000000000E+00  0.00000000000E+00 -0.12618319202E+04  0.12618319202E+04  0.25500000920E-02 0. -1.
    10030    2    1    2    0    0  0.00000000000E+00  0.00000000000E+00 -0.39122824578E+03  0.21324355946E+04  0.20962399731E+04 0.  0.
        1    1    3    3  502    0 -0.50584530767E+02 -0.88535427106E+03 -0.76396009512E+03  0.11704896441E+04  0.50400001928E-02 0. -1.
       -1    1    3    3    0  502  0.50584530767E+02  0.88535427106E+03  0.37273184934E+03  0.96194595045E+03  0.50400001928E-02 0.  1.
</event>
<event>
 5   0  0.2789662E-05  0.2113624E+04  0.7818609E-02  0.8555265E-01
       -1   -1    0    0    0  501  0.00000000000E+00  0.00000000000E+00  0.43618628212E+03  0.43618628215E+03  0.50400001928E-02 0.  1.
        1   -1    0    0  501    0  0.00000000000E+00  0.00000000000E+00 -0.25604927780E+04  0.25604927780E+04  0.50400001928E-02 0. -1.
    10030    2    1    2    0    0  0.00000000000E+00  0.00000000000E+00 -0.21243064959E+04  0.29966790602E+04  0.21136242100E+04 0.  0.
        4    1    3    3  502    0  0.37660730375E+03 -0.10147091426E+03 -0.24547112093E+04  0.24855056109E+04  0.12699999809E+01 0. -1.
       -4    1    3    3    0  502 -0.37660730375E+03  0.10147091426E+03  0.33040471344E+03  0.51117344927E+03  0.12699999809E+01 0.  1.
</event>
<event>
 5   0  0.5506332E-05  0.2100764E+04  0.7818609E-02  0.8560907E-01
        2   -1    0    0  501    0  0.00000000000E+00  0.00000000000E+00  0.17864720772E+04  0.17864720772E+04  0.25500000920E-02 0.  1.
       -2   -1    0    0    0  501  0.00000000000E+00  0.00000000000E+00 -0.61758723029E+03  0.61758723030E+03  0.25500000920E-02 0. -1.
    10030    2    1    2    0    0  0.00000000000E+00  0.00000000000E+00  0.11688848469E+04  0.24040593075E+04  0.21007639964E+04 0.  0.
        3    1    3    3  502    0 -0.62964313349E+03 -0.28864934506E+03  0.14880872711E+04  0.16413935106E+04  0.10100000352E+00 0.  1.
       -3    1    3    3    0  502  0.62964313349E+03  0.28864934506E+03 -0.31920242421E+03  0.76266579691E+03  0.10100000352E+00 0. -1.
</event>
<event>
 5   0  0.2789662E-05  0.2091765E+04  0.7818609E-02  0.8564880E-01
        1   -1    0    0  501    0  0.00000000000E+00  0.00000000000E+00  0.79869250840E+03  0.79869250841E+03  0.50400001928E-02 0. -1.
       -1   -1    0    0    0  501  0.00000000000E+00  0.00000000000E+00 -0.13695757185E+04  0.13695757185E+04  0.50400001928E-02 0.  1.
    10030    2    1    2    0    0  0.00000000000E+00  0.00000000000E+00 -0.57088321006E+03  0.21682682269E+04  0.20917646771E+04 0.  0.
        4    1    3    3  502    0 -0.27325053603E+03  0.38996608410E+03  0.67981325958E+03  0.82999221863E+03  0.12699999809E+01 0. -1.
       -4    1    3    3    0  502  0.27325053603E+03 -0.38996608410E+03 -0.12506964696E+04  0.13382760083E+04  0.12699999809E+01 0.  1.
</event>
<event>
 5   0  0.5506332E-05  0.2121283E+04  0.7818609E-02  0.8551926E-01
       -2   -1    0    0    0  501  0.00000000000E+00  0.00000000000E+00  0.50324773648E+03  0.50324773649E+03  0.25500000920E-02 0.  1.
        2   -1    0    0  501    0  0.00000000000E+00  0.00000000000E+00 -0.22353998493E+04  0.22353998493E+04  0.25500000920E-02 0. -1.
    10030    2    1    2    0    0  0.00000000000E+00  0.00000000000E+00 -0.17321521128E+04  0.27386475858E+04  0.21212825501E+04 0.  0.
        3    1    3    3  502    0 -0.29983103950E+03 -0.33227053900E+02  0.44669476318E+03  0.53901661478E+03  0.10100000352E+00 0.  1.
       -3    1    3    3    0  502  0.29983103950E+03  0.33227053900E+02 -0.21788468760E+04  0.21996309710E+04  0.10100000352E+00 0. -1.
</event>
<event>
 5   0  0.5967046E-05  0.2084975E+04  0.7818609E-02  0.8567891E-01
       -2   -1    0    0    0  501  0.00000000000E+00  0.00000000000E+00  0.84364375502E+03  0.84364375503E+03  0.25500000920E-02 0. -1.
        2   -1    0    0  501    0  0.00000000000E+00  0.00000000000E+00 -0.12881978142E+04  0.12881978142E+04  0.25500000920E-02 0.  1.
    10030    2    1    2    0    0  0.00000000000E+00  0.00000000000E+00 -0.44455405915E+03  0.21318415692E+04  0.20849748595E+04 0.  0.
        4    1    3    3  502    0 -0.16828563408E+03 -0.18343067291E+03 -0.12573622605E+04  0.12817676597E+04  0.12699999809E+01 0.  1.
       -4    1    3    3    0  502  0.16828563408E+03  0.18343067291E+03  0.81280820139E+03  0.85007390947E+03  0.12699999809E+01 0. -1.
</event>
<event>
 5   0  0.5954140E-05  0.2094876E+04  0.7818609E-02  0.8563504E-01
       -2   -1    0    0    0  501  0.00000000000E+00  0.00000000000E+00  0.50919735410E+03  0.50919735411E+03  0.25500000920E-02 0.  1.
        2   -1    0    0  501    0  0.00000000000E+00  0.00000000000E+00 -0.21546188271E+04  0.21546188271E+04  0.25500000920E-02 0. -1.
    10030    2    1    2    0    0  0.00000000000E+00  0.00000000000E+00 -0.16454214730E+04  0.26638161812E+04  0.20948758492E+04 0.  0.
        2    1    3    3  502    0  0.34660078938E+03  0.98730696441E+03 -0.76281027619E+03  0.12949079761E+04  0.25500000920E-02 0. -1.
       -2    1    3    3    0  502 -0.34660078938E+03 -0.98730696441E+03 -0.88261119676E+03  0.13689082050E+04  0.25500000920E-02 0.  1.
</event>
<event>
 5   0  0.5954140E-05  0.2094082E+04  0.7818609E-02  0.8563855E-01
        2   -1    0    0  501    0  0.00000000000E+00  0.00000000000E+00  0.87824834041E+03  0.87824834041E+03  0.25500000920E-02 0. -1.
       -2   -1    0    0    0  501  0.00000000000E+00  0.00000000000E+00 -0.12482741201E+04  0.12482741201E+04  0.25500000920E-02 0.  1.
    10030    2    1    2    0    0  0.00000000000E+00  0.00000000000E+00 -0.37002577965E+03  0.21265224605E+04  0.20940818268E+04 0.  0.
        2    1    3    3  502    0  0.28076440397E+03 -0.85263203256E+03 -0.73232859889E+03  0.11584969617E+04  0.25500000920E-02 0.  1.
       -2    1    3    3    0  502 -0.28076440397E+03  0.85263203256E+03  0.36230281924E+03  0.96802549879E+03  0.25500000920E-02 0. -1.
</event>
<event>
 5   0  0.2789662E-05  0.2094547E+04  0.7818609E-02  0.8563649E-01
       -1   -1    0    0    0  501  0.00000000000E+00  0.00000000000E+00  0.11305060297E+04  0.11305060297E+04  0.50400001928E-02 0.  1.
        1   -1    0    0  501    0  0.00000000000E+00  0.00000000000E+00 -0.97016896434E+03  0.97016896435E+03  0.50400001928E-02 0. -1.
    10030    2    1    2    0    0  0.00000000000E+00  0.00000000000E+00  0.16033706534E+03  0.21006749940E+04  0.20945470766E+04 0.  0.
        4    1    3    3  502    0  0.77054509561E+03  0.22154417695E+03  0.75590429538E+03  0.11019140091E+04  0.12699999809E+01 0.  1.
       -4    1    3    3    0  502 -0.77054509561E+03 -0.22154417695E+03 -0.59556723004E+03  0.99876098497E+03  0.12699999809E+01 0. -1.
</event>
<event>
 5   0  0.5954140E-05  0.2101516E+04  0.7818609E-02  0.8560576E-01
       -2   -1    0    0    0  501  0.00000000000E+00  0.00000000000E+00  0.57798677853E+03  0.57798677853E+03  0.25500000920E-02 0. -1.
        2   -1    0    0  501    0  0.00000000000E+00  0.00000000000E+00 -0.19102380799E+04  0.19102380799E+04  0.25500000920E-02 0.  1.
    10030    2    1    2    0    0  0.00000000000E+00  0.00000000000E+00 -0.13322513014E+04  0.24882248585E+04  0.21015159805E+04 0.  0.
        2    1    3    3  502    0 -0.25749875355E+03  0.36452453530E+03 -0.17924391459E+04  0.18471658931E+04  0.25500000920E-02 0.  1.
       -2    1    3    3    0  502  0.25749875355E+03 -0.36452453530E+03  0.46018784446E+03  0.64105896539E+03  0.25500000920E-02 0. -1.
</event>
<event>
 5   0  0.5866610E-05  0.2111921E+04  0.7818609E-02  0.8556010E-01
       -2   -1    0    0    0  501  0.00000000000E+00  0.00000000000E+00  0.96859563163E+03  0.96859563164E+03  0.25500000920E-02 0. -1.
        2   -1    0    0  501    0  0.00000000000E+00  0.00000000000E+00 -0.11512051294E+04  0.11512051294E+04  0.25500000920E-02 0.  1.
    10030    2    1    2    0    0  0.00000000000E+00  0.00000000000E+00 -0.18260949777E+03  0.21198007610E+04  0.21119206988E+04 0.  0.
        5    1    3    3  502    0  0.81333790017E+03 -0.67238647795E+03 -0.53640693922E+02  0.10566558236E+04  0.46999998093E+01 0.  1.
       -5    1    3    3    0  502 -0.81333790017E+03  0.67238647795E+03 -0.12896880385E+03  0.10631449374E+04  0.46999998093E+01 0. -1.
</event>
<event>
 5   0  0.5866610E-05  0.2100782E+04  0.7818609E-02  0.8560899E-01
        2   -1    0    0  501    0  0.00000000000E+00  0.00000000000E+00  0.15120088696E+04  0.15120088696E+04  0.25500000920E-02 0. -1.
       -2   -1    0    0    0  501  0.00000000000E+00  0.00000000000E+00 -0.72970557194E+03  0.72970557195E+03  0.25500000920E-02 0.  1.
    10030    2    1    2    0    0  0.00000000000E+00  0.00000000000E+00  0.78230329769E+03  0.22417144416E+04  0.21007820420E+04 0.  0.
        5    1    3    3  502    0 -0.80977029039E+03 -0.66811484132E+03  0.35428167485E+03  0.11079905052E+04  0.46999998093E+01 0. -1.
       -5    1    3    3    0  502  0.80977029039E+03  0.66811484132E+03  0.42802162284E+03  0.11337239364E+04  0.46999998093E+01 0.  1.
</event>
<event>
 5   0  0.5506332E-05  0.2098555E+04  0.7818609E-02  0.8561880E-01
        2   -1    0    0  501    0  0.00000000000E+00  0.00000000000E+00  0.88966713018E+03  0.88966713019E+03  0.25500000920E-02 0.  1.
       -2   -1    0    0    0  501  0.00000000000E+00  0.00000000000E+00 -0.12375227725E+04  0.12375227725E+04  0.25500000920E-02 0. -1.
    10030    2    1    2    0    0  0.00000000000E+00  0.00000000000E+00 -0.34785564227E+03  0.21271899026E+04  0.20985550586E+04 0.  0.
        3    1    3    3  502    0  0.15498550314E+03  0.64503107762E+01 -0.12258360685E+04  0.12356116662E+04  0.10100000352E+00 0. -1.
       -3    1    3    3    0  502 -0.15498550314E+03 -0.64503107762E+01  0.87798042620E+03  0.89157823644E+03  0.10100000352E+00 0.  1.
</event>
<event>
 5   0  0.2604390E-05  0.2071044E+04  0.7818609E-02  0.8574107E-01
        1   -1    0    0  501    0  0.00000000000E+00  0.00000000000E+00  0.22584534670E+04  0.22584534670E+04  0.50400001928E-02 0.  1.
       -1   -1    0    0    0  501  0.00000000000E+00  0.00000000000E+00 -0.47479644785E+03  0.47479644787E+03  0.50400001928E-02 0. -1.
    10030    2    1    2    0    0  0.00000000000E+00  0.00000000000E+00  0.17836570191E+04  0.27332499148E+04  0.20710438757E+04 0.  0.
        5    1    3    3  502    0  0.98836670477E+03 -0.13512326749E+03  0.12584149972E+04  0.16058510005E+04  0.46999998093E+01 0.  1.
       -5    1    3    3    0  502 -0.98836670477E+03  0.13512326749E+03  0.52524202187E+03  0.11273989143E+04  0.46999998093E+01 0. -1.
</event>
<event>
 5   0  0.2602060E-05  0.2171046E+04  0.7818609E-02  0.8530577E-01
       -1   -1    0    0    0  501  0.00000000000E+00  0.00000000000E+00  0.74265204780E+03  0.74265204782E+03  0.50400001928E-02 0.  1.
        1   -1    0    0  501    0  0.00000000000E+00  0.00000000000E+00 -0.15866916288E+04  0.15866916288E+04  0.50400001928E-02 0. -1.
    10030    2    1    2    0    0  0.00000000000E+00  0.00000000000E+00 -0.84403958097E+03  0.23293436766E+04  0.21710456350E+04 0.  0.
        1    1    3    3  502    0 -0.76603132039E+03 -0.36075696987E+03 -0.11508195470E+04  0.14287530245E+04  0.50400001928E-02 0. -1.
       -1    1    3    3    0  502  0.76603132039E+03  0.36075696987E+03  0.30677996603E+03  0.90059065213E+03  0.50400001928E-02 0.  1.
</event>
<event>
 5   0  0.5506332E-05  0.2101165E+04  0.7818609E-02  0.8560730E-01
        2   -1    0    0  501    0  0.00000000000E+00  0.00000000000E+00  0.16379578084E+04  0.16379578084E+04  0.25500000920E-02 0. -1.
       -2   -1    0    0    0  501  0.00000000000E+00  0.00000000000E+00 -0.67384123592E+03  0.67384123592E+03  0.25500000920E-02 0.  1.
    10030    2    1    2    0    0  0.00000000000E+00  0.00000000000E+00  0.96411657247E+03  0.23117990443E+04  0.21011649283E+04 0.  0.
        3    1    3    3  502    0 -0.74015414779E+03  0.45677866793E+03 -0.16629270938E+03  0.88551012945E+03  0.10100000352E+00 0.  1.
       -3    1    3    3    0  502  0.74015414779E+03 -0.45677866793E+03  0.11304092818E+04  0.14262889149E+04  0.10100000352E+00 0. -1.
</event>
<event>
 5   0  0.2699285E-05  0.2148776E+04  0.7818609E-02  0.8540057E-01
        1   -1    0    0  501    0  0.00000000000E+00  0.00000000000E+00  0.81857580966E+03  0.81857580967E+03  0.50400001928E-02 0. -1.
       -1   -1    0    0    0  501  0.00000000000E+00  0.00000000000E+00 -0.14101432458E+04  0.14101432458E+04  0.50400001928E-02 0.  1.
    10030    2    1    2    0    0  0.00000000000E+00  0.00000000000E+00 -0.59156743616E+03  0.22287190555E+04  0.21487756041E+04 0.  0.
        2    1    3    3  502    0  0.90275869573E+03 -0.49540738447E+03 -0.61362784629E+03  0.11987246861E+04  0.25500000920E-02 0.  1.
       -2    1    3    3    0  502 -0.90275869573E+03  0.49540738447E+03  0.22060410127E+02  0.10299943694E+04  0.25500000920E-02 0. -1.
</event>
<event>
 5   0  0.5967046E-05  0.2139080E+04  0.7818609E-02  0.8544221E-01
       -2   -1    0    0    0  501  0.00000000000E+00  0.00000000000E+00  0.93475613164E+03  0.93475613165E+03  0.25500000920E-02 0. -1.
        2   -1    0    0  501    0  0.00000000000E+00  0.00000000000E+00 -0.12237590038E+04  0.12237590038E+04  0.25500000920E-02 0.  1.
    10030    2    1    2    0    0  0.00000000000E+00  0.00000000000E+00 -0.28900287219E+03  0.21585151355E+04  0.21390803935E+04 0.  0.
        4    1    3    3  502    0 -0.29791832580E+03  0.22543097063E+03 -0.11557744251E+04  0.12146565712E+04  0.12699999809E+01 0.  1.
       -4    1    3    3    0  502  0.29791832580E+03 -0.22543097063E+03  0.86677155295E+03  0.94385856423E+03  0.12699999809E+01 0. -1.
</event>
<event>
 5   0  0.2789662E-05  0.2008064E+04  0.7818609E-02  0.8602860E-01
       -1   -1    0    0    0  501  0.00000000000E+00  0.00000000000E+00  0.11013650049E+04  0.11013650049E+04  0.50400001928E-02 0. -1.
        1   -1    0    0  501    0  0.00000000000E+00  0.00000000000E+00 -0.91530105926E+03  0.91530105928E+03  0.50400001928E-02 0.  1.
    10030    2    1    2    0    0  0.00000000000E+00  0.00000000000E+00  0.18606394567E+03  0.20166660642E+04  0.20080642975E+04 0.  0.
        4    1    3    3  502    0 -0.55741181567E+03 -0.46775939006E+03 -0.60172048610E+03  0.94423298795E+03  0.12699999809E+01 0.  1.
       -4    1    3    3    0  502  0.55741181567E+03  0.46775939006E+03  0.78778443177E+03  0.10724330763E+04  0.12699999809E+01 0. -1.
</event>
<event>
 5   0  0.5967046E-05  0.2087189E+04  0.7818609E-02  0.8566908E-01
       -2   -1    0    0    0  501  0.00000000000E+00  0.00000000000E+00  0.55841442756E+03  0.55841442756E+03  0.25500000920E-02 0. -1.
        2   -1    0    0  501    0  0.00000000000E+00  0.00000000000E+00 -0.19503247463E+04  0.19503247463E+04  0.25500000920E-02 0.  1.
    10030    2    1    2    0    0  0.00000000000E+00  0.00000000000E+00 -0.13919103188E+04  0.25087391739E+04  0.20871889965E+04 0.  0.
        4    1    3    3  502    0  0.13647568881E+03  0.86857157466E+03 -0.13716780903E+04  0.16292773214E+04  0.12699999809E+01 0.  1.
       -4    1    3    3    0  502 -0.13647568881E+03 -0.86857157466E+03 -0.20232228504E+02  0.87946185245E+03  0.12699999809E+01 0. -1.
</event>
<event>
 5   0  0.5462851E-05  0.1989131E+04  0.7818609E-02  0.8611719E-01
       -2   -1    0    0    0  501  0.00000000000E+00  0.00000000000E+00  0.35083114825E+03  0.35083114826E+03  0.25500000920E-02 0.  1.
        2   -1    0    0  501    0  0.00000000000E+00  0.00000000000E+00 -0.28194777743E+04  0.28194777743E+04  0.25500000920E-02 0. -1.
    10030    2    1    2    0    0  0.00000000000E+00  0.00000000000E+00 -0.24686466261E+04  0.31703089226E+04  0.19891310918E+04 0.  0.
        1    1    3    3  502    0 -0.42591895464E+03  0.36933310630E+03  0.71581777257E+02  0.56827620942E+03  0.50400001928E-02 0.  1.
       -1    1    3    3    0  502  0.42591895464E+03 -0.36933310630E+03 -0.25402284033E+04  0.26020327132E+04  0.50400001928E-02 0. -1.
</event>
<event>
 5   0  0.5954140E-05  0.2101089E+04  0.7818609E-02  0.8560764E-01
        2   -1    0    0  501    0  0.00000000000E+00  0.00000000000E+00  0.17854041367E+04  0.17854041367E+04  0.25500000920E-02 0. -1.
       -2   -1    0    0    0  501  0.00000000000E+00  0.00000000000E+00 -0.61814800645E+03  0.61814800646E+03  0.25500000920E-02 0.  1.
    10030    2    1    2    0    0  0.00000000000E+00  0.00000000000E+00  0.11672561302E+04  0.24035521431E+04  0.21010892487E+04 0.  0.
        2    1    3    3  502    0  0.29060834558E+03  0.53904618478E+03  0.15600996145E+04  0.16759877109E+04  0.25500000920E-02 0. -1.
       -2    1    3    3    0  502 -0.29060834558E+03 -0.53904618478E+03 -0.39284348432E+03  0.72756443222E+03  0.25500000920E-02 0.  1.
</event>
<event>
 5   0  0.2732159E-05  0.2072905E+04  0.7818609E-02  0.8573274E-01
        1   -1    0    0  501    0  0.00000000000E+00  0.00000000000E+00  0.12538285729E+04  0.12538285729E+04  0.50400001928E-02 0. -1.
       -1   -1    0    0    0  501  0.00000000000E+00  0.00000000000E+00 -0.85676304420E+03  0.85676304422E+03  0.50400001928E-02 0.  1.
    10030    2    1    2    0    0  0.00000000000E+00  0.00000000000E+00  0.39706552872E+03  0.21105916172E+04  0.20729051933E+04 0.  0.
        3    1    3    3  502    0  0.48204170879E+03  0.17911670083E+03  0.11147746941E+04  0.12276683715E+04  0.10100000352E+00 0. -1.
       -3    1    3    3    0  502 -0.48204170879E+03 -0.17911670083E+03 -0.71770916536E+03  0.88292324568E+03  0.10100000352E+00 0.  1.
</event>
<event>
 5   0  0.2602060E-05  0.2097478E+04  0.7818609E-02  0.8562355E-01
       -1   -1    0    0    0  501  0.00000000000E+00  0.00000000000E+00  0.10325476361E+04  0.10325476361E+04  0.50400001928E-02 0. -1.
        1   -1    0    0  501    0  0.00000000000E+00  0.00000000000E+00 -0.10651841802E+04  0.10651841802E+04  0.50400001928E-02 0.  1.
    10030    2    1    2    0    0  0.00000000000E+00  0.00000000000E+00 -0.32636544129E+02  0.20977318163E+04  0.20974779210E+04 0.  0.
        1    1    3    3  502    0  0.16110588590E+03  0.50543216600E+03  0.88846611020E+03  0.10347892587E+04  0.50400001928E-02 0. -1.
       -1    1    3    3    0  502 -0.16110588590E+03 -0.50543216600E+03 -0.92110265433E+03  0.10629425576E+04  0.50400001928E-02 0.  1.
</event>
<event>
 5   0  0.2699285E-05  0.2103416E+04  0.7818609E-02  0.8559740E-01
       -1   -1    0    0    0  501  0.00000000000E+00  0.00000000000E+00  0.91967163470E+03  0.91967163471E+03  0.50400001928E-02 0. -1.
        1   -1    0    0  501    0  0.00000000000E+00  0.00000000000E+00 -0.12027004894E+04  0.12027004894E+04  0.50400001928E-02 0.  1.
    10030    2    1    2    0    0  0.00000000000E+00  0.00000000000E+00 -0.28302885469E+03  0.21223721241E+04  0.21034158173E+04 0.  0.
        2    1    3    3  502    0 -0.78568899759E+03  0.62458444792E+03 -0.45847370433E+03  0.11034541545E+04  0.25500000920E-02 0.  1.
       -2    1    3    3    0  502  0.78568899759E+03 -0.62458444792E+03  0.17544484964E+03  0.10189179696E+04  0.25500000920E-02 0. -1.
</event>
<event>
 5   0  0.5954140E-05  0.2124185E+04  0.7818609E-02  0.8550664E-01
       -2   -1    0    0    0  501  0.00000000000E+00  0.00000000000E+00  0.80984876492E+03  0.80984876493E+03  0.25500000920E-02 0. -1.
        2   -1    0    0  501    0  0.00000000000E+00  0.00000000000E+00 -0.13929025868E+04  0.13929025868E+04  0.25500000920E-02 0.  1.
    10030    2    1    2    0    0  0.00000000000E+00  0.00000000000E+00 -0.58305382183E+03  0.22027513517E+04  0.21241849633E+04 0.  0.
        2    1    3    3  502    0  0.48108785798E+03 -0.81433533221E+03  0.20951350984E+03  0.96875356578E+03  0.25500000920E-02 0.  1.
       -2    1    3    3    0  502 -0.48108785798E+03  0.81433533221E+03 -0.79256733167E+03  0.12339977859E+04  0.25500000920E-02 0. -1.
</event>
<event>
 5   0  0.5866610E-05  0.2100935E+04  0.7818609E-02  0.8560832E-01
       -2   -1    0    0    0  501  0.00000000000E+00  0.00000000000E+00  0.18943779933E+04  0.18943779933E+04  0.25500000920E-02 0. -1.
        2   -1    0    0  501    0  0.00000000000E+00  0.00000000000E+00 -0.58250358356E+03  0.58250358356E+03  0.25500000920E-02 0.  1.
    10030    2    1    2    0    0  0.00000000000E+00  0.00000000000E+00  0.13118744098E+04  0.24768815769E+04  0.21009350011E+04 0.  0.
        5    1    3    3  502    0  0.89920640558E+03  0.46399518395E+03  0.32332455346E+03  0.10622732923E+04  0.46999998093E+01 0.  1.
       -5    1    3    3    0  502 -0.89920640558E+03 -0.46399518395E+03  0.98854985632E+03  0.14146082847E+04  0.46999998093E+01 0. -1.
</event>
<event>
 5   0  0.2602060E-05  0.2103994E+04  0.7818609E-02  0.8559486E-01
       -1   -1    0    0    0  501  0.00000000000E+00  0.00000000000E+00  0.10811583804E+04  0.10811583805E+04  0.50400001928E-02 0.  1.
        1   -1    0    0  501    0  0.00000000000E+00  0.00000000000E+00 -0.10236216898E+04  0.10236216898E+04  0.50400001928E-02 0. -1.
    10030    2    1    2    0    0  0.00000000000E+00  0.00000000000E+00  0.57536690664E+02  0.21047800702E+04  0.21039935060E+04 0.  0.
        1    1    3    3  502    0  0.31233141183E+02 -0.71358218143E+03  0.80140553362E+03  0.10735110005E+04  0.50400001928E-02 0.  1.
       -1    1    3    3    0  502 -0.31233141183E+02  0.71358218143E+03 -0.74386884295E+03  0.10312690698E+04  0.50400001928E-02 0. -1.
</event>
<event>
 5   0  0.5462851E-05  0.2095551E+04  0.7818609E-02  0.8563206E-01
       -2   -1    0    0    0  501  0.00000000000E+00  0.00000000000E+00  0.62780082492E+03  0.62780082492E+03  0.25500000920E-02 0. -1.
        2   -1    0    0  501    0  0.00000000000E+00  0.00000000000E+00 -0.17486975212E+04  0.17486975212E+04  0.25500000920E-02 0.  1.
    10030    2    1    2    0    0  0.00000000000E+00  0.00000000000E+00 -0.11208966963E+04  0.23764983461E+04  0.20955512366E+04 0.  0.
        1    1    3    3  502    0  0.20089457139E+03  0.57927668133E+03 -0.15240152139E+04  0.16427241018E+04  0.50400001928E-02 0.  1.
       -1    1    3    3    0  502 -0.20089457139E+03 -0.57927668133E+03  0.40311851764E+03  0.73377424433E+03  0.50400001928E-02 0. -1.
</event>
<event>
 5   0  0.2602060E-05  0.2130951E+04  0.7818609E-02  0.8547731E-01
       -1   -1    0    0    0  501  0.00000000000E+00  0.00000000000E+00  0.99863608303E+03  0.99863608304E+03  0.50400001928E-02 0. -1.
        1   -1    0    0  501    0  0.00000000000E+00  0.00000000000E+00 -0.11367882839E+04  0.11367882839E+04  0.50400001928E-02 0.  1.
    10030    2    1    2    0    0  0.00000000000E+00  0.00000000000E+00 -0.13815220087E+03  0.21354243669E+04  0.21309507729E+04 0.  0.
        1    1    3    3  502    0  0.74605221576E+03 -0.47184807424E+03 -0.66698880261E+03  0.11063944037E+04  0.50400001928E-02 0.  1.
       -1    1    3    3    0  502 -0.74605221576E+03  0.47184807424E+03  0.52883660174E+03  0.10290299632E+04  0.50400001928E-02 0. -1.
</event>
<event>
 5   0  0.5866610E-05  0.2104044E+04  0.7818609E-02  0.8559464E-01
       -2   -1    0    0    0  501  0.00000000000E+00  0.00000000000E+00  0.84649921447E+03  0.84649921448E+03  0.25500000920E-02 0. -1.
        2   -1    0    0  501    0  0.00000000000E+00  0.00000000000E+00 -0.13074442037E+04  0.13074442037E+04  0.25500000920E-02 0.  1.
    10030    2    1    2    0    0  0.00000000000E+00  0.00000000000E+00 -0.46094498919E+03  0.21539434181E+04  0.21040441929E+04 0.  0.
        5    1    3    3  502    0 -0.31763235914E+03 -0.87858008876E+03 -0.72561150028E+03  0.11829317086E+04  0.46999998093E+01 0.  1.
       -5    1    3    3    0  502  0.31763235914E+03  0.87858008876E+03  0.26466651108E+03  0.97101170952E+03  0.46999998093E+01 0. -1.
</event>
<event>
 5   0  0.5462851E-05  0.2097388E+04  0.7818609E-02  0.8562395E-01
       -2   -1    0    0    0  501  0.00000000000E+00  0.00000000000E+00  0.61398827804E+03  0.61398827804E+03  0.25500000920E-02 0. -1.
        2   -1    0    0  501    0  0.00000000000E+00  0.00000000000E+00 -0.17911736090E+04  0.17911736090E+04  0.25500000920E-02 0.  1.
    10030    2    1    2    0    0  0.00000000000E+00  0.00000000000E+00 -0.11771853310E+04  0.24051618871E+04  0.20973884713E+04 0.  0.
        1    1    3    3  502    0  0.34943632826E+03 -0.47244056632E+03  0.40745873734E+03  0.71507234520E+03  0.50400001928E-02 0. -1.
       -1    1    3    3    0  502 -0.34943632826E+03  0.47244056632E+03 -0.15846440684E+04  0.16900895419E+04  0.50400001928E-02 0.  1.
</event>
<event>
 5   0  0.5866610E-05  0.2106567E+04  0.7818609E-02  0.8558356E-01
        2   -1    0    0  501    0  0.00000000000E+00  0.00000000000E+00  0.12517436043E+04  0.12517436043E+04  0.25500000920E-02 0.  1.
       -2   -1    0    0    0  501  0.00000000000E+00  0.00000000000E+00 -0.88628870621E+03  0.88628870622E+03  0.25500000920E-02 0. -1.
    10030    2    1    2    0    0  0.00000000000E+00  0.00000000000E+00  0.36545489810E+03  0.21380323105E+04  0.21065670838E+04 0.  0.
        5    1    3    3  502    0  0.46727125114E+03 -0.75020197346E+02 -0.77229170841E+03  0.90577426825E+03  0.46999998093E+01 0. -1.
       -5    1    3    3    0  502 -0.46727125114E+03  0.75020197346E+02  0.11377466065E+04  0.12322580423E+04  0.46999998093E+01 0.  1.
</event>
<event>
 5   0  0.5866610E-05  0.2139905E+04  0.7818609E-02  0.8543866E-01
        2   -1    0    0  501    0  0.00000000000E+00  0.00000000000E+00  0.21301200679E+04  0.21301200679E+04  0.25500000920E-02 0.  1.
       -2   -1    0    0    0  501  0.00000000000E+00  0.00000000000E+00 -0.53743395393E+03  0.53743395393E+03  0.25500000920E-02 0. -1.
    10030    2    1    2    0    0  0.00000000000E+00  0.00000000000E+00  0.15926861140E+04  0.26675540218E+04  0.21399054656E+04 0.  0.
        5    1    3    3  502    0 -0.90134137051E+03  0.45090183672E+03  0.34853250658E+03  0.10664078632E+04  0.46999998093E+01 0. -1.
       -5    1    3    3    0  502  0.90134137051E+03 -0.45090183672E+03  0.12441536074E+04  0.16011461586E+04  0.46999998093E+01 0.  1.
</event>
<event>
 5   0  0.2699285E-05  0.2074143E+04  0.7818609E-02  0.8572720E-01
        1   -1    0    0  501    0  0.00000000000E+00  0.00000000000E+00  0.10195877437E+04  0.10195877437E+04  0.50400001928E-02 0.  1.
       -1   -1    0    0    0  501  0.00000000000E+00  0.00000000000E+00 -0.10548552846E+04  0.10548552846E+04  0.50400001928E-02 0. -1.
    10030    2    1    2    0    0  0.00000000000E+00  0.00000000000E+00 -0.35267540915E+02  0.20744430283E+04  0.20741432155E+04 0.  0.
        2    1    3    3  502    0  0.98902397948E+03 -0.14275632857E+03 -0.29510804214E+03  0.10419388456E+04  0.25500000920E-02 0. -1.
       -2    1    3    3    0  502 -0.98902397948E+03  0.14275632857E+03  0.25984050123E+03  0.10325041828E+04  0.25500000920E-02 0.  1.
</event>
<event>
 5   0  0.5506332E-05  0.2106725E+04  0.7818609E-02  0.8558287E-01
       -2   -1    0    0    0  501  0.00000000000E+00  0.00000000000E+00  0.49361730960E+03  0.49361730960E+03  0.25500000920E-02 0.  1.
        2   -1    0    0  501    0  0.00000000000E+00  0.00000000000E+00 -0.22478386919E+04  0.22478386919E+04  0.25500000920E-02 0. -1.
    10030    2    1    2    0    0  0.00000000000E+00  0.00000000000E+00 -0.17542213823E+04  0.27414560015E+04  0.21067245549E+04 0.  0.
        3    1    3    3  502    0 -0.34636798008E+03 -0.33653095344E+02  0.41665312007E+03  0.54286567502E+03  0.10100000352E+00 0.  1.
       -3    1    3    3    0  502  0.34636798008E+03  0.33653095344E+02 -0.21708745024E+04  0.21985903265E+04  0.10100000352E+00 0. -1.
</event>
<event>
 5   0  0.2699285E-05  0.2075951E+04  0.7818609E-02  0.8571912E-01
        1   -1    0    0  501    0  0.00000000000E+00  0.00000000000E+00  0.18161221331E+04  0.18161221331E+04  0.50400001928E-02 0. -1.
       -1   -1    0    0    0  501  0.00000000000E+00  0.00000000000E+00 -0.59323822674E+03  0.59323822676E+03  0.50400001928E-02 0.  1.
    10030    2    1    2    0    0  0.00000000000E+00  0.00000000000E+00  0.12228839064E+04  0.24093603599E+04  0.20759509376E+04 0.  0.
        2    1    3    3  502    0  0.12793700661E+02  0.17230290510E+03  0.17993155028E+04  0.18075918368E+04  0.25500000920E-02 0. -1.
       -2    1    3    3    0  502 -0.12793700661E+02 -0.17230290510E+03 -0.57643159647E+03  0.60176852302E+03  0.25500000920E-02 0.  1.
</event>
<event>
 5   0  0.5967046E-05  0.2096164E+04  0.7818609E-02  0.8562935E-01
        2   -1    0    0  501    0  0.00000000000E+00  0.00000000000E+00  0.13908589940E+04  0.13908589940E+04  0.25500000920E-02 0.  1.
       -2   -1    0    0    0  501  0.00000000000E+00  0.00000000000E+00 -0.78978241592E+03  0.78978241592E+03  0.25500000920E-02 0. -1.
    10030    2    1    2    0    0  0.00000000000E+00  0.00000000000E+00  0.60107657811E+03  0.21806414100E+04  0.20961640933E+04 0.  0.
        4    1    3    3  502    0 -0.71184875066E+03  0.10580523003E+03 -0.49210749914E+03  0.87183415518E+03  0.12699999809E+01 0. -1.
       -4    1    3    3    0  502  0.71184875066E+03 -0.10580523003E+03  0.10931840772E+04  0.13088072548E+04  0.12699999809E+01 0.  1.
</event>
<event>
 5   0  0.2732159E-05  0.2128355E+04  0.7818609E-02  0.8548855E-01
       -1   -1    0    0    0  501  0.00000000000E+00  0.00000000000E+00  0.74541467725E+03  0.74541467727E+03  0.50400001928E-02 0. -1.
        1   -1    0    0  501    0  0.00000000000E+00  0.00000000000E+00 -0.15192529355E+04  0.15192529355E+04  0.50400001928E-02 0.  1.
    10030    2    1    2    0    0  0.00000000000E+00  0.00000000000E+00 -0.77383825826E+03  0.22646676128E+04  0.21283547041E+04 0.  0.
        3    1    3    3  502    0 -0.89853284475E+03  0.52665676063E+03 -0.61941944396E+03  0.12117793010E+04  0.10100000352E+00 0.  1.
       -3    1    3    3    0  502  0.89853284475E+03 -0.52665676063E+03 -0.15441881429E+03  0.10528883118E+04  0.10100000352E+00 0. -1.
</event>
<event>
 5   0  0.5506332E-05  0.2182097E+04  0.7818609E-02  0.8525917E-01
       -2   -1    0    0    0  501  0.00000000000E+00  0.00000000000E+00  0.90709533835E+03  0.90709533835E+03  0.25500000920E-02 0.  1.
        2   -1    0    0  501    0  0.00000000000E+00  0.00000000000E+00 -0.13123061967E+04  0.13123061967E+04  0.25500000920E-02 0. -1.
    10030    2    1    2    0    0  0.00000000000E+00  0.00000000000E+00 -0.40521085839E+03  0.22194015351E+04  0.21820970038E+04 0.  0.
        3    1    3    3  502    0 -0.15584581478E+03  0.92987731995E+03  0.35580427745E+03  0.10077482038E+04  0.10100000352E+00 0. -1.
       -3    1    3    3    0  502  0.15584581478E+03 -0.92987731995E+03 -0.76101513583E+03  0.12116533313E+04  0.10100000352E+00 0.  1.
</event>
<event>
 5   0  0.2789662E-05  0.2134346E+04  0.7818609E-02  0.8546263E-01
        1   -1    0    0  501    0  0.00000000000E+00  0.00000000000E+00  0.94451279073E+03  0.94451279074E+03  0.50400001928E-02 0. -1.
       -1   -1    0    0    0  501  0.00000000000E+00  0.00000000000E+00 -0.12057627957E+04  0.12057627957E+04  0.50400001928E-02 0.  1.
    10030    2    1    2    0    0  0.00000000000E+00  0.00000000000E+00 -0.26125000495E+03  0.21502755864E+04  0.21343461604E+04 0.  0.
        4    1    3    3  502    0 -0.11234014758E+03  0.29466663468E+03  0.89649763727E+03  0.95034644256E+03  0.12699999809E+01 0. -1.
       -4    1    3    3    0  502  0.11234014758E+03 -0.29466663468E+03 -0.11577476422E+04  0.11999291439E+04  0.12699999809E+01 0.  1.
</event>
<event>
 5   0  0.5462851E-05  0.2207505E+04  0.7818609E-02  0.8515311E-01
       -2   -1    0    0    0  501  0.00000000000E+00  0.00000000000E+00  0.68396341785E+03  0.68396341786E+03  0.25500000920E-02 0. -1.
        2   -1    0    0  501    0  0.00000000000E+00  0.00000000000E+00 -0.17811910934E+04  0.17811910934E+04  0.25500000920E-02 0.  1.
    10030    2    1    2    0    0  0.00000000000E+00  0.00000000000E+00 -0.10972276755E+04  0.24651545112E+04  0.22075049699E+04 0.  0.
        1    1    3    3  502    0 -0.96779510474E+03 -0.42404216293E+03 -0.19226016567E+03  0.10739660572E+04  0.50400001928E-02 0.  1.
       -1    1    3    3    0  502  0.96779510474E+03  0.42404216293E+03 -0.90496750985E+03  0.13911884540E+04  0.50400001928E-02 0. -1.
</event>
<event>
 5   0  0.2604390E-05  0.2123065E+04  0.7818609E-02  0.8551151E-01
       -1   -1    0    0    0  501  0.00000000000E+00  0.00000000000E+00  0.79007980330E+03  0.79007980331E+03  0.50400001928E-02 0. -1.
        1   -1    0    0  501    0  0.00000000000E+00  0.00000000000E+00 -0.14262500915E+04  0.14262500916E+04  0.50400001928E-02 0.  1.
    10030    2    1    2    0    0  0.00000000000E+00  0.00000000000E+00 -0.63617028825E+03  0.22163298949E+04  0.21230651349E+04 0.  0.
        5    1    3    3  502    0  0.59689040315E+03 -0.86651224869E+03 -0.17153415928E+03  0.10660992863E+04  0.46999998093E+01 0. -1.
       -5    1    3    3    0  502 -0.59689040315E+03  0.86651224869E+03 -0.46463612897E+03  0.11502306085E+04  0.46999998093E+01 0.  1.
</event>
<event>
 5   0  0.2789662E-05  0.2056669E+04  0.7818609E-02  0.8580575E-01
        1   -1    0    0  501    0  0.00000000000E+00  0.00000000000E+00  0.90564710320E+03  0.90564710321E+03  0.50400001928E-02 0. -1.
       -1   -1    0    0    0  501  0.00000000000E+00  0.00000000000E+00 -0.11676423488E+04  0.11676423488E+04  0.50400001928E-02 0.  1.
    10030    2    1    2    0    0  0.00000000000E+00  0.00000000000E+00 -0.26199524556E+03  0.20732894520E+04  0.20566690650E+04 0.  0.
        4    1    3    3  502    0 -0.56166752975E+03  0.82339302833E+03  0.12407641806E+03  0.10044117998E+04  0.12699999809E+01 0. -1.
       -4    1    3    3    0  502  0.56166752975E+03 -0.82339302833E+03 -0.38607166361E+03  0.10688776522E+04  0.12699999809E+01 0.  1.
</event>
<event>
 5   0  0.5506332E-05  0.2112682E+04  0.7818609E-02  0.8555678E-01
       -2   -1    0    0    0  501  0.00000000000E+00  0.00000000000E+00  0.13128097651E+04  0.13128097651E+04  0.25500000920E-02 0. -1.
        2   -1    0    0  501    0  0.00000000000E+00  0.00000000000E+00 -0.84997533994E+03  0.84997533994E+03  0.25500000920E-02 0.  1.
    10030    2    1    2    0    0  0.00000000000E+00  0.00000000000E+00  0.46283442512E+03  0.21627851050E+04  0.21126816384E+04 0.  0.
        3    1    3    3  502    0 -0.86390052858E+03  0.38284272489E+03 -0.25197087803E+03  0.97794785590E+03  0.10100000352E+00 0.  1.
       -3    1    3    3    0  502  0.86390052858E+03 -0.38284272489E+03  0.71480530315E+03  0.11848372491E+04  0.10100000352E+00 0. -1.
</event>
<event>
 5   0  0.2604390E-05  0.2098796E+04  0.7818609E-02  0.8561774E-01
       -1   -1    0    0    0  501  0.00000000000E+00  0.00000000000E+00  0.14262507099E+04  0.14262507099E+04  0.50400001928E-02 0. -1.
        1   -1    0    0  501    0  0.00000000000E+00  0.00000000000E+00 -0.77211976582E+03  0.77211976584E+03  0.50400001928E-02 0.  1.
    10030    2    1    2    0    0  0.00000000000E+00  0.00000000000E+00  0.65413094405E+03  0.21983704757E+04  0.20987961922E+04 0.  0.
        5    1    3    3  502    0 -0.89399371807E+03  0.54860414436E+03  0.36056727774E+03  0.11091537887E+04  0.46999998093E+01 0. -1.
       -5    1    3    3    0  502  0.89399371807E+03 -0.54860414436E+03  0.29356366631E+03  0.10892166870E+04  0.46999998093E+01 0.  1.
</event>
<event>
 5   0  0.2732159E-05  0.2101837E+04  0.7818609E-02  0.8560435E-01
        1   -1    0    0  501    0  0.00000000000E+00  0.00000000000E+00  0.72327684564E+03  0.72327684566E+03  0.50400001928E-02 0. -1.
       -1   -1    0    0    0  501  0.00000000000E+00  0.00000000000E+00 -0.15269804702E+04  0.15269804703E+04  0.50400001928E-02 0.  1.
    10030    2    1    2    0    0  0.00000000000E+00  0.00000000000E+00 -0.80370362461E+03  0.22502573159E+04  0.21018369279E+04 0.  0.
        3    1    3    3  502    0 -0.28981949600E+03  0.16135954024E+03 -0.14694630756E+04  0.15064375136E+04  0.10100000352E+00 0.  1.
       -3    1    3    3    0  502  0.28981949600E+03 -0.16135954024E+03  0.66575945103E+03  0.74381980233E+03  0.10100000352E+00 0. -1.
</event>
<event>
 5   0  0.2699285E-05  0.2109480E+04  0.7818609E-02  0.8557079E-01
       -1   -1    0    0    0  501  0.00000000000E+00  0.00000000000E+00  0.14052636349E+04  0.14052636350E+04  0.50400001928E-02 0.  1.
        1   -1    0    0  501    0  0.00000000000E+00  0.00000000000E+00 -0.79164971189E+03  0.79164971191E+03  0.50400001928E-02 0. -1.
    10030    2    1    2    0    0  0.00000000000E+00  0.00000000000E+00  0.61361392306E+03  0.21969133469E+04  0.21094800798E+04 0.  0.
        2    1    3    3  502    0 -0.37983170664E+03  0.22699256259E+03  0.13039238984E+04  0.13769587073E+04  0.25500000920E-02 0.  1.
       -2    1    3    3    0  502  0.37983170664E+03 -0.22699256259E+03 -0.69030997535E+03  0.81995463955E+03  0.25500000920E-02 0. -1.
</event>
<event>
 5   0  0.5954140E-05  0.2100665E+04  0.7818609E-02  0.8560951E-01
       -2   -1    0    0    0  501  0.00000000000E+00  0.00000000000E+00  0.91174368987E+03  0.91174368987E+03  0.25500000920E-02 0. -1.
        2   -1    0    0  501    0  0.00000000000E+00  0.00000000000E+00 -0.12099872231E+04  0.12099872231E+04  0.25500000920E-02 0.  1.
    10030    2    1    2    0    0  0.00000000000E+00  0.00000000000E+00 -0.29824353320E+03  0.21217309129E+04  0.21006648619E+04 0.  0.
        2    1    3    3  502    0  0.10084943572E+04 -0.28279757936E+03 -0.22841301440E+03  0.10720111214E+04  0.25500000920E-02 0. -1.
       -2    1    3    3    0  502 -0.10084943572E+04  0.28279757936E+03 -0.69830518792E+02  0.10497197915E+04  0.25500000920E-02 0.  1.
</event>
<event>
 5   0  0.2789662E-05  0.2070410E+04  0.7818609E-02  0.8574391E-01
        1   -1    0    0  501    0  0.00000000000E+00  0.00000000000E+00  0.10606265821E+04  0.10606265821E+04  0.50400001928E-02 0. -1.
       -1   -1    0    0    0  501  0.00000000000E+00  0.00000000000E+00 -0.10103928993E+04  0.10103928993E+04  0.50400001928E-02 0.  1.
    10030    2    1    2    0    0  0.00000000000E+00  0.00000000000E+00  0.50233682791E+02  0.20710194814E+04  0.20704101693E+04 0.  0.
        4    1    3    3  502    0  0.49540288041E+03  0.81044971899E+03  0.43681443987E+03  0.10454956857E+04  0.12699999809E+01 0. -1.
       -4    1    3    3    0  502 -0.49540288041E+03 -0.81044971899E+03 -0.38658075708E+03  0.10255237957E+04  0.12699999809E+01 0.  1.
</event>
<event>
 5   0  0.2699285E-05  0.1945593E+04  0.7818609E-02  0.8632489E-01
        1   -1    0    0  501    0  0.00000000000E+00  0.00000000000E+00  0.10614477325E+04  0.10614477325E+04  0.50400001928E-02 0. -1.
       -1   -1    0    0    0  501  0.00000000000E+00  0.00000000000E+00 -0.89154935279E+03  0.89154935280E+03  0.50400001928E-02 0.  1.
    10030    2    1    2    0    0  0.00000000000E+00  0.00000000000E+00  0.16989837973E+03  0.19529970853E+04  0.19455930088E+04 0.  0.
        2    1    3    3  502    0 -0.46911859117E+03  0.29574725002E+03 -0.71733850532E+03  0.90670459340E+03  0.25500000920E-02 0.  1.
       -2    1    3    3    0  502  0.46911859117E+03 -0.29574725002E+03  0.88723688505E+03  0.10462924919E+04  0.25500000920E-02 0. -1.
</event>
<event>
 5   0  0.2732159E-05  0.2109216E+04  0.7818609E-02  0.8557195E-01
       -1   -1    0    0    0  501  0.00000000000E+00  0.00000000000E+00  0.12333691723E+04  0.12333691723E+04  0.50400001928E-02 0.  1.
        1   -1    0    0  501    0  0.00000000000E+00  0.00000000000E+00 -0.90175563126E+03  0.90175563127E+03  0.50400001928E-02 0. -1.
    10030    2    1    2    0    0  0.00000000000E+00  0.00000000000E+00  0.33161354107E+03  0.21351248036E+04  0.21092155856E+04 0.  0.
        3    1    3    3  502    0 -0.91150170821E+03 -0.70497920068E+02  0.69799496561E+03  0.11502183719E+04  0.10100000352E+00 0.  1.
       -3    1    3    3    0  502  0.91150170821E+03  0.70497920068E+02 -0.36638142454E+03  0.98490643172E+03  0.10100000352E+00 0. -1.
</event>
<event>
 5   0  0.5462851E-05  0.2089125E+04  0.7818609E-02  0.8566049E-01
       -2   -1    0    0    0  501  0.00000000000E+00  0.00000000000E+00  0.65341049881E+03  0.65341049881E+03  0.25500000920E-02 0. -1.
        2   -1    0    0  501    0  0.00000000000E+00  0.00000000000E+00 -0.16698706663E+04  0.16698706663E+04  0.25500000920E-02 0.  1.
    10030    2    1    2    0    0  0.00000000000E+00  0.00000000000E+00 -0.10164601675E+04  0.23232811652E+04  0.20891251997E+04 0.  0.
        1    1    3    3  502    0 -0.50823364660E+03 -0.43399761870E+03 -0.14009882316E+04  0.15522317474E+04  0.50400001928E-02 0.  1.
       -1    1    3    3    0  502  0.50823364660E+03  0.43399761870E+03  0.38452806404E+03  0.77104941777E+03  0.50400001928E-02 0. -1.
</event>
<event>
 5   0  0.5967046E-05  0.2119698E+04  0.7818609E-02  0.8552615E-01
       -2   -1    0    0    0  501  0.00000000000E+00  0.00000000000E+00  0.70064791167E+03  0.70064791167E+03  0.25500000920E-02 0. -1.
        2   -1    0    0  501    0  0.00000000000E+00  0.00000000000E+00 -0.16032022046E+04  0.16032022046E+04  0.25500000920E-02 0.  1.
    10030    2    1    2    0    0  0.00000000000E+00  0.00000000000E+00 -0.90255429294E+03  0.23038501163E+04  0.21196983527E+04 0.  0.
        4    1    3    3  502    0  0.47599530025E+03  0.90151159434E+03 -0.13630047214E+03  0.10285300736E+04  0.12699999809E+01 0.  1.
       -4    1    3    3    0  502 -0.47599530025E+03 -0.90151159434E+03 -0.76625382080E+03  0.12753200427E+04  0.12699999809E+01 0. -1.
</event>
<event>
 5   0  0.2602060E-05  0.2104703E+04  0.7818609E-02  0.8559175E-01
        1   -1    0    0  501    0  0.00000000000E+00  0.00000000000E+00  0.45492612289E+03  0.45492612292E+03  0.50400001928E-02 0. -1.
       -1   -1    0    0    0  501  0.00000000000E+00  0.00000000000E+00 -0.24343367791E+04  0.24343367791E+04  0.50400001928E-02 0.  1.
    10030    2    1    2    0    0  0.00000000000E+00  0.00000000000E+00 -0.19794106562E+04  0.28892629020E+04  0.21047027275E+04 0.  0.
        1    1    3    3  502    0  0.19044410150E+03  0.73744069472E+03  0.71866532105E+01  0.76166881388E+03  0.50400001928E-02 0. -1.
       -1    1    3    3    0  502 -0.19044410150E+03 -0.73744069472E+03 -0.19865973094E+04  0.21275940881E+04  0.50400001928E-02 0.  1.
</event>
<event>
 5   0  0.5462851E-05  0.2088245E+04  0.7818609E-02  0.8566439E-01
       -2   -1    0    0    0  501  0.00000000000E+00  0.00000000000E+00  0.89206217226E+03  0.89206217226E+03  0.25500000920E-02 0.  1.
        2   -1    0    0  501    0  0.00000000000E+00  0.00000000000E+00 -0.12221028510E+04  0.12221028510E+04  0.25500000920E-02 0. -1.
    10030    2    1    2    0    0  0.00000000000E+00  0.00000000000E+00 -0.33004067874E+03  0.21141650233E+04  0.20882449320E+04 0.  0.
        1    1    3    3  502    0  0.28575363834E+03 -0.38008317661E+03  0.77607312120E+03  0.91016913398E+03  0.50400001928E-02 0.  1.
       -1    1    3    3    0  502 -0.28575363834E+03  0.38008317661E+03 -0.11061137999E+04  0.12039958893E+04  0.50400001928E-02 0. -1.
</event>
<event>
 5   0  0.5967046E-05  0.2097826E+04  0.7818609E-02  0.8562202E-01
       -2   -1    0    0    0  501  0.00000000000E+00  0.00000000000E+00  0.11261172879E+04  0.11261172879E+04  0.25500000920E-02 0.  1.
        2   -1    0    0  501    0  0.00000000000E+00  0.00000000000E+00 -0.97700161483E+03  0.97700161483E+03  0.25500000920E-02 0. -1.
    10030    2    1    2    0    0  0.00000000000E+00  0.00000000000E+00  0.14911567302E+03  0.21031189027E+04  0.20978259306E+04 0.  0.
        4    1    3    3  502    0  0.17810435646E+03 -0.10469181608E+03 -0.95640213913E+03  0.97846216216E+03  0.12699999809E+01 0. -1.
       -4    1    3    3    0  502 -0.17810435646E+03  0.10469181608E+03  0.11055178121E+04  0.11246567405E+04  0.12699999809E+01 0.  1.
</event>
<event>
 5   0  0.5866610E-05  0.2083915E+04  0.7818609E-02  0.8568362E-01
       -2   -1    0    0    0  501  0.00000000000E+00  0.00000000000E+00  0.62490361664E+03  0.62490361665E+03  0.25500000920E-02 0. -1.
        2   -1    0    0  501    0  0.00000000000E+00  0.00000000000E+00 -0.17373485542E+04  0.17373485542E+04  0.25500000920E-02 0.  1.
    10030    2    1    2    0    0  0.00000000000E+00  0.00000000000E+00 -0.11124449376E+04  0.23622521709E+04  0.20839149646E+04 0.  0.
        5    1    3    3  502    0 -0.41827967209E+03 -0.62974578859E+03  0.25656440420E+03  0.79836396828E+03  0.46999998093E+01 0. -1.
       -5    1    3    3    0  502  0.41827967209E+03  0.62974578859E+03 -0.13690093418E+04  0.15638882026E+04  0.46999998093E+01 0.  1.
</event>
<event>
 5   0  0.5462851E-05  0.2096518E+04  0.7818609E-02  0.8562779E-01
       -2   -1    0    0    0  501  0.00000000000E+00  0.00000000000E+00  0.78112417401E+03  0.78112417401E+03  0.25500000920E-02 0.  1.
        2   -1    0    0  501    0  0.00000000000E+00  0.00000000000E+00 -0.14067502736E+04  0.14067502736E+04  0.25500000920E-02 0. -1.
    10030    2    1    2    0    0  0.00000000000E+00  0.00000000000E+00 -0.62562609961E+03  0.21878744476E+04  0.20965177276E+04 0.  0.
        1    1    3    3  502    0 -0.19048276049E+03  0.55692402688E+03  0.59239382600E+03  0.83509191043E+03  0.50400001928E-02 0.  1.
       -1    1    3    3    0  502  0.19048276049E+03 -0.55692402688E+03 -0.12180199256E+04  0.13527825372E+04  0.50400001928E-02 0. -1.
</event>
<event>
 5   0  0.5866610E-05  0.2075983E+04  0.7818609E-02  0.8571897E-01
       -2   -1    0    0    0  501  0.00000000000E+00  0.00000000000E+00  0.17885894196E+04  0.17885894196E+04  0.25500000920E-02 0.  1.
        2   -1    0    0  501    0  0.00000000000E+00  0.00000000000E+00 -0.60238883455E+03  0.60238883456E+03  0.25500000920E-02 0. -1.
    10030    2    1    2    0    0  0.00000000000E+00  0.00000000000E+00  0.11862005851E+04  0.23909782542E+04  0.20759829440E+04 0.  0.
        5    1    3    3  502    0 -0.29263304155E+02  0.56128047176E+03 -0.41195567957E+03  0.69686561178E+03  0.46999998093E+01 0. -1.
       -5    1    3    3    0  502  0.29263304155E+02 -0.56128047176E+03  0.15981562646E+04  0.16941126424E+04  0.46999998093E+01 0.  1.
</event>
<event>
 5   0  0.5462851E-05  0.2093094E+04  0.7818609E-02  0.8564292E-01
        2   -1    0    0  501    0  0.00000000000E+00  0.00000000000E+00  0.18183755659E+04  0.18183755659E+04  0.25500000920E-02 0.  1.
       -2   -1    0    0    0  501  0.00000000000E+00  0.00000000000E+00 -0.60232896495E+03  0.60232896496E+03  0.25500000920E-02 0. -1.
    10030    2    1    2    0    0  0.00000000000E+00  0.00000000000E+00  0.12160466009E+04  0.24207045308E+04  0.20930936649E+04 0.  0.
        1    1    3    3  502    0 -0.16534317108E+03 -0.45857977220E+03  0.16790547313E+04  0.17483874177E+04  0.50400001928E-02 0.  1.
       -1    1    3    3    0  502  0.16534317108E+03  0.45857977220E+03 -0.46300813041E+03  0.67231711309E+03  0.50400001928E-02 0. -1.
</event>
<event>
 5   0  0.2789662E-05  0.2088657E+04  0.7818609E-02  0.8566257E-01
       -1   -1    0    0    0  501  0.00000000000E+00  0.00000000000E+00  0.10787082645E+04  0.10787082645E+04  0.50400001928E-02 0. -1.
        1   -1    0    0  501    0  0.00000000000E+00  0.00000000000E+00 -0.10110443889E+04  0.10110443889E+04  0.50400001928E-02 0.  1.
    10030    2    1    2    0    0  0.00000000000E+00  0.00000000000E+00  0.67663875560E+02  0.20897526534E+04  0.20886569255E+04 0.  0.
        4    1    3    3  502    0  0.91224485192E+03  0.49218108119E+03  0.16112854925E+03  0.10489980500E+04  0.12699999809E+01 0. -1.
       -4    1    3    3    0  502 -0.91224485192E+03 -0.49218108119E+03 -0.93464673691E+02  0.10407546035E+04  0.12699999809E+01 0.  1.
</event>
<event>
 5   0  0.2732159E-05  0.2095186E+04  0.7818609E-02  0.8563367E-01
       -1   -1    0    0    0  501  0.00000000000E+00  0.00000000000E+00  0.87735473889E+03  0.87735473891E+03  0.50400001928E-02 0.  1.
        1   -1    0    0  501    0  0.00000000000E+00  0.00000000000E+00 -0.12508637353E+04  0.12508637353E+04  0.50400001928E-02 0. -1.
    10030    2    1    2    0    0  0.00000000000E+00  0.00000000000E+00 -0.37350899640E+03  0.21282184742E+04  0.20951861262E+04 0.  0.
        3    1    3    3  502    0 -0.75400337554E+03  0.28244311919E+03 -0.86751164071E+03  0.11835842441E+04  0.10100000352E+00 0. -1.
       -3    1    3    3    0  502  0.75400337554E+03 -0.28244311919E+03  0.49400264431E+03  0.94463423011E+03  0.10100000352E+00 0.  1.
</event>
<event>
 5   0  0.5462851E-05  0.2150789E+04  0.7818609E-02  0.8539194E-01
        2   -1    0    0  501    0  0.00000000000E+00  0.00000000000E+00  0.10783225425E+04  0.10783225425E+04  0.25500000920E-02 0.  1.
       -2   -1    0    0    0  501  0.00000000000E+00  0.00000000000E+00 -0.10724748317E+04  0.10724748317E+04  0.25500000920E-02 0. -1.
    10030    2    1    2    0    0  0.00000000000E+00  0.00000000000E+00  0.58477107709E+01  0.21507973743E+04  0.21507894247E+04 0.  0.
        1    1    3    3  502    0  0.82436902474E+03  0.68876836709E+03  0.52800235170E+02  0.10755342939E+04  0.50400001928E-02 0.  1.
       -1    1    3    3    0  502 -0.82436902474E+03 -0.68876836709E+03 -0.46952524399E+02  0.10752630804E+04  0.50400001928E-02 0. -1.
</event>
<event>
 5   0  0.2699285E-05  0.2092372E+04  0.7818609E-02  0.8564611E-01
        1   -1    0    0  501    0  0.00000000000E+00  0.00000000000E+00  0.21639636126E+04  0.21639636126E+04  0.50400001928E-02 0. -1.
       -1   -1    0    0    0  501  0.00000000000E+00  0.00000000000E+00 -0.50578735728E+03  0.50578735731E+03  0.50400001928E-02 0.  1.
    10030    2    1    2    0    0  0.00000000000E+00  0.00000000000E+00  0.16581762554E+04  0.26697509700E+04  0.20923722775E+04 0.  0.
        2    1    3    3  502    0  0.69573150560E+03 -0.73723568618E+03  0.49894958696E+03  0.11298271882E+04  0.25500000920E-02 0.  1.
       -2    1    3    3    0  502 -0.69573150560E+03  0.73723568618E+03  0.11592266684E+04  0.15399237818E+04  0.25500000920E-02 0. -1.
</event>
<event>
 5   0  0.5954140E-05  0.2150691E+04  0.7818609E-02  0.8539236E-01
       -2   -1    0    0    0  501  0.00000000000E+00  0.00000000000E+00  0.37018785491E+03  0.37018785492E+03  0.25500000920E-02 0.  1.
        2   -1    0    0  501    0  0.00000000000E+00  0.00000000000E+00 -0.31237342140E+04  0.31237342140E+04  0.25500000920E-02 0. -1.
    10030    2    1    2    0    0  0.00000000000E+00  0.00000000000E+00 -0.27535463591E+04  0.34939220689E+04  0.21506914869E+04 0.  0.
        2    1    3    3  502    0 -0.22355988134E+03 -0.15367215259E+03  0.31368359740E+03  0.41471863994E+03  0.25500000920E-02 0.  1.
       -2    1    3    3    0  502  0.22355988134E+03  0.15367215259E+03 -0.30672299565E+04  0.30792034290E+04  0.25500000920E-02 0. -1.
</event>
<event>
 5   0  0.2789662E-05  0.2299437E+04  0.7818609E-02  0.8478143E-01
       -1   -1    0    0    0  501  0.00000000000E+00  0.00000000000E+00  0.59502873034E+03  0.59502873036E+03  0.50400001928E-02 0.  1.
        1   -1    0    0  501    0  0.00000000000E+00  0.00000000000E+00 -0.22214939635E+04  0.22214939635E+04  0.50400001928E-02 0. -1.
    10030    2    1    2    0    0  0.00000000000E+00  0.00000000000E+00 -0.16264652331E+04  0.28165226938E+04  0.22994370899E+04 0.  0.
        4    1    3    3  502    0  0.56292137917E+03  0.10015900674E+04 -0.86502581515E+03  0.14381705101E+04  0.12699999809E+01 0.  1.
       -4    1    3    3    0  502 -0.56292137917E+03 -0.10015900674E+04 -0.76143941797E+03  0.13783521837E+04  0.12699999809E+01 0. -1.
</event>
<event>
 5   0  0.5866610E-05  0.2101480E+04  0.7818609E-02  0.8560592E-01
       -2   -1    0    0    0  501  0.00000000000E+00  0.00000000000E+00  0.42594351287E+03  0.42594351288E+03  0.25500000920E-02 0. -1.
        2   -1    0    0  501    0  0.00000000000E+00  0.00000000000E+00 -0.25920201833E+04  0.25920201833E+04  0.25500000920E-02 0.  1.
    10030    2    1    2    0    0  0.00000000000E+00  0.00000000000E+00 -0.21660766704E+04  0.30179636961E+04  0.21014796523E+04 0.  0.
        5    1    3    3  502    0 -0.28940230085E+03  0.84536136967E+03 -0.28908361894E+03  0.93913841675E+03  0.46999998093E+01 0. -1.
       -5    1    3    3    0  502  0.28940230085E+03 -0.84536136967E+03 -0.18769930515E+04  0.20788252794E+04  0.46999998093E+01 0.  1.
</event>
<event>
 5   0  0.2602060E-05  0.2102314E+04  0.7818609E-02  0.8560225E-01
       -1   -1    0    0    0  501  0.00000000000E+00  0.00000000000E+00  0.53878959095E+03  0.53878959098E+03  0.50400001928E-02 0.  1.
        1   -1    0    0  501    0  0.00000000000E+00  0.00000000000E+00 -0.20507649173E+04  0.20507649173E+04  0.50400001928E-02 0. -1.
    10030    2    1    2    0    0  0.00000000000E+00  0.00000000000E+00 -0.15119753263E+04  0.25895545083E+04  0.21023137644E+04 0.  0.
        1    1    3    3  502    0 -0.81059025574E+03 -0.32620905253E+03 -0.14757657791E+04  0.17150374759E+04  0.50400001928E-02 0. -1.
       -1    1    3    3    0  502  0.81059025574E+03  0.32620905253E+03 -0.36209547193E+02  0.87451703242E+03  0.50400001928E-02 0.  1.
</event>
<event>
 5   0  0.5462851E-05  0.2096522E+04  0.7818609E-02  0.8562777E-01
       -2   -1    0    0    0  501  0.00000000000E+00  0.00000000000E+00  0.47587007482E+03  0.47587007482E+03  0.25500000920E-02 0. -1.
        2   -1    0    0  501    0  0.00000000000E+00  0.00000000000E+00 -0.23091414292E+04  0.23091414292E+04  0.25500000920E-02 0.  1.
    10030    2    1    2    0    0  0.00000000000E+00  0.00000000000E+00 -0.18332713544E+04  0.27850115040E+04  0.20965221722E+04 0.  0.
        1    1    3    3  502    0  0.35345076761E+02 -0.83714781579E+03 -0.17534044522E+04  0.19433200748E+04  0.50400001928E-02 0.  1.
       -1    1    3    3    0  502 -0.35345076761E+02  0.83714781579E+03 -0.79866902128E+02  0.84169142921E+03  0.50400001928E-02 0. -1.
</event>
<event>
 5   0  0.2699285E-05  0.2103997E+04  0.7818609E-02  0.8559485E-01
       -1   -1    0    0    0  501  0.00000000000E+00  0.00000000000E+00  0.91421696315E+03  0.91421696316E+03  0.50400001928E-02 0.  1.
        1   -1    0    0  501    0  0.00000000000E+00  0.00000000000E+00 -0.12105448593E+04  0.12105448593E+04  0.50400001928E-02 0. -1.
    10030    2    1    2    0    0  0.00000000000E+00  0.00000000000E+00 -0.29632789618E+03  0.21247618225E+04  0.21039968109E+04 0.  0.
        2    1    3    3  502    0  0.94832776120E+03 -0.81214337966E+02  0.30434240558E+03  0.99927254100E+03  0.25500000920E-02 0.  1.
       -2    1    3    3    0  502 -0.94832776120E+03  0.81214337966E+02 -0.60067030176E+03  0.11254892815E+04  0.25500000920E-02 0. -1.
</event>
<event>
 5   0  0.2699285E-05  0.2086683E+04  0.7818609E-02  0.8567132E-01
        1   -1    0    0  501    0  0.00000000000E+00  0.00000000000E+00  0.89844631417E+03  0.89844631419E+03  0.50400001928E-02 0.  1.
       -1   -1    0    0    0  501  0.00000000000E+00  0.00000000000E+00 -0.12116041680E+04  0.12116041680E+04  0.50400001928E-02 0. -1.
    10030    2    1    2    0    0  0.00000000000E+00  0.00000000000E+00 -0.31315785379E+03  0.21100504822E+04  0.20866828211E+04 0.  0.
        2    1    3    3  502    0  0.34240144669E+03  0.82824184557E+03  0.38357334436E+03  0.97485989555E+03  0.25500000920E-02 0.  1.
       -2    1    3    3    0  502 -0.34240144669E+03 -0.82824184557E+03 -0.69673119815E+03  0.11351905866E+04  0.25500000920E-02 0. -1.
</event>
<event>
 5   0  0.2604390E-05  0.2105890E+04  0.7818609E-02  0.8558653E-01
        1   -1    0    0  501    0  0.00000000000E+00  0.00000000000E+00  0.88558348395E+03  0.88558348397E+03  0.50400001928E-02 0.  1.
       -1   -1    0    0    0  501  0.00000000000E+00  0.00000000000E+00 -0.12519352627E+04  0.12519352627E+04  0.50400001928E-02 0. -1.
    10030    2    1    2    0    0  0.00000000000E+00  0.00000000000E+00 -0.36635177872E+03  0.21375187466E+04  0.21058900177E+04 0.  0.
        5    1    3    3  502    0  0.27675420895E+02  0.40350460687E+03  0.80358209149E+03  0.89963779626E+03  0.46999998093E+01 0.  1.
       -5    1    3    3    0  502 -0.27675420895E+02 -0.40350460687E+03 -0.11699338702E+04  0.12378809504E+04  0.46999998093E+01 0. -1.
</event>
<event>
 5   0  0.2604390E-05  0.2096063E+04  0.7818609E-02  0.8562979E-01
        1   -1    0    0  501    0  0.00000000000E+00  0.00000000000E+00  0.11417118222E+04  0.11417118223E+04  0.50400001928E-02 0.  1.
       -1   -1    0    0    0  501  0.00000000000E+00  0.00000000000E+00 -0.96203818609E+03  0.96203818610E+03  0.50400001928E-02 0. -1.
    10030    2    1    2    0    0  0.00000000000E+00  0.00000000000E+00  0.17967363615E+03  0.21037500084E+04  0.20960633297E+04 0.  0.
        5    1    3    3  502    0 -0.53682796067E+03 -0.67548441503E+03 -0.50722692780E+03  0.10008819614E+04  0.46999998093E+01 0. -1.
       -5    1    3    3    0  502  0.53682796067E+03  0.67548441503E+03  0.68690056395E+03  0.11028680470E+04  0.46999998093E+01 0.  1.
</event>
<event>
 5   0  0.2789662E-05  0.2096248E+04  0.7818609E-02  0.8562898E-01
       -1   -1    0    0    0  501  0.00000000000E+00  0.00000000000E+00  0.43730343560E+03  0.43730343563E+03  0.50400001928E-02 0. -1.
        1   -1    0    0  501    0  0.00000000000E+00  0.00000000000E+00 -0.25121328650E+04  0.25121328650E+04  0.50400001928E-02 0.  1.
    10030    2    1    2    0    0  0.00000000000E+00  0.00000000000E+00 -0.20748294294E+04  0.29494363006E+04  0.20962483943E+04 0.  0.
        4    1    3    3  502    0  0.90488728862E+01 -0.18733296858E+03  0.41350035559E+03  0.45404810339E+03  0.12699999809E+01 0. -1.
       -4    1    3    3    0  502 -0.90488728862E+01  0.18733296858E+03 -0.24883297850E+04  0.24953881972E+04  0.12699999809E+01 0.  1.
</event>
<event>
 5   0  0.5967046E-05  0.2073304E+04  0.7818609E-02  0.8573095E-01
       -2   -1    0    0    0  501  0.00000000000E+00  0.00000000000E+00  0.99510641601E+03  0.99510641601E+03  0.25500000920E-02 0. -1.
        2   -1    0    0  501    0  0.00000000000E+00  0.00000000000E+00 -0.10799322098E+04  0.10799322098E+04  0.25500000920E-02 0.  1.
    10030    2    1    2    0    0  0.00000000000E+00  0.00000000000E+00 -0.84825793745E+02  0.20750386258E+04  0.20733040981E+04 0.  0.
        4    1    3    3  502    0  0.99244987413E+03 -0.15504369261E+03 -0.29885090336E+03  0.10480022780E+04  0.12699999809E+01 0. -1.
       -4    1    3    3    0  502 -0.99244987413E+03  0.15504369261E+03  0.21402510961E+03  0.10270363478E+04  0.12699999809E+01 0.  1.
</event>
<event>
 5   0  0.5462851E-05  0.2173239E+04  0.7818609E-02  0.8529650E-01
       -2   -1    0    0    0  501  0.00000000000E+00  0.00000000000E+00  0.62201786111E+03  0.62201786111E+03  0.25500000920E-02 0.  1.
        2   -1    0    0  501    0  0.00000000000E+00  0.00000000000E+00 -0.18982438836E+04  0.18982438836E+04  0.25500000920E-02 0. -1.
    10030    2    1    2    0    0  0.00000000000E+00  0.00000000000E+00 -0.12762260225E+04  0.25202617447E+04  0.21732386895E+04 0.  0.
        1    1    3    3  502    0 -0.46335980068E+03 -0.55262505817E+03 -0.15807017417E+04  0.17374448930E+04  0.50400001928E-02 0. -1.
       -1    1    3    3    0  502  0.46335980068E+03  0.55262505817E+03  0.30447571920E+03  0.78281685177E+03  0.50400001928E-02 0.  1.
</event>
<event>
 5   0  0.5866610E-05  0.2088383E+04  0.7818609E-02  0.8566378E-01
        2   -1    0    0  501    0  0.00000000000E+00  0.00000000000E+00  0.14552845713E+04  0.14552845713E+04  0.25500000920E-02 0.  1.
       -2   -1    0    0    0  501  0.00000000000E+00  0.00000000000E+00 -0.74922547764E+03  0.74922547764E+03  0.25500000920E-02 0. -1.
    10030    2    1    2    0    0  0.00000000000E+00  0.00000000000E+00  0.70605909371E+03  0.22045100490E+04  0.20883833729E+04 0.  0.
        5    1    3    3  502    0 -0.86627454683E+03  0.57694346614E+03  0.26459247470E+03  0.10739304546E+04  0.46999998093E+01 0.  1.
       -5    1    3    3    0  502  0.86627454683E+03 -0.57694346614E+03  0.44146661901E+03  0.11305795944E+04  0.46999998093E+01 0. -1.
</event>
<event>
 5   0  0.5954140E-05  0.2055949E+04  0.7818609E-02  0.8580900E-01
        2   -1    0    0  501    0  0.00000000000E+00  0.00000000000E+00  0.12694150514E+04  0.12694150514E+04  0.25500000920E-02 0.  1.
       -2   -1    0    0    0  501  0.00000000000E+00  0.00000000000E+00 -0.83245537828E+03  0.83245537829E+03  0.25500000920E-02 0. -1.
    10030    2    1    2    0    0  0.00000000000E+00  0.00000000000E+00  0.43695967309E+03  0.21018704297E+04  0.20559488192E+04 0.  0.
        2    1    3    3  502    0  0.69500409205E+02 -0.73495287133E+03  0.94982197389E+03  0.12029745683E+04  0.25500000920E-02 0.  1.
       -2    1    3    3    0  502 -0.69500409205E+02  0.73495287133E+03 -0.51286230079E+03  0.89889586134E+03  0.25500000920E-02 0. -1.
</event>
<event>
 5   0  0.2699285E-05  0.2101852E+04  0.7818609E-02  0.8560428E-01
       -1   -1    0    0    0  501  0.00000000000E+00  0.00000000000E+00  0.11457231196E+04  0.11457231196E+04  0.50400001928E-02 0.  1.
        1   -1    0    0  501    0  0.00000000000E+00  0.00000000000E+00 -0.96397251573E+03  0.96397251574E+03  0.50400001928E-02 0. -1.
    10030    2    1    2    0    0  0.00000000000E+00  0.00000000000E+00  0.18175060387E+03  0.21096956353E+04  0.21018521337E+04 0.  0.
        2    1    3    3  502    0 -0.49960649593E+03  0.57084427359E+03  0.82089660068E+03  0.11177392650E+04  0.25500000920E-02 0.  1.
       -2    1    3    3    0  502  0.49960649593E+03 -0.57084427359E+03 -0.63914599681E+03  0.99195637037E+03  0.25500000920E-02 0. -1.
</event>
<event>
 5   0  0.2602060E-05  0.2092217E+04  0.7818609E-02  0.8564680E-01
        1   -1    0    0  501    0  0.00000000000E+00  0.00000000000E+00  0.13289966066E+04  0.13289966066E+04  0.50400001928E-02 0.  1.
       -1   -1    0    0    0  501  0.00000000000E+00  0.00000000000E+00 -0.82343545951E+03  0.82343545952E+03  0.50400001928E-02 0. -1.
    10030    2    1    2    0    0  0.00000000000E+00  0.00000000000E+00  0.50556114706E+03  0.21524320661E+04  0.20922169404E+04 0.  0.
        1    1    3    3  502    0  0.63165437491E+02 -0.30685705150E+02  0.13265689691E+04  0.13284264054E+04  0.50400001928E-02 0.  1.
       -1    1    3    3    0  502 -0.63165437491E+02  0.30685705150E+02 -0.82100782199E+03  0.82400566066E+03  0.50400001928E-02 0. -1.
</event>
<event>
 5   0  0.5866610E-05  0.2106735E+04  0.7818609E-02  0.8558282E-01
       -2   -1    0    0    0  501  0.00000000000E+00  0.00000000000E+00  0.11999323597E+04  0.11999323597E+04  0.25500000920E-02 0.  1.
        2   -1    0    0  501    0  0.00000000000E+00  0.00000000000E+00 -0.92470442681E+03  0.92470442681E+03  0.25500000920E-02 0. -1.
    10030    2    1    2    0    0  0.00000000000E+00  0.00000000000E+00  0.27522793287E+03  0.21246367865E+04  0.21067346913E+04 0.  0.
        5    1    3    3  502    0  0.10396257035E+04 -0.16310953180E+03  0.18420559423E+03  0.10683539272E+04  0.46999998093E+01 0. -1.
       -5    1    3    3    0  502 -0.10396257035E+04  0.16310953180E+03  0.91022338639E+02  0.10562828593E+04  0.46999998093E+01 0.  1.
</event>
<event>
 5   0  0.5462851E-05  0.2093925E+04  0.7818609E-02  0.8563924E-01
        2   -1    0    0  501    0  0.00000000000E+00  0.00000000000E+00  0.20943956192E+04  0.20943956192E+04  0.25500000920E-02 0.  1.
       -2   -1    0    0    0  501  0.00000000000E+00  0.00000000000E+00 -0.52336359280E+03  0.52336359281E+03  0.25500000920E-02 0. -1.
    10030    2    1    2    0    0  0.00000000000E+00  0.00000000000E+00  0.15710320264E+04  0.26177592120E+04  0.20939249423E+04 0.  0.
        1    1    3    3  502    0 -0.10189704832E+04  0.21065509325E+03  0.64050722230E+03  0.12218534756E+04  0.50400001928E-02 0.  1.
       -1    1    3    3    0  502  0.10189704832E+04 -0.21065509325E+03  0.93052480409E+03  0.13959057364E+04  0.50400001928E-02 0. -1.
</event>
<event>
 5   0  0.2604390E-05  0.2041303E+04  0.7818609E-02  0.8587550E-01
       -1   -1    0    0    0  501  0.00000000000E+00  0.00000000000E+00  0.74515473984E+03  0.74515473986E+03  0.50400001928E-02 0.  1.
        1   -1    0    0  501    0  0.00000000000E+00  0.00000000000E+00 -0.13980048818E+04  0.13980048818E+04  0.50400001928E-02 0. -1.
    10030    2    1    2    0    0  0.00000000000E+00  0.00000000000E+00 -0.65285014197E+03  0.21431596217E+04  0.20413034699E+04 0.  0.
        5    1    3    3  502    0  0.50178051043E+03  0.62025436292E+02  0.60442449346E+03  0.78802404385E+03  0.46999998093E+01 0.  1.
       -5    1    3    3    0  502 -0.50178051043E+03 -0.62025436292E+02 -0.12572746354E+04  0.13551355778E+04  0.46999998093E+01 0. -1.
</event>
<event>
 5   0  0.2732159E-05  0.2099185E+04  0.7818609E-02  0.8561603E-01
       -1   -1    0    0    0  501  0.00000000000E+00  0.00000000000E+00  0.13870628080E+04  0.13870628080E+04  0.50400001928E-02 0. -1.
        1   -1    0    0  501    0  0.00000000000E+00  0.00000000000E+00 -0.79422801488E+03  0.79422801489E+03  0.50400001928E-02 0.  1.
    10030    2    1    2    0    0  0.00000000000E+00  0.00000000000E+00  0.59283479313E+03  0.21812908229E+04  0.20991847375E+04 0.  0.
        3    1    3    3  502    0 -0.10384884623E+04  0.67899449349E+02  0.15479456595E+03  0.10521549265E+04  0.10100000352E+00 0.  1.
       -3    1    3    3    0  502  0.10384884623E+04 -0.67899449349E+02  0.43804022718E+03  0.11291358964E+04  0.10100000352E+00 0. -1.
</event>
<event>
 5   0  0.5866610E-05  0.2116041E+04  0.7818609E-02  0.8554210E-01
        2   -1    0    0  501    0  0.00000000000E+00  0.00000000000E+00  0.14417578458E+04  0.14417578458E+04  0.25500000920E-02 0.  1.
       -2   -1    0    0    0  501  0.00000000000E+00  0.00000000000E+00 -0.77641830120E+03  0.77641830121E+03  0.25500000920E-02 0. -1.
    10030    2    1    2    0    0  0.00000000000E+00  0.00000000000E+00  0.66533954463E+03  0.22181761470E+04  0.21160408100E+04 0.  0.
        5    1    3    3  502    0 -0.43129302685E+03  0.96223781257E+03  0.42326944082E+03  0.11362633464E+04  0.46999998093E+01 0. -1.
       -5    1    3    3    0  502  0.43129302685E+03 -0.96223781257E+03  0.24207010381E+03  0.10819128006E+04  0.46999998093E+01 0.  1.
</event>
<event>
 5   0  0.2732159E-05  0.2097079E+04  0.7818609E-02  0.8562531E-01
       -1   -1    0    0    0  501  0.00000000000E+00  0.00000000000E+00  0.95993002736E+03  0.95993002738E+03  0.50400001928E-02 0.  1.
        1   -1    0    0  501    0  0.00000000000E+00  0.00000000000E+00 -0.11453284208E+04  0.11453284208E+04  0.50400001928E-02 0. -1.
    10030    2    1    2    0    0  0.00000000000E+00  0.00000000000E+00 -0.18539839345E+03  0.21052584482E+04  0.20970790566E+04 0.  0.
        3    1    3    3  502    0 -0.42762214550E+03  0.78672034798E+03  0.45499771986E+03  0.10043966052E+04  0.10100000352E+00 0.  1.
       -3    1    3    3    0  502  0.42762214550E+03 -0.78672034798E+03 -0.64039611331E+03  0.11008618430E+04  0.10100000352E+00 0. -1.
</event>
<event>
 5   0  0.5866610E-05  0.2126797E+04  0.7818609E-02  0.8549530E-01
        2   -1    0    0  501    0  0.00000000000E+00  0.00000000000E+00  0.23495461491E+04  0.23495461491E+04  0.25500000920E-02 0. -1.
       -2   -1    0    0    0  501  0.00000000000E+00  0.00000000000E+00 -0.48129136060E+03  0.48129136060E+03  0.25500000920E-02 0.  1.
    10030    2    1    2    0    0  0.00000000000E+00  0.00000000000E+00  0.18682547885E+04  0.28308375097E+04  0.21267968995E+04 0.  0.
        5    1    3    3  502    0 -0.10436392331E+04 -0.16278382321E+03  0.10977565487E+04  0.15234083340E+04  0.46999998093E+01 0. -1.
       -5    1    3    3    0  502  0.10436392331E+04  0.16278382321E+03  0.77049823977E+03  0.13074291757E+04  0.46999998093E+01 0.  1.
</event>
<event>
 5   0  0.2699285E-05  0.2111756E+04  0.7818609E-02  0.8556082E-01
       -1   -1    0    0    0  501  0.00000000000E+00  0.00000000000E+00  0.65505907823E+03  0.65505907825E+03  0.50400001928E-02 0.  1.
        1   -1    0    0  501    0  0.00000000000E+00  0.00000000000E+00 -0.17019504329E+04  0.17019504329E+04  0.50400001928E-02 0. -1.
    10030    2    1    2    0    0  0.00000000000E+00  0.00000000000E+00 -0.10468913546E+04  0.23570095111E+04  0.21117557451E+04 0.  0.
        2    1    3    3  502    0 -0.51670635816E+03  0.89988444095E+03 -0.74130875713E+03  0.12752710069E+04  0.25500000920E-02 0.  1.
       -2    1    3    3    0  502  0.51670635816E+03 -0.89988444095E+03 -0.30558259751E+03  0.10817385042E+04  0.25500000920E-02 0. -1.
</event>
<event>
 5   0  0.5462851E-05  0.2086560E+04  0.7818609E-02  0.8567187E-01
       -2   -1    0    0    0  501  0.00000000000E+00  0.00000000000E+00  0.66217498227E+03  0.66217498228E+03  0.25500000920E-02 0. -1.
        2   -1    0    0  501    0  0.00000000000E+00  0.00000000000E+00 -0.16437240997E+04  0.16437240997E+04  0.25500000920E-02 0.  1.
    10030    2    1    2    0    0  0.00000000000E+00  0.00000000000E+00 -0.98154911742E+03  0.23058990820E+04  0.20865598257E+04 0.  0.
        1    1    3    3  502    0  0.72772018116E+03  0.47301569127E+03 -0.11305163908E+04  0.14252676296E+04  0.50400001928E-02 0.  1.
       -1    1    3    3    0  502 -0.72772018116E+03 -0.47301569127E+03  0.14896727336E+03  0.88063145232E+03  0.50400001928E-02 0. -1.
</event>
<event>
 5   0  0.2699285E-05  0.2086446E+04  0.7818609E-02  0.8567237E-01
       -1   -1    0    0    0  501  0.00000000000E+00  0.00000000000E+00  0.14217415321E+04  0.14217415321E+04  0.50400001928E-02 0.  1.
        1   -1    0    0  501    0  0.00000000000E+00  0.00000000000E+00 -0.76547997330E+03  0.76547997332E+03  0.50400001928E-02 0. -1.
    10030    2    1    2    0    0  0.00000000000E+00  0.00000000000E+00  0.65626155876E+03  0.21872215054E+04  0.20864464240E+04 0.  0.
        2    1    3    3  502    0 -0.24801970372E+03  0.96051263104E+03  0.66654883544E+03  0.11951508850E+04  0.25500000920E-02 0.  1.
       -2    1    3    3    0  502  0.24801970372E+03 -0.96051263104E+03 -0.10287276681E+02  0.99207062042E+03  0.25500000920E-02 0. -1.
</event>
<event>
 5   0  0.5967046E-05  0.2092247E+04  0.7818609E-02  0.8564666E-01
        2   -1    0    0  501    0  0.00000000000E+00  0.00000000000E+00  0.75443996783E+03  0.75443996783E+03  0.25500000920E-02 0. -1.
       -2   -1    0    0    0  501  0.00000000000E+00  0.00000000000E+00 -0.14505787244E+04  0.14505787244E+04  0.25500000920E-02 0.  1.
    10030    2    1    2    0    0  0.00000000000E+00  0.00000000000E+00 -0.69613875653E+03  0.22050186922E+04  0.20922471806E+04 0.  0.
        4    1    3    3  502    0  0.63637150817E+02  0.38458925579E+03  0.67503568522E+03  0.77950841680E+03  0.12699999809E+01 0. -1.
       -4    1    3    3    0  502 -0.63637150817E+02 -0.38458925579E+03 -0.13711744417E+04  0.14255102754E+04  0.12699999809E+01 0.  1.
</event>
<event>
 5   0  0.2789662E-05  0.2093549E+04  0.7818609E-02  0.8564091E-01
        1   -1    0    0  501    0  0.00000000000E+00  0.00000000000E+00  0.11432112240E+04  0.11432112240E+04  0.50400001928E-02 0. -1.
       -1   -1    0    0    0  501  0.00000000000E+00  0.00000000000E+00 -0.95847259763E+03  0.95847259764E+03  0.50400001928E-02 0.  1.
    10030    2    1    2    0    0  0.00000000000E+00  0.00000000000E+00  0.18473862634E+03  0.21016838216E+04  0.20935487876E+04 0.  0.
        4    1    3    3  502    0  0.42196466594E+03 -0.32363614334E+03  0.99750496519E+03  0.11304036010E+04  0.12699999809E+01 0. -1.
       -4    1    3    3    0  502 -0.42196466594E+03  0.32363614334E+03 -0.81276633885E+03  0.97128022066E+03  0.12699999809E+01 0.  1.
</event>
<event>
 5   0  0.2699285E-05  0.2117206E+04  0.7818609E-02  0.8553702E-01
        1   -1    0    0  501    0  0.00000000000E+00  0.00000000000E+00  0.10841212179E+04  0.10841212179E+04  0.50400001928E-02 0. -1.
       -1   -1    0    0    0  501  0.00000000000E+00  0.00000000000E+00 -0.10336851708E+04  0.10336851709E+04  0.50400001928E-02 0.  1.
    10030    2    1    2    0    0  0.00000000000E+00  0.00000000000E+00  0.50436047088E+02  0.21178063888E+04  0.21172057306E+04 0.  0.
        2    1    3    3  502    0  0.64976674427E+03  0.70670414783E+03  0.47145270268E+03  0.10695303761E+04  0.25500000920E-02 0. -1.
       -2    1    3    3    0  502 -0.64976674427E+03 -0.70670414783E+03 -0.42101665559E+03  0.10482760127E+04  0.25500000920E-02 0.  1.
</event>
<event>
 5   0  0.2604390E-05  0.2091065E+04  0.7818609E-02  0.8565190E-01
       -1   -1    0    0    0  501  0.00000000000E+00  0.00000000000E+00  0.67277168482E+03  0.67277168484E+03  0.50400001928E-02 0. -1.
        1   -1    0    0  501    0  0.00000000000E+00  0.00000000000E+00 -0.16248276213E+04  0.16248276213E+04  0.50400001928E-02 0.  1.
    10030    2    1    2    0    0  0.00000000000E+00  0.00000000000E+00 -0.95205593647E+03  0.22975993061E+04  0.20910648162E+04 0.  0.
        5    1    3    3  502    0 -0.79840426540E+03 -0.48091145945E+03 -0.99651420042E+03  0.13644734679E+04  0.46999998093E+01 0.  1.
       -5    1    3    3    0  502  0.79840426540E+03  0.48091145945E+03  0.44458263955E+02  0.93312583829E+03  0.46999998093E+01 0. -1.
</event>
<event>
 5   0  0.2699285E-05  0.2096730E+04  0.7818609E-02  0.8562685E-01
        1   -1    0    0  501    0  0.00000000000E+00  0.00000000000E+00  0.19273076212E+04  0.19273076212E+04  0.50400001928E-02 0. -1.
       -1   -1    0    0    0  501  0.00000000000E+00  0.00000000000E+00 -0.57026132044E+03  0.57026132046E+03  0.50400001928E-02 0.  1.
    10030    2    1    2    0    0  0.00000000000E+00  0.00000000000E+00  0.13570463007E+04  0.24975689416E+04  0.20967298242E+04 0.  0.
        2    1    3    3  502    0 -0.72995142494E+03 -0.97049397168E+01 -0.21774740026E+03  0.76179866037E+03  0.25500000920E-02 0.  1.
       -2    1    3    3    0  502  0.72995142494E+03  0.97049397168E+01  0.15747937010E+04  0.17357702813E+04  0.25500000920E-02 0. -1.
</event>
<event>
 5   0  0.2732159E-05  0.2085582E+04  0.7818609E-02  0.8567622E-01
        1   -1    0    0  501    0  0.00000000000E+00  0.00000000000E+00  0.10082734740E+04  0.10082734740E+04  0.50400001928E-02 0.  1.
       -1   -1    0    0    0  501  0.00000000000E+00  0.00000000000E+00 -0.10784897700E+04  0.10784897700E+04  0.50400001928E-02 0. -1.
    10030    2    1    2    0    0  0.00000000000E+00  0.00000000000E+00 -0.70216296007E+02  0.20867632440E+04  0.20855815755E+04 0.  0.
        3    1    3    3  502    0  0.61445426281E+03 -0.84214858742E+03 -0.97100612712E+01  0.10425270164E+04  0.10100000352E+00 0. -1.
       -3    1    3    3    0  502 -0.61445426281E+03  0.84214858742E+03 -0.60506234735E+02  0.10442362276E+04  0.10100000352E+00 0.  1.
</event>
<event>
 5   0  0.2604390E-05  0.2114961E+04  0.7818609E-02  0.8554681E-01
       -1   -1    0    0    0  501  0.00000000000E+00  0.00000000000E+00  0.62869728569E+03  0.62869728571E+03  0.50400001928E-02 0. -1.
        1   -1    0    0  501    0  0.00000000000E+00  0.00000000000E+00 -0.17787020587E+04  0.17787020587E+04  0.50400001928E-02 0.  1.
    10030    2    1    2    0    0  0.00000000000E+00  0.00000000000E+00 -0.11500047730E+04  0.24073993444E+04  0.21149611404E+04 0.  0.
        5    1    3    3  502    0 -0.15701229404E+03 -0.90828115609E+03 -0.11649471067E+04  0.14855138405E+04  0.46999998093E+01 0.  1.
       -5    1    3    3    0  502  0.15701229404E+03  0.90828115609E+03  0.14942333671E+02  0.92188550391E+03  0.46999998093E+01 0. -1.
</event>
<event>
 5   0  0.2604390E-05  0.2094709E+04  0.7818609E-02  0.8563578E-01
        1   -1    0    0  501    0  0.00000000000E+00  0.00000000000E+00  0.12668791840E+04  0.12668791840E+04  0.50400001928E-02 0. -1.
       -1   -1    0    0    0  501  0.00000000000E+00  0.00000000000E+00 -0.86586869850E+03  0.86586869852E+03  0.50400001928E-02 0.  1.
    10030    2    1    2    0    0  0.00000000000E+00  0.00000000000E+00  0.40101048549E+03  0.21327478825E+04  0.20947086005E+04 0.  0.
        5    1    3    3  502    0  0.15011148615E+03 -0.93447428250E+03 -0.25614057195E+03  0.98051299101E+03  0.46999998093E+01 0.  1.
       -5    1    3    3    0  502 -0.15011148615E+03  0.93447428250E+03  0.65715105745E+03  0.11522348915E+04  0.46999998093E+01 0. -1.
</event>
<event>
 5   0  0.2604390E-05  0.2103085E+04  0.7818609E-02  0.8559886E-01
        1   -1    0    0  501    0  0.00000000000E+00  0.00000000000E+00  0.11337197232E+04  0.11337197232E+04  0.50400001928E-02 0.  1.
       -1   -1    0    0    0  501  0.00000000000E+00  0.00000000000E+00 -0.97532174527E+03  0.97532174528E+03  0.50400001928E-02 0. -1.
    10030    2    1    2    0    0  0.00000000000E+00  0.00000000000E+00  0.15839797788E+03  0.21090414684E+04  0.21030848761E+04 0.  0.
        5    1    3    3  502    0  0.23140340240E+03 -0.48598706872E+02  0.11067033639E+04  0.11316906798E+04  0.46999998093E+01 0.  1.
       -5    1    3    3    0  502 -0.23140340240E+03  0.48598706872E+02 -0.94830538604E+03  0.97735078868E+03  0.46999998093E+01 0. -1.
</event>
<event>
 5   0  0.5967046E-05  0.2097517E+04  0.7818609E-02  0.8562338E-01
        2   -1    0    0  501    0  0.00000000000E+00  0.00000000000E+00  0.16211539539E+04  0.16211539539E+04  0.25500000920E-02 0. -1.
       -2   -1    0    0    0  501  0.00000000000E+00  0.00000000000E+00 -0.67846399373E+03  0.67846399373E+03  0.25500000920E-02 0.  1.
    10030    2    1    2    0    0  0.00000000000E+00  0.00000000000E+00  0.94268996018E+03  0.22996179476E+04  0.20975171857E+04 0.  0.
        4    1    3    3  502    0  0.83698960507E+03  0.61265366394E+03  0.64118005629E+03  0.12194300260E+04  0.12699999809E+01 0.  1.
       -4    1    3    3    0  502 -0.83698960507E+03 -0.61265366394E+03  0.30150990389E+03  0.10801879216E+04  0.12699999809E+01 0. -1.
</event>
<event>
 5   0  0.2789662E-05  0.2103937E+04  0.7818609E-02  0.8559511E-01
        1   -1    0    0  501    0  0.00000000000E+00  0.00000000000E+00  0.17415572386E+04  0.17415572386E+04  0.50400001928E-02 0. -1.
       -1   -1    0    0    0  501  0.00000000000E+00  0.00000000000E+00 -0.63543018607E+03  0.63543018608E+03  0.50400001928E-02 0.  1.
    10030    2    1    2    0    0  0.00000000000E+00  0.00000000000E+00  0.11061270526E+04  0.23769874247E+04  0.21039372997E+04 0.  0.
        4    1    3    3  502    0 -0.44787328104E+03  0.57478049292E+03  0.14102634986E+04  0.15873902606E+04  0.12699999809E+01 0. -1.
       -4    1    3    3    0  502  0.44787328104E+03 -0.57478049292E+03 -0.30413644606E+03  0.78959716415E+03  0.12699999809E+01 0.  1.
</event>
<event>
 5   0  0.5506332E-05  0.2066554E+04  0.7818609E-02  0.8576121E-01
       -2   -1    0    0    0  501  0.00000000000E+00  0.00000000000E+00  0.46723189916E+03  0.46723189917E+03  0.25500000920E-02 0. -1.
        2   -1    0    0  501    0  0.00000000000E+00  0.00000000000E+00 -0.22850776823E+04  0.22850776823E+04  0.25500000920E-02 0.  1.
    10030    2    1    2    0    0  0.00000000000E+00  0.00000000000E+00 -0.18178457832E+04  0.27523095815E+04  0.20665538321E+04 0.  0.
        3    1    3    3  502    0 -0.25784722732E+02  0.57745350324E+03 -0.20496022354E+04  0.21295508291E+04  0.10100000352E+00 0.  1.
       -3    1    3    3    0  502  0.25784722732E+02 -0.57745350324E+03  0.23175645221E+03  0.62275875239E+03  0.10100000352E+00 0. -1.
</event>
<event>
 5   0  0.5462851E-05  0.2091608E+04  0.7818609E-02  0.8564949E-01
        2   -1    0    0  501    0  0.00000000000E+00  0.00000000000E+00  0.11234069491E+04  0.11234069491E+04  0.25500000920E-02 0. -1.
       -2   -1    0    0    0  501  0.00000000000E+00  0.00000000000E+00 -0.97356188844E+03  0.97356188845E+03  0.25500000920E-02 0.  1.
    10030    2    1    2    0    0  0.00000000000E+00  0.00000000000E+00  0.14984506070E+03  0.20969688376E+04  0.20916081764E+04 0.  0.
        1    1    3    3  502    0  0.18247411222E+03  0.56188921852E+03 -0.79024333490E+03  0.98666145354E+03  0.50400001928E-02 0.  1.
       -1    1    3    3    0  502 -0.18247411222E+03 -0.56188921852E+03  0.94008839560E+03  0.11103073841E+04  0.50400001928E-02 0. -1.
</event>
<event>
 5   0  0.2789662E-05  0.2107466E+04  0.7818609E-02  0.8557962E-01
        1   -1    0    0  501    0  0.00000000000E+00  0.00000000000E+00  0.68993122668E+03  0.68993122670E+03  0.50400001928E-02 0. -1.
       -1   -1    0    0    0  501  0.00000000000E+00  0.00000000000E+00 -0.16093683877E+04  0.16093683877E+04  0.50400001928E-02 0.  1.
    10030    2    1    2    0    0  0.00000000000E+00  0.00000000000E+00 -0.91943716100E+03  0.22992996144E+04  0.21074662568E+04 0.  0.
        4    1    3    3  502    0  0.82145916324E+03 -0.43287010154E+03 -0.10032423128E+04  0.13669924772E+04  0.12699999809E+01 0.  1.
       -4    1    3    3    0  502 -0.82145916324E+03  0.43287010154E+03  0.83805151766E+02  0.93230713719E+03  0.12699999809E+01 0. -1.
</event>
<event>
 5   0  0.5462851E-05  0.2103632E+04  0.7818609E-02  0.8559645E-01
       -2   -1    0    0    0  501  0.00000000000E+00  0.00000000000E+00  0.51572095211E+03  0.51572095211E+03  0.25500000920E-02 0.  1.
        2   -1    0    0  501    0  0.00000000000E+00  0.00000000000E+00 -0.21451842764E+04  0.21451842764E+04  0.25500000920E-02 0. -1.
    10030    2    1    2    0    0  0.00000000000E+00  0.00000000000E+00 -0.16294633243E+04  0.26609052285E+04  0.21036316003E+04 0.  0.
        1    1    3    3  502    0  0.74259128108E+03  0.56802366941E+03 -0.20517642966E+03  0.95717817937E+03  0.50400001928E-02 0.  1.
       -1    1    3    3    0  502 -0.74259128108E+03 -0.56802366941E+03 -0.14242868946E+04  0.17037270491E+04  0.50400001928E-02 0. -1.
</event>
<event>
 5   0  0.5506332E-05  0.2067486E+04  0.7818609E-02  0.8575703E-01
        2   -1    0    0  501    0  0.00000000000E+00  0.00000000000E+00  0.10306699468E+04  0.10306699468E+04  0.25500000920E-02 0. -1.
       -2   -1    0    0    0  501  0.00000000000E+00  0.00000000000E+00 -0.10368253667E+04  0.10368253667E+04  0.25500000920E-02 0.  1.
    10030    2    1    2    0    0  0.00000000000E+00  0.00000000000E+00 -0.61554199324E+01  0.20674953135E+04  0.20674861505E+04 0.  0.
        3    1    3    3  502    0 -0.69069132048E+03  0.71586702451E+03 -0.28433442474E+03  0.10345850242E+04  0.10100000352E+00 0.  1.
       -3    1    3    3    0  502  0.69069132048E+03 -0.71586702451E+03  0.27817900481E+03  0.10329102894E+04  0.10100000352E+00 0. -1.
</event>
<event>
 5   0  0.2699285E-05  0.2061323E+04  0.7818609E-02  0.8578475E-01
       -1   -1    0    0    0  501  0.00000000000E+00  0.00000000000E+00  0.77055800326E+03  0.77055800327E+03  0.50400001928E-02 0.  1.
        1   -1    0    0  501    0  0.00000000000E+00  0.00000000000E+00 -0.13785640968E+04  0.13785640968E+04  0.50400001928E-02 0. -1.
    10030    2    1    2    0    0  0.00000000000E+00  0.00000000000E+00 -0.60800609350E+03  0.21491221000E+04  0.20613234562E+04 0.  0.
        2    1    3    3  502    0  0.99417107879E+03  0.26289324423E+03 -0.37604470736E+03  0.10949422878E+04  0.25500000920E-02 0. -1.
       -2    1    3    3    0  502 -0.99417107879E+03 -0.26289324423E+03 -0.23196138614E+03  0.10541798122E+04  0.25500000920E-02 0.  1.
</event>
<event>
 5   0  0.5506332E-05  0.2103872E+04  0.7818609E-02  0.8559540E-01
        2   -1    0    0  501    0  0.00000000000E+00  0.00000000000E+00  0.11270761080E+04  0.11270761080E+04  0.25500000920E-02 0. -1.
       -2   -1    0    0    0  501  0.00000000000E+00  0.00000000000E+00 -0.98180496874E+03  0.98180496874E+03  0.25500000920E-02 0.  1.
    10030    2    1    2    0    0  0.00000000000E+00  0.00000000000E+00  0.14527113928E+03  0.21088810768E+04  0.21038715959E+04 0.  0.
        3    1    3    3  502    0  0.11894049698E+03  0.96791850236E+03 -0.32270922503E+03  0.10272070498E+04  0.10100000352E+00 0.  1.
       -3    1    3    3    0  502 -0.11894049698E+03 -0.96791850236E+03  0.46798036432E+03  0.10816740270E+04  0.10100000352E+00 0. -1.
</event>
<event>
 5   0  0.2602060E-05  0.2106456E+04  0.7818609E-02  0.8558405E-01
       -1   -1    0    0    0  501  0.00000000000E+00  0.00000000000E+00  0.13555631623E+04  0.13555631623E+04  0.50400001928E-02 0. -1.
        1   -1    0    0  501    0  0.00000000000E+00  0.00000000000E+00 -0.81832353326E+03  0.81832353327E+03  0.50400001928E-02 0.  1.
    10030    2    1    2    0    0  0.00000000000E+00  0.00000000000E+00  0.53723962906E+03  0.21738866956E+04  0.21064560157E+04 0.  0.
        1    1    3    3  502    0  0.97718337747E+03 -0.31668931885E+03  0.50868119982E+03  0.11462704921E+04  0.50400001928E-02 0. -1.
       -1    1    3    3    0  502 -0.97718337747E+03  0.31668931885E+03  0.28558429243E+02  0.10276162035E+04  0.50400001928E-02 0.  1.
</event>
<event>
 5   0  0.2699285E-05  0.2104455E+04  0.7818609E-02  0.8559283E-01
        1   -1    0    0  501    0  0.00000000000E+00  0.00000000000E+00  0.20970181032E+04  0.20970181033E+04  0.50400001928E-02 0.  1.
       -1   -1    0    0    0  501  0.00000000000E+00  0.00000000000E+00 -0.52797954338E+03  0.52797954340E+03  0.50400001928E-02 0. -1.
    10030    2    1    2    0    0  0.00000000000E+00  0.00000000000E+00  0.15690385599E+04  0.26249976467E+04  0.21044549514E+04 0.  0.
        2    1    3    3  502    0 -0.15154941273E+03  0.56281372791E+03 -0.30821877662E+03  0.65933703907E+03  0.25500000920E-02 0. -1.
       -2    1    3    3    0  502  0.15154941273E+03 -0.56281372791E+03  0.18772573365E+04  0.19656606076E+04  0.25500000920E-02 0.  1.
</event>
<event>
 5   0  0.2602060E-05  0.2106121E+04  0.7818609E-02  0.8558552E-01
       -1   -1    0    0    0  501  0.00000000000E+00  0.00000000000E+00  0.11490562106E+04  0.11490562106E+04  0.50400001928E-02 0. -1.
        1   -1    0    0  501    0  0.00000000000E+00  0.00000000000E+00 -0.96508466101E+03  0.96508466102E+03  0.50400001928E-02 0.  1.
    10030    2    1    2    0    0  0.00000000000E+00  0.00000000000E+00  0.18397154963E+03  0.21141408717E+04  0.21061211015E+04 0.  0.
        1    1    3    3  502    0 -0.21002685543E+03  0.95858387419E+01 -0.94380255296E+03  0.96693662011E+03  0.50400001928E-02 0.  1.
       -1    1    3    3    0  502  0.21002685543E+03 -0.95858387419E+01  0.11277741026E+04  0.11472042516E+04  0.50400001928E-02 0. -1.
</event>
<event>
 5   0  0.5462851E-05  0.2093374E+04  0.7818609E-02  0.8564168E-01
        2   -1    0    0  501    0  0.00000000000E+00  0.00000000000E+00  0.12139597495E+04  0.12139597495E+04  0.25500000920E-02 0.  1.
       -2   -1    0    0    0  501  0.00000000000E+00  0.00000000000E+00 -0.90246292341E+03  0.90246292342E+03  0.25500000920E-02 0. -1.
    10030    2    1    2    0    0  0.00000000000E+00  0.00000000000E+00  0.31149682604E+03  0.21164226729E+04  0.20933739889E+04 0.  0.
        1    1    3    3  502    0 -0.49386238166E+03  0.52621826878E+03 -0.61072005990E+03  0.94540187752E+03  0.50400001928E-02 0. -1.
       -1    1    3    3    0  502  0.49386238166E+03 -0.52621826878E+03  0.92221688593E+03  0.11710207954E+04  0.50400001928E-02 0.  1.
</event>
<event>
 5   0  0.2602060E-05  0.2097005E+04  0.7818609E-02  0.8562564E-01
       -1   -1    0    0    0  501  0.00000000000E+00  0.00000000000E+00  0.57180376964E+03  0.57180376966E+03  0.50400001928E-02 0. -1.
        1   -1    0    0  501    0  0.00000000000E+00  0.00000000000E+00 -0.19226133589E+04  0.19226133589E+04  0.50400001928E-02 0.  1.
    10030    2    1    2    0    0  0.00000000000E+00  0.00000000000E+00 -0.13508095892E+04  0.24944171285E+04  0.20970050703E+04 0.  0.
        1    1    3    3  502    0 -0.10312408349E+04 -0.17777536087E+03 -0.75336859967E+03  0.12894285500E+04  0.50400001928E-02 0.  1.
       -1    1    3    3    0  502  0.10312408349E+04  0.17777536087E+03 -0.59744098956E+03  0.12049885786E+04  0.50400001928E-02 0. -1.
</event>
<event>
 5   0  0.2789662E-05  0.2095306E+04  0.7818609E-02  0.8563314E-01
        1   -1    0    0  501    0  0.00000000000E+00  0.00000000000E+00  0.11995682067E+04  0.11995682067E+04  0.50400001928E-02 0.  1.
       -1   -1    0    0    0  501  0.00000000000E+00  0.00000000000E+00 -0.91497698973E+03  0.91497698974E+03  0.50400001928E-02 0. -1.
    10030    2    1    2    0    0  0.00000000000E+00  0.00000000000E+00  0.28459121699E+03  0.21145451965E+04  0.20953064757E+04 0.  0.
        4    1    3    3  502    0 -0.44278058037E+03  0.63483957126E+03 -0.57023233067E+03  0.96137528959E+03  0.12699999809E+01 0. -1.
       -4    1    3    3    0  502  0.44278058037E+03 -0.63483957126E+03  0.85482354766E+03  0.11531699069E+04  0.12699999809E+01 0.  1.
</event>
<event>
 5   0  0.5954140E-05  0.2124819E+04  0.7818609E-02  0.8550389E-01
       -2   -1    0    0    0  501  0.00000000000E+00  0.00000000000E+00  0.12666000866E+04  0.12666000867E+04  0.25500000920E-02 0. -1.
        2   -1    0    0  501    0  0.00000000000E+00  0.00000000000E+00 -0.89113657622E+03  0.89113657622E+03  0.25500000920E-02 0.  1.
    10030    2    1    2    0    0  0.00000000000E+00  0.00000000000E+00  0.37546351043E+03  0.21577366629E+04  0.21248187355E+04 0.  0.
        2    1    3    3  502    0 -0.83191703292E+03  0.33349429896E+03  0.76701572742E+03  0.11796683954E+04  0.25500000920E-02 0. -1.
       -2    1    3    3    0  502  0.83191703292E+03 -0.33349429896E+03 -0.39155221698E+03  0.97806826742E+03  0.25500000920E-02 0.  1.
</event>
<event>
 5   0  0.5954140E-05  0.2096927E+04  0.7818609E-02  0.8562598E-01
       -2   -1    0    0    0  501  0.00000000000E+00  0.00000000000E+00  0.90431529816E+03  0.90431529816E+03  0.25500000920E-02 0. -1.
        2   -1    0    0  501    0  0.00000000000E+00  0.00000000000E+00 -0.12155886327E+04  0.12155886327E+04  0.25500000920E-02 0.  1.
    10030    2    1    2    0    0  0.00000000000E+00  0.00000000000E+00 -0.31127333452E+03  0.21199039308E+04  0.20969267005E+04 0.  0.
        2    1    3    3  502    0  0.14078283955E+03  0.75311116098E+03 -0.87921620737E+03  0.11661978254E+04  0.25500000920E-02 0.  1.
       -2    1    3    3    0  502 -0.14078283955E+03 -0.75311116098E+03  0.56794287285E+03  0.95370610543E+03  0.25500000920E-02 0. -1.
</event>
<event>
 5   0  0.2017750E-05  0.2106332E+04  0.7818609E-02  0.8558459E-01
        4   -1    0    0  501    0  0.00000000000E+00  0.00000000000E+00  0.17457797514E+04  0.17457802133E+04  0.12699999809E+01 0. -1.
       -4   -1    0    0    0  501  0.00000000000E+00  0.00000000000E+00 -0.63533615719E+03  0.63533742652E+03  0.12699999809E+01 0.  1.
    10030    2    1    2    0    0  0.00000000000E+00  0.00000000000E+00  0.11104435942E+04  0.23811176398E+04  0.21063324141E+04 0.  0.
        4    1    3    3  502    0  0.76172306383E+03 -0.11330744473E+03  0.13673405571E+04  0.15692936038E+04  0.12699999809E+01 0. -1.
       -4    1    3    3    0  502 -0.76172306383E+03  0.11330744473E+03 -0.25689696292E+03  0.81182403602E+03  0.12699999809E+01 0.  1.
</event>
<event>
 5   0  0.5462851E-05  0.2104187E+04  0.7818609E-02  0.8559401E-01
        2   -1    0    0  501    0  0.00000000000E+00  0.00000000000E+00  0.12090659480E+04  0.12090659481E+04  0.25500000920E-02 0. -1.
       -2   -1    0    0    0  501  0.00000000000E+00  0.00000000000E+00 -0.91550100539E+03  0.91550100539E+03  0.25500000920E-02 0.  1.
    10030    2    1    2    0    0  0.00000000000E+00  0.00000000000E+00  0.29356494266E+03  0.21245669534E+04  0.21041873405E+04 0.  0.
        1    1    3    3  502    0 -0.32780757968E+03  0.14471063000E+03 -0.85199078044E+03  0.92427661753E+03  0.50400001928E-02 0.  1.
       -1    1    3    3    0  502  0.32780757968E+03 -0.14471063000E+03  0.11455557231E+04  0.12002903359E+04  0.50400001928E-02 0. -1.
</event>
<event>
 5   0  0.2732159E-05  0.2076885E+04  0.7818609E-02  0.8571495E-01
       -1   -1    0    0    0  501  0.00000000000E+00  0.00000000000E+00  0.44241489595E+03  0.44241489598E+03  0.50400001928E-02 0. -1.
        1   -1    0    0  501    0  0.00000000000E+00  0.00000000000E+00 -0.24374467993E+04  0.24374467994E+04  0.50400001928E-02 0.  1.
    10030    2    1    2    0    0  0.00000000000E+00  0.00000000000E+00 -0.19950319034E+04  0.28798616953E+04  0.20768849483E+04 0.  0.
        3    1    3    3  502    0 -0.16697494066E+03 -0.75573994429E+03 -0.19575368708E+04  0.21049879108E+04  0.10100000352E+00 0.  1.
       -3    1    3    3    0  502  0.16697494066E+03  0.75573994429E+03 -0.37495032641E+02  0.77487378449E+03  0.10100000352E+00 0. -1.
</event>
<event>
 5   0  0.5967046E-05  0.2106591E+04  0.7818609E-02  0.8558345E-01
       -2   -1    0    0    0  501  0.00000000000E+00  0.00000000000E+00  0.94100370062E+03  0.94100370063E+03  0.25500000920E-02 0.  1.
        2   -1    0    0  501    0  0.00000000000E+00  0.00000000000E+00 -0.11789877512E+04  0.11789877513E+04  0.25500000920E-02 0. -1.
    10030    2    1    2    0    0  0.00000000000E+00  0.00000000000E+00 -0.23798405063E+03  0.21199914519E+04  0.21065914050E+04 0.  0.
        4    1    3    3  502    0 -0.87118446276E+03  0.31277975430E+03 -0.62481902327E+03  0.11167783879E+04  0.12699999809E+01 0.  1.
       -4    1    3    3    0  502  0.87118446276E+03 -0.31277975430E+03  0.38683497265E+03  0.10032130640E+04  0.12699999809E+01 0. -1.
</event>
<event>
 5   0  0.5866610E-05  0.2178744E+04  0.7818609E-02  0.8527328E-01
        2   -1    0    0  501    0  0.00000000000E+00  0.00000000000E+00  0.68660632463E+03  0.68660632464E+03  0.25500000920E-02 0. -1.
       -2   -1    0    0    0  501  0.00000000000E+00  0.00000000000E+00 -0.17284011437E+04  0.17284011438E+04  0.25500000920E-02 0.  1.
    10030    2    1    2    0    0  0.00000000000E+00  0.00000000000E+00 -0.10417948191E+04  0.24150074684E+04  0.21787438186E+04 0.  0.
        5    1    3    3  502    0 -0.53023395287E+03 -0.81363590704E+03  0.26135157458E+02  0.97152281005E+03  0.46999998093E+01 0.  1.
       -5    1    3    3    0  502  0.53023395287E+03  0.81363590704E+03 -0.10679299766E+04  0.14434846583E+04  0.46999998093E+01 0. -1.
</event>
<event>
 5   0  0.5506332E-05  0.2099366E+04  0.7818609E-02  0.8561523E-01
       -2   -1    0    0    0  501  0.00000000000E+00  0.00000000000E+00  0.63799230565E+03  0.63799230566E+03  0.25500000920E-02 0. -1.
        2   -1    0    0  501    0  0.00000000000E+00  0.00000000000E+00 -0.17270332050E+04  0.17270332050E+04  0.25500000920E-02 0.  1.
    10030    2    1    2    0    0  0.00000000000E+00  0.00000000000E+00 -0.10890408994E+04  0.23650255107E+04  0.20993655198E+04 0.  0.
        3    1    3    3  502    0  0.15029156870E+03 -0.10201207453E+04 -0.76585101693E+03  0.12844304890E+04  0.10100000352E+00 0.  1.
       -3    1    3    3    0  502 -0.15029156870E+03  0.10201207453E+04 -0.32318988244E+03  0.10805950217E+04  0.10100000352E+00 0. -1.
</event>
<event>
 5   0  0.2602060E-05  0.2090337E+04  0.7818609E-02  0.8565512E-01
        1   -1    0    0  501    0  0.00000000000E+00  0.00000000000E+00  0.90526118756E+03  0.90526118757E+03  0.50400001928E-02 0. -1.
       -1   -1    0    0    0  501  0.00000000000E+00  0.00000000000E+00 -0.12066984114E+04  0.12066984114E+04  0.50400001928E-02 0.  1.
    10030    2    1    2    0    0  0.00000000000E+00  0.00000000000E+00 -0.30143722388E+03  0.21119595990E+04  0.20903370417E+04 0.  0.
        1    1    3    3  502    0 -0.15584883875E+03 -0.78326748741E+03 -0.83191863206E+03  0.11532065850E+04  0.50400001928E-02 0.  1.
       -1    1    3    3    0  502  0.15584883875E+03  0.78326748741E+03  0.53048140818E+03  0.95875301399E+03  0.50400001928E-02 0. -1.
</event>
<event>
 5   0  0.2699285E-05  0.2108796E+04  0.7818609E-02  0.8557379E-01
       -1   -1    0    0    0  501  0.00000000000E+00  0.00000000000E+00  0.85779193995E+03  0.85779193997E+03  0.50400001928E-02 0.  1.
        1   -1    0    0  501    0  0.00000000000E+00  0.00000000000E+00 -0.12960662712E+04  0.12960662713E+04  0.50400001928E-02 0. -1.
    10030    2    1    2    0    0  0.00000000000E+00  0.00000000000E+00 -0.43827433129E+03  0.21538582112E+04  0.21087960557E+04 0.  0.
        2    1    3    3  502    0  0.23446390044E+03 -0.94716988636E+03 -0.62723892721E+03  0.11599710281E+04  0.25500000920E-02 0. -1.
       -2    1    3    3    0  502 -0.23446390044E+03  0.94716988636E+03  0.18896459592E+03  0.99388718311E+03  0.25500000920E-02 0.  1.
</event>
<event>
 5   0  0.2699285E-05  0.2051461E+04  0.7818609E-02  0.8582932E-01
        1   -1    0    0  501    0  0.00000000000E+00  0.00000000000E+00  0.96284878055E+03  0.96284878057E+03  0.50400001928E-02 0. -1.
       -1   -1    0    0    0  501  0.00000000000E+00  0.00000000000E+00 -0.10927193954E+04  0.10927193954E+04  0.50400001928E-02 0.  1.
    10030    2    1    2    0    0  0.00000000000E+00  0.00000000000E+00 -0.12987061485E+03  0.20555681760E+04  0.20514614667E+04 0.  0.
        2    1    3    3  502    0  0.63380836859E+03 -0.77446323804E+03  0.16049769951E+03  0.10135412506E+04  0.25500000920E-02 0. -1.
       -2    1    3    3    0  502 -0.63380836859E+03  0.77446323804E+03 -0.29036831435E+03  0.10420269254E+04  0.25500000920E-02 0.  1.
</event>
<event>
 5   0  0.5954140E-05  0.2129050E+04  0.7818609E-02  0.8548553E-01
       -2   -1    0    0    0  501  0.00000000000E+00  0.00000000000E+00  0.65471952369E+03  0.65471952369E+03  0.25500000920E-02 0. -1.
        2   -1    0    0  501    0  0.00000000000E+00  0.00000000000E+00 -0.17308384083E+04  0.17308384083E+04  0.25500000920E-02 0.  1.
    10030    2    1    2    0    0  0.00000000000E+00  0.00000000000E+00 -0.10761188846E+04  0.23855579320E+04  0.21290502091E+04 0.  0.
        2    1    3    3  502    0 -0.42616740877E+03 -0.74250904790E+02 -0.16279136808E+04  0.16844093355E+04  0.25500000920E-02 0.  1.
       -2    1    3    3    0  502  0.42616740877E+03  0.74250904790E+02  0.55179479627E+03  0.70114859648E+03  0.25500000920E-02 0. -1.
</event>
<event>
 5   0  0.5967046E-05  0.2023809E+04  0.7818609E-02  0.8595569E-01
        2   -1    0    0  501    0  0.00000000000E+00  0.00000000000E+00  0.11036769458E+04  0.11036769458E+04  0.25500000920E-02 0. -1.
       -2   -1    0    0    0  501  0.00000000000E+00  0.00000000000E+00 -0.92776332718E+03  0.92776332718E+03  0.25500000920E-02 0.  1.
    10030    2    1    2    0    0  0.00000000000E+00  0.00000000000E+00  0.17591361857E+03  0.20314402729E+04  0.20238092749E+04 0.  0.
        4    1    3    3  502    0 -0.38997681204E+03 -0.88187188513E+03  0.39598430532E+03  0.10423939364E+04  0.12699999809E+01 0. -1.
       -4    1    3    3    0  502  0.38997681204E+03  0.88187188513E+03 -0.22007068675E+03  0.98904633652E+03  0.12699999809E+01 0.  1.
</event>
<event>
 5   0  0.5866610E-05  0.2094092E+04  0.7818609E-02  0.8563850E-01
       -2   -1    0    0    0  501  0.00000000000E+00  0.00000000000E+00  0.11418779671E+04  0.11418779671E+04  0.25500000920E-02 0.  1.
        2   -1    0    0  501    0  0.00000000000E+00  0.00000000000E+00 -0.96008978107E+03  0.96008978108E+03  0.25500000920E-02 0. -1.
    10030    2    1    2    0    0  0.00000000000E+00  0.00000000000E+00  0.18178818605E+03  0.21019677482E+04  0.20940920395E+04 0.  0.
        5    1    3    3  502    0  0.97338599014E+03 -0.15772116812E+03  0.44425076336E+03  0.10815438426E+04  0.46999998093E+01 0. -1.
       -5    1    3    3    0  502 -0.97338599014E+03  0.15772116812E+03 -0.26246257732E+03  0.10204239056E+04  0.46999998093E+01 0.  1.
</event>
<event>
 5   0  0.2602060E-05  0.2085200E+04  0.7818609E-02  0.8567791E-01
       -1   -1    0    0    0  501  0.00000000000E+00  0.00000000000E+00  0.62531779318E+03  0.62531779320E+03  0.50400001928E-02 0.  1.
        1   -1    0    0  501    0  0.00000000000E+00  0.00000000000E+00 -0.17383397272E+04  0.17383397272E+04  0.50400001928E-02 0. -1.
    10030    2    1    2    0    0  0.00000000000E+00  0.00000000000E+00 -0.11130219340E+04  0.23636575204E+04  0.20852000019E+04 0.  0.
        1    1    3    3  502    0  0.31887252571E+03  0.13839913795E+03 -0.16707183307E+04  0.17064975094E+04  0.50400001928E-02 0. -1.
       -1    1    3    3    0  502 -0.31887252571E+03 -0.13839913795E+03  0.55769639673E+03  0.65716001095E+03  0.50400001928E-02 0.  1.
</event>
<event>
 5   0  0.2789662E-05  0.2130031E+04  0.7818609E-02  0.8548129E-01
       -1   -1    0    0    0  501  0.00000000000E+00  0.00000000000E+00  0.50339581274E+03  0.50339581276E+03  0.50400001928E-02 0. -1.
        1   -1    0    0  501    0  0.00000000000E+00  0.00000000000E+00 -0.22532119961E+04  0.22532119961E+04  0.50400001928E-02 0.  1.
    10030    2    1    2    0    0  0.00000000000E+00  0.00000000000E+00 -0.17498161833E+04  0.27566078088E+04  0.21300305013E+04 0.  0.
        4    1    3    3  502    0 -0.45867623685E+03 -0.16189467736E+03 -0.21010637396E+04  0.21566326131E+04  0.12699999809E+01 0.  1.
       -4    1    3    3    0  502  0.45867623685E+03  0.16189467736E+03  0.35124755632E+03  0.59997519576E+03  0.12699999809E+01 0. -1.
</event>
<event>
 5   0  0.5954140E-05  0.2111439E+04  0.7818609E-02  0.8556221E-01
       -2   -1    0    0    0  501  0.00000000000E+00  0.00000000000E+00  0.50473872135E+03  0.50473872136E+03  0.25500000920E-02 0. -1.
        2   -1    0    0  501    0  0.00000000000E+00  0.00000000000E+00 -0.22081603992E+04  0.22081603992E+04  0.25500000920E-02 0.  1.
    10030    2    1    2    0    0  0.00000000000E+00  0.00000000000E+00 -0.17034216779E+04  0.27128991206E+04  0.21114393730E+04 0.  0.
        2    1    3    3  502    0 -0.23446706816E+03  0.23253052473E+03 -0.21400962797E+04  0.21654231313E+04  0.25500000920E-02 0.  1.
       -2    1    3    3    0  502  0.23446706816E+03 -0.23253052473E+03  0.43667460184E+03  0.54747598932E+03  0.25500000920E-02 0. -1.
</event>
<event>
 5   0  0.5462851E-05  0.2106495E+04  0.7818609E-02  0.8558388E-01
        2   -1    0    0  501    0  0.00000000000E+00  0.00000000000E+00  0.14875789823E+04  0.14875789823E+04  0.25500000920E-02 0.  1.
       -2   -1    0    0    0  501  0.00000000000E+00  0.00000000000E+00 -0.74572858478E+03  0.74572858478E+03  0.25500000920E-02 0. -1.
    10030    2    1    2    0    0  0.00000000000E+00  0.00000000000E+00  0.74185039752E+03  0.22333075671E+04  0.21064948794E+04 0.  0.
        1    1    3    3  502    0 -0.42136002618E+03  0.41160539928E+03  0.12966249429E+04  0.14241486997E+04  0.50400001928E-02 0.  1.
       -1    1    3    3    0  502  0.42136002618E+03 -0.41160539928E+03 -0.55477454538E+03  0.80915886735E+03  0.50400001928E-02 0. -1.
</event>
<event>
 5   0  0.5462851E-05  0.2231032E+04  0.7818609E-02  0.8505622E-01
       -2   -1    0    0    0  501  0.00000000000E+00  0.00000000000E+00  0.11235505790E+04  0.11235505790E+04  0.25500000920E-02 0. -1.
        2   -1    0    0  501    0  0.00000000000E+00  0.00000000000E+00 -0.11075391391E+04  0.11075391391E+04  0.25500000920E-02 0.  1.
    10030    2    1    2    0    0  0.00000000000E+00  0.00000000000E+00  0.16011439964E+02  0.22310897181E+04  0.22310322642E+04 0.  0.
        1    1    3    3  502    0  0.86040642074E+03  0.70857764166E+03 -0.36658142348E+02  0.11152243283E+04  0.50400001928E-02 0. -1.
       -1    1    3    3    0  502 -0.86040642074E+03 -0.70857764166E+03  0.52669582312E+02  0.11158653897E+04  0.50400001928E-02 0.  1.
</event>
<event>
 5   0  0.2699285E-05  0.2099000E+04  0.7818609E-02  0.8561684E-01
       -1   -1    0    0    0  501  0.00000000000E+00  0.00000000000E+00  0.33757884415E+03  0.33757884418E+03  0.50400001928E-02 0. -1.
        1   -1    0    0  501    0  0.00000000000E+00  0.00000000000E+00 -0.32627943185E+04  0.32627943185E+04  0.50400001928E-02 0.  1.
    10030    2    1    2    0    0  0.00000000000E+00  0.00000000000E+00 -0.29252154744E+04  0.36003731627E+04  0.20990000808E+04 0.  0.
        2    1    3    3  502    0 -0.19545909270E+03  0.17795114038E+03  0.27954571407E+03  0.38472934843E+03  0.25500000920E-02 0. -1.
       -2    1    3    3    0  502  0.19545909270E+03 -0.17795114038E+03 -0.32047611885E+04  0.32156438143E+04  0.25500000920E-02 0.  1.
</event>
<event>
 5   0  0.5866610E-05  0.2135173E+04  0.7818609E-02  0.8545906E-01
       -2   -1    0    0    0  501  0.00000000000E+00  0.00000000000E+00  0.53854763439E+03  0.53854763440E+03  0.25500000920E-02 0.  1.
        2   -1    0    0  501    0  0.00000000000E+00  0.00000000000E+00 -0.21163227289E+04  0.21163227289E+04  0.25500000920E-02 0. -1.
    10030    2    1    2    0    0  0.00000000000E+00  0.00000000000E+00 -0.15777750945E+04  0.26548703633E+04  0.21351726856E+04 0.  0.
        5    1    3    3  502    0  0.42180050410E+03 -0.77793986503E+03 -0.46366889275E+02  0.88615917153E+03  0.46999998093E+01 0.  1.
       -5    1    3    3    0  502 -0.42180050410E+03  0.77793986503E+03 -0.15314082053E+04  0.17687111918E+04  0.46999998093E+01 0. -1.
</event>
<event>
 5   0  0.2789662E-05  0.2106782E+04  0.7818609E-02  0.8558262E-01
       -1   -1    0    0    0  501  0.00000000000E+00  0.00000000000E+00  0.11797921356E+04  0.11797921356E+04  0.50400001928E-02 0.  1.
        1   -1    0    0  501    0  0.00000000000E+00  0.00000000000E+00 -0.94053259722E+03  0.94053259723E+03  0.50400001928E-02 0. -1.
    10030    2    1    2    0    0  0.00000000000E+00  0.00000000000E+00  0.23925953841E+03  0.21203247329E+04  0.21067823443E+04 0.  0.
        4    1    3    3  502    0 -0.23901668489E+03 -0.39903459085E+03  0.10708366858E+04  0.11674974950E+04  0.12699999809E+01 0.  1.
       -4    1    3    3    0  502  0.23901668489E+03  0.39903459085E+03 -0.83157714734E+03  0.95282723787E+03  0.12699999809E+01 0. -1.
</event>
<event>
 5   0  0.2602060E-05  0.2102315E+04  0.7818609E-02  0.8560224E-01
       -1   -1    0    0    0  501  0.00000000000E+00  0.00000000000E+00  0.80912210489E+03  0.80912210490E+03  0.50400001928E-02 0.  1.
        1   -1    0    0  501    0  0.00000000000E+00  0.00000000000E+00 -0.13655940790E+04  0.13655940790E+04  0.50400001928E-02 0. -1.
    10030    2    1    2    0    0  0.00000000000E+00  0.00000000000E+00 -0.55647197407E+03  0.21747161839E+04  0.21023152529E+04 0.  0.
        1    1    3    3  502    0 -0.47271035206E+03  0.38741802586E+03  0.60642655039E+03  0.86098836505E+03  0.50400001928E-02 0.  1.
       -1    1    3    3    0  502  0.47271035206E+03 -0.38741802586E+03 -0.11628985245E+04  0.13137278188E+04  0.50400001928E-02 0. -1.
</event>
<event>
 5   0  0.2602060E-05  0.1994460E+04  0.7818609E-02  0.8609215E-01
        1   -1    0    0  501    0  0.00000000000E+00  0.00000000000E+00  0.12129073032E+04  0.12129073032E+04  0.50400001928E-02 0.  1.
       -1   -1    0    0    0  501  0.00000000000E+00  0.00000000000E+00 -0.81990420858E+03  0.81990420859E+03  0.50400001928E-02 0. -1.
    10030    2    1    2    0    0  0.00000000000E+00  0.00000000000E+00  0.39300309460E+03  0.20328115118E+04  0.19944601300E+04 0.  0.
        1    1    3    3  502    0 -0.20738324700E+03 -0.92492961399E+03 -0.11923775139E+03  0.95536393241E+03  0.50400001928E-02 0. -1.
       -1    1    3    3    0  502  0.20738324700E+03  0.92492961399E+03  0.51224084599E+03  0.10774475794E+04  0.50400001928E-02 0.  1.
</event>
<event>
 5   0  0.2699285E-05  0.2109874E+04  0.7818609E-02  0.8556906E-01
       -1   -1    0    0    0  501  0.00000000000E+00  0.00000000000E+00  0.14958702516E+04  0.14958702516E+04  0.50400001928E-02 0.  1.
        1   -1    0    0  501    0  0.00000000000E+00  0.00000000000E+00 -0.74397622076E+03  0.74397622078E+03  0.50400001928E-02 0. -1.
    10030    2    1    2    0    0  0.00000000000E+00  0.00000000000E+00  0.75189403088E+03  0.22398464724E+04  0.21098738319E+04 0.  0.
        2    1    3    3  502    0  0.85399104789E+03  0.45602409439E+03 -0.68955731715E+02  0.97057383927E+03  0.25500000920E-02 0. -1.
       -2    1    3    3    0  502 -0.85399104789E+03 -0.45602409439E+03  0.82084976259E+03  0.12692726332E+04  0.25500000920E-02 0.  1.
</event>
<event>
 5   0  0.2732159E-05  0.2105199E+04  0.7818609E-02  0.8558957E-01
       -1   -1    0    0    0  501  0.00000000000E+00  0.00000000000E+00  0.12776025370E+04  0.12776025370E+04  0.50400001928E-02 0.  1.
        1   -1    0    0  501    0  0.00000000000E+00  0.00000000000E+00 -0.86722225873E+03  0.86722225874E+03  0.50400001928E-02 0. -1.
    10030    2    1    2    0    0  0.00000000000E+00  0.00000000000E+00  0.41038027826E+03  0.21448247957E+04  0.21051986680E+04 0.  0.
        3    1    3    3  502    0 -0.18268011360E+03  0.95954434737E+03  0.60483372417E+03  0.11488782453E+04  0.10100000352E+00 0.  1.
       -3    1    3    3    0  502  0.18268011360E+03 -0.95954434737E+03 -0.19445344591E+03  0.99594655042E+03  0.10100000352E+00 0. -1.
</event>
<event>
 5   0  0.5506332E-05  0.2093775E+04  0.7818609E-02  0.8563991E-01
       -2   -1    0    0    0  501  0.00000000000E+00  0.00000000000E+00  0.71319858191E+03  0.71319858192E+03  0.25500000920E-02 0. -1.
        2   -1    0    0  501    0  0.00000000000E+00  0.00000000000E+00 -0.15367010718E+04  0.15367010718E+04  0.25500000920E-02 0.  1.
    10030    2    1    2    0    0  0.00000000000E+00  0.00000000000E+00 -0.82350248985E+03  0.22498996537E+04  0.20937746060E+04 0.  0.
        3    1    3    3  502    0 -0.28279814584E+03  0.97038257622E+03 -0.11873555351E+03  0.10177009764E+04  0.10100000352E+00 0. -1.
       -3    1    3    3    0  502  0.28279814584E+03 -0.97038257622E+03 -0.70476693634E+03  0.12321986773E+04  0.10100000352E+00 0.  1.
</event>
<event>
 5   0  0.2732159E-05  0.2153066E+04  0.7818609E-02  0.8538221E-01
        1   -1    0    0  501    0  0.00000000000E+00  0.00000000000E+00  0.14795865592E+04  0.14795865592E+04  0.50400001928E-02 0. -1.
       -1   -1    0    0    0  501  0.00000000000E+00  0.00000000000E+00 -0.78327529354E+03  0.78327529356E+03  0.50400001928E-02 0.  1.
    10030    2    1    2    0    0  0.00000000000E+00  0.00000000000E+00  0.69631126561E+03  0.22628618527E+04  0.21530662753E+04 0.  0.
        3    1    3    3  502    0  0.86192566532E+02 -0.65382840767E+03  0.12424299904E+04  0.14066104779E+04  0.10100000352E+00 0. -1.
       -3    1    3    3    0  502 -0.86192566532E+02  0.65382840767E+03 -0.54611872478E+03  0.85625137486E+03  0.10100000352E+00 0.  1.
</event>
<event>
 5   0  0.5967046E-05  0.2104474E+04  0.7818609E-02  0.8559275E-01
       -2   -1    0    0    0  501  0.00000000000E+00  0.00000000000E+00  0.86239601397E+03  0.86239601397E+03  0.25500000920E-02 0. -1.
        2   -1    0    0  501    0  0.00000000000E+00  0.00000000000E+00 -0.12838683701E+04  0.12838683701E+04  0.25500000920E-02 0.  1.
    10030    2    1    2    0    0  0.00000000000E+00  0.00000000000E+00 -0.42147235614E+03  0.21462643841E+04  0.21044742477E+04 0.  0.
        4    1    3    3  502    0  0.19211265838E+03  0.47253139569E+03 -0.11493423375E+04  0.12574508400E+04  0.12699999809E+01 0.  1.
       -4    1    3    3    0  502 -0.19211265838E+03 -0.47253139569E+03  0.72786998136E+03  0.88881354405E+03  0.12699999809E+01 0. -1.
</event>
<event>
 5   0  0.5506332E-05  0.2072872E+04  0.7818609E-02  0.8573289E-01
       -2   -1    0    0    0  501  0.00000000000E+00  0.00000000000E+00  0.76853026690E+03  0.76853026690E+03  0.25500000920E-02 0. -1.
        2   -1    0    0  501    0  0.00000000000E+00  0.00000000000E+00 -0.13977317808E+04  0.13977317808E+04  0.25500000920E-02 0.  1.
    10030    2    1    2    0    0  0.00000000000E+00  0.00000000000E+00 -0.62920151394E+03  0.21662620477E+04  0.20728716107E+04 0.  0.
        3    1    3    3  502    0 -0.93500510994E+03 -0.44158394044E+03 -0.38826211305E+03  0.11045263287E+04  0.10100000352E+00 0.  1.
       -3    1    3    3    0  502  0.93500510994E+03  0.44158394044E+03 -0.24093940089E+03  0.10617357191E+04  0.10100000352E+00 0. -1.
</event>
<event>
 5   0  0.5954140E-05  0.2219574E+04  0.7818609E-02  0.8510325E-01
        2   -1    0    0  501    0  0.00000000000E+00  0.00000000000E+00  0.15028671416E+04  0.15028671416E+04  0.25500000920E-02 0.  1.
       -2   -1    0    0    0  501  0.00000000000E+00  0.00000000000E+00 -0.81951814374E+03  0.81951814374E+03  0.25500000920E-02 0. -1.
    10030    2    1    2    0    0  0.00000000000E+00  0.00000000000E+00  0.68334899791E+03  0.23223852854E+04  0.22195737340E+04 0.  0.
        2    1    3    3  502    0  0.47495920104E+03 -0.87974722204E+03 -0.16239297306E+03  0.10128735830E+04  0.25500000920E-02 0. -1.
       -2    1    3    3    0  502 -0.47495920104E+03  0.87974722204E+03  0.84574197097E+03  0.13095117024E+04  0.25500000920E-02 0.  1.
</event>
<event>
 5   0  0.2604390E-05  0.2123240E+04  0.7818609E-02  0.8551074E-01
        1   -1    0    0  501    0  0.00000000000E+00  0.00000000000E+00  0.11164536237E+04  0.11164536237E+04  0.50400001928E-02 0. -1.
       -1   -1    0    0    0  501  0.00000000000E+00  0.00000000000E+00 -0.10094798253E+04  0.10094798253E+04  0.50400001928E-02 0.  1.
    10030    2    1    2    0    0  0.00000000000E+00  0.00000000000E+00  0.10697379839E+03  0.21259334490E+04  0.21232403623E+04 0.  0.
        5    1    3    3  502    0 -0.42411574980E+03 -0.42795687408E+02 -0.92001668757E+03  0.10139814769E+04  0.46999998093E+01 0.  1.
       -5    1    3    3    0  502  0.42411574980E+03  0.42795687408E+02  0.10269904860E+04  0.11119519721E+04  0.46999998093E+01 0. -1.
</event>
<event>
 5   0  0.2602060E-05  0.2102578E+04  0.7818609E-02  0.8560108E-01
        1   -1    0    0  501    0  0.00000000000E+00  0.00000000000E+00  0.10735138067E+04  0.10735138068E+04  0.50400001928E-02 0.  1.
       -1   -1    0    0    0  501  0.00000000000E+00  0.00000000000E+00 -0.10295247682E+04  0.10295247682E+04  0.50400001928E-02 0. -1.
    10030    2    1    2    0    0  0.00000000000E+00  0.00000000000E+00  0.43989038580E+02  0.21030385749E+04  0.21025784675E+04 0.  0.
        1    1    3    3  502    0 -0.55272861836E+03 -0.19401357122E+03  0.89514537734E+03  0.10697828929E+04  0.50400001928E-02 0.  1.
       -1    1    3    3    0  502  0.55272861836E+03  0.19401357122E+03 -0.85115633876E+03  0.10332556820E+04  0.50400001928E-02 0. -1.
</event>
<event>
 5   0  0.5462851E-05  0.2145153E+04  0.7818609E-02  0.8541610E-01
        2   -1    0    0  501    0  0.00000000000E+00  0.00000000000E+00  0.86899742878E+03  0.86899742878E+03  0.25500000920E-02 0.  1.
       -2   -1    0    0    0  501  0.00000000000E+00  0.00000000000E+00 -0.13238477623E+04  0.13238477623E+04  0.25500000920E-02 0. -1.
    10030    2    1    2    0    0  0.00000000000E+00  0.00000000000E+00 -0.45485033353E+03  0.21928451911E+04  0.21451529564E+04 0.  0.
        1    1    3    3  502    0  0.51453209680E+03 -0.49704452920E+03 -0.10443314649E+04  0.12658691683E+04  0.50400001928E-02 0. -1.
       -1    1    3    3    0  502 -0.51453209680E+03  0.49704452920E+03  0.58948113134E+03  0.92697602281E+03  0.50400001928E-02 0.  1.
</event>
<event>
 5   0  0.5967046E-05  0.2104754E+04  0.7818609E-02  0.8559152E-01
        2   -1    0    0  501    0  0.00000000000E+00  0.00000000000E+00  0.16033405483E+04  0.16033405483E+04  0.25500000920E-02 0. -1.
       -2   -1    0    0    0  501  0.00000000000E+00  0.00000000000E+00 -0.69074378993E+03  0.69074378993E+03  0.25500000920E-02 0.  1.
    10030    2    1    2    0    0  0.00000000000E+00  0.00000000000E+00  0.91259675837E+03  0.22940843382E+04  0.21047541680E+04 0.  0.
        4    1    3    3  502    0 -0.20386427869E+03  0.28932367307E+03  0.15365227073E+04  0.15767601196E+04  0.12699999809E+01 0. -1.
       -4    1    3    3    0  502  0.20386427869E+03 -0.28932367307E+03 -0.62392594894E+03  0.71732421859E+03  0.12699999809E+01 0.  1.
</event>
<event>
 5   0  0.5866610E-05  0.2104384E+04  0.7818609E-02  0.8559315E-01
        2   -1    0    0  501    0  0.00000000000E+00  0.00000000000E+00  0.14286109836E+04  0.14286109836E+04  0.25500000920E-02 0.  1.
       -2   -1    0    0    0  501  0.00000000000E+00  0.00000000000E+00 -0.77495382566E+03  0.77495382566E+03  0.25500000920E-02 0. -1.
    10030    2    1    2    0    0  0.00000000000E+00  0.00000000000E+00  0.65365715793E+03  0.22035648092E+04  0.21043835650E+04 0.  0.
        5    1    3    3  502    0  0.20959200095E+03  0.93025164421E+03 -0.13886631554E+03  0.96364042671E+03  0.46999998093E+01 0. -1.
       -5    1    3    3    0  502 -0.20959200095E+03 -0.93025164421E+03  0.79252347346E+03  0.12399243825E+04  0.46999998093E+01 0.  1.
</event>
<event>
 5   0  0.5506332E-05  0.2120821E+04  0.7818609E-02  0.8552127E-01
       -2   -1    0    0    0  501  0.00000000000E+00  0.00000000000E+00  0.55095943104E+03  0.55095943105E+03  0.25500000920E-02 0.  1.
        2   -1    0    0  501    0  0.00000000000E+00  0.00000000000E+00 -0.20409306752E+04  0.20409306752E+04  0.25500000920E-02 0. -1.
    10030    2    1    2    0    0  0.00000000000E+00  0.00000000000E+00 -0.14899712441E+04  0.25918901062E+04  0.21208205993E+04 0.  0.
        3    1    3    3  502    0 -0.98667077077E+02 -0.85462001369E+03  0.12686700946E+02  0.86039033146E+03  0.10100000352E+00 0. -1.
       -3    1    3    3    0  502  0.98667077077E+02  0.85462001369E+03 -0.15026579451E+04  0.17314997748E+04  0.10100000352E+00 0.  1.
</event>
<event>
 5   0  0.5967046E-05  0.2099914E+04  0.7818609E-02  0.8561281E-01
        2   -1    0    0  501    0  0.00000000000E+00  0.00000000000E+00  0.90332721714E+03  0.90332721714E+03  0.25500000920E-02 0.  1.
       -2   -1    0    0    0  501  0.00000000000E+00  0.00000000000E+00 -0.12203884887E+04  0.12203884887E+04  0.25500000920E-02 0. -1.
    10030    2    1    2    0    0  0.00000000000E+00  0.00000000000E+00 -0.31706127159E+03  0.21237157059E+04  0.20999144148E+04 0.  0.
        4    1    3    3  502    0 -0.99674081801E+03  0.69564011295E+02 -0.48479707686E+03  0.11105679757E+04  0.12699999809E+01 0. -1.
       -4    1    3    3    0  502  0.99674081801E+03 -0.69564011295E+02  0.16773580528E+03  0.10131477302E+04  0.12699999809E+01 0.  1.
</event>
<event>
 5   0  0.2604390E-05  0.2093362E+04  0.7818609E-02  0.8564173E-01
       -1   -1    0    0    0  501  0.00000000000E+00  0.00000000000E+00  0.13203940670E+04  0.13203940671E+04  0.50400001928E-02 0. -1.
        1   -1    0    0  501    0  0.00000000000E+00  0.00000000000E+00 -0.82970757485E+03  0.82970757487E+03  0.50400001928E-02 0.  1.
    10030    2    1    2    0    0  0.00000000000E+00  0.00000000000E+00  0.49068649219E+03  0.21501016419E+04  0.20933618505E+04 0.  0.
        5    1    3    3  502    0 -0.63708653542E+03  0.76853717536E+02 -0.60395063453E+03  0.88122880483E+03  0.46999998093E+01 0.  1.
       -5    1    3    3    0  502  0.63708653542E+03 -0.76853717536E+02  0.10946371267E+04  0.12688728371E+04  0.46999998093E+01 0. -1.
</event>
<event>
 5   0  0.2699285E-05  0.2080877E+04  0.7818609E-02  0.8569714E-01
        1   -1    0    0  501    0  0.00000000000E+00  0.00000000000E+00  0.11752228667E+04  0.11752228667E+04  0.50400001928E-02 0.  1.
       -1   -1    0    0    0  501  0.00000000000E+00  0.00000000000E+00 -0.92111231355E+03  0.92111231357E+03  0.50400001928E-02 0. -1.
    10030    2    1    2    0    0  0.00000000000E+00  0.00000000000E+00  0.25411055315E+03  0.20963351803E+04  0.20808769822E+04 0.  0.
        2    1    3    3  502    0 -0.10141338354E+04 -0.15732228091E+02  0.36072078731E+03  0.10764917211E+04  0.25500000920E-02 0. -1.
       -2    1    3    3    0  502  0.10141338354E+04  0.15732228091E+02 -0.10661023416E+03  0.10198434592E+04  0.25500000920E-02 0.  1.
</event>
<event>
 5   0  0.5967046E-05  0.2098075E+04  0.7818609E-02  0.8562092E-01
        2   -1    0    0  501    0  0.00000000000E+00  0.00000000000E+00  0.21672172692E+04  0.21672172692E+04  0.25500000920E-02 0.  1.
       -2   -1    0    0    0  501  0.00000000000E+00  0.00000000000E+00 -0.50778445161E+03  0.50778445162E+03  0.25500000920E-02 0. -1.
    10030    2    1    2    0    0  0.00000000000E+00  0.00000000000E+00  0.16594328176E+04  0.26750017208E+04  0.20980745769E+04 0.  0.
        4    1    3    3  502    0 -0.80168679018E+03 -0.55352839792E+03  0.13257836899E+04  0.16452353637E+04  0.12699999809E+01 0. -1.
       -4    1    3    3    0  502  0.80168679018E+03  0.55352839792E+03  0.33364912773E+03  0.10297663571E+04  0.12699999809E+01 0.  1.
</event>
<event>
 5   0  0.5506332E-05  0.2162648E+04  0.7818609E-02  0.8534138E-01
       -2   -1    0    0    0  501  0.00000000000E+00  0.00000000000E+00  0.11101819692E+04  0.11101819692E+04  0.25500000920E-02 0.  1.
        2   -1    0    0  501    0  0.00000000000E+00  0.00000000000E+00 -0.10532163733E+04  0.10532163733E+04  0.25500000920E-02 0. -1.
    10030    2    1    2    0    0  0.00000000000E+00  0.00000000000E+00  0.56965595912E+02  0.21633983425E+04  0.21626482167E+04 0.  0.
        3    1    3    3  502    0  0.56112935382E+03 -0.92339437572E+03 -0.13226895411E+02  0.10806008911E+04  0.10100000352E+00 0. -1.
       -3    1    3    3    0  502 -0.56112935382E+03  0.92339437572E+03  0.70192491322E+02  0.10827974514E+04  0.10100000352E+00 0.  1.
</event>
<event>
 5   0  0.2017750E-05  0.2070161E+04  0.7818609E-02  0.8574503E-01
       -3   -1    0    0    0  501  0.00000000000E+00  0.00000000000E+00  0.68315398654E+03  0.68315399401E+03  0.10100000352E+00 0. -1.
        3   -1    0    0  501    0  0.00000000000E+00  0.00000000000E+00 -0.15683024583E+04  0.15683024615E+04  0.10100000352E+00 0.  1.
    10030    2    1    2    0    0  0.00000000000E+00  0.00000000000E+00 -0.88514847174E+03  0.22514564555E+04  0.20701614319E+04 0.  0.
        5    1    3    3  502    0 -0.40093575175E+03 -0.15519432211E+02 -0.14802713615E+04  0.15336934907E+04  0.46999998093E+01 0.  1.
       -5    1    3    3    0  502  0.40093575175E+03  0.15519432211E+02  0.59512288974E+03  0.71776296484E+03  0.46999998093E+01 0. -1.
</event>
<event>
 5   0  0.5954140E-05  0.2094156E+04  0.7818609E-02  0.8563822E-01
        2   -1    0    0  501    0  0.00000000000E+00  0.00000000000E+00  0.19507241784E+04  0.19507241784E+04  0.25500000920E-02 0. -1.
       -2   -1    0    0    0  501  0.00000000000E+00  0.00000000000E+00 -0.56203340630E+03  0.56203340630E+03  0.25500000920E-02 0.  1.
    10030    2    1    2    0    0  0.00000000000E+00  0.00000000000E+00  0.13886907721E+04  0.25127575847E+04  0.20941558249E+04 0.  0.
        2    1    3    3  502    0 -0.80645823260E+03  0.34656898051E+03  0.13793212364E+04  0.16349348649E+04  0.25500000920E-02 0. -1.
       -2    1    3    3    0  502  0.80645823260E+03 -0.34656898051E+03  0.93695356527E+01  0.87782271979E+03  0.25500000920E-02 0.  1.
</event>
<event>
 5   0  0.5967046E-05  0.2089059E+04  0.7818609E-02  0.8566078E-01
       -2   -1    0    0    0  501  0.00000000000E+00  0.00000000000E+00  0.46747785784E+03  0.46747785785E+03  0.25500000920E-02 0.  1.
        2   -1    0    0  501    0  0.00000000000E+00  0.00000000000E+00 -0.23338904582E+04  0.23338904582E+04  0.25500000920E-02 0. -1.
    10030    2    1    2    0    0  0.00000000000E+00  0.00000000000E+00 -0.18664126004E+04  0.28013683161E+04  0.20890592254E+04 0.  0.
        4    1    3    3  502    0 -0.84266393063E+03  0.37656751322E+03 -0.27742488000E+03  0.96376956215E+03  0.12699999809E+01 0.  1.
       -4    1    3    3    0  502  0.84266393063E+03 -0.37656751322E+03 -0.15889877204E+04  0.18375987539E+04  0.12699999809E+01 0. -1.
</event>
<event>
 5   0  0.2602060E-05  0.2332292E+04  0.7818609E-02  0.8465297E-01
       -1   -1    0    0    0  501  0.00000000000E+00  0.00000000000E+00  0.13460733047E+04  0.13460733047E+04  0.50400001928E-02 0. -1.
        1   -1    0    0  501    0  0.00000000000E+00  0.00000000000E+00 -0.10102693816E+04  0.10102693816E+04  0.50400001928E-02 0.  1.
    10030    2    1    2    0    0  0.00000000000E+00  0.00000000000E+00  0.33580392315E+03  0.23563426863E+04  0.23322921302E+04 0.  0.
        1    1    3    3  502    0 -0.10607525577E+04 -0.43835975357E+03 -0.40480567813E+02  0.11484746139E+04  0.50400001928E-02 0.  1.
       -1    1    3    3    0  502  0.10607525577E+04  0.43835975357E+03  0.37628449096E+03  0.12078680725E+04  0.50400001928E-02 0. -1.
</event>
<event>
 5   0  0.5954140E-05  0.2095079E+04  0.7818609E-02  0.8563414E-01
        2   -1    0    0  501    0  0.00000000000E+00  0.00000000000E+00  0.16279498618E+04  0.16279498618E+04  0.25500000920E-02 0.  1.
       -2   -1    0    0    0  501  0.00000000000E+00  0.00000000000E+00 -0.67406185140E+03  0.67406185140E+03  0.25500000920E-02 0. -1.
    10030    2    1    2    0    0  0.00000000000E+00  0.00000000000E+00  0.95388801044E+03  0.23020117132E+04  0.20950788986E+04 0.  0.
        2    1    3    3  502    0 -0.78039991048E+03  0.67063609732E+03  0.26117577522E+03  0.10615976549E+04  0.25500000920E-02 0.  1.
       -2    1    3    3    0  502  0.78039991048E+03 -0.67063609732E+03  0.69271223521E+03  0.12404140583E+04  0.25500000920E-02 0. -1.
</event>
<event>
 5   0  0.2604390E-05  0.2115686E+04  0.7818609E-02  0.8554365E-01
       -1   -1    0    0    0  501  0.00000000000E+00  0.00000000000E+00  0.88224187846E+03  0.88224187847E+03  0.50400001928E-02 0. -1.
        1   -1    0    0  501    0  0.00000000000E+00  0.00000000000E+00 -0.12683959071E+04  0.12683959071E+04  0.50400001928E-02 0.  1.
    10030    2    1    2    0    0  0.00000000000E+00  0.00000000000E+00 -0.38615402865E+03  0.21506377856E+04  0.21156861655E+04 0.  0.
        5    1    3    3  502    0  0.23378322020E+02 -0.41875316255E+03  0.79410447363E+03  0.89806723697E+03  0.46999998093E+01 0. -1.
       -5    1    3    3    0  502 -0.23378322020E+02  0.41875316255E+03 -0.11802585023E+04  0.12525705486E+04  0.46999998093E+01 0.  1.
</event>
<event>
 5   0  0.2732159E-05  0.2098359E+04  0.7818609E-02  0.8561967E-01
        1   -1    0    0  501    0  0.00000000000E+00  0.00000000000E+00  0.85349218922E+03  0.85349218923E+03  0.50400001928E-02 0. -1.
       -1   -1    0    0    0  501  0.00000000000E+00  0.00000000000E+00 -0.12897335274E+04  0.12897335274E+04  0.50400001928E-02 0.  1.
    10030    2    1    2    0    0  0.00000000000E+00  0.00000000000E+00 -0.43624133822E+03  0.21432257167E+04  0.20983588748E+04 0.  0.
        3    1    3    3  502    0 -0.44794083072E+03  0.40534548551E+03 -0.10942624508E+04  0.12499465076E+04  0.10100000352E+00 0.  1.
       -3    1    3    3    0  502  0.44794083072E+03 -0.40534548551E+03  0.65802111262E+03  0.89327920904E+03  0.10100000352E+00 0. -1.
</event>
<event>
 5   0  0.5866610E-05  0.2111469E+04  0.7818609E-02  0.8556208E-01
       -2   -1    0    0    0  501  0.00000000000E+00  0.00000000000E+00  0.56775137561E+03  0.56775137562E+03  0.25500000920E-02 0. -1.
        2   -1    0    0  501    0  0.00000000000E+00  0.00000000000E+00 -0.19631406451E+04  0.19631406451E+04  0.25500000920E-02 0.  1.
    10030    2    1    2    0    0  0.00000000000E+00  0.00000000000E+00 -0.13953892695E+04  0.25308920207E+04  0.21114694426E+04 0.  0.
        5    1    3    3  502    0  0.76985632350E+02  0.46277728209E+03 -0.18313218823E+04  0.18904633101E+04  0.46999998093E+01 0.  1.
       -5    1    3    3    0  502 -0.76985632350E+02 -0.46277728209E+03  0.43593261282E+03  0.64042871057E+03  0.46999998093E+01 0. -1.
</event>
<event>
 5   0  0.2604390E-05  0.2091693E+04  0.7818609E-02  0.8564911E-01
        1   -1    0    0  501    0  0.00000000000E+00  0.00000000000E+00  0.18049258751E+04  0.18049258751E+04  0.50400001928E-02 0. -1.
       -1   -1    0    0    0  501  0.00000000000E+00  0.00000000000E+00 -0.60600552560E+03  0.60600552562E+03  0.50400001928E-02 0.  1.
    10030    2    1    2    0    0  0.00000000000E+00  0.00000000000E+00  0.11989203495E+04  0.24109314007E+04  0.20916931454E+04 0.  0.
        5    1    3    3  502    0 -0.57355488863E+03 -0.27368237189E+03  0.15568344433E+04  0.16815536937E+04  0.46999998093E+01 0. -1.
       -5    1    3    3    0  502  0.57355488863E+03  0.27368237189E+03 -0.35791409381E+03  0.72937770702E+03  0.46999998093E+01 0.  1.
</event>
<event>
 5   0  0.5506332E-05  0.2095350E+04  0.7818609E-02  0.8563294E-01
        2   -1    0    0  501    0  0.00000000000E+00  0.00000000000E+00  0.19077176319E+04  0.19077176319E+04  0.25500000920E-02 0. -1.
       -2   -1    0    0    0  501  0.00000000000E+00  0.00000000000E+00 -0.57535931315E+03  0.57535931315E+03  0.25500000920E-02 0.  1.
    10030    2    1    2    0    0  0.00000000000E+00  0.00000000000E+00  0.13323583188E+04  0.24830769451E+04  0.20953501916E+04 0.  0.
        3    1    3    3  502    0  0.30484720593E+03  0.46671950337E+02 -0.52035041992E+03  0.60487573899E+03  0.10100000352E+00 0.  1.
       -3    1    3    3    0  502 -0.30484720593E+03 -0.46671950337E+02  0.18527087387E+04  0.18782012061E+04  0.10100000352E+00 0. -1.
</event>
<event>
 5   0  0.2602060E-05  0.2014777E+04  0.7818609E-02  0.8599743E-01
       -1   -1    0    0    0  501  0.00000000000E+00  0.00000000000E+00  0.82485612728E+03  0.82485612729E+03  0.50400001928E-02 0. -1.
        1   -1    0    0  501    0  0.00000000000E+00  0.00000000000E+00 -0.12303131802E+04  0.12303131802E+04  0.50400001928E-02 0.  1.
    10030    2    1    2    0    0  0.00000000000E+00  0.00000000000E+00 -0.40545705293E+03  0.20551693075E+04  0.20147767769E+04 0.  0.
        1    1    3    3  502    0  0.48560820254E+03  0.69944071369E+03 -0.75185060489E+03  0.11359189982E+04  0.50400001928E-02 0.  1.
       -1    1    3    3    0  502 -0.48560820254E+03 -0.69944071369E+03  0.34639355196E+03  0.91925030933E+03  0.50400001928E-02 0. -1.
</event>
<event>
 5   0  0.2604390E-05  0.2019894E+04  0.7818609E-02  0.8597376E-01
        1   -1    0    0  501    0  0.00000000000E+00  0.00000000000E+00  0.13074483861E+04  0.13074483862E+04  0.50400001928E-02 0. -1.
       -1   -1    0    0    0  501  0.00000000000E+00  0.00000000000E+00 -0.78014003026E+03  0.78014003028E+03  0.50400001928E-02 0.  1.
    10030    2    1    2    0    0  0.00000000000E+00  0.00000000000E+00  0.52730835588E+03  0.20875884164E+04  0.20198938819E+04 0.  0.
        5    1    3    3  502    0  0.27495742554E+03  0.94455343072E+03  0.27551179472E+02  0.98415645445E+03  0.46999998093E+01 0.  1.
       -5    1    3    3    0  502 -0.27495742554E+03 -0.94455343072E+03  0.49975717641E+03  0.11034319620E+04  0.46999998093E+01 0. -1.
</event>
<event>
 5   0  0.5506332E-05  0.2119056E+04  0.7818609E-02  0.8552895E-01
       -2   -1    0    0    0  501  0.00000000000E+00  0.00000000000E+00  0.13564588701E+04  0.13564588701E+04  0.25500000920E-02 0.  1.
        2   -1    0    0  501    0  0.00000000000E+00  0.00000000000E+00 -0.82759552771E+03  0.82759552771E+03  0.25500000920E-02 0. -1.
    10030    2    1    2    0    0  0.00000000000E+00  0.00000000000E+00  0.52886334241E+03  0.21840543978E+04  0.21190557278E+04 0.  0.
        3    1    3    3  502    0 -0.48197701678E+03  0.90109632626E+03 -0.24014856195E+02  0.10221805894E+04  0.10100000352E+00 0.  1.
       -3    1    3    3    0  502  0.48197701678E+03 -0.90109632626E+03  0.55287819861E+03  0.11618738084E+04  0.10100000352E+00 0. -1.
</event>
<event>
 5   0  0.5866610E-05  0.2231129E+04  0.7818609E-02  0.8505582E-01
       -2   -1    0    0    0  501  0.00000000000E+00  0.00000000000E+00  0.56329620612E+03  0.56329620613E+03  0.25500000920E-02 0.  1.
        2   -1    0    0  501    0  0.00000000000E+00  0.00000000000E+00 -0.22092881558E+04  0.22092881558E+04  0.25500000920E-02 0. -1.
    10030    2    1    2    0    0  0.00000000000E+00  0.00000000000E+00 -0.16459919497E+04  0.27725843619E+04  0.22311285363E+04 0.  0.
        5    1    3    3  502    0  0.39527638577E+02 -0.11029601168E+04 -0.10248241878E+04  0.15061109386E+04  0.46999998093E+01 0. -1.
       -5    1    3    3    0  502 -0.39527638577E+02  0.11029601168E+04 -0.62116776193E+03  0.12664734233E+04  0.46999998093E+01 0.  1.
</event>
<event>
 5   0  0.5866610E-05  0.2085016E+04  0.7818609E-02  0.8567873E-01
       -2   -1    0    0    0  501  0.00000000000E+00  0.00000000000E+00  0.79695639670E+03  0.79695639671E+03  0.25500000920E-02 0.  1.
        2   -1    0    0  501    0  0.00000000000E+00  0.00000000000E+00 -0.13637165077E+04  0.13637165077E+04  0.25500000920E-02 0. -1.
    10030    2    1    2    0    0  0.00000000000E+00  0.00000000000E+00 -0.56676011101E+03  0.21606729044E+04  0.20850156778E+04 0.  0.
        5    1    3    3  502    0  0.17239566647E+03  0.12302561731E+02  0.78199514802E+03  0.80088084031E+03  0.46999998093E+01 0.  1.
       -5    1    3    3    0  502 -0.17239566647E+03 -0.12302561731E+02 -0.13487552590E+04  0.13597920641E+04  0.46999998093E+01 0. -1.
</event>
<event>
 5   0  0.2789662E-05  0.2097081E+04  0.7818609E-02  0.8562531E-01
        1   -1    0    0  501    0  0.00000000000E+00  0.00000000000E+00  0.11673807594E+04  0.11673807594E+04  0.50400001928E-02 0. -1.
       -1   -1    0    0    0  501  0.00000000000E+00  0.00000000000E+00 -0.94179784092E+03  0.94179784093E+03  0.50400001928E-02 0.  1.
    10030    2    1    2    0    0  0.00000000000E+00  0.00000000000E+00  0.22558291848E+03  0.21091786003E+04  0.20970805218E+04 0.  0.
        4    1    3    3  502    0  0.29639676017E+03 -0.64136061263E+03  0.89201296550E+03  0.11379293556E+04  0.12699999809E+01 0. -1.
       -4    1    3    3    0  502 -0.29639676017E+03  0.64136061263E+03 -0.66643004702E+03  0.97124924471E+03  0.12699999809E+01 0.  1.
</event>
<event>
 5   0  0.2017750E-05  0.2092831E+04  0.7818609E-02  0.8564408E-01
       -3   -1    0    0    0  501  0.00000000000E+00  0.00000000000E+00  0.12356757845E+04  0.12356757886E+04  0.10100000352E+00 0.  1.
        3   -1    0    0  501    0  0.00000000000E+00  0.00000000000E+00 -0.88614308640E+03  0.88614309216E+03  0.10100000352E+00 0. -1.
    10030    2    1    2    0    0  0.00000000000E+00  0.00000000000E+00  0.34953269810E+03  0.21218188808E+04  0.20928311580E+04 0.  0.
        1    1    3    3  502    0  0.96593509411E+03  0.25718882758E+03 -0.13905101091E+03  0.10092134971E+04  0.50400001928E-02 0. -1.
       -1    1    3    3    0  502 -0.96593509411E+03 -0.25718882758E+03  0.48858370901E+03  0.11126053837E+04  0.50400001928E-02 0.  1.
</event>
<event>
 5   0  0.2789662E-05  0.2088378E+04  0.7818609E-02  0.8566380E-01
        1   -1    0    0  501    0  0.00000000000E+00  0.00000000000E+00  0.10944881708E+04  0.10944881709E+04  0.50400001928E-02 0. -1.
       -1   -1    0    0    0  501  0.00000000000E+00  0.00000000000E+00 -0.99620100122E+03  0.99620100123E+03  0.50400001928E-02 0.  1.
    10030    2    1    2    0    0  0.00000000000E+00  0.00000000000E+00  0.98287169626E+02  0.20906891721E+04  0.20883775632E+04 0.  0.
        4    1    3    3  502    0  0.51232010815E+03  0.19798193175E+03  0.93819181153E+03  0.10871403896E+04  0.12699999809E+01 0. -1.
       -4    1    3    3    0  502 -0.51232010815E+03 -0.19798193175E+03 -0.83990464190E+03  0.10035487825E+04  0.12699999809E+01 0.  1.
</event>
<event>
 5   0  0.2732159E-05  0.2117740E+04  0.7818609E-02  0.8553469E-01
       -1   -1    0    0    0  501  0.00000000000E+00  0.00000000000E+00  0.10108749562E+04  0.10108749562E+04  0.50400001928E-02 0. -1.
        1   -1    0    0  501    0  0.00000000000E+00  0.00000000000E+00 -0.11091437372E+04  0.11091437372E+04  0.50400001928E-02 0.  1.
    10030    2    1    2    0    0  0.00000000000E+00  0.00000000000E+00 -0.98268780930E+02  0.21200186934E+04  0.21177399527E+04 0.  0.
        3    1    3    3  502    0 -0.60005385395E+03 -0.76882294669E+03 -0.46195205405E+03  0.10791445971E+04  0.10100000352E+00 0.  1.
       -3    1    3    3    0  502  0.60005385395E+03  0.76882294669E+03  0.36368327312E+03  0.10408740963E+04  0.10100000352E+00 0. -1.
</event>
<event>
 5   0  0.2602060E-05  0.2078843E+04  0.7818609E-02  0.8570621E-01
        1   -1    0    0  501    0  0.00000000000E+00  0.00000000000E+00  0.16745646138E+04  0.16745646138E+04  0.50400001928E-02 0.  1.
       -1   -1    0    0    0  501  0.00000000000E+00  0.00000000000E+00 -0.64518082049E+03  0.64518082051E+03  0.50400001928E-02 0. -1.
    10030    2    1    2    0    0  0.00000000000E+00  0.00000000000E+00  0.10293837933E+04  0.23197454343E+04  0.20788429200E+04 0.  0.
        1    1    3    3  502    0  0.57847357303E+03  0.57536719084E+03 -0.20392105508E+03  0.84098922450E+03  0.50400001928E-02 0. -1.
       -1    1    3    3    0  502 -0.57847357303E+03 -0.57536719084E+03  0.12333048483E+04  0.14787562098E+04  0.50400001928E-02 0.  1.
</event>
<event>
 5   0  0.5506332E-05  0.2156285E+04  0.7818609E-02  0.8536847E-01
        2   -1    0    0  501    0  0.00000000000E+00  0.00000000000E+00  0.82933553826E+03  0.82933553826E+03  0.25500000920E-02 0. -1.
       -2   -1    0    0    0  501  0.00000000000E+00  0.00000000000E+00 -0.14015932718E+04  0.14015932718E+04  0.25500000920E-02 0.  1.
    10030    2    1    2    0    0  0.00000000000E+00  0.00000000000E+00 -0.57225773351E+03  0.22309288100E+04  0.21562848703E+04 0.  0.
        3    1    3    3  502    0 -0.62355602011E+03  0.62840999344E+03  0.35053463220E+03  0.95215322750E+03  0.10100000352E+00 0. -1.
       -3    1    3    3    0  502  0.62355602011E+03 -0.62840999344E+03 -0.92279236571E+03  0.12787755825E+04  0.10100000352E+00 0.  1.
</event>
<event>
 5   0  0.5866610E-05  0.2126880E+04  0.7818609E-02  0.8549494E-01
        2   -1    0    0  501    0  0.00000000000E+00  0.00000000000E+00  0.12721679442E+04  0.12721679442E+04  0.25500000920E-02 0. -1.
       -2   -1    0    0    0  501  0.00000000000E+00  0.00000000000E+00 -0.88895845373E+03  0.88895845373E+03  0.25500000920E-02 0.  1.
    10030    2    1    2    0    0  0.00000000000E+00  0.00000000000E+00  0.38320949045E+03  0.21611263979E+04  0.21268798260E+04 0.  0.
        5    1    3    3  502    0 -0.95678623038E+03 -0.40580334855E+03 -0.37336563176E+02  0.10399674790E+04  0.46999998093E+01 0.  1.
       -5    1    3    3    0  502  0.95678623038E+03  0.40580334855E+03  0.42054605363E+03  0.11211589190E+04  0.46999998093E+01 0. -1.
</event>
<event>
 5   0  0.5866610E-05  0.2156348E+04  0.7818609E-02  0.8536820E-01
        2   -1    0    0  501    0  0.00000000000E+00  0.00000000000E+00  0.11254972413E+04  0.11254972413E+04  0.25500000920E-02 0.  1.
       -2   -1    0    0    0  501  0.00000000000E+00  0.00000000000E+00 -0.10328406041E+04  0.10328406041E+04  0.25500000920E-02 0. -1.
    10030    2    1    2    0    0  0.00000000000E+00  0.00000000000E+00  0.92656637223E+02  0.21583378453E+04  0.21563480707E+04 0.  0.
        5    1    3    3  502    0  0.92711530710E+03 -0.47080561551E+03 -0.23895475420E+03  0.10669218269E+04  0.46999998093E+01 0. -1.
       -5    1    3    3    0  502 -0.92711530710E+03  0.47080561551E+03  0.33161139143E+03  0.10914160184E+04  0.46999998093E+01 0.  1.
</event>
<event>
 5   0  0.2602060E-05  0.2085198E+04  0.7818609E-02  0.8567792E-01
       -1   -1    0    0    0  501  0.00000000000E+00  0.00000000000E+00  0.11079300555E+04  0.11079300555E+04  0.50400001928E-02 0.  1.
        1   -1    0    0  501    0  0.00000000000E+00  0.00000000000E+00 -0.98111992910E+03  0.98111992911E+03  0.50400001928E-02 0. -1.
    10030    2    1    2    0    0  0.00000000000E+00  0.00000000000E+00  0.12681012644E+03  0.20890499847E+04  0.20851975998E+04 0.  0.
        1    1    3    3  502    0 -0.30435626333E+03 -0.35944413873E+03 -0.86846360242E+03  0.98795842658E+03  0.50400001928E-02 0. -1.
       -1    1    3    3    0  502  0.30435626333E+03  0.35944413873E+03  0.99527372886E+03  0.11010915581E+04  0.50400001928E-02 0.  1.
</event>
<event>
 5   0  0.5462851E-05  0.2108469E+04  0.7818609E-02  0.8557522E-01
        2   -1    0    0  501    0  0.00000000000E+00  0.00000000000E+00  0.14346677518E+04  0.14346677518E+04  0.25500000920E-02 0. -1.
       -2   -1    0    0    0  501  0.00000000000E+00  0.00000000000E+00 -0.77468128503E+03  0.77468128503E+03  0.25500000920E-02 0.  1.
    10030    2    1    2    0    0  0.00000000000E+00  0.00000000000E+00  0.65998646680E+03  0.22093490369E+04  0.21084688829E+04 0.  0.
        1    1    3    3  502    0 -0.65394775792E+03  0.13824392048E+03  0.11842610288E+04  0.13598651536E+04  0.50400001928E-02 0. -1.
       -1    1    3    3    0  502  0.65394775792E+03 -0.13824392048E+03 -0.52427456196E+03  0.84948388329E+03  0.50400001928E-02 0.  1.
</event>
<event>
 5   0  0.5462851E-05  0.2096575E+04  0.7818609E-02  0.8562753E-01
       -2   -1    0    0    0  501  0.00000000000E+00  0.00000000000E+00  0.61652263510E+03  0.61652263511E+03  0.25500000920E-02 0. -1.
        2   -1    0    0  501    0  0.00000000000E+00  0.00000000000E+00 -0.17824278634E+04  0.17824278634E+04  0.25500000920E-02 0.  1.
    10030    2    1    2    0    0  0.00000000000E+00  0.00000000000E+00 -0.11659052283E+04  0.23989504985E+04  0.20965754203E+04 0.  0.
        1    1    3    3  502    0 -0.65699437439E+03  0.53284600960E+03  0.12548764199E+03  0.85516877062E+03  0.50400001928E-02 0. -1.
       -1    1    3    3    0  502  0.65699437439E+03 -0.53284600960E+03 -0.12913928703E+04  0.15437817279E+04  0.50400001928E-02 0.  1.
</event>
<event>
 5   0  0.2732159E-05  0.2084157E+04  0.7818609E-02  0.8568255E-01
       -1   -1    0    0    0  501  0.00000000000E+00  0.00000000000E+00  0.92665273914E+03  0.92665273916E+03  0.50400001928E-02 0. -1.
        1   -1    0    0  501    0  0.00000000000E+00  0.00000000000E+00 -0.11718817103E+04  0.11718817103E+04  0.50400001928E-02 0.  1.
    10030    2    1    2    0    0  0.00000000000E+00  0.00000000000E+00 -0.24522897116E+03  0.20985344495E+04  0.20841568049E+04 0.  0.
        3    1    3    3  502    0 -0.58705485415E+03 -0.39611084451E+03  0.64711330784E+03  0.95931894921E+03  0.10100000352E+00 0. -1.
       -3    1    3    3    0  502  0.58705485415E+03  0.39611084451E+03 -0.89234227900E+03  0.11392155003E+04  0.10100000352E+00 0.  1.
</event>
<event>
 5   0  0.5967046E-05  0.2115210E+04  0.7818609E-02  0.8554573E-01
        2   -1    0    0  501    0  0.00000000000E+00  0.00000000000E+00  0.13870496829E+04  0.13870496829E+04  0.25500000920E-02 0. -1.
       -2   -1    0    0    0  501  0.00000000000E+00  0.00000000000E+00 -0.80640816311E+03  0.80640816311E+03  0.25500000920E-02 0.  1.
    10030    2    1    2    0    0  0.00000000000E+00  0.00000000000E+00  0.58064151982E+03  0.21934578460E+04  0.21152098591E+04 0.  0.
        4    1    3    3  502    0  0.10174757274E+04  0.15960579049E+03  0.53962153648E+03  0.11627226152E+04  0.12699999809E+01 0. -1.
       -4    1    3    3    0  502 -0.10174757274E+04 -0.15960579049E+03  0.41019983341E+02  0.10307352309E+04  0.12699999809E+01 0.  1.
</event>
<event>
 5   0  0.2699285E-05  0.2116114E+04  0.7818609E-02  0.8554178E-01
       -1   -1    0    0    0  501  0.00000000000E+00  0.00000000000E+00  0.10345248402E+04  0.10345248402E+04  0.50400001928E-02 0.  1.
        1   -1    0    0  501    0  0.00000000000E+00  0.00000000000E+00 -0.10821249063E+04  0.10821249063E+04  0.50400001928E-02 0. -1.
    10030    2    1    2    0    0  0.00000000000E+00  0.00000000000E+00 -0.47600066088E+02  0.21166497465E+04  0.21161144542E+04 0.  0.
        2    1    3    3  502    0 -0.57043238956E+03 -0.37316037427E+03  0.78562856791E+03  0.10401221191E+04  0.25500000920E-02 0. -1.
       -2    1    3    3    0  502  0.57043238956E+03  0.37316037427E+03 -0.83322863400E+03  0.10765276274E+04  0.25500000920E-02 0.  1.
</event>
<event>
 5   0  0.5954140E-05  0.2091833E+04  0.7818609E-02  0.8564849E-01
        2   -1    0    0  501    0  0.00000000000E+00  0.00000000000E+00  0.21323766337E+04  0.21323766337E+04  0.25500000920E-02 0. -1.
       -2   -1    0    0    0  501  0.00000000000E+00  0.00000000000E+00 -0.51301516324E+03  0.51301516324E+03  0.25500000920E-02 0.  1.
    10030    2    1    2    0    0  0.00000000000E+00  0.00000000000E+00  0.16193614704E+04  0.26453917969E+04  0.20918332121E+04 0.  0.
        2    1    3    3  502    0 -0.75634136082E+03 -0.71592652990E+03  0.68747223093E+03  0.12478866610E+04  0.25500000920E-02 0. -1.
       -2    1    3    3    0  502  0.75634136082E+03  0.71592652990E+03  0.93188923950E+03  0.13975051359E+04  0.25500000920E-02 0.  1.
</event>
<event>
 5   0  0.2602060E-05  0.2098113E+04  0.7818609E-02  0.8562075E-01
        1   -1    0    0  501    0  0.00000000000E+00  0.00000000000E+00  0.10955486059E+04  0.10955486059E+04  0.50400001928E-02 0. -1.
       -1   -1    0    0    0  501  0.00000000000E+00  0.00000000000E+00 -0.10045372375E+04  0.10045372375E+04  0.50400001928E-02 0.  1.
    10030    2    1    2    0    0  0.00000000000E+00  0.00000000000E+00  0.91011368408E+02  0.21000858434E+04  0.20981128379E+04 0.  0.
        1    1    3    3  502    0 -0.62426758003E+03 -0.60007050183E+03  0.63828277950E+03  0.10757320881E+04  0.50400001928E-02 0. -1.
       -1    1    3    3    0  502  0.62426758003E+03  0.60007050183E+03 -0.54727141109E+03  0.10243537553E+04  0.50400001928E-02 0.  1.
</event>
<event>
 5   0  0.5954140E-05  0.2096545E+04  0.7818609E-02  0.8562767E-01
       -2   -1    0    0    0  501  0.00000000000E+00  0.00000000000E+00  0.63932414392E+03  0.63932414393E+03  0.25500000920E-02 0.  1.
        2   -1    0    0  501    0  0.00000000000E+00  0.00000000000E+00 -0.17188081302E+04  0.17188081302E+04  0.25500000920E-02 0. -1.
    10030    2    1    2    0    0  0.00000000000E+00  0.00000000000E+00 -0.10794839863E+04  0.23581322742E+04  0.20965452883E+04 0.  0.
        2    1    3    3  502    0 -0.15424341475E+03 -0.19242734763E+03 -0.16857149045E+04  0.17036590194E+04  0.25500000920E-02 0. -1.
       -2    1    3    3    0  502  0.15424341475E+03  0.19242734763E+03  0.60623091816E+03  0.65447325480E+03  0.25500000920E-02 0.  1.
</event>
<event>
 5   0  0.5866610E-05  0.2106353E+04  0.7818609E-02  0.8558450E-01
        2   -1    0    0  501    0  0.00000000000E+00  0.00000000000E+00  0.77138118055E+03  0.77138118055E+03  0.25500000920E-02 0. -1.
       -2   -1    0    0    0  501  0.00000000000E+00  0.00000000000E+00 -0.14379152397E+04  0.14379152397E+04  0.25500000920E-02 0.  1.
    10030    2    1    2    0    0  0.00000000000E+00  0.00000000000E+00 -0.66653405916E+03  0.22092964203E+04  0.21063530142E+04 0.  0.
        5    1    3    3  502    0  0.37894147506E+03 -0.17465251752E+03 -0.13475105144E+04  0.14106405707E+04  0.46999998093E+01 0.  1.
       -5    1    3    3    0  502 -0.37894147506E+03  0.17465251752E+03  0.68097645524E+03  0.79865584953E+03  0.46999998093E+01 0. -1.
</event>
<event>
 5   0  0.5866610E-05  0.2103341E+04  0.7818609E-02  0.8559773E-01
       -2   -1    0    0    0  501  0.00000000000E+00  0.00000000000E+00  0.74253985130E+03  0.74253985131E+03  0.25500000920E-02 0.  1.
        2   -1    0    0  501    0  0.00000000000E+00  0.00000000000E+00 -0.14894963020E+04  0.14894963020E+04  0.25500000920E-02 0. -1.
    10030    2    1    2    0    0  0.00000000000E+00  0.00000000000E+00 -0.74695645070E+03  0.22320361533E+04  0.21033405455E+04 0.  0.
        5    1    3    3  502    0  0.18436355619E+03  0.49112880586E+03 -0.13407254292E+04  0.14397097594E+04  0.46999998093E+01 0. -1.
       -5    1    3    3    0  502 -0.18436355619E+03 -0.49112880586E+03  0.59376897845E+03  0.79232639396E+03  0.46999998093E+01 0.  1.
</event>
<event>
 5   0  0.2017750E-05  0.2099000E+04  0.7818609E-02  0.8561684E-01
       -4   -1    0    0    0  501  0.00000000000E+00  0.00000000000E+00  0.15852141027E+04  0.15852146115E+04  0.12699999809E+01 0. -1.
        4   -1    0    0  501    0  0.00000000000E+00  0.00000000000E+00 -0.69482595205E+03  0.69482711270E+03  0.12699999809E+01 0.  1.
    10030    2    1    2    0    0  0.00000000000E+00  0.00000000000E+00  0.89038815067E+03  0.22800417242E+04  0.20989995724E+04 0.  0.
        4    1    3    3  502    0 -0.62375533853E+03  0.82404802673E+03  0.24690534522E+03  0.10625863424E+04  0.12699999809E+01 0.  1.
       -4    1    3    3    0  502  0.62375533853E+03 -0.82404802673E+03  0.64348280545E+03  0.12174553817E+04  0.12699999809E+01 0. -1.
</event>
<event>
 5   0  0.2732159E-05  0.2100826E+04  0.7818609E-02  0.8560880E-01
       -1   -1    0    0    0  501  0.00000000000E+00  0.00000000000E+00  0.69857015430E+03  0.69857015432E+03  0.50400001928E-02 0. -1.
        1   -1    0    0  501    0  0.00000000000E+00  0.00000000000E+00 -0.15794654663E+04  0.15794654663E+04  0.50400001928E-02 0.  1.
    10030    2    1    2    0    0  0.00000000000E+00  0.00000000000E+00 -0.88089531201E+03  0.22780356206E+04  0.21008259657E+04 0.  0.
        3    1    3    3  502    0 -0.85458166638E+03  0.26826139424E+03 -0.10354532783E+04  0.13691009831E+04  0.10100000352E+00 0.  1.
       -3    1    3    3    0  502  0.85458166638E+03 -0.26826139424E+03  0.15455796631E+03  0.90893463753E+03  0.10100000352E+00 0. -1.
</event>
<event>
 5   0  0.2732159E-05  0.2108264E+04  0.7818609E-02  0.8557612E-01
        1   -1    0    0  501    0  0.00000000000E+00  0.00000000000E+00  0.11582504654E+04  0.11582504654E+04  0.50400001928E-02 0. -1.
       -1   -1    0    0    0  501  0.00000000000E+00  0.00000000000E+00 -0.95937304514E+03  0.95937304515E+03  0.50400001928E-02 0.  1.
    10030    2    1    2    0    0  0.00000000000E+00  0.00000000000E+00  0.19887742030E+03  0.21176235106E+04  0.21082640025E+04 0.  0.
        3    1    3    3  502    0  0.75010065273E+03  0.47905511609E+03 -0.46791352731E+03  0.10055286534E+04  0.10100000352E+00 0.  1.
       -3    1    3    3    0  502 -0.75010065273E+03 -0.47905511609E+03  0.66679094761E+03  0.11120948572E+04  0.10100000352E+00 0. -1.
</event>
<event>
 5   0  0.2604390E-05  0.2097328E+04  0.7818609E-02  0.8562421E-01
        1   -1    0    0  501    0  0.00000000000E+00  0.00000000000E+00  0.99108941827E+03  0.99108941828E+03  0.50400001928E-02 0.  1.
       -1   -1    0    0    0  501  0.00000000000E+00  0.00000000000E+00 -0.11095828372E+04  0.11095828372E+04  0.50400001928E-02 0. -1.
    10030    2    1    2    0    0  0.00000000000E+00  0.00000000000E+00 -0.11849341893E+03  0.21006722555E+04  0.20973276412E+04 0.  0.
        5    1    3    3  502    0  0.12792980645E+03 -0.92909717684E+03 -0.52912820821E+03  0.10768409122E+04  0.46999998093E+01 0. -1.
       -5    1    3    3    0  502 -0.12792980645E+03  0.92909717684E+03  0.41063478928E+03  0.10238313433E+04  0.46999998093E+01 0.  1.
</event>
<event>
 5   0  0.5462851E-05  0.2095112E+04  0.7818609E-02  0.8563400E-01
        2   -1    0    0  501    0  0.00000000000E+00  0.00000000000E+00  0.26704944135E+04  0.26704944135E+04  0.25500000920E-02 0. -1.
       -2   -1    0    0    0  501  0.00000000000E+00  0.00000000000E+00 -0.41092526384E+03  0.41092526385E+03  0.25500000920E-02 0.  1.
    10030    2    1    2    0    0  0.00000000000E+00  0.00000000000E+00  0.22595691497E+04  0.30814196774E+04  0.20951120462E+04 0.  0.
        1    1    3    3  502    0  0.76812050817E+03  0.60944088464E+03  0.58749991798E+03  0.11430588176E+04  0.50400001928E-02 0.  1.
       -1    1    3    3    0  502 -0.76812050817E+03 -0.60944088464E+03  0.16720692317E+04  0.19383608598E+04  0.50400001928E-02 0. -1.
</event>
<event>
 5   0  0.2604390E-05  0.2101196E+04  0.7818609E-02  0.8560717E-01
        1   -1    0    0  501    0  0.00000000000E+00  0.00000000000E+00  0.20785157576E+04  0.20785157576E+04  0.50400001928E-02 0.  1.
       -1   -1    0    0    0  501  0.00000000000E+00  0.00000000000E+00 -0.53103076184E+03  0.53103076186E+03  0.50400001928E-02 0. -1.
    10030    2    1    2    0    0  0.00000000000E+00  0.00000000000E+00  0.15474849958E+04  0.26095465195E+04  0.21011956656E+04 0.  0.
        5    1    3    3  502    0 -0.72051392388E+03  0.61098045959E+03  0.13446220299E+04  0.16433100528E+04  0.46999998093E+01 0.  1.
       -5    1    3    3    0  502  0.72051392388E+03 -0.61098045959E+03  0.20286296587E+03  0.96623646662E+03  0.46999998093E+01 0. -1.
</event>
<event>
 5   0  0.5462851E-05  0.2083206E+04  0.7818609E-02  0.8568678E-01
       -2   -1    0    0    0  501  0.00000000000E+00  0.00000000000E+00  0.66079120290E+03  0.66079120290E+03  0.25500000920E-02 0.  1.
        2   -1    0    0  501    0  0.00000000000E+00  0.00000000000E+00 -0.16418750537E+04  0.16418750537E+04  0.25500000920E-02 0. -1.
    10030    2    1    2    0    0  0.00000000000E+00  0.00000000000E+00 -0.98108385084E+03  0.23026662566E+04  0.20832057909E+04 0.  0.
        1    1    3    3  502    0  0.69253885083E+03  0.77060585036E+03 -0.60904195500E+03  0.12018217586E+04  0.50400001928E-02 0.  1.
       -1    1    3    3    0  502 -0.69253885083E+03 -0.77060585036E+03 -0.37204189584E+03  0.11008444980E+04  0.50400001928E-02 0. -1.
</event>
<event>
 5   0  0.5506332E-05  0.2113093E+04  0.7818609E-02  0.8555498E-01
        2   -1    0    0  501    0  0.00000000000E+00  0.00000000000E+00  0.13480665242E+04  0.13480665242E+04  0.25500000920E-02 0.  1.
       -2   -1    0    0    0  501  0.00000000000E+00  0.00000000000E+00 -0.82806793171E+03  0.82806793172E+03  0.25500000920E-02 0. -1.
    10030    2    1    2    0    0  0.00000000000E+00  0.00000000000E+00  0.51999859247E+03  0.21761344559E+04  0.21130931437E+04 0.  0.
        3    1    3    3  502    0 -0.88425651990E+03 -0.10972968126E+03  0.84468771293E+03  0.12277815516E+04  0.10100000352E+00 0.  1.
       -3    1    3    3    0  502  0.88425651990E+03  0.10972968126E+03 -0.32468912046E+03  0.94835290429E+03  0.10100000352E+00 0. -1.
</event>
<event>
 5   0  0.5954140E-05  0.2099650E+04  0.7818609E-02  0.8561398E-01
       -2   -1    0    0    0  501  0.00000000000E+00  0.00000000000E+00  0.17357498025E+04  0.17357498025E+04  0.25500000920E-02 0.  1.
        2   -1    0    0  501    0  0.00000000000E+00  0.00000000000E+00 -0.63496044628E+03  0.63496044629E+03  0.25500000920E-02 0. -1.
    10030    2    1    2    0    0  0.00000000000E+00  0.00000000000E+00  0.11007893563E+04  0.23707102488E+04  0.20996499416E+04 0.  0.
        2    1    3    3  502    0  0.21011214208E+02  0.11203151669E+03 -0.62795293027E+03  0.63821423871E+03  0.25500000920E-02 0. -1.
       -2    1    3    3    0  502 -0.21011214208E+02 -0.11203151669E+03  0.17287422865E+04  0.17324960101E+04  0.25500000920E-02 0.  1.
</event>
<event>
 5   0  0.2699285E-05  0.2120824E+04  0.7818609E-02  0.8552125E-01
        1   -1    0    0  501    0  0.00000000000E+00  0.00000000000E+00  0.18616239865E+04  0.18616239865E+04  0.50400001928E-02 0.  1.
       -1   -1    0    0    0  501  0.00000000000E+00  0.00000000000E+00 -0.60402823386E+03  0.60402823388E+03  0.50400001928E-02 0. -1.
    10030    2    1    2    0    0  0.00000000000E+00  0.00000000000E+00  0.12575957527E+04  0.24656522204E+04  0.21208238482E+04 0.  0.
        2    1    3    3  502    0 -0.14325836572E+03 -0.68734432220E+03  0.15526803810E+04  0.17040485738E+04  0.25500000920E-02 0.  1.
       -2    1    3    3    0  502  0.14325836572E+03  0.68734432220E+03 -0.29508462828E+03  0.76160364657E+03  0.25500000920E-02 0. -1.
</event>
<event>
 5   0  0.5866610E-05  0.2093578E+04  0.7818609E-02  0.8564078E-01
        2   -1    0    0  501    0  0.00000000000E+00  0.00000000000E+00  0.22974208382E+04  0.22974208382E+04  0.25500000920E-02 0.  1.
       -2   -1    0    0    0  501  0.00000000000E+00  0.00000000000E+00 -0.47695525626E+03  0.47695525627E+03  0.25500000920E-02 0. -1.
    10030    2    1    2    0    0  0.00000000000E+00  0.00000000000E+00  0.18204655819E+04  0.27743760944E+04  0.20935777460E+04 0.  0.
        5    1    3    3  502    0  0.77049425690E+03 -0.37497731318E+03  0.17069710193E+04  0.19099846952E+04  0.46999998093E+01 0.  1.
       -5    1    3    3    0  502 -0.77049425690E+03  0.37497731318E+03  0.11349456264E+03  0.86439139923E+03  0.46999998093E+01 0. -1.
</event>
<event>
 5   0  0.5866610E-05  0.2086018E+04  0.7818609E-02  0.8567428E-01
        2   -1    0    0  501    0  0.00000000000E+00  0.00000000000E+00  0.12719557738E+04  0.12719557738E+04  0.25500000920E-02 0.  1.
       -2   -1    0    0    0  501  0.00000000000E+00  0.00000000000E+00 -0.85527189798E+03  0.85527189798E+03  0.25500000920E-02 0. -1.
    10030    2    1    2    0    0  0.00000000000E+00  0.00000000000E+00  0.41668387585E+03  0.21272276718E+04  0.20860182442E+04 0.  0.
        5    1    3    3  502    0 -0.79052255577E+03  0.65820279061E+02 -0.48222706603E+03  0.92834436150E+03  0.46999998093E+01 0. -1.
       -5    1    3    3    0  502  0.79052255577E+03 -0.65820279061E+02  0.89891094188E+03  0.11988833103E+04  0.46999998093E+01 0.  1.
</event>
<event>
 5   0  0.5462851E-05  0.2112607E+04  0.7818609E-02  0.8555710E-01
        2   -1    0    0  501    0  0.00000000000E+00  0.00000000000E+00  0.90341167659E+03  0.90341167659E+03  0.25500000920E-02 0. -1.
       -2   -1    0    0    0  501  0.00000000000E+00  0.00000000000E+00 -0.12350699128E+04  0.12350699128E+04  0.25500000920E-02 0.  1.
    10030    2    1    2    0    0  0.00000000000E+00  0.00000000000E+00 -0.33165823623E+03  0.21384815894E+04  0.21126065234E+04 0.  0.
        1    1    3    3  502    0  0.53170336926E+03 -0.77068550827E+03  0.32915076006E+03  0.99247410465E+03  0.50400001928E-02 0. -1.
       -1    1    3    3    0  502 -0.53170336926E+03  0.77068550827E+03 -0.66080899629E+03  0.11460074848E+04  0.50400001928E-02 0.  1.
</event>
<event>
 5   0  0.5967046E-05  0.2114241E+04  0.7818609E-02  0.8554996E-01
       -2   -1    0    0    0  501  0.00000000000E+00  0.00000000000E+00  0.38157178713E+03  0.38157178714E+03  0.25500000920E-02 0.  1.
        2   -1    0    0  501    0  0.00000000000E+00  0.00000000000E+00 -0.29286867824E+04  0.29286867824E+04  0.25500000920E-02 0. -1.
    10030    2    1    2    0    0  0.00000000000E+00  0.00000000000E+00 -0.25471149953E+04  0.33102585696E+04  0.21142414711E+04 0.  0.
        4    1    3    3  502    0 -0.14108529736E+03  0.29401772396E+03 -0.28479585524E+04  0.28665695548E+04  0.12699999809E+01 0. -1.
       -4    1    3    3    0  502  0.14108529736E+03 -0.29401772396E+03  0.30084355710E+03  0.44368901483E+03  0.12699999809E+01 0.  1.
</event>
<event>
 5   0  0.2699285E-05  0.2092974E+04  0.7818609E-02  0.8564345E-01
       -1   -1    0    0    0  501  0.00000000000E+00  0.00000000000E+00  0.58396281746E+03  0.58396281748E+03  0.50400001928E-02 0.  1.
        1   -1    0    0  501    0  0.00000000000E+00  0.00000000000E+00 -0.18753511255E+04  0.18753511255E+04  0.50400001928E-02 0. -1.
    10030    2    1    2    0    0  0.00000000000E+00  0.00000000000E+00 -0.12913883080E+04  0.24593139430E+04  0.20929742731E+04 0.  0.
        2    1    3    3  502    0  0.34909333647E+03  0.31268968798E+01  0.51352189093E+03  0.62095142123E+03  0.25500000920E-02 0.  1.
       -2    1    3    3    0  502 -0.34909333647E+03 -0.31268968798E+01 -0.18049101990E+04  0.18383625218E+04  0.25500000920E-02 0. -1.
</event>
<event>
 5   0  0.2699285E-05  0.2116139E+04  0.7818609E-02  0.8554167E-01
        1   -1    0    0  501    0  0.00000000000E+00  0.00000000000E+00  0.13284061234E+04  0.13284061234E+04  0.50400001928E-02 0.  1.
       -1   -1    0    0    0  501  0.00000000000E+00  0.00000000000E+00 -0.84274772711E+03  0.84274772713E+03  0.50400001928E-02 0. -1.
    10030    2    1    2    0    0  0.00000000000E+00  0.00000000000E+00  0.48565839627E+03  0.21711538505E+04  0.21161391648E+04 0.  0.
        2    1    3    3  502    0 -0.26734279225E+03  0.72930968649E+02  0.12905130653E+04  0.13199299475E+04  0.25500000920E-02 0.  1.
       -2    1    3    3    0  502  0.26734279225E+03 -0.72930968649E+02 -0.80485466901E+03  0.85122390297E+03  0.25500000920E-02 0. -1.
</event>
<event>
 5   0  0.5866610E-05  0.2085982E+04  0.7818609E-02  0.8567444E-01
        2   -1    0    0  501    0  0.00000000000E+00  0.00000000000E+00  0.12509138419E+04  0.12509138419E+04  0.25500000920E-02 0. -1.
       -2   -1    0    0    0  501  0.00000000000E+00  0.00000000000E+00 -0.86962817702E+03  0.86962817702E+03  0.25500000920E-02 0.  1.
    10030    2    1    2    0    0  0.00000000000E+00  0.00000000000E+00  0.38128566485E+03  0.21205420189E+04  0.20859817103E+04 0.  0.
        5    1    3    3  502    0  0.19369389616E+03 -0.45069996061E+03 -0.74501944568E+03  0.89203354440E+03  0.46999998093E+01 0.  1.
       -5    1    3    3    0  502 -0.19369389616E+03  0.45069996061E+03  0.11263051105E+04  0.12285084745E+04  0.46999998093E+01 0. -1.
</event>
<event>
 5   0  0.5506332E-05  0.2092387E+04  0.7818609E-02  0.8564604E-01
        2   -1    0    0  501    0  0.00000000000E+00  0.00000000000E+00  0.16150447719E+04  0.16150447719E+04  0.25500000920E-02 0.  1.
       -2   -1    0    0    0  501  0.00000000000E+00  0.00000000000E+00 -0.67770333820E+03  0.67770333821E+03  0.25500000920E-02 0. -1.
    10030    2    1    2    0    0  0.00000000000E+00  0.00000000000E+00  0.93734143370E+03  0.22927481101E+04  0.20923873764E+04 0.  0.
        3    1    3    3  502    0 -0.10489870687E+03  0.39475983935E+03  0.15240628529E+04  0.15778487441E+04  0.10100000352E+00 0.  1.
       -3    1    3    3    0  502  0.10489870687E+03 -0.39475983935E+03 -0.58672141924E+03  0.71489936597E+03  0.10100000352E+00 0. -1.
</event>
<event>
 5   0  0.2699285E-05  0.2140123E+04  0.7818609E-02  0.8543772E-01
        1   -1    0    0  501    0  0.00000000000E+00  0.00000000000E+00  0.18232652994E+04  0.18232652994E+04  0.50400001928E-02 0.  1.
       -1   -1    0    0    0  501  0.00000000000E+00  0.00000000000E+00 -0.62801170992E+03  0.62801170994E+03  0.50400001928E-02 0. -1.
    10030    2    1    2    0    0  0.00000000000E+00  0.00000000000E+00  0.11952535895E+04  0.24512770094E+04  0.21401233220E+04 0.  0.
        2    1    3    3  502    0  0.84392087946E+03 -0.12532918645E+03 -0.14212357976E+03  0.86493292670E+03  0.25500000920E-02 0. -1.
       -2    1    3    3    0  502 -0.84392087946E+03  0.12532918645E+03  0.13373771693E+04  0.15863440827E+04  0.25500000920E-02 0.  1.
</event>
<event>
 5   0  0.5967046E-05  0.2116733E+04  0.7818609E-02  0.8553908E-01
        2   -1    0    0  501    0  0.00000000000E+00  0.00000000000E+00  0.14398376066E+04  0.14398376066E+04  0.25500000920E-02 0. -1.
       -2   -1    0    0    0  501  0.00000000000E+00  0.00000000000E+00 -0.77796213686E+03  0.77796213686E+03  0.25500000920E-02 0.  1.
    10030    2    1    2    0    0  0.00000000000E+00  0.00000000000E+00  0.66187546975E+03  0.22177997435E+04  0.21167325208E+04 0.  0.
        4    1    3    3  502    0 -0.60531027831E+03  0.51786072264E+03  0.10610280306E+04  0.13267864771E+04  0.12699999809E+01 0. -1.
       -4    1    3    3    0  502  0.60531027831E+03 -0.51786072264E+03 -0.39915256090E+03  0.89101326638E+03  0.12699999809E+01 0.  1.
</event>
<event>
 5   0  0.2789662E-05  0.2097815E+04  0.7818609E-02  0.8562206E-01
        1   -1    0    0  501    0  0.00000000000E+00  0.00000000000E+00  0.14312529716E+04  0.14312529716E+04  0.50400001928E-02 0. -1.
       -1   -1    0    0    0  501  0.00000000000E+00  0.00000000000E+00 -0.76870198240E+03  0.76870198242E+03  0.50400001928E-02 0.  1.
    10030    2    1    2    0    0  0.00000000000E+00  0.00000000000E+00  0.66255098923E+03  0.21999549541E+04  0.20978150506E+04 0.  0.
        4    1    3    3  502    0 -0.88074996399E+03  0.54580572825E+03  0.50225032488E+03  0.11514692327E+04  0.12699999809E+01 0.  1.
       -4    1    3    3    0  502  0.88074996399E+03 -0.54580572825E+03  0.16030066436E+03  0.10484857214E+04  0.12699999809E+01 0. -1.
</event>
<event>
 5   0  0.2732159E-05  0.2121097E+04  0.7818609E-02  0.8552007E-01
       -1   -1    0    0    0  501  0.00000000000E+00  0.00000000000E+00  0.82743342203E+03  0.82743342205E+03  0.50400001928E-02 0. -1.
        1   -1    0    0  501    0  0.00000000000E+00  0.00000000000E+00 -0.13593394813E+04  0.13593394813E+04  0.50400001928E-02 0.  1.
    10030    2    1    2    0    0  0.00000000000E+00  0.00000000000E+00 -0.53190605924E+03  0.21867729033E+04  0.21210968094E+04 0.  0.
        3    1    3    3  502    0  0.10176658137E+04 -0.51117505501E+02 -0.56917929174E+03  0.11671425723E+04  0.10100000352E+00 0.  1.
       -3    1    3    3    0  502 -0.10176658137E+04  0.51117505501E+02  0.37273232495E+02  0.10196303310E+04  0.10100000352E+00 0. -1.
</event>
<event>
 5   0  0.5506332E-05  0.2030388E+04  0.7818609E-02  0.8592544E-01
       -2   -1    0    0    0  501  0.00000000000E+00  0.00000000000E+00  0.10770889720E+04  0.10770889720E+04  0.25500000920E-02 0. -1.
        2   -1    0    0  501    0  0.00000000000E+00  0.00000000000E+00 -0.95685590338E+03  0.95685590338E+03  0.25500000920E-02 0.  1.
    10030    2    1    2    0    0  0.00000000000E+00  0.00000000000E+00  0.12023306867E+03  0.20339448754E+04  0.20303880825E+04 0.  0.
        3    1    3    3  502    0 -0.96131294888E+03  0.20924985768E+03 -0.19074347875E+03  0.10021432899E+04  0.10100000352E+00 0. -1.
       -3    1    3    3    0  502  0.96131294888E+03 -0.20924985768E+03  0.31097654742E+03  0.10318015855E+04  0.10100000352E+00 0.  1.
</event>
<event>
 5   0  0.2699285E-05  0.2104757E+04  0.7818609E-02  0.8559151E-01
       -1   -1    0    0    0  501  0.00000000000E+00  0.00000000000E+00  0.66642220313E+03  0.66642220315E+03  0.50400001928E-02 0.  1.
        1   -1    0    0  501    0  0.00000000000E+00  0.00000000000E+00 -0.16618593846E+04  0.16618593846E+04  0.50400001928E-02 0. -1.
    10030    2    1    2    0    0  0.00000000000E+00  0.00000000000E+00 -0.99543718147E+03  0.23282815878E+04  0.21047565108E+04 0.  0.
        2    1    3    3  502    0  0.10171452909E+04  0.23363145626E+03 -0.64749247901E+03  0.12281753582E+04  0.25500000920E-02 0. -1.
       -2    1    3    3    0  502 -0.10171452909E+04 -0.23363145626E+03 -0.34794470246E+03  0.11001062295E+04  0.25500000920E-02 0.  1.
</event>
<event>
 5   0  0.5462851E-05  0.2106881E+04  0.7818609E-02  0.8558218E-01
       -2   -1    0    0    0  501  0.00000000000E+00  0.00000000000E+00  0.73973869399E+03  0.73973869399E+03  0.25500000920E-02 0. -1.
        2   -1    0    0  501    0  0.00000000000E+00  0.00000000000E+00 -0.15001736019E+04  0.15001736019E+04  0.25500000920E-02 0.  1.
    10030    2    1    2    0    0  0.00000000000E+00  0.00000000000E+00 -0.76043490795E+03  0.22399122959E+04  0.21068805956E+04 0.  0.
        1    1    3    3  502    0  0.13074057435E+03  0.37119469862E+03 -0.14190856572E+04  0.14726447992E+04  0.50400001928E-02 0.  1.
       -1    1    3    3    0  502 -0.13074057435E+03 -0.37119469862E+03  0.65865074924E+03  0.76726749675E+03  0.50400001928E-02 0. -1.
</event>
<event>
 5   0  0.5506332E-05  0.2125310E+04  0.7818609E-02  0.8550175E-01
        2   -1    0    0  501    0  0.00000000000E+00  0.00000000000E+00  0.15740379944E+04  0.15740379944E+04  0.25500000920E-02 0.  1.
       -2   -1    0    0    0  501  0.00000000000E+00  0.00000000000E+00 -0.71741337659E+03  0.71741337660E+03  0.25500000920E-02 0. -1.
    10030    2    1    2    0    0  0.00000000000E+00  0.00000000000E+00  0.85662461783E+03  0.22914513710E+04  0.21253102479E+04 0.  0.
        3    1    3    3  502    0 -0.33594711900E+03  0.58424230681E+03  0.13141453857E+04  0.14768810530E+04  0.10100000352E+00 0.  1.
       -3    1    3    3    0  502  0.33594711900E+03 -0.58424230681E+03 -0.45752076783E+03  0.81457031803E+03  0.10100000352E+00 0. -1.
</event>
<event>
 5   0  0.2602060E-05  0.2100534E+04  0.7818609E-02  0.8561008E-01
        1   -1    0    0  501    0  0.00000000000E+00  0.00000000000E+00  0.13891731823E+04  0.13891731823E+04  0.50400001928E-02 0. -1.
       -1   -1    0    0    0  501  0.00000000000E+00  0.00000000000E+00 -0.79404151138E+03  0.79404151139E+03  0.50400001928E-02 0.  1.
    10030    2    1    2    0    0  0.00000000000E+00  0.00000000000E+00  0.59513167091E+03  0.21832146937E+04  0.21005343827E+04 0.  0.
        1    1    3    3  502    0  0.89393214405E+03 -0.44027603281E+03  0.64244521851E+03  0.11856194676E+04  0.50400001928E-02 0. -1.
       -1    1    3    3    0  502 -0.89393214405E+03  0.44027603281E+03 -0.47313547603E+02  0.99759522605E+03  0.50400001928E-02 0.  1.
</event>
<event>
 5   0  0.2602060E-05  0.2048608E+04  0.7818609E-02  0.8584226E-01
       -1   -1    0    0    0  501  0.00000000000E+00  0.00000000000E+00  0.82502440435E+03  0.82502440437E+03  0.50400001928E-02 0.  1.
        1   -1    0    0  501    0  0.00000000000E+00  0.00000000000E+00 -0.12717183207E+04  0.12717183207E+04  0.50400001928E-02 0. -1.
    10030    2    1    2    0    0  0.00000000000E+00  0.00000000000E+00 -0.44669391633E+03  0.20967427251E+04  0.20486079665E+04 0.  0.
        1    1    3    3  502    0  0.15508964486E+03  0.10122724952E+04 -0.20162935151E+03  0.10437446038E+04  0.50400001928E-02 0.  1.
       -1    1    3    3    0  502 -0.15508964486E+03 -0.10122724952E+04 -0.24506456482E+03  0.10529981213E+04  0.50400001928E-02 0. -1.
</event>
<event>
 5   0  0.5462851E-05  0.2012419E+04  0.7818609E-02  0.8600836E-01
        2   -1    0    0  501    0  0.00000000000E+00  0.00000000000E+00  0.12127597344E+04  0.12127597344E+04  0.25500000920E-02 0.  1.
       -2   -1    0    0    0  501  0.00000000000E+00  0.00000000000E+00 -0.83483774944E+03  0.83483774944E+03  0.25500000920E-02 0. -1.
    10030    2    1    2    0    0  0.00000000000E+00  0.00000000000E+00  0.37792198496E+03  0.20475974838E+04  0.20124190491E+04 0.  0.
        1    1    3    3  502    0  0.65649949030E+03 -0.55851119434E+03  0.71720034054E+03  0.11212950831E+04  0.50400001928E-02 0.  1.
       -1    1    3    3    0  502 -0.65649949030E+03  0.55851119434E+03 -0.33927835558E+03  0.92630240071E+03  0.50400001928E-02 0. -1.
</event>
<event>
 5   0  0.2699285E-05  0.2078967E+04  0.7818609E-02  0.8570566E-01
        1   -1    0    0  501    0  0.00000000000E+00  0.00000000000E+00  0.15106902385E+04  0.15106902385E+04  0.50400001928E-02 0. -1.
       -1   -1    0    0    0  501  0.00000000000E+00  0.00000000000E+00 -0.71525308767E+03  0.71525308769E+03  0.50400001928E-02 0.  1.
    10030    2    1    2    0    0  0.00000000000E+00  0.00000000000E+00  0.79543715087E+03  0.22259433262E+04  0.20789669143E+04 0.  0.
        2    1    3    3  502    0  0.32386926896E+03  0.96579239787E+03  0.61943194380E+03  0.11922005671E+04  0.25500000920E-02 0.  1.
       -2    1    3    3    0  502 -0.32386926896E+03 -0.96579239787E+03  0.17600520707E+03  0.10337427591E+04  0.25500000920E-02 0. -1.
</event>
<event>
 5   0  0.2602060E-05  0.2098806E+04  0.7818609E-02  0.8561769E-01
       -1   -1    0    0    0  501  0.00000000000E+00  0.00000000000E+00  0.79113284900E+03  0.79113284901E+03  0.50400001928E-02 0. -1.
        1   -1    0    0  501    0  0.00000000000E+00  0.00000000000E+00 -0.13919874815E+04  0.13919874815E+04  0.50400001928E-02 0.  1.
    10030    2    1    2    0    0  0.00000000000E+00  0.00000000000E+00 -0.60085463253E+03  0.21831203305E+04  0.20988063484E+04 0.  0.
        1    1    3    3  502    0 -0.60168704665E+03  0.57906450065E+03 -0.96149266755E+03  0.12735034934E+04  0.50400001928E-02 0.  1.
       -1    1    3    3    0  502  0.60168704665E+03 -0.57906450065E+03  0.36063803502E+03  0.90961683711E+03  0.50400001928E-02 0. -1.
</event>
<event>
 5   0  0.5506332E-05  0.2087075E+04  0.7818609E-02  0.8566958E-01
        2   -1    0    0  501    0  0.00000000000E+00  0.00000000000E+00  0.12041744505E+04  0.12041744505E+04  0.25500000920E-02 0.  1.
       -2   -1    0    0    0  501  0.00000000000E+00  0.00000000000E+00 -0.90432965828E+03  0.90432965829E+03  0.25500000920E-02 0. -1.
    10030    2    1    2    0    0  0.00000000000E+00  0.00000000000E+00  0.29984479222E+03  0.21085041088E+04  0.20870751490E+04 0.  0.
        3    1    3    3  502    0 -0.74203355551E+03  0.59942762847E+03 -0.27755730645E+03  0.99346129660E+03  0.10100000352E+00 0. -1.
       -3    1    3    3    0  502  0.74203355551E+03 -0.59942762847E+03  0.57740209867E+03  0.11150428122E+04  0.10100000352E+00 0.  1.
</event>
<event>
 5   0  0.2789662E-05  0.2108572E+04  0.7818609E-02  0.8557477E-01
       -1   -1    0    0    0  501  0.00000000000E+00  0.00000000000E+00  0.13459705903E+04  0.13459705903E+04  0.50400001928E-02 0.  1.
        1   -1    0    0  501    0  0.00000000000E+00  0.00000000000E+00 -0.82581258458E+03  0.82581258460E+03  0.50400001928E-02 0. -1.
    10030    2    1    2    0    0  0.00000000000E+00  0.00000000000E+00  0.52015800575E+03  0.21717831749E+04  0.21085724574E+04 0.  0.
        4    1    3    3  502    0 -0.62808878820E+02 -0.42458911664E+03 -0.73175125742E+03  0.84834096262E+03  0.12699999809E+01 0. -1.
       -4    1    3    3    0  502  0.62808878820E+02  0.42458911664E+03  0.12519092632E+04  0.13234422123E+04  0.12699999809E+01 0.  1.
</event>
<event>
 5   0  0.2602060E-05  0.2113003E+04  0.7818609E-02  0.8555537E-01
        1   -1    0    0  501    0  0.00000000000E+00  0.00000000000E+00  0.11017497346E+04  0.11017497346E+04  0.50400001928E-02 0.  1.
       -1   -1    0    0    0  501  0.00000000000E+00  0.00000000000E+00 -0.10131117192E+04  0.10131117192E+04  0.50400001928E-02 0. -1.
    10030    2    1    2    0    0  0.00000000000E+00  0.00000000000E+00  0.88638015364E+02  0.21148614538E+04  0.21130031404E+04 0.  0.
        1    1    3    3  502    0 -0.19271089395E+03  0.74324754324E+03 -0.68201968842E+03  0.10269884394E+04  0.50400001928E-02 0. -1.
       -1    1    3    3    0  502  0.19271089395E+03 -0.74324754324E+03  0.77065770378E+03  0.10878730145E+04  0.50400001928E-02 0.  1.
</event>
<event>
 5   0  0.2602060E-05  0.2099589E+04  0.7818609E-02  0.8561424E-01
       -1   -1    0    0    0  501  0.00000000000E+00  0.00000000000E+00  0.80533436635E+03  0.80533436637E+03  0.50400001928E-02 0.  1.
        1   -1    0    0  501    0  0.00000000000E+00  0.00000000000E+00 -0.13684607807E+04  0.13684607807E+04  0.50400001928E-02 0. -1.
    10030    2    1    2    0    0  0.00000000000E+00  0.00000000000E+00 -0.56312641433E+03  0.21737951471E+04  0.20995890033E+04 0.  0.
        1    1    3    3  502    0  0.49735394739E+03  0.59093584276E+03  0.45455223126E+03  0.89620525004E+03  0.50400001928E-02 0.  1.
       -1    1    3    3    0  502 -0.49735394739E+03 -0.59093584276E+03 -0.10176786456E+04  0.12775898970E+04  0.50400001928E-02 0. -1.
</event>
<event>
 5   0  0.5954140E-05  0.2097135E+04  0.7818609E-02  0.8562507E-01
       -2   -1    0    0    0  501  0.00000000000E+00  0.00000000000E+00  0.48946650835E+03  0.48946650836E+03  0.25500000920E-02 0. -1.
        2   -1    0    0  501    0  0.00000000000E+00  0.00000000000E+00 -0.22463096033E+04  0.22463096033E+04  0.25500000920E-02 0.  1.
    10030    2    1    2    0    0  0.00000000000E+00  0.00000000000E+00 -0.17568430950E+04  0.27357761117E+04  0.20971345386E+04 0.  0.
        2    1    3    3  502    0  0.89979820499E+03 -0.19483259079E+03 -0.15331565506E+04  0.17883415661E+04  0.25500000920E-02 0.  1.
       -2    1    3    3    0  502 -0.89979820499E+03  0.19483259079E+03 -0.22368654435E+03  0.94743454564E+03  0.25500000920E-02 0. -1.
</event>
<event>
 5   0  0.5967046E-05  0.2097170E+04  0.7818609E-02  0.8562491E-01
       -2   -1    0    0    0  501  0.00000000000E+00  0.00000000000E+00  0.74503980525E+03  0.74503980526E+03  0.25500000920E-02 0. -1.
        2   -1    0    0  501    0  0.00000000000E+00  0.00000000000E+00 -0.14758007162E+04  0.14758007162E+04  0.25500000920E-02 0.  1.
    10030    2    1    2    0    0  0.00000000000E+00  0.00000000000E+00 -0.73076091099E+03  0.22208405215E+04  0.20971697864E+04 0.  0.
        4    1    3    3  502    0  0.18558994094E+03 -0.37220338282E+03 -0.13847182713E+04  0.14458303110E+04  0.12699999809E+01 0.  1.
       -4    1    3    3    0  502 -0.18558994094E+03  0.37220338282E+03  0.65395736033E+03  0.77501021051E+03  0.12699999809E+01 0. -1.
</event>
<event>
 5   0  0.5506332E-05  0.2100495E+04  0.7818609E-02  0.8561025E-01
        2   -1    0    0  501    0  0.00000000000E+00  0.00000000000E+00  0.13672995276E+04  0.13672995276E+04  0.25500000920E-02 0. -1.
       -2   -1    0    0    0  501  0.00000000000E+00  0.00000000000E+00 -0.80671415882E+03  0.80671415882E+03  0.25500000920E-02 0.  1.
    10030    2    1    2    0    0  0.00000000000E+00  0.00000000000E+00  0.56058536880E+03  0.21740136864E+04  0.21004950733E+04 0.  0.
        3    1    3    3  502    0 -0.81261695974E+03 -0.12034048617E+03 -0.39697404303E+03  0.91236865187E+03  0.10100000352E+00 0.  1.
       -3    1    3    3    0  502  0.81261695974E+03  0.12034048617E+03  0.95755941183E+03  0.12616450346E+04  0.10100000352E+00 0. -1.
</event>
<event>
 5   0  0.2732159E-05  0.2052447E+04  0.7818609E-02  0.8582485E-01
        1   -1    0    0  501    0  0.00000000000E+00  0.00000000000E+00  0.11435919453E+04  0.11435919453E+04  0.50400001928E-02 0.  1.
       -1   -1    0    0    0  501  0.00000000000E+00  0.00000000000E+00 -0.92090117310E+03  0.92090117312E+03  0.50400001928E-02 0. -1.
    10030    2    1    2    0    0  0.00000000000E+00  0.00000000000E+00  0.22269077220E+03  0.20644931184E+04  0.20524474795E+04 0.  0.
        3    1    3    3  502    0  0.32711013723E+03 -0.81048723303E+03  0.65231638624E+03  0.10905995025E+04  0.10100000352E+00 0.  1.
       -3    1    3    3    0  502 -0.32711013723E+03  0.81048723303E+03 -0.42962561405E+03  0.97389361598E+03  0.10100000352E+00 0. -1.
</event>
<event>
 5   0  0.5866610E-05  0.2103829E+04  0.7818609E-02  0.8559559E-01
       -2   -1    0    0    0  501  0.00000000000E+00  0.00000000000E+00  0.10365077151E+04  0.10365077151E+04  0.25500000920E-02 0.  1.
        2   -1    0    0  501    0  0.00000000000E+00  0.00000000000E+00 -0.10675499390E+04  0.10675499390E+04  0.25500000920E-02 0. -1.
    10030    2    1    2    0    0  0.00000000000E+00  0.00000000000E+00 -0.31042223963E+02  0.21040576541E+04  0.21038286509E+04 0.  0.
        5    1    3    3  502    0 -0.46289089448E+03  0.44806976371E+03  0.81611444900E+03  0.10397592881E+04  0.46999998093E+01 0.  1.
       -5    1    3    3    0  502  0.46289089448E+03 -0.44806976371E+03 -0.84715667296E+03  0.10642983660E+04  0.46999998093E+01 0. -1.
</event>
<event>
 5   0  0.5954140E-05  0.2107981E+04  0.7818609E-02  0.8557736E-01
        2   -1    0    0  501    0  0.00000000000E+00  0.00000000000E+00  0.17114337422E+04  0.17114337422E+04  0.25500000920E-02 0.  1.
       -2   -1    0    0    0  501  0.00000000000E+00  0.00000000000E+00 -0.64910270834E+03  0.64910270835E+03  0.25500000920E-02 0. -1.
    10030    2    1    2    0    0  0.00000000000E+00  0.00000000000E+00  0.10623310339E+04  0.23605364506E+04  0.21079812876E+04 0.  0.
        2    1    3    3  502    0  0.31390808086E+02 -0.29838036816E+03 -0.60027393555E+03  0.67107751016E+03  0.25500000920E-02 0. -1.
       -2    1    3    3    0  502 -0.31390808086E+02  0.29838036816E+03  0.16626049694E+04  0.16894589404E+04  0.25500000920E-02 0.  1.
</event>
<event>
 5   0  0.2732159E-05  0.2091982E+04  0.7818609E-02  0.8564784E-01
        1   -1    0    0  501    0  0.00000000000E+00  0.00000000000E+00  0.10765819975E+04  0.10765819975E+04  0.50400001928E-02 0.  1.
       -1   -1    0    0    0  501  0.00000000000E+00  0.00000000000E+00 -0.10162691451E+04  0.10162691451E+04  0.50400001928E-02 0. -1.
    10030    2    1    2    0    0  0.00000000000E+00  0.00000000000E+00  0.60312852465E+02  0.20928511426E+04  0.20919818988E+04 0.  0.
        3    1    3    3  502    0 -0.42192928790E+03 -0.62913470296E+03  0.75174820689E+03  0.10672207715E+04  0.10100000352E+00 0.  1.
       -3    1    3    3    0  502  0.42192928790E+03  0.62913470296E+03 -0.69143535442E+03  0.10256303710E+04  0.10100000352E+00 0. -1.
</event>
<event>
 5   0  0.5866610E-05  0.2102292E+04  0.7818609E-02  0.8560234E-01
        2   -1    0    0  501    0  0.00000000000E+00  0.00000000000E+00  0.16727089088E+04  0.16727089088E+04  0.25500000920E-02 0. -1.
       -2   -1    0    0    0  501  0.00000000000E+00  0.00000000000E+00 -0.66054999518E+03  0.66054999518E+03  0.25500000920E-02 0.  1.
    10030    2    1    2    0    0  0.00000000000E+00  0.00000000000E+00  0.10121589136E+04  0.23332589040E+04  0.21022919509E+04 0.  0.
        5    1    3    3  502    0 -0.13262108960E+03 -0.32403360496E+02  0.16628155512E+04  0.16684172076E+04  0.46999998093E+01 0. -1.
       -5    1    3    3    0  502  0.13262108960E+03  0.32403360496E+02 -0.65065663762E+03  0.66484169639E+03  0.46999998093E+01 0.  1.
</event>
<event>
 5   0  0.2017750E-05  0.2103756E+04  0.7818609E-02  0.8559590E-01
       -3   -1    0    0    0  501  0.00000000000E+00  0.00000000000E+00  0.53874393747E+03  0.53874394694E+03  0.10100000352E+00 0. -1.
        3   -1    0    0  501    0  0.00000000000E+00  0.00000000000E+00 -0.20537542528E+04  0.20537542553E+04  0.10100000352E+00 0.  1.
    10030    2    1    2    0    0  0.00000000000E+00  0.00000000000E+00 -0.15150103153E+04  0.25924982022E+04  0.21037563245E+04 0.  0.
        3    1    3    3  502    0  0.71595639722E+03 -0.23265228474E+03  0.14783149952E+03  0.76718629470E+03  0.10100000352E+00 0. -1.
       -3    1    3    3    0  502 -0.71595639722E+03  0.23265228474E+03 -0.16628418148E+04  0.18253119075E+04  0.10100000352E+00 0.  1.
</event>
<event>
 5   0  0.5866610E-05  0.2097512E+04  0.7818609E-02  0.8562340E-01
       -2   -1    0    0    0  501  0.00000000000E+00  0.00000000000E+00  0.79384894696E+03  0.79384894697E+03  0.25500000920E-02 0.  1.
        2   -1    0    0  501    0  0.00000000000E+00  0.00000000000E+00 -0.13855140023E+04  0.13855140023E+04  0.25500000920E-02 0. -1.
    10030    2    1    2    0    0  0.00000000000E+00  0.00000000000E+00 -0.59166505532E+03  0.21793629492E+04  0.20975116989E+04 0.  0.
        5    1    3    3  502    0  0.29571742763E+02  0.83438943846E+03  0.36358826136E+03  0.91065840839E+03  0.46999998093E+01 0.  1.
       -5    1    3    3    0  502 -0.29571742763E+02 -0.83438943846E+03 -0.95525331667E+03  0.12687045409E+04  0.46999998093E+01 0. -1.
</event>
<event>
 5   0  0.5462851E-05  0.2103032E+04  0.7818609E-02  0.8559909E-01
        2   -1    0    0  501    0  0.00000000000E+00  0.00000000000E+00  0.99888529572E+03  0.99888529572E+03  0.25500000920E-02 0. -1.
       -2   -1    0    0    0  501  0.00000000000E+00  0.00000000000E+00 -0.11069196702E+04  0.11069196702E+04  0.25500000920E-02 0.  1.
    10030    2    1    2    0    0  0.00000000000E+00  0.00000000000E+00 -0.10803437446E+03  0.21058049659E+04  0.21030318895E+04 0.  0.
        1    1    3    3  502    0  0.28373780742E+03  0.98248479426E+03  0.19105493933E+03  0.10403295171E+04  0.50400001928E-02 0. -1.
       -1    1    3    3    0  502 -0.28373780742E+03 -0.98248479426E+03 -0.29908931380E+03  0.10654754488E+04  0.50400001928E-02 0.  1.
</event>
<event>
 5   0  0.5967046E-05  0.2150070E+04  0.7818609E-02  0.8539502E-01
        2   -1    0    0  501    0  0.00000000000E+00  0.00000000000E+00  0.15104915590E+04  0.15104915590E+04  0.25500000920E-02 0.  1.
       -2   -1    0    0    0  501  0.00000000000E+00  0.00000000000E+00 -0.76511504375E+03  0.76511504376E+03  0.25500000920E-02 0. -1.
    10030    2    1    2    0    0  0.00000000000E+00  0.00000000000E+00  0.74537651525E+03  0.22756066028E+04  0.21500695945E+04 0.  0.
        4    1    3    3  502    0 -0.33289640252E+03 -0.65434548758E+03  0.12038493840E+04  0.14100507027E+04  0.12699999809E+01 0.  1.
       -4    1    3    3    0  502  0.33289640252E+03  0.65434548758E+03 -0.45847286872E+03  0.86555590009E+03  0.12699999809E+01 0. -1.
</event>
<event>
 5   0  0.2732159E-05  0.2109090E+04  0.7818609E-02  0.8557250E-01
        1   -1    0    0  501    0  0.00000000000E+00  0.00000000000E+00  0.10488581361E+04  0.10488581361E+04  0.50400001928E-02 0.  1.
       -1   -1    0    0    0  501  0.00000000000E+00  0.00000000000E+00 -0.10602630954E+04  0.10602630955E+04  0.50400001928E-02 0. -1.
    10030    2    1    2    0    0  0.00000000000E+00  0.00000000000E+00 -0.11404959355E+02  0.21091212316E+04  0.21090903955E+04 0.  0.
        3    1    3    3  502    0  0.56305458358E+03 -0.64383085004E+03 -0.62257204706E+03  0.10578963047E+04  0.10100000352E+00 0. -1.
       -3    1    3    3    0  502 -0.56305458358E+03  0.64383085004E+03  0.61116708770E+03  0.10512249269E+04  0.10100000352E+00 0.  1.
</event>
<event>
 5   0  0.2789662E-05  0.2113473E+04  0.7818609E-02  0.8555331E-01
        1   -1    0    0  501    0  0.00000000000E+00  0.00000000000E+00  0.19190435303E+04  0.19190435303E+04  0.50400001928E-02 0. -1.
       -1   -1    0    0    0  501  0.00000000000E+00  0.00000000000E+00 -0.58190057577E+03  0.58190057579E+03  0.50400001928E-02 0.  1.
    10030    2    1    2    0    0  0.00000000000E+00  0.00000000000E+00  0.13371429545E+04  0.25009441061E+04  0.21134734777E+04 0.  0.
        4    1    3    3  502    0  0.10427348018E+04 -0.17137496149E+03  0.66257510767E+03  0.12472660624E+04  0.12699999809E+01 0.  1.
       -4    1    3    3    0  502 -0.10427348018E+04  0.17137496149E+03  0.67456784687E+03  0.12536780437E+04  0.12699999809E+01 0. -1.
</event>
<event>
 5   0  0.5462851E-05  0.2107203E+04  0.7818609E-02  0.8558077E-01
       -2   -1    0    0    0  501  0.00000000000E+00  0.00000000000E+00  0.16003005672E+04  0.16003005672E+04  0.25500000920E-02 0. -1.
        2   -1    0    0  501    0  0.00000000000E+00  0.00000000000E+00 -0.69366711955E+03  0.69366711955E+03  0.25500000920E-02 0.  1.
    10030    2    1    2    0    0  0.00000000000E+00  0.00000000000E+00  0.90663344767E+03  0.22939676868E+04  0.21072027761E+04 0.  0.
        1    1    3    3  502    0  0.21538180739E+03  0.73356292609E+03  0.12425348920E+04  0.14589026175E+04  0.50400001928E-02 0. -1.
       -1    1    3    3    0  502 -0.21538180739E+03 -0.73356292609E+03 -0.33590144438E+03  0.83506506923E+03  0.50400001928E-02 0.  1.
</event>
<event>
 5   0  0.2602060E-05  0.2082889E+04  0.7818609E-02  0.8568818E-01
        1   -1    0    0  501    0  0.00000000000E+00  0.00000000000E+00  0.86238280747E+03  0.86238280748E+03  0.50400001928E-02 0.  1.
       -1   -1    0    0    0  501  0.00000000000E+00  0.00000000000E+00 -0.12576863797E+04  0.12576863798E+04  0.50400001928E-02 0. -1.
    10030    2    1    2    0    0  0.00000000000E+00  0.00000000000E+00 -0.39530357228E+03  0.21200691872E+04  0.20828894460E+04 0.  0.
        1    1    3    3  502    0 -0.11533575388E+02 -0.86343792044E+03 -0.79023728840E+03  0.11705268206E+04  0.50400001928E-02 0. -1.
       -1    1    3    3    0  502  0.11533575388E+02  0.86343792044E+03  0.39493371612E+03  0.94954236660E+03  0.50400001928E-02 0.  1.
</event>
<event>
 5   0  0.5967046E-05  0.2109591E+04  0.7818609E-02  0.8557030E-01
        2   -1    0    0  501    0  0.00000000000E+00  0.00000000000E+00  0.11482376027E+04  0.11482376027E+04  0.25500000920E-02 0.  1.
       -2   -1    0    0    0  501  0.00000000000E+00  0.00000000000E+00 -0.96895715185E+03  0.96895715185E+03  0.25500000920E-02 0. -1.
    10030    2    1    2    0    0  0.00000000000E+00  0.00000000000E+00  0.17928045088E+03  0.21171947546E+04  0.21095905168E+04 0.  0.
        4    1    3    3  502    0  0.70561662228E+03 -0.77683988535E+03 -0.16649032061E+02  0.10495969837E+04  0.12699999809E+01 0.  1.
       -4    1    3    3    0  502 -0.70561662228E+03  0.77683988535E+03  0.19592948294E+03  0.10675977708E+04  0.12699999809E+01 0. -1.
</event>
<event>
 5   0  0.5866610E-05  0.2109415E+04  0.7818609E-02  0.8557107E-01
       -2   -1    0    0    0  501  0.00000000000E+00  0.00000000000E+00  0.67755778563E+03  0.67755778563E+03  0.25500000920E-02 0. -1.
        2   -1    0    0  501    0  0.00000000000E+00  0.00000000000E+00 -0.16417902642E+04  0.16417902642E+04  0.25500000920E-02 0.  1.
    10030    2    1    2    0    0  0.00000000000E+00  0.00000000000E+00 -0.96423247858E+03  0.23193480498E+04  0.21094148723E+04 0.  0.
        5    1    3    3  502    0  0.26953230700E+03  0.62219388979E+02 -0.16011826804E+04  0.16249082998E+04  0.46999998093E+01 0.  1.
       -5    1    3    3    0  502 -0.26953230700E+03 -0.62219388979E+02  0.63695020178E+03  0.69443975004E+03  0.46999998093E+01 0. -1.
</event>
<event>
 5   0  0.5866610E-05  0.2100931E+04  0.7818609E-02  0.8560834E-01
        2   -1    0    0  501    0  0.00000000000E+00  0.00000000000E+00  0.20205466820E+04  0.20205466820E+04  0.25500000920E-02 0.  1.
       -2   -1    0    0    0  501  0.00000000000E+00  0.00000000000E+00 -0.54612810128E+03  0.54612810129E+03  0.25500000920E-02 0. -1.
    10030    2    1    2    0    0  0.00000000000E+00  0.00000000000E+00  0.14744185807E+04  0.25666747833E+04  0.21009305776E+04 0.  0.
        5    1    3    3  502    0 -0.84787500529E+03 -0.39160475351E+03  0.13246464827E+04  0.16207889134E+04  0.46999998093E+01 0.  1.
       -5    1    3    3    0  502  0.84787500529E+03  0.39160475351E+03  0.14977209800E+03  0.94588586991E+03  0.46999998093E+01 0. -1.
</event>
<event>
 5   0  0.2789662E-05  0.2097160E+04  0.7818609E-02  0.8562495E-01
        1   -1    0    0  501    0  0.00000000000E+00  0.00000000000E+00  0.12127236190E+04  0.12127236190E+04  0.50400001928E-02 0.  1.
       -1   -1    0    0    0  501  0.00000000000E+00  0.00000000000E+00 -0.90665338224E+03  0.90665338226E+03  0.50400001928E-02 0. -1.
    10030    2    1    2    0    0  0.00000000000E+00  0.00000000000E+00  0.30607023675E+03  0.21193770013E+04  0.20971599566E+04 0.  0.
        4    1    3    3  502    0  0.60237361637E+03  0.46201633247E+03  0.88402728816E+03  0.11652548752E+04  0.12699999809E+01 0.  1.
       -4    1    3    3    0  502 -0.60237361637E+03 -0.46201633247E+03 -0.57795705141E+03  0.95412212601E+03  0.12699999809E+01 0. -1.
</event>
<event>
 5   0  0.2789662E-05  0.2120978E+04  0.7818609E-02  0.8552058E-01
       -1   -1    0    0    0  501  0.00000000000E+00  0.00000000000E+00  0.11468725468E+04  0.11468725468E+04  0.50400001928E-02 0.  1.
        1   -1    0    0  501    0  0.00000000000E+00  0.00000000000E+00 -0.98061187107E+03  0.98061187108E+03  0.50400001928E-02 0. -1.
    10030    2    1    2    0    0  0.00000000000E+00  0.00000000000E+00  0.16626067572E+03  0.21274844179E+04  0.21209779197E+04 0.  0.
        4    1    3    3  502    0  0.20116558846E+03 -0.30944506657E+03 -0.91410832698E+03  0.98580905330E+03  0.12699999809E+01 0. -1.
       -4    1    3    3    0  502 -0.20116558846E+03  0.30944506657E+03  0.10803690027E+04  0.11416753646E+04  0.12699999809E+01 0.  1.
</event>
<event>
 5   0  0.2602060E-05  0.2101988E+04  0.7818609E-02  0.8560368E-01
        1   -1    0    0  501    0  0.00000000000E+00  0.00000000000E+00  0.10263636432E+04  0.10263636432E+04  0.50400001928E-02 0.  1.
       -1   -1    0    0    0  501  0.00000000000E+00  0.00000000000E+00 -0.10762151865E+04  0.10762151865E+04  0.50400001928E-02 0. -1.
    10030    2    1    2    0    0  0.00000000000E+00  0.00000000000E+00 -0.49851543320E+02  0.21025788297E+04  0.21019877637E+04 0.  0.
        1    1    3    3  502    0  0.28562856016E+03  0.96004470095E+03 -0.34332116396E+03  0.10588384786E+04  0.50400001928E-02 0. -1.
       -1    1    3    3    0  502 -0.28562856016E+03 -0.96004470095E+03  0.29346962064E+03  0.10437403511E+04  0.50400001928E-02 0.  1.
</event>
<event>
 5   0  0.5866610E-05  0.1900740E+04  0.7818609E-02  0.8654488E-01
       -2   -1    0    0    0  501  0.00000000000E+00  0.00000000000E+00  0.17223081803E+04  0.17223081803E+04  0.25500000920E-02 0.  1.
        2   -1    0    0  501    0  0.00000000000E+00  0.00000000000E+00 -0.52441411917E+03  0.52441411918E+03  0.25500000920E-02 0. -1.
    10030    2    1    2    0    0  0.00000000000E+00  0.00000000000E+00  0.11978940611E+04  0.22467222995E+04  0.19007395690E+04 0.  0.
        5    1    3    3  502    0  0.61570514908E+03  0.71631113163E+03  0.47505312989E+03  0.10573041351E+04  0.46999998093E+01 0. -1.
       -5    1    3    3    0  502 -0.61570514908E+03 -0.71631113163E+03  0.72284093125E+03  0.11894181644E+04  0.46999998093E+01 0.  1.
</event>
<event>
 5   0  0.5462851E-05  0.2102038E+04  0.7818609E-02  0.8560346E-01
       -2   -1    0    0    0  501  0.00000000000E+00  0.00000000000E+00  0.10539263189E+04  0.10539263189E+04  0.25500000920E-02 0.  1.
        2   -1    0    0  501    0  0.00000000000E+00  0.00000000000E+00 -0.10481195763E+04  0.10481195763E+04  0.25500000920E-02 0. -1.
    10030    2    1    2    0    0  0.00000000000E+00  0.00000000000E+00  0.58067425700E+01  0.21020458953E+04  0.21020378749E+04 0.  0.
        1    1    3    3  502    0 -0.10422937835E+04  0.13514152359E+03  0.17878353758E+01  0.10510198661E+04  0.50400001928E-02 0.  1.
       -1    1    3    3    0  502  0.10422937835E+04 -0.13514152359E+03  0.40189071942E+01  0.10510260292E+04  0.50400001928E-02 0. -1.
</event>
<event>
 5   0  0.5462851E-05  0.2106833E+04  0.7818609E-02  0.8558240E-01
        2   -1    0    0  501    0  0.00000000000E+00  0.00000000000E+00  0.13904116832E+04  0.13904116832E+04  0.25500000920E-02 0. -1.
       -2   -1    0    0    0  501  0.00000000000E+00  0.00000000000E+00 -0.79809879046E+03  0.79809879047E+03  0.25500000920E-02 0.  1.
    10030    2    1    2    0    0  0.00000000000E+00  0.00000000000E+00  0.59231289274E+03  0.21885104737E+04  0.21068325824E+04 0.  0.
        1    1    3    3  502    0  0.62232097696E+03  0.13423815219E+03  0.11679685892E+04  0.13302082188E+04  0.50400001928E-02 0. -1.
       -1    1    3    3    0  502 -0.62232097696E+03 -0.13423815219E+03 -0.57565569647E+03  0.85830225490E+03  0.50400001928E-02 0.  1.
</event>
<event>
 5   0  0.5462851E-05  0.2109343E+04  0.7818609E-02  0.8557139E-01
        2   -1    0    0  501    0  0.00000000000E+00  0.00000000000E+00  0.11311912233E+04  0.11311912233E+04  0.25500000920E-02 0.  1.
       -2   -1    0    0    0  501  0.00000000000E+00  0.00000000000E+00 -0.98332805717E+03  0.98332805718E+03  0.25500000920E-02 0. -1.
    10030    2    1    2    0    0  0.00000000000E+00  0.00000000000E+00  0.14786316611E+03  0.21145192805E+04  0.21093430901E+04 0.  0.
        1    1    3    3  502    0 -0.78750671115E+03 -0.46606756738E+03 -0.45170833791E+03  0.10205029250E+04  0.50400001928E-02 0. -1.
       -1    1    3    3    0  502  0.78750671115E+03  0.46606756738E+03  0.59957150402E+03  0.10940163554E+04  0.50400001928E-02 0.  1.
</event>
<event>
 5   0  0.2699285E-05  0.2096294E+04  0.7818609E-02  0.8562878E-01
       -1   -1    0    0    0  501  0.00000000000E+00  0.00000000000E+00  0.18777770981E+04  0.18777770981E+04  0.50400001928E-02 0.  1.
        1   -1    0    0  501    0  0.00000000000E+00  0.00000000000E+00 -0.58506004992E+03  0.58506004994E+03  0.50400001928E-02 0. -1.
    10030    2    1    2    0    0  0.00000000000E+00  0.00000000000E+00  0.12927170482E+04  0.24628371481E+04  0.20962942187E+04 0.  0.
        2    1    3    3  502    0 -0.69367390627E+03  0.84680835182E+02  0.15641419501E+04  0.17131533417E+04  0.25500000920E-02 0.  1.
       -2    1    3    3    0  502  0.69367390627E+03 -0.84680835182E+02 -0.27142490193E+03  0.74968380634E+03  0.25500000920E-02 0. -1.
</event>
<event>
 5   0  0.2604390E-05  0.2090617E+04  0.7818609E-02  0.8565388E-01
       -1   -1    0    0    0  501  0.00000000000E+00  0.00000000000E+00  0.50267739474E+03  0.50267739477E+03  0.50400001928E-02 0. -1.
        1   -1    0    0  501    0  0.00000000000E+00  0.00000000000E+00 -0.21737005115E+04  0.21737005115E+04  0.50400001928E-02 0.  1.
    10030    2    1    2    0    0  0.00000000000E+00  0.00000000000E+00 -0.16710231168E+04  0.26763779063E+04  0.20906172391E+04 0.  0.
        5    1    3    3  502    0  0.78044168182E+03 -0.41051908825E+03 -0.15540513941E+04  0.17868164332E+04  0.46999998093E+01 0.  1.
       -5    1    3    3    0  502 -0.78044168182E+03  0.41051908825E+03 -0.11697172274E+03  0.88956147312E+03  0.46999998093E+01 0. -1.
</event>
<event>
 5   0  0.5866610E-05  0.2099019E+04  0.7818609E-02  0.8561676E-01
        2   -1    0    0  501    0  0.00000000000E+00  0.00000000000E+00  0.13833528369E+04  0.13833528369E+04  0.25500000920E-02 0.  1.
       -2   -1    0    0    0  501  0.00000000000E+00  0.00000000000E+00 -0.79623201165E+03  0.79623201166E+03  0.25500000920E-02 0. -1.
    10030    2    1    2    0    0  0.00000000000E+00  0.00000000000E+00  0.58712082523E+03  0.21795848485E+04  0.20990186394E+04 0.  0.
        5    1    3    3  502    0 -0.99459085759E+02  0.10180002117E+04  0.49526798787E+02  0.10240564118E+04  0.46999998093E+01 0. -1.
       -5    1    3    3    0  502  0.99459085759E+02 -0.10180002117E+04  0.53759402644E+03  0.11555284367E+04  0.46999998093E+01 0.  1.
</event>
<event>
 5   0  0.2789662E-05  0.2108019E+04  0.7818609E-02  0.8557719E-01
       -1   -1    0    0    0  501  0.00000000000E+00  0.00000000000E+00  0.11474333117E+04  0.11474333117E+04  0.50400001928E-02 0. -1.
        1   -1    0    0  501    0  0.00000000000E+00  0.00000000000E+00 -0.96819259051E+03  0.96819259052E+03  0.50400001928E-02 0.  1.
    10030    2    1    2    0    0  0.00000000000E+00  0.00000000000E+00  0.17924072123E+03  0.21156259023E+04  0.21080193837E+04 0.  0.
        4    1    3    3  502    0 -0.68305581091E+03  0.24264045170E+03 -0.67831725437E+03  0.99275149966E+03  0.12699999809E+01 0.  1.
       -4    1    3    3    0  502  0.68305581091E+03 -0.24264045170E+03  0.85755797559E+03  0.11228744026E+04  0.12699999809E+01 0. -1.
</event>
<event>
 5   0  0.5954140E-05  0.2129073E+04  0.7818609E-02  0.8548543E-01
       -2   -1    0    0    0  501  0.00000000000E+00  0.00000000000E+00  0.55485123769E+03  0.55485123769E+03  0.25500000920E-02 0.  1.
        2   -1    0    0  501    0  0.00000000000E+00  0.00000000000E+00 -0.20424181125E+04  0.20424181125E+04  0.25500000920E-02 0. -1.
    10030    2    1    2    0    0  0.00000000000E+00  0.00000000000E+00 -0.14875668748E+04  0.25972693502E+04  0.21290732421E+04 0.  0.
        2    1    3    3  502    0 -0.23500901757E+02 -0.65507202649E+02 -0.20396399437E+04  0.20408269368E+04  0.25500000920E-02 0. -1.
       -2    1    3    3    0  502  0.23500901757E+02  0.65507202649E+02  0.55207306891E+03  0.55644241338E+03  0.25500000920E-02 0.  1.
</event>
<event>
 5   0  0.2602060E-05  0.2105625E+04  0.7818609E-02  0.8558769E-01
       -1   -1    0    0    0  501  0.00000000000E+00  0.00000000000E+00  0.10982353376E+04  0.10982353376E+04  0.50400001928E-02 0.  1.
        1   -1    0    0  501    0  0.00000000000E+00  0.00000000000E+00 -0.10092685233E+04  0.10092685233E+04  0.50400001928E-02 0. -1.
    10030    2    1    2    0    0  0.00000000000E+00  0.00000000000E+00  0.88966814345E+02  0.21075038609E+04  0.21056251874E+04 0.  0.
        1    1    3    3  502    0  0.52448466570E+03  0.84301894211E+03 -0.30604221688E+03  0.10389547343E+04  0.50400001928E-02 0.  1.
       -1    1    3    3    0  502 -0.52448466570E+03 -0.84301894211E+03  0.39500903122E+03  0.10685491267E+04  0.50400001928E-02 0. -1.
</event>
<event>
 5   0  0.5506332E-05  0.2092952E+04  0.7818609E-02  0.8564355E-01
        2   -1    0    0  501    0  0.00000000000E+00  0.00000000000E+00  0.24043903934E+04  0.24043903934E+04  0.25500000920E-02 0.  1.
       -2   -1    0    0    0  501  0.00000000000E+00  0.00000000000E+00 -0.45546339951E+03  0.45546339951E+03  0.25500000920E-02 0. -1.
    10030    2    1    2    0    0  0.00000000000E+00  0.00000000000E+00  0.19489269939E+04  0.28598537929E+04  0.20929518125E+04 0.  0.
        3    1    3    3  502    0 -0.54924787907E+03 -0.22427119950E+03 -0.20346848981E+03  0.62719234700E+03  0.10100000352E+00 0. -1.
       -3    1    3    3    0  502  0.54924787907E+03  0.22427119950E+03  0.21523954837E+04  0.22326614459E+04  0.10100000352E+00 0.  1.
</event>
<event>
 5   0  0.5866610E-05  0.2058537E+04  0.7818609E-02  0.8579732E-01
        2   -1    0    0  501    0  0.00000000000E+00  0.00000000000E+00  0.10769266200E+04  0.10769266200E+04  0.25500000920E-02 0. -1.
       -2   -1    0    0    0  501  0.00000000000E+00  0.00000000000E+00 -0.98371900596E+03  0.98371900597E+03  0.25500000920E-02 0.  1.
    10030    2    1    2    0    0  0.00000000000E+00  0.00000000000E+00  0.93207614068E+02  0.20606456260E+04  0.20585365522E+04 0.  0.
        5    1    3    3  502    0 -0.47440838100E+03 -0.40217916897E+02 -0.86684977214E+03  0.98900526301E+03  0.46999998093E+01 0.  1.
       -5    1    3    3    0  502  0.47440838100E+03  0.40217916897E+02  0.96005738620E+03  0.10716403630E+04  0.46999998093E+01 0. -1.
</event>
<event>
 5   0  0.2602060E-05  0.2099698E+04  0.7818609E-02  0.8561376E-01
        1   -1    0    0  501    0  0.00000000000E+00  0.00000000000E+00  0.12631753779E+04  0.12631753779E+04  0.50400001928E-02 0. -1.
       -1   -1    0    0    0  501  0.00000000000E+00  0.00000000000E+00 -0.87254939526E+03  0.87254939527E+03  0.50400001928E-02 0.  1.
    10030    2    1    2    0    0  0.00000000000E+00  0.00000000000E+00  0.39062598265E+03  0.21357247732E+04  0.20996979898E+04 0.  0.
        1    1    3    3  502    0  0.16909238869E+02  0.74081560350E+02 -0.86974861975E+03  0.87306165964E+03  0.50400001928E-02 0.  1.
       -1    1    3    3    0  502 -0.16909238869E+02 -0.74081560350E+02  0.12603746024E+04  0.12626631136E+04  0.50400001928E-02 0. -1.
</event>
<event>
 5   0  0.2789662E-05  0.2106453E+04  0.7818609E-02  0.8558406E-01
        1   -1    0    0  501    0  0.00000000000E+00  0.00000000000E+00  0.18219418476E+04  0.18219418476E+04  0.50400001928E-02 0.  1.
       -1   -1    0    0    0  501  0.00000000000E+00  0.00000000000E+00 -0.60884798129E+03  0.60884798131E+03  0.50400001928E-02 0. -1.
    10030    2    1    2    0    0  0.00000000000E+00  0.00000000000E+00  0.12130938663E+04  0.24307898289E+04  0.21064525781E+04 0.  0.
        4    1    3    3  502    0 -0.34654577344E+03 -0.96620504954E+03  0.87874235998E+03  0.13512349607E+04  0.12699999809E+01 0.  1.
       -4    1    3    3    0  502  0.34654577344E+03  0.96620504954E+03  0.33435150633E+03  0.10795548682E+04  0.12699999809E+01 0. -1.
</event>
<event>
 5   0  0.2017750E-05  0.2076171E+04  0.7818609E-02  0.8571813E-01
       -3   -1    0    0    0  501  0.00000000000E+00  0.00000000000E+00  0.19689903910E+04  0.19689903936E+04  0.10100000352E+00 0.  1.
        3   -1    0    0  501    0  0.00000000000E+00  0.00000000000E+00 -0.54729658259E+03  0.54729659191E+03  0.10100000352E+00 0. -1.
    10030    2    1    2    0    0  0.00000000000E+00  0.00000000000E+00  0.14216938084E+04  0.25162869855E+04  0.20761712137E+04 0.  0.
        1    1    3    3  502    0  0.60803905639E+03 -0.64221377633E+03  0.52044841105E+02  0.88592251022E+03  0.50400001928E-02 0. -1.
       -1    1    3    3    0  502 -0.60803905639E+03  0.64221377633E+03  0.13696489673E+04  0.16303644753E+04  0.50400001928E-02 0.  1.
</event>
<event>
 5   0  0.2604390E-05  0.2124958E+04  0.7818609E-02  0.8550328E-01
       -1   -1    0    0    0  501  0.00000000000E+00  0.00000000000E+00  0.82810150182E+03  0.82810150183E+03  0.50400001928E-02 0. -1.
        1   -1    0    0  501    0  0.00000000000E+00  0.00000000000E+00 -0.13631929080E+04  0.13631929080E+04  0.50400001928E-02 0.  1.
    10030    2    1    2    0    0  0.00000000000E+00  0.00000000000E+00 -0.53509140615E+03  0.21912944098E+04  0.21249584414E+04 0.  0.
        5    1    3    3  502    0  0.51171467948E+03 -0.84155917315E+03  0.14334790231E+03  0.99531124088E+03  0.46999998093E+01 0. -1.
       -5    1    3    3    0  502 -0.51171467948E+03  0.84155917315E+03 -0.67843930847E+03  0.11959831689E+04  0.46999998093E+01 0.  1.
</event>
<event>
 5   0  0.5866610E-05  0.2090163E+04  0.7818609E-02  0.8565589E-01
       -2   -1    0    0    0  501  0.00000000000E+00  0.00000000000E+00  0.10721915319E+04  0.10721915319E+04  0.25500000920E-02 0. -1.
        2   -1    0    0  501    0  0.00000000000E+00  0.00000000000E+00 -0.10186567393E+04  0.10186567393E+04  0.25500000920E-02 0.  1.
    10030    2    1    2    0    0  0.00000000000E+00  0.00000000000E+00  0.53534792624E+02  0.20908482712E+04  0.20901627973E+04 0.  0.
        5    1    3    3  502    0 -0.38026600660E+02 -0.99989440381E+03 -0.27489111133E+03  0.10377003682E+04  0.46999998093E+01 0.  1.
       -5    1    3    3    0  502  0.38026600660E+02  0.99989440381E+03  0.32842590395E+03  0.10531479030E+04  0.46999998093E+01 0. -1.
</event>
<event>
 5   0  0.5866610E-05  0.2097074E+04  0.7818609E-02  0.8562533E-01
       -2   -1    0    0    0  501  0.00000000000E+00  0.00000000000E+00  0.10035136039E+04  0.10035136039E+04  0.25500000920E-02 0.  1.
        2   -1    0    0  501    0  0.00000000000E+00  0.00000000000E+00 -0.10955804140E+04  0.10955804140E+04  0.25500000920E-02 0. -1.
    10030    2    1    2    0    0  0.00000000000E+00  0.00000000000E+00 -0.92066810106E+02  0.20990940178E+04  0.20970740087E+04 0.  0.
        5    1    3    3  502    0 -0.92772695462E+03  0.18268483649E+03 -0.49963291834E+03  0.10694420017E+04  0.46999998093E+01 0.  1.
       -5    1    3    3    0  502  0.92772695462E+03 -0.18268483649E+03  0.40756610824E+03  0.10296520162E+04  0.46999998093E+01 0. -1.
</event>
<event>
 5   0  0.5506332E-05  0.2078186E+04  0.7818609E-02  0.8570914E-01
        2   -1    0    0  501    0  0.00000000000E+00  0.00000000000E+00  0.11266644684E+04  0.11266644684E+04  0.25500000920E-02 0. -1.
       -2   -1    0    0    0  501  0.00000000000E+00  0.00000000000E+00 -0.95832849353E+03  0.95832849353E+03  0.25500000920E-02 0.  1.
    10030    2    1    2    0    0  0.00000000000E+00  0.00000000000E+00  0.16833597485E+03  0.20849929619E+04  0.20781863850E+04 0.  0.
        3    1    3    3  502    0 -0.31232444275E+03  0.95233765989E+03 -0.19099490773E+03  0.10202806677E+04  0.10100000352E+00 0.  1.
       -3    1    3    3    0  502  0.31232444275E+03 -0.95233765989E+03  0.35933088258E+03  0.10647122942E+04  0.10100000352E+00 0. -1.
</event>
<event>
 5   0  0.5866610E-05  0.1946280E+04  0.7818609E-02  0.8632157E-01
        2   -1    0    0  501    0  0.00000000000E+00  0.00000000000E+00  0.16647374391E+04  0.16647374391E+04  0.25500000920E-02 0. -1.
       -2   -1    0    0    0  501  0.00000000000E+00  0.00000000000E+00 -0.56885910667E+03  0.56885910667E+03  0.25500000920E-02 0.  1.
    10030    2    1    2    0    0  0.00000000000E+00  0.00000000000E+00  0.10958783324E+04  0.22335965458E+04  0.19462795816E+04 0.  0.
        5    1    3    3  502    0 -0.48480635940E+03 -0.60964793392E+03  0.12173797992E+04  0.14452485859E+04  0.46999998093E+01 0. -1.
       -5    1    3    3    0  502  0.48480635940E+03  0.60964793392E+03 -0.12150146677E+03  0.78834795990E+03  0.46999998093E+01 0.  1.
</event>
<event>
 5   0  0.2699285E-05  0.2105519E+04  0.7818609E-02  0.8558816E-01
       -1   -1    0    0    0  501  0.00000000000E+00  0.00000000000E+00  0.82816176450E+03  0.82816176452E+03  0.50400001928E-02 0. -1.
        1   -1    0    0  501    0  0.00000000000E+00  0.00000000000E+00 -0.13382684845E+04  0.13382684845E+04  0.50400001928E-02 0.  1.
    10030    2    1    2    0    0  0.00000000000E+00  0.00000000000E+00 -0.51010672003E+03  0.21664302491E+04  0.21055192135E+04 0.  0.
        2    1    3    3  502    0 -0.51508477767E+03  0.84083052788E+03 -0.63449601467E+03  0.11725585262E+04  0.25500000920E-02 0. -1.
       -2    1    3    3    0  502  0.51508477767E+03 -0.84083052788E+03  0.12438929464E+03  0.99387172283E+03  0.25500000920E-02 0.  1.
</event>
<event>
 5   0  0.5506332E-05  0.2033176E+04  0.7818609E-02  0.8591265E-01
       -2   -1    0    0    0  501  0.00000000000E+00  0.00000000000E+00  0.90701715993E+03  0.90701715994E+03  0.25500000920E-02 0. -1.
        2   -1    0    0  501    0  0.00000000000E+00  0.00000000000E+00 -0.11393952161E+04  0.11393952161E+04  0.25500000920E-02 0.  1.
    10030    2    1    2    0    0  0.00000000000E+00  0.00000000000E+00 -0.23237805619E+03  0.20464123761E+04  0.20331758537E+04 0.  0.
        3    1    3    3  502    0 -0.72885968266E+03 -0.37712164267E+03  0.48771196035E+03  0.95463089037E+03  0.10100000352E+00 0. -1.
       -3    1    3    3    0  502  0.72885968266E+03  0.37712164267E+03 -0.72009001655E+03  0.10917814857E+04  0.10100000352E+00 0.  1.
</event>
<event>
 5   0  0.5967046E-05  0.2103459E+04  0.7818609E-02  0.8559721E-01
       -2   -1    0    0    0  501  0.00000000000E+00  0.00000000000E+00  0.12481380972E+04  0.12481380972E+04  0.25500000920E-02 0. -1.
        2   -1    0    0  501    0  0.00000000000E+00  0.00000000000E+00 -0.88622826617E+03  0.88622826618E+03  0.25500000920E-02 0.  1.
    10030    2    1    2    0    0  0.00000000000E+00  0.00000000000E+00  0.36190983100E+03  0.21343663634E+04  0.21034593049E+04 0.  0.
        4    1    3    3  502    0 -0.14484563252E+03  0.28754590829E+03  0.11969011077E+04  0.12394501931E+04  0.12699999809E+01 0. -1.
       -4    1    3    3    0  502  0.14484563252E+03 -0.28754590829E+03 -0.83499127673E+03  0.89491617024E+03  0.12699999809E+01 0.  1.
</event>
<event>
 5   0  0.5506332E-05  0.2097928E+04  0.7818609E-02  0.8562156E-01
       -2   -1    0    0    0  501  0.00000000000E+00  0.00000000000E+00  0.83397066028E+03  0.83397066028E+03  0.25500000920E-02 0.  1.
        2   -1    0    0  501    0  0.00000000000E+00  0.00000000000E+00 -0.13193820797E+04  0.13193820797E+04  0.25500000920E-02 0. -1.
    10030    2    1    2    0    0  0.00000000000E+00  0.00000000000E+00 -0.48541141941E+03  0.21533527400E+04  0.20979284489E+04 0.  0.
        3    1    3    3  502    0 -0.79292061906E+03 -0.66387575023E+03 -0.62360097613E+02  0.10360226406E+04  0.10100000352E+00 0.  1.
       -3    1    3    3    0  502  0.79292061906E+03  0.66387575023E+03 -0.42305132180E+03  0.11173300994E+04  0.10100000352E+00 0. -1.
</event>
<event>
 5   0  0.2699285E-05  0.2094797E+04  0.7818609E-02  0.8563539E-01
       -1   -1    0    0    0  501  0.00000000000E+00  0.00000000000E+00  0.85144675679E+03  0.85144675680E+03  0.50400001928E-02 0.  1.
        1   -1    0    0  501    0  0.00000000000E+00  0.00000000000E+00 -0.12884466402E+04  0.12884466402E+04  0.50400001928E-02 0. -1.
    10030    2    1    2    0    0  0.00000000000E+00  0.00000000000E+00 -0.43699988345E+03  0.21398933971E+04  0.20947970910E+04 0.  0.
        2    1    3    3  502    0  0.16619842668E+03  0.10001901144E+04  0.49914193853E+02  0.10151323110E+04  0.25500000920E-02 0. -1.
       -2    1    3    3    0  502 -0.16619842668E+03 -0.10001901144E+04 -0.48691407730E+03  0.11247610861E+04  0.25500000920E-02 0.  1.
</event>
<event>
 5   0  0.5954140E-05  0.2081432E+04  0.7818609E-02  0.8569467E-01
        2   -1    0    0  501    0  0.00000000000E+00  0.00000000000E+00  0.26414804436E+04  0.26414804436E+04  0.25500000920E-02 0. -1.
       -2   -1    0    0    0  501  0.00000000000E+00  0.00000000000E+00 -0.41003149926E+03  0.41003149926E+03  0.25500000920E-02 0.  1.
    10030    2    1    2    0    0  0.00000000000E+00  0.00000000000E+00  0.22314489443E+04  0.30515119429E+04  0.20814323785E+04 0.  0.
        2    1    3    3  502    0 -0.89262738259E+03 -0.53415043484E+03  0.10695992323E+04  0.14920264237E+04  0.25500000920E-02 0.  1.
       -2    1    3    3    0  502  0.89262738259E+03  0.53415043484E+03  0.11618497121E+04  0.15594855192E+04  0.25500000920E-02 0. -1.
</event>
<event>
 5   0  0.2789662E-05  0.2081034E+04  0.7818609E-02  0.8569645E-01
       -1   -1    0    0    0  501  0.00000000000E+00  0.00000000000E+00  0.12334446502E+04  0.12334446502E+04  0.50400001928E-02 0. -1.
        1   -1    0    0  501    0  0.00000000000E+00  0.00000000000E+00 -0.87776549255E+03  0.87776549256E+03  0.50400001928E-02 0.  1.
    10030    2    1    2    0    0  0.00000000000E+00  0.00000000000E+00  0.35567915765E+03  0.21112101428E+04  0.20810335422E+04 0.  0.
        4    1    3    3  502    0  0.10223990094E+04 -0.18692793982E+03  0.22786741920E+03  0.10640333466E+04  0.12699999809E+01 0.  1.
       -4    1    3    3    0  502 -0.10223990094E+04  0.18692793982E+03  0.12781173845E+03  0.10471767962E+04  0.12699999809E+01 0. -1.
</event>
<event>
 5   0  0.2789662E-05  0.2066478E+04  0.7818609E-02  0.8576156E-01
        1   -1    0    0  501    0  0.00000000000E+00  0.00000000000E+00  0.23076327472E+04  0.23076327472E+04  0.50400001928E-02 0. -1.
       -1   -1    0    0    0  501  0.00000000000E+00  0.00000000000E+00 -0.46263109964E+03  0.46263109967E+03  0.50400001928E-02 0.  1.
    10030    2    1    2    0    0  0.00000000000E+00  0.00000000000E+00  0.18450016476E+04  0.27702638469E+04  0.20664778493E+04 0.  0.
        4    1    3    3  502    0 -0.22250976924E+02  0.47889798558E+02  0.23058215261E+04  0.23064264701E+04  0.12699999809E+01 0. -1.
       -4    1    3    3    0  502  0.22250976924E+02 -0.47889798558E+02 -0.46081987852E+03  0.46383737681E+03  0.12699999809E+01 0.  1.
</event>
<event>
 5   0  0.5967046E-05  0.2107447E+04  0.7818609E-02  0.8557970E-01
        2   -1    0    0  501    0  0.00000000000E+00  0.00000000000E+00  0.67564422320E+03  0.67564422321E+03  0.25500000920E-02 0.  1.
       -2   -1    0    0    0  501  0.00000000000E+00  0.00000000000E+00 -0.16433699092E+04  0.16433699092E+04  0.25500000920E-02 0. -1.
    10030    2    1    2    0    0  0.00000000000E+00  0.00000000000E+00 -0.96772568604E+03  0.23190141325E+04  0.21074471626E+04 0.  0.
        4    1    3    3  502    0  0.33198555220E+03  0.26553080793E+03  0.57709290594E+03  0.71676973417E+03  0.12699999809E+01 0.  1.
       -4    1    3    3    0  502 -0.33198555220E+03 -0.26553080793E+03 -0.15448185920E+04  0.16022443983E+04  0.12699999809E+01 0. -1.
</event>
<event>
 5   0  0.2604390E-05  0.2122753E+04  0.7818609E-02  0.8551286E-01
        1   -1    0    0  501    0  0.00000000000E+00  0.00000000000E+00  0.18845298232E+04  0.18845298232E+04  0.50400001928E-02 0. -1.
       -1   -1    0    0    0  501  0.00000000000E+00  0.00000000000E+00 -0.59777270023E+03  0.59777270025E+03  0.50400001928E-02 0.  1.
    10030    2    1    2    0    0  0.00000000000E+00  0.00000000000E+00  0.12867571229E+04  0.24823025234E+04  0.21227533828E+04 0.  0.
        5    1    3    3  502    0 -0.16112623139E+03  0.10198768772E+04  0.35601607494E+03  0.10921904792E+04  0.46999998093E+01 0.  1.
       -5    1    3    3    0  502  0.16112623139E+03 -0.10198768772E+04  0.93074104799E+03  0.13901120443E+04  0.46999998093E+01 0. -1.
</event>
<event>
 5   0  0.2699285E-05  0.2134678E+04  0.7818609E-02  0.8546119E-01
       -1   -1    0    0    0  501  0.00000000000E+00  0.00000000000E+00  0.62446935951E+03  0.62446935953E+03  0.50400001928E-02 0. -1.
        1   -1    0    0  501    0  0.00000000000E+00  0.00000000000E+00 -0.18242887365E+04  0.18242887365E+04  0.50400001928E-02 0.  1.
    10030    2    1    2    0    0  0.00000000000E+00  0.00000000000E+00 -0.11998193770E+04  0.24487580961E+04  0.21346778857E+04 0.  0.
        2    1    3    3  502    0 -0.92717705844E+03  0.16252345907E+02 -0.12061460630E+04  0.15214170243E+04  0.25500000920E-02 0.  1.
       -2    1    3    3    0  502  0.92717705844E+03 -0.16252345907E+02  0.63266860031E+01  0.92734107178E+03  0.25500000920E-02 0. -1.
</event>
<event>
 5   0  0.5506332E-05  0.2047469E+04  0.7818609E-02  0.8584743E-01
       -2   -1    0    0    0  501  0.00000000000E+00  0.00000000000E+00  0.60212987257E+03  0.60212987257E+03  0.25500000920E-02 0. -1.
        2   -1    0    0  501    0  0.00000000000E+00  0.00000000000E+00 -0.17405421135E+04  0.17405421135E+04  0.25500000920E-02 0.  1.
    10030    2    1    2    0    0  0.00000000000E+00  0.00000000000E+00 -0.11384122409E+04  0.23426719861E+04  0.20474690728E+04 0.  0.
        3    1    3    3  502    0 -0.59175481282E+03 -0.47575631958E+01 -0.15250144660E+04  0.16358073006E+04  0.10100000352E+00 0.  1.
       -3    1    3    3    0  502  0.59175481282E+03  0.47575631958E+01  0.38660222510E+03  0.70686468547E+03  0.10100000352E+00 0. -1.
</event>
<event>
 5   0  0.5506332E-05  0.1991968E+04  0.7818609E-02  0.8610385E-01
        2   -1    0    0  501    0  0.00000000000E+00  0.00000000000E+00  0.24333413352E+04  0.24333413352E+04  0.25500000920E-02 0.  1.
       -2   -1    0    0    0  501  0.00000000000E+00  0.00000000000E+00 -0.40766340013E+03  0.40766340013E+03  0.25500000920E-02 0. -1.
    10030    2    1    2    0    0  0.00000000000E+00  0.00000000000E+00  0.20256779350E+04  0.28410047353E+04  0.19919680744E+04 0.  0.
        3    1    3    3  502    0  0.19232108008E+03 -0.75395369650E+03  0.18995717607E+04  0.20527558205E+04  0.10100000352E+00 0.  1.
       -3    1    3    3    0  502 -0.19232108008E+03  0.75395369650E+03  0.12610617435E+03  0.78824891482E+03  0.10100000352E+00 0. -1.
</event>
<event>
 5   0  0.5967046E-05  0.2096343E+04  0.7818609E-02  0.8562856E-01
        2   -1    0    0  501    0  0.00000000000E+00  0.00000000000E+00  0.71716566844E+03  0.71716566844E+03  0.25500000920E-02 0. -1.
       -2   -1    0    0    0  501  0.00000000000E+00  0.00000000000E+00 -0.15319520758E+04  0.15319520758E+04  0.25500000920E-02 0.  1.
    10030    2    1    2    0    0  0.00000000000E+00  0.00000000000E+00 -0.81478640735E+03  0.22491177442E+04  0.20963429438E+04 0.  0.
        4    1    3    3  502    0  0.18628983209E+03  0.84623714573E+03 -0.10401546425E+04  0.13537889428E+04  0.12699999809E+01 0.  1.
       -4    1    3    3    0  502 -0.18628983209E+03 -0.84623714573E+03  0.22536823518E+03  0.89532880144E+03  0.12699999809E+01 0. -1.
</event>
<event>
 5   0  0.2602060E-05  0.2101099E+04  0.7818609E-02  0.8560759E-01
       -1   -1    0    0    0  501  0.00000000000E+00  0.00000000000E+00  0.83278253229E+03  0.83278253231E+03  0.50400001928E-02 0.  1.
        1   -1    0    0  501    0  0.00000000000E+00  0.00000000000E+00 -0.13252612951E+04  0.13252612952E+04  0.50400001928E-02 0. -1.
    10030    2    1    2    0    0  0.00000000000E+00  0.00000000000E+00 -0.49247876285E+03  0.21580438275E+04  0.21010991955E+04 0.  0.
        1    1    3    3  502    0  0.86085947016E+03 -0.44460491811E+03  0.17084749929E+03  0.98384014383E+03  0.50400001928E-02 0.  1.
       -1    1    3    3    0  502 -0.86085947016E+03  0.44460491811E+03 -0.66332626214E+03  0.11742036836E+04  0.50400001928E-02 0. -1.
</event>
<event>
 5   0  0.5967046E-05  0.2087935E+04  0.7818609E-02  0.8566577E-01
       -2   -1    0    0    0  501  0.00000000000E+00  0.00000000000E+00  0.84701101693E+03  0.84701101694E+03  0.25500000920E-02 0.  1.
        2   -1    0    0  501    0  0.00000000000E+00  0.00000000000E+00 -0.12867220528E+04  0.12867220528E+04  0.25500000920E-02 0. -1.
    10030    2    1    2    0    0  0.00000000000E+00  0.00000000000E+00 -0.43971103589E+03  0.21337330698E+04  0.20879346297E+04 0.  0.
        4    1    3    3  502    0 -0.78894080468E+03 -0.21770977040E+03 -0.88217729499E+03  0.12033551139E+04  0.12699999809E+01 0. -1.
       -4    1    3    3    0  502  0.78894080468E+03  0.21770977040E+03  0.44246625911E+03  0.93037795587E+03  0.12699999809E+01 0.  1.
</event>
<event>
 5   0  0.2732159E-05  0.2095135E+04  0.7818609E-02  0.8563390E-01
        1   -1    0    0  501    0  0.00000000000E+00  0.00000000000E+00  0.14544359430E+04  0.14544359430E+04  0.50400001928E-02 0.  1.
       -1   -1    0    0    0  501  0.00000000000E+00  0.00000000000E+00 -0.75451764323E+03  0.75451764325E+03  0.50400001928E-02 0. -1.
    10030    2    1    2    0    0  0.00000000000E+00  0.00000000000E+00  0.69991829979E+03  0.22089535863E+04  0.20951349169E+04 0.  0.
        3    1    3    3  502    0 -0.62937867456E+03  0.61114096124E+03 -0.25367015063E+03  0.91321374608E+03  0.10100000352E+00 0. -1.
       -3    1    3    3    0  502  0.62937867456E+03 -0.61114096124E+03  0.95358845042E+03  0.12957398402E+04  0.10100000352E+00 0.  1.
</event>
<event>
 5   0  0.5506332E-05  0.2107596E+04  0.7818609E-02  0.8557905E-01
       -2   -1    0    0    0  501  0.00000000000E+00  0.00000000000E+00  0.64917385589E+03  0.64917385589E+03  0.25500000920E-02 0. -1.
        2   -1    0    0  501    0  0.00000000000E+00  0.00000000000E+00 -0.17106203111E+04  0.17106203111E+04  0.25500000920E-02 0.  1.
    10030    2    1    2    0    0  0.00000000000E+00  0.00000000000E+00 -0.10614464552E+04  0.23597941670E+04  0.21075957708E+04 0.  0.
        3    1    3    3  502    0 -0.57797519873E+03  0.27517764209E+03  0.40652915665E+03  0.75831657668E+03  0.10100000352E+00 0. -1.
       -3    1    3    3    0  502  0.57797519873E+03 -0.27517764209E+03 -0.14679756119E+04  0.16014775903E+04  0.10100000352E+00 0.  1.
</event>
<event>
 5   0  0.5506332E-05  0.2102509E+04  0.7818609E-02  0.8560139E-01
        2   -1    0    0  501    0  0.00000000000E+00  0.00000000000E+00  0.12056090882E+04  0.12056090882E+04  0.25500000920E-02 0.  1.
       -2   -1    0    0    0  501  0.00000000000E+00  0.00000000000E+00 -0.91666231958E+03  0.91666231958E+03  0.25500000920E-02 0. -1.
    10030    2    1    2    0    0  0.00000000000E+00  0.00000000000E+00  0.28894676864E+03  0.21222714078E+04  0.21025093801E+04 0.  0.
        3    1    3    3  502    0  0.31966183602E+03  0.67163994259E+03 -0.60537678290E+03  0.95904377448E+03  0.10100000352E+00 0. -1.
       -3    1    3    3    0  502 -0.31966183602E+03 -0.67163994259E+03  0.89432355153E+03  0.11632276333E+04  0.10100000352E+00 0.  1.
</event>
<event>
 5   0  0.2602060E-05  0.2241502E+04  0.7818609E-02  0.8501350E-01
       -1   -1    0    0    0  501  0.00000000000E+00  0.00000000000E+00  0.12036041004E+04  0.12036041004E+04  0.50400001928E-02 0.  1.
        1   -1    0    0  501    0  0.00000000000E+00  0.00000000000E+00 -0.10436010706E+04  0.10436010706E+04  0.50400001928E-02 0. -1.
    10030    2    1    2    0    0  0.00000000000E+00  0.00000000000E+00  0.16000302975E+03  0.22472051710E+04  0.22415017536E+04 0.  0.
        1    1    3    3  502    0 -0.63176529418E+03  0.53757701577E+03 -0.67555133381E+03  0.10698065430E+04  0.50400001928E-02 0. -1.
       -1    1    3    3    0  502  0.63176529418E+03 -0.53757701577E+03  0.83555436356E+03  0.11773986280E+04  0.50400001928E-02 0.  1.
</event>
<event>
 5   0  0.2602060E-05  0.2107413E+04  0.7818609E-02  0.8557985E-01
        1   -1    0    0  501    0  0.00000000000E+00  0.00000000000E+00  0.73334362899E+03  0.73334362901E+03  0.50400001928E-02 0. -1.
       -1   -1    0    0    0  501  0.00000000000E+00  0.00000000000E+00 -0.15140212161E+04  0.15140212161E+04  0.50400001928E-02 0.  1.
    10030    2    1    2    0    0  0.00000000000E+00  0.00000000000E+00 -0.78067758709E+03  0.22473648451E+04  0.21074134032E+04 0.  0.
        1    1    3    3  502    0  0.40967631353E+03  0.78502928264E+03 -0.99939952840E+03  0.13352546850E+04  0.50400001928E-02 0.  1.
       -1    1    3    3    0  502 -0.40967631353E+03 -0.78502928264E+03  0.21872194131E+03  0.91211016007E+03  0.50400001928E-02 0. -1.
</event>
<event>
 5   0  0.5462851E-05  0.2059206E+04  0.7818609E-02  0.8579430E-01
        2   -1    0    0  501    0  0.00000000000E+00  0.00000000000E+00  0.23312632144E+04  0.23312632144E+04  0.25500000920E-02 0. -1.
       -2   -1    0    0    0  501  0.00000000000E+00  0.00000000000E+00 -0.45472423091E+03  0.45472423092E+03  0.25500000920E-02 0.  1.
    10030    2    1    2    0    0  0.00000000000E+00  0.00000000000E+00  0.18765389835E+04  0.27859874453E+04  0.20592055480E+04 0.  0.
        1    1    3    3  502    0 -0.37595309337E+02  0.10271113538E+04  0.85585392580E+03  0.13374816195E+04  0.50400001928E-02 0. -1.
       -1    1    3    3    0  502  0.37595309337E+02 -0.10271113538E+04  0.10206850577E+04  0.14485058258E+04  0.50400001928E-02 0.  1.
</event>
<event>
 5   0  0.2789662E-05  0.2091101E+04  0.7818609E-02  0.8565174E-01
       -1   -1    0    0    0  501  0.00000000000E+00  0.00000000000E+00  0.11378732828E+04  0.11378732828E+04  0.50400001928E-02 0. -1.
        1   -1    0    0  501    0  0.00000000000E+00  0.00000000000E+00 -0.96071808547E+03  0.96071808548E+03  0.50400001928E-02 0.  1.
    10030    2    1    2    0    0  0.00000000000E+00  0.00000000000E+00  0.17715519730E+03  0.20985913683E+04  0.20911006114E+04 0.  0.
        4    1    3    3  502    0  0.45873352793E+03  0.70990269225E+03  0.70622969545E+03  0.11014355532E+04  0.12699999809E+01 0. -1.
       -4    1    3    3    0  502 -0.45873352793E+03 -0.70990269225E+03 -0.52907449815E+03  0.99715581511E+03  0.12699999809E+01 0.  1.
</event>
<event>
 5   0  0.5866610E-05  0.2073941E+04  0.7818609E-02  0.8572810E-01
        2   -1    0    0  501    0  0.00000000000E+00  0.00000000000E+00  0.11736175300E+04  0.11736175300E+04  0.25500000920E-02 0.  1.
       -2   -1    0    0    0  501  0.00000000000E+00  0.00000000000E+00 -0.91623361153E+03  0.91623361153E+03  0.25500000920E-02 0. -1.
    10030    2    1    2    0    0  0.00000000000E+00  0.00000000000E+00  0.25738391852E+03  0.20898511416E+04  0.20739410099E+04 0.  0.
        5    1    3    3  502    0  0.10362883192E+04 -0.27632576209E+02  0.15395817137E+03  0.10480373315E+04  0.46999998093E+01 0.  1.
       -5    1    3    3    0  502 -0.10362883192E+04  0.27632576209E+02  0.10342574715E+03  0.10418138101E+04  0.46999998093E+01 0. -1.
</event>
<event>
 5   0  0.2699285E-05  0.2084668E+04  0.7818609E-02  0.8568028E-01
        1   -1    0    0  501    0  0.00000000000E+00  0.00000000000E+00  0.13331736065E+04  0.13331736065E+04  0.50400001928E-02 0.  1.
       -1   -1    0    0    0  501  0.00000000000E+00  0.00000000000E+00 -0.81494256494E+03  0.81494256495E+03  0.50400001928E-02 0. -1.
    10030    2    1    2    0    0  0.00000000000E+00  0.00000000000E+00  0.51823104152E+03  0.21481161714E+04  0.20846677609E+04 0.  0.
        2    1    3    3  502    0 -0.22963921523E+03 -0.53239978185E+02  0.13053459374E+04  0.13264602070E+04  0.25500000920E-02 0.  1.
       -2    1    3    3    0  502  0.22963921523E+03  0.53239978185E+02 -0.78711489591E+03  0.82165596439E+03  0.25500000920E-02 0. -1.
</event>
<event>
 5   0  0.2604390E-05  0.2090391E+04  0.7818609E-02  0.8565488E-01
       -1   -1    0    0    0  501  0.00000000000E+00  0.00000000000E+00  0.15379585707E+04  0.15379585707E+04  0.50400001928E-02 0.  1.
        1   -1    0    0  501    0  0.00000000000E+00  0.00000000000E+00 -0.71031421992E+03  0.71031421994E+03  0.50400001928E-02 0. -1.
    10030    2    1    2    0    0  0.00000000000E+00  0.00000000000E+00  0.82764435082E+03  0.22482727907E+04  0.20903912002E+04 0.  0.
        5    1    3    3  502    0  0.25814871407E+03  0.36095101822E+03 -0.60395024973E+03  0.74946940583E+03  0.46999998093E+01 0. -1.
       -5    1    3    3    0  502 -0.25814871407E+03 -0.36095101822E+03  0.14315946005E+04  0.14988033849E+04  0.46999998093E+01 0.  1.
</event>
<event>
 5   0  0.2732159E-05  0.2100450E+04  0.7818609E-02  0.8561045E-01
       -1   -1    0    0    0  501  0.00000000000E+00  0.00000000000E+00  0.78244751453E+03  0.78244751454E+03  0.50400001928E-02 0.  1.
        1   -1    0    0  501    0  0.00000000000E+00  0.00000000000E+00 -0.14096438266E+04  0.14096438266E+04  0.50400001928E-02 0. -1.
    10030    2    1    2    0    0  0.00000000000E+00  0.00000000000E+00 -0.62719631208E+03  0.21920913412E+04  0.21004497695E+04 0.  0.
        3    1    3    3  502    0 -0.60240408500E+02 -0.57073257579E+03 -0.12315221949E+04  0.13586800605E+04  0.10100000352E+00 0. -1.
       -3    1    3    3    0  502  0.60240408500E+02  0.57073257579E+03  0.60432588286E+03  0.83341128069E+03  0.10100000352E+00 0.  1.
</event>
<event>
 5   0  0.5866610E-05  0.2097231E+04  0.7818609E-02  0.8562464E-01
       -2   -1    0    0    0  501  0.00000000000E+00  0.00000000000E+00  0.67936639795E+03  0.67936639796E+03  0.25500000920E-02 0. -1.
        2   -1    0    0  501    0  0.00000000000E+00  0.00000000000E+00 -0.16185592036E+04  0.16185592036E+04  0.25500000920E-02 0.  1.
    10030    2    1    2    0    0  0.00000000000E+00  0.00000000000E+00 -0.93919280563E+03  0.22979256015E+04  0.20972312567E+04 0.  0.
        5    1    3    3  502    0 -0.29450485136E+03 -0.35146003471E+03  0.56368245717E+03  0.72664796566E+03  0.46999998093E+01 0. -1.
       -5    1    3    3    0  502  0.29450485136E+03  0.35146003471E+03 -0.15028752628E+04  0.15712776359E+04  0.46999998093E+01 0.  1.
</event>
<event>
 5   0  0.2699285E-05  0.2105133E+04  0.7818609E-02  0.8558986E-01
       -1   -1    0    0    0  501  0.00000000000E+00  0.00000000000E+00  0.22166270962E+04  0.22166270962E+04  0.50400001928E-02 0.  1.
        1   -1    0    0  501    0  0.00000000000E+00  0.00000000000E+00 -0.49981162428E+03  0.49981162430E+03  0.50400001928E-02 0. -1.
    10030    2    1    2    0    0  0.00000000000E+00  0.00000000000E+00  0.17168154719E+04  0.27164387205E+04  0.21051327648E+04 0.  0.
        2    1    3    3  502    0  0.25730690335E+03  0.45415774750E+03  0.20378465764E+04  0.21036360833E+04  0.25500000920E-02 0.  1.
       -2    1    3    3    0  502 -0.25730690335E+03 -0.45415774750E+03 -0.32103110445E+03  0.61280263720E+03  0.25500000920E-02 0. -1.
</event>
<event>
 5   0  0.2732159E-05  0.2074751E+04  0.7818609E-02  0.8572448E-01
       -1   -1    0    0    0  501  0.00000000000E+00  0.00000000000E+00  0.14631275836E+04  0.14631275836E+04  0.50400001928E-02 0.  1.
        1   -1    0    0  501    0  0.00000000000E+00  0.00000000000E+00 -0.73551235602E+03  0.73551235604E+03  0.50400001928E-02 0. -1.
    10030    2    1    2    0    0  0.00000000000E+00  0.00000000000E+00  0.72761522761E+03  0.21986399397E+04  0.20747514706E+04 0.  0.
        3    1    3    3  502    0 -0.91273970307E+03 -0.32064726599E+03 -0.33040151353E+02  0.96798765310E+03  0.10100000352E+00 0. -1.
       -3    1    3    3    0  502  0.91273970307E+03  0.32064726599E+03  0.76065537896E+03  0.12306522866E+04  0.10100000352E+00 0.  1.
</event>
<event>
 5   0  0.5506332E-05  0.2110648E+04  0.7818609E-02  0.8556567E-01
        2   -1    0    0  501    0  0.00000000000E+00  0.00000000000E+00  0.11265619884E+04  0.11265619884E+04  0.25500000920E-02 0. -1.
       -2   -1    0    0    0  501  0.00000000000E+00  0.00000000000E+00 -0.98859118523E+03  0.98859118523E+03  0.25500000920E-02 0.  1.
    10030    2    1    2    0    0  0.00000000000E+00  0.00000000000E+00  0.13797080313E+03  0.21151531736E+04  0.21106484798E+04 0.  0.
        3    1    3    3  502    0 -0.21680227055E+03  0.76046631416E+03 -0.63136020490E+03  0.10118932543E+04  0.10100000352E+00 0.  1.
       -3    1    3    3    0  502  0.21680227055E+03 -0.76046631416E+03  0.76933100803E+03  0.11032599193E+04  0.10100000352E+00 0. -1.
</event>
<event>
 5   0  0.5866610E-05  0.2067058E+04  0.7818609E-02  0.8575895E-01
       -2   -1    0    0    0  501  0.00000000000E+00  0.00000000000E+00  0.10716296822E+04  0.10716296822E+04  0.25500000920E-02 0.  1.
        2   -1    0    0  501    0  0.00000000000E+00  0.00000000000E+00 -0.99678269529E+03  0.99678269530E+03  0.25500000920E-02 0. -1.
    10030    2    1    2    0    0  0.00000000000E+00  0.00000000000E+00  0.74846986903E+02  0.20684123775E+04  0.20670577379E+04 0.  0.
        5    1    3    3  502    0 -0.30778134200E+03  0.98146079267E+03  0.13831213885E+03  0.10378569168E+04  0.46999998093E+01 0. -1.
       -5    1    3    3    0  502  0.30778134200E+03 -0.98146079267E+03 -0.63465151949E+02  0.10305554607E+04  0.46999998093E+01 0.  1.
</event>
<event>
 5   0  0.5462851E-05  0.2103063E+04  0.7818609E-02  0.8559896E-01
       -2   -1    0    0    0  501  0.00000000000E+00  0.00000000000E+00  0.56320032067E+03  0.56320032068E+03  0.25500000920E-02 0.  1.
        2   -1    0    0  501    0  0.00000000000E+00  0.00000000000E+00 -0.19632765949E+04  0.19632765949E+04  0.25500000920E-02 0. -1.
    10030    2    1    2    0    0  0.00000000000E+00  0.00000000000E+00 -0.14000762742E+04  0.25264769156E+04  0.21030625362E+04 0.  0.
        1    1    3    3  502    0  0.77787383287E+03 -0.59517677342E+03 -0.24038932153E+03  0.10085187739E+04  0.50400001928E-02 0.  1.
       -1    1    3    3    0  502 -0.77787383287E+03  0.59517677342E+03 -0.11596869527E+04  0.15179581416E+04  0.50400001928E-02 0. -1.
</event>
<event>
 5   0  0.2789662E-05  0.2093948E+04  0.7818609E-02  0.8563914E-01
        1   -1    0    0  501    0  0.00000000000E+00  0.00000000000E+00  0.12861774061E+04  0.12861774062E+04  0.50400001928E-02 0. -1.
       -1   -1    0    0    0  501  0.00000000000E+00  0.00000000000E+00 -0.85225799452E+03  0.85225799453E+03  0.50400001928E-02 0.  1.
    10030    2    1    2    0    0  0.00000000000E+00  0.00000000000E+00  0.43391941163E+03  0.21384354007E+04  0.20939484013E+04 0.  0.
        4    1    3    3  502    0  0.97657431787E+03 -0.30529822961E+03  0.44359559096E+03  0.11152053930E+04  0.12699999809E+01 0. -1.
       -4    1    3    3    0  502 -0.97657431787E+03  0.30529822961E+03 -0.96761793248E+01  0.10232300077E+04  0.12699999809E+01 0.  1.
</event>
<event>
 5   0  0.2604390E-05  0.2159359E+04  0.7818609E-02  0.8535537E-01
        1   -1    0    0  501    0  0.00000000000E+00  0.00000000000E+00  0.12807686134E+04  0.12807686134E+04  0.50400001928E-02 0.  1.
       -1   -1    0    0    0  501  0.00000000000E+00  0.00000000000E+00 -0.91016301863E+03  0.91016301864E+03  0.50400001928E-02 0. -1.
    10030    2    1    2    0    0  0.00000000000E+00  0.00000000000E+00  0.37060559474E+03  0.21909316320E+04  0.21593593748E+04 0.  0.
        5    1    3    3  502    0 -0.59574233523E+03  0.43089281319E+03 -0.61689530974E+03  0.95977052446E+03  0.46999998093E+01 0. -1.
       -5    1    3    3    0  502  0.59574233523E+03 -0.43089281319E+03  0.98750090448E+03  0.12311611076E+04  0.46999998093E+01 0.  1.
</event>
<event>
 5   0  0.2732159E-05  0.2109400E+04  0.7818609E-02  0.8557114E-01
        1   -1    0    0  501    0  0.00000000000E+00  0.00000000000E+00  0.14077249536E+04  0.14077249536E+04  0.50400001928E-02 0. -1.
       -1   -1    0    0    0  501  0.00000000000E+00  0.00000000000E+00 -0.79020577949E+03  0.79020577951E+03  0.50400001928E-02 0.  1.
    10030    2    1    2    0    0  0.00000000000E+00  0.00000000000E+00  0.61751917415E+03  0.21979307332E+04  0.21094002885E+04 0.  0.
        3    1    3    3  502    0  0.72572183461E+03 -0.76450336752E+03  0.34566949279E+03  0.11093353815E+04  0.10100000352E+00 0.  1.
       -3    1    3    3    0  502 -0.72572183461E+03  0.76450336752E+03  0.27184968136E+03  0.10885953517E+04  0.10100000352E+00 0. -1.
</event>
<event>
 5   0  0.5954140E-05  0.2097659E+04  0.7818609E-02  0.8562275E-01
        2   -1    0    0  501    0  0.00000000000E+00  0.00000000000E+00  0.17010334868E+04  0.17010334868E+04  0.25500000920E-02 0.  1.
       -2   -1    0    0    0  501  0.00000000000E+00  0.00000000000E+00 -0.64669139269E+03  0.64669139270E+03  0.25500000920E-02 0. -1.
    10030    2    1    2    0    0  0.00000000000E+00  0.00000000000E+00  0.10543420941E+04  0.23477248795E+04  0.20976593762E+04 0.  0.
        2    1    3    3  502    0 -0.86018494647E+03  0.59646571723E+03  0.60102392947E+03  0.12070291039E+04  0.25500000920E-02 0. -1.
       -2    1    3    3    0  502  0.86018494647E+03 -0.59646571723E+03  0.45331816464E+03  0.11406957756E+04  0.25500000920E-02 0.  1.
</event>
<event>
 5   0  0.2732159E-05  0.2104301E+04  0.7818609E-02  0.8559351E-01
       -1   -1    0    0    0  501  0.00000000000E+00  0.00000000000E+00  0.95131501658E+03  0.95131501659E+03  0.50400001928E-02 0.  1.
        1   -1    0    0  501    0  0.00000000000E+00  0.00000000000E+00 -0.11636738878E+04  0.11636738878E+04  0.50400001928E-02 0. -1.
    10030    2    1    2    0    0  0.00000000000E+00  0.00000000000E+00 -0.21235887126E+03  0.21149889044E+04  0.21043007807E+04 0.  0.
        3    1    3    3  502    0 -0.52056894804E+03  0.73830165056E+03  0.43594789880E+03  0.10030612831E+04  0.10100000352E+00 0.  1.
       -3    1    3    3    0  502  0.52056894804E+03 -0.73830165056E+03 -0.64830677006E+03  0.11119276214E+04  0.10100000352E+00 0. -1.
</event>
<event>
 5   0  0.2699285E-05  0.2081631E+04  0.7818609E-02  0.8569378E-01
       -1   -1    0    0    0  501  0.00000000000E+00  0.00000000000E+00  0.16066095377E+04  0.16066095377E+04  0.50400001928E-02 0.  1.
        1   -1    0    0  501    0  0.00000000000E+00  0.00000000000E+00 -0.67427517846E+03  0.67427517848E+03  0.50400001928E-02 0. -1.
    10030    2    1    2    0    0  0.00000000000E+00  0.00000000000E+00  0.93233435922E+03  0.22808847162E+04  0.20816310266E+04 0.  0.
        2    1    3    3  502    0  0.30821002688E+03 -0.62604581171E+03  0.13123370023E+04  0.14863227061E+04  0.25500000920E-02 0.  1.
       -2    1    3    3    0  502 -0.30821002688E+03  0.62604581171E+03 -0.38000264312E+03  0.79456201005E+03  0.25500000920E-02 0. -1.
</event>
<event>
 5   0  0.2789662E-05  0.2138432E+04  0.7818609E-02  0.8544500E-01
        1   -1    0    0  501    0  0.00000000000E+00  0.00000000000E+00  0.83980623777E+03  0.83980623779E+03  0.50400001928E-02 0. -1.
       -1   -1    0    0    0  501  0.00000000000E+00  0.00000000000E+00 -0.13612938598E+04  0.13612938598E+04  0.50400001928E-02 0.  1.
    10030    2    1    2    0    0  0.00000000000E+00  0.00000000000E+00 -0.52148762203E+03  0.22011000976E+04  0.21384322060E+04 0.  0.
        4    1    3    3  502    0 -0.25268373373E+03  0.36327433667E+03  0.74112751641E+03  0.86318533436E+03  0.12699999809E+01 0. -1.
       -4    1    3    3    0  502  0.25268373373E+03 -0.36327433667E+03 -0.12626151384E+04  0.13379147632E+04  0.12699999809E+01 0.  1.
</event>
<event>
 5   0  0.5506332E-05  0.2088757E+04  0.7818609E-02  0.8566212E-01
        2   -1    0    0  501    0  0.00000000000E+00  0.00000000000E+00  0.18750076720E+04  0.18750076720E+04  0.25500000920E-02 0.  1.
       -2   -1    0    0    0  501  0.00000000000E+00  0.00000000000E+00 -0.58171865435E+03  0.58171865436E+03  0.25500000920E-02 0. -1.
    10030    2    1    2    0    0  0.00000000000E+00  0.00000000000E+00  0.12932890176E+04  0.24567263263E+04  0.20887574678E+04 0.  0.
        3    1    3    3  502    0 -0.57197012729E+03 -0.70913202871E+03  0.46097971883E+02  0.91221877522E+03  0.10100000352E+00 0. -1.
       -3    1    3    3    0  502  0.57197012729E+03  0.70913202871E+03  0.12471910458E+04  0.15445075511E+04  0.10100000352E+00 0.  1.
</event>
<event>
 5   0  0.5506332E-05  0.2097436E+04  0.7818609E-02  0.8562374E-01
        2   -1    0    0  501    0  0.00000000000E+00  0.00000000000E+00  0.57296022086E+03  0.57296022086E+03  0.25500000920E-02 0.  1.
       -2   -1    0    0    0  501  0.00000000000E+00  0.00000000000E+00 -0.19195210949E+04  0.19195210949E+04  0.25500000920E-02 0. -1.
    10030    2    1    2    0    0  0.00000000000E+00  0.00000000000E+00 -0.13465608741E+04  0.24924813158E+04  0.20974357969E+04 0.  0.
        3    1    3    3  502    0  0.26079423807E+03 -0.34780449548E+03 -0.18074065005E+04  0.18589512823E+04  0.10100000352E+00 0. -1.
       -3    1    3    3    0  502 -0.26079423807E+03  0.34780449548E+03  0.46084562646E+03  0.63353003347E+03  0.10100000352E+00 0.  1.
</event>
<event>
 5   0  0.2699285E-05  0.2107352E+04  0.7818609E-02  0.8558012E-01
        1   -1    0    0  501    0  0.00000000000E+00  0.00000000000E+00  0.85753391505E+03  0.85753391506E+03  0.50400001928E-02 0.  1.
       -1   -1    0    0    0  501  0.00000000000E+00  0.00000000000E+00 -0.12946809911E+04  0.12946809911E+04  0.50400001928E-02 0. -1.
    10030    2    1    2    0    0  0.00000000000E+00  0.00000000000E+00 -0.43714707602E+03  0.21522149061E+04  0.21073517590E+04 0.  0.
        2    1    3    3  502    0 -0.90674876163E+03  0.47861631834E+03  0.29425099861E+02  0.10257352160E+04  0.25500000920E-02 0. -1.
       -2    1    3    3    0  502  0.90674876163E+03 -0.47861631834E+03 -0.46657217588E+03  0.11264796901E+04  0.25500000920E-02 0.  1.
</event>
<event>
 5   0  0.2604390E-05  0.2108523E+04  0.7818609E-02  0.8557498E-01
        1   -1    0    0  501    0  0.00000000000E+00  0.00000000000E+00  0.10777208354E+04  0.10777208354E+04  0.50400001928E-02 0. -1.
       -1   -1    0    0    0  501  0.00000000000E+00  0.00000000000E+00 -0.10313124513E+04  0.10313124513E+04  0.50400001928E-02 0.  1.
    10030    2    1    2    0    0  0.00000000000E+00  0.00000000000E+00  0.46408384122E+02  0.21090332868E+04  0.21085226265E+04 0.  0.
        5    1    3    3  502    0 -0.87255975556E+03  0.13939684766E+02  0.61486244148E+03  0.10675358325E+04  0.46999998093E+01 0. -1.
       -5    1    3    3    0  502  0.87255975556E+03 -0.13939684766E+02 -0.56845405735E+03  0.10414974542E+04  0.46999998093E+01 0.  1.
</event>
<event>
 5   0  0.5866610E-05  0.2101799E+04  0.7818609E-02  0.8560451E-01
       -2   -1    0    0    0  501  0.00000000000E+00  0.00000000000E+00  0.42538021528E+03  0.42538021529E+03  0.25500000920E-02 0.  1.
        2   -1    0    0  501    0  0.00000000000E+00  0.00000000000E+00 -0.25962415141E+04  0.25962415141E+04  0.25500000920E-02 0. -1.
    10030    2    1    2    0    0  0.00000000000E+00  0.00000000000E+00 -0.21708612988E+04  0.30216217294E+04  0.21017990144E+04 0.  0.
        5    1    3    3  502    0 -0.14482429474E+03 -0.22207690242E+03  0.37649412629E+03  0.46050205653E+03  0.46999998093E+01 0.  1.
       -5    1    3    3    0  502  0.14482429474E+03  0.22207690242E+03 -0.25473554251E+04  0.25611196728E+04  0.46999998093E+01 0. -1.
</event>
<event>
 5   0  0.5462851E-05  0.2100579E+04  0.7818609E-02  0.8560988E-01
        2   -1    0    0  501    0  0.00000000000E+00  0.00000000000E+00  0.15255892775E+04  0.15255892775E+04  0.25500000920E-02 0. -1.
       -2   -1    0    0    0  501  0.00000000000E+00  0.00000000000E+00 -0.72307043168E+03  0.72307043169E+03  0.25500000920E-02 0.  1.
    10030    2    1    2    0    0  0.00000000000E+00  0.00000000000E+00  0.80251884585E+03  0.22486597092E+04  0.21005794415E+04 0.  0.
        1    1    3    3  502    0 -0.69181511700E+03  0.78622478007E+03  0.31594872109E+03  0.10938835200E+04  0.50400001928E-02 0. -1.
       -1    1    3    3    0  502  0.69181511700E+03 -0.78622478007E+03  0.48657012476E+03  0.11547761892E+04  0.50400001928E-02 0.  1.
</event>
<event>
 5   0  0.2017750E-05  0.2060338E+04  0.7818609E-02  0.8578919E-01
       -3   -1    0    0    0  501  0.00000000000E+00  0.00000000000E+00  0.19537704815E+04  0.19537704841E+04  0.10100000352E+00 0.  1.
        3   -1    0    0  501    0  0.00000000000E+00  0.00000000000E+00 -0.54317933689E+03  0.54317934628E+03  0.10100000352E+00 0. -1.
    10030    2    1    2    0    0  0.00000000000E+00  0.00000000000E+00  0.14105911446E+04  0.24969498303E+04  0.20603376127E+04 0.  0.
        1    1    3    3  502    0 -0.17165269422E+03 -0.52858253990E+03  0.17565094647E+04  0.18423326650E+04  0.50400001928E-02 0.  1.
       -1    1    3    3    0  502  0.17165269422E+03  0.52858253990E+03 -0.34591832015E+03  0.65461716534E+03  0.50400001928E-02 0. -1.
</event>
<event>
 5   0  0.2789662E-05  0.2106116E+04  0.7818609E-02  0.8558554E-01
        1   -1    0    0  501    0  0.00000000000E+00  0.00000000000E+00  0.11060193692E+04  0.11060193692E+04  0.50400001928E-02 0. -1.
       -1   -1    0    0    0  501  0.00000000000E+00  0.00000000000E+00 -0.10026329445E+04  0.10026329445E+04  0.50400001928E-02 0.  1.
    10030    2    1    2    0    0  0.00000000000E+00  0.00000000000E+00  0.10338642467E+03  0.21086523137E+04  0.21061162900E+04 0.  0.
        4    1    3    3  502    0 -0.74269807104E+03 -0.40795259016E+02 -0.69463389449E+03  0.10177340213E+04  0.12699999809E+01 0.  1.
       -4    1    3    3    0  502  0.74269807104E+03  0.40795259016E+02  0.79802031916E+03  0.10909182923E+04  0.12699999809E+01 0. -1.
</event>
<event>
 5   0  0.5967046E-05  0.2084963E+04  0.7818609E-02  0.8567896E-01
        2   -1    0    0  501    0  0.00000000000E+00  0.00000000000E+00  0.11048018965E+04  0.11048018965E+04  0.25500000920E-02 0. -1.
       -2   -1    0    0    0  501  0.00000000000E+00  0.00000000000E+00 -0.98367658668E+03  0.98367658668E+03  0.25500000920E-02 0.  1.
    10030    2    1    2    0    0  0.00000000000E+00  0.00000000000E+00  0.12112530982E+03  0.20884784832E+04  0.20849630774E+04 0.  0.
        4    1    3    3  502    0  0.64030021901E+03 -0.80079205554E+03 -0.12820629912E+03  0.10332912245E+04  0.12699999809E+01 0. -1.
       -4    1    3    3    0  502 -0.64030021901E+03  0.80079205554E+03  0.24933160894E+03  0.10551872586E+04  0.12699999809E+01 0.  1.
</event>
<event>
 5   0  0.5506332E-05  0.2075810E+04  0.7818609E-02  0.8571975E-01
       -2   -1    0    0    0  501  0.00000000000E+00  0.00000000000E+00  0.85095076626E+03  0.85095076626E+03  0.25500000920E-02 0. -1.
        2   -1    0    0  501    0  0.00000000000E+00  0.00000000000E+00 -0.12659326485E+04  0.12659326485E+04  0.25500000920E-02 0.  1.
    10030    2    1    2    0    0  0.00000000000E+00  0.00000000000E+00 -0.41498188228E+03  0.21168834148E+04  0.20758095841E+04 0.  0.
        3    1    3    3  502    0 -0.16643735312E+03  0.96130203456E+03  0.15369701013E+03  0.98763645907E+03  0.10100000352E+00 0.  1.
       -3    1    3    3    0  502  0.16643735312E+03 -0.96130203456E+03 -0.56867889240E+03  0.11292469557E+04  0.10100000352E+00 0. -1.
</event>
<event>
 5   0  0.5866610E-05  0.2091739E+04  0.7818609E-02  0.8564891E-01
       -2   -1    0    0    0  501  0.00000000000E+00  0.00000000000E+00  0.45350511204E+03  0.45350511205E+03  0.25500000920E-02 0.  1.
        2   -1    0    0  501    0  0.00000000000E+00  0.00000000000E+00 -0.24119751613E+04  0.24119751613E+04  0.25500000920E-02 0. -1.
    10030    2    1    2    0    0  0.00000000000E+00  0.00000000000E+00 -0.19584700492E+04  0.28654802733E+04  0.20917390523E+04 0.  0.
        5    1    3    3  502    0  0.96107490436E+03 -0.19570577016E+03 -0.14766726604E+04  0.17727238805E+04  0.46999998093E+01 0. -1.
       -5    1    3    3    0  502 -0.96107490436E+03  0.19570577016E+03 -0.48179738878E+03  0.10927563928E+04  0.46999998093E+01 0.  1.
</event>
<event>
 5   0  0.5866610E-05  0.2018963E+04  0.7818609E-02  0.8597806E-01
        2   -1    0    0  501    0  0.00000000000E+00  0.00000000000E+00  0.10495210790E+04  0.10495210790E+04  0.25500000920E-02 0.  1.
       -2   -1    0    0    0  501  0.00000000000E+00  0.00000000000E+00 -0.97096915701E+03  0.97096915701E+03  0.25500000920E-02 0. -1.
    10030    2    1    2    0    0  0.00000000000E+00  0.00000000000E+00  0.78551921987E+02  0.20204902360E+04  0.20189627013E+04 0.  0.
        5    1    3    3  502    0 -0.15785853777E+03  0.23374989938E+02 -0.95825540089E+03  0.97146343803E+03  0.46999998093E+01 0. -1.
       -5    1    3    3    0  502  0.15785853777E+03 -0.23374989938E+02  0.10368073229E+04  0.10490267980E+04  0.46999998093E+01 0.  1.
</event>
<event>
 5   0  0.5866610E-05  0.2151038E+04  0.7818609E-02  0.8539088E-01
       -2   -1    0    0    0  501  0.00000000000E+00  0.00000000000E+00  0.46254023061E+03  0.46254023062E+03  0.25500000920E-02 0. -1.
        2   -1    0    0  501    0  0.00000000000E+00  0.00000000000E+00 -0.25008449718E+04  0.25008449718E+04  0.25500000920E-02 0.  1.
    10030    2    1    2    0    0  0.00000000000E+00  0.00000000000E+00 -0.20383047412E+04  0.29633852025E+04  0.21510382702E+04 0.  0.
        5    1    3    3  502    0 -0.20736739672E+03 -0.91413313942E+03 -0.29267210380E+03  0.98199780251E+03  0.46999998093E+01 0. -1.
       -5    1    3    3    0  502  0.20736739672E+03  0.91413313942E+03 -0.17456326374E+04  0.19813873999E+04  0.46999998093E+01 0.  1.
</event>
<event>
 5   0  0.2604390E-05  0.2105894E+04  0.7818609E-02  0.8558651E-01
       -1   -1    0    0    0  501  0.00000000000E+00  0.00000000000E+00  0.15128095804E+04  0.15128095804E+04  0.50400001928E-02 0.  1.
        1   -1    0    0  501    0  0.00000000000E+00  0.00000000000E+00 -0.73287323415E+03  0.73287323416E+03  0.50400001928E-02 0. -1.
    10030    2    1    2    0    0  0.00000000000E+00  0.00000000000E+00  0.77993634625E+03  0.22456828146E+04  0.21058942517E+04 0.  0.
        5    1    3    3  502    0 -0.96751893579E+03  0.38197842195E+03  0.56413495341E+03  0.11833303603E+04  0.46999998093E+01 0.  1.
       -5    1    3    3    0  502  0.96751893579E+03 -0.38197842195E+03  0.21580139284E+03  0.10623524543E+04  0.46999998093E+01 0. -1.
</event>
<event>
 5   0  0.5462851E-05  0.2113560E+04  0.7818609E-02  0.8555294E-01
        2   -1    0    0  501    0  0.00000000000E+00  0.00000000000E+00  0.11755026743E+04  0.11755026743E+04  0.25500000920E-02 0.  1.
       -2   -1    0    0    0  501  0.00000000000E+00  0.00000000000E+00 -0.95004758197E+03  0.95004758198E+03  0.25500000920E-02 0. -1.
    10030    2    1    2    0    0  0.00000000000E+00  0.00000000000E+00  0.22545509233E+03  0.21255502563E+04  0.21135595315E+04 0.  0.
        1    1    3    3  502    0  0.69635712659E+03 -0.58944442628E+03 -0.42361364648E+03  0.10058859284E+04  0.50400001928E-02 0. -1.
       -1    1    3    3    0  502 -0.69635712659E+03  0.58944442628E+03  0.64906873881E+03  0.11196643279E+04  0.50400001928E-02 0.  1.
</event>
<event>
 5   0  0.2699285E-05  0.2092526E+04  0.7818609E-02  0.8564543E-01
        1   -1    0    0  501    0  0.00000000000E+00  0.00000000000E+00  0.13510189211E+04  0.13510189211E+04  0.50400001928E-02 0. -1.
       -1   -1    0    0    0  501  0.00000000000E+00  0.00000000000E+00 -0.81025251449E+03  0.81025251451E+03  0.50400001928E-02 0.  1.
    10030    2    1    2    0    0  0.00000000000E+00  0.00000000000E+00  0.54076640660E+03  0.21612714356E+04  0.20925262034E+04 0.  0.
        2    1    3    3  502    0 -0.53393941851E+03 -0.65142512363E+03 -0.37066855340E+03  0.92023973551E+03  0.25500000920E-02 0.  1.
       -2    1    3    3    0  502  0.53393941851E+03  0.65142512363E+03  0.91143496000E+03  0.12410317001E+04  0.25500000920E-02 0. -1.
</event>
<event>
 5   0  0.2789662E-05  0.2112618E+04  0.7818609E-02  0.8555705E-01
        1   -1    0    0  501    0  0.00000000000E+00  0.00000000000E+00  0.10330953145E+04  0.10330953145E+04  0.50400001928E-02 0. -1.
       -1   -1    0    0    0  501  0.00000000000E+00  0.00000000000E+00 -0.10800442545E+04  0.10800442545E+04  0.50400001928E-02 0.  1.
    10030    2    1    2    0    0  0.00000000000E+00  0.00000000000E+00 -0.46948940014E+02  0.21131395691E+04  0.21126179577E+04 0.  0.
        4    1    3    3  502    0 -0.47191889198E+03  0.51886081006E+03 -0.81351951318E+03  0.10741227081E+04  0.12699999809E+01 0.  1.
       -4    1    3    3    0  502  0.47191889198E+03 -0.51886081006E+03  0.76657057317E+03  0.10390168610E+04  0.12699999809E+01 0. -1.
</event>
<event>
 5   0  0.2732159E-05  0.2095679E+04  0.7818609E-02  0.8563149E-01
       -1   -1    0    0    0  501  0.00000000000E+00  0.00000000000E+00  0.11885283891E+04  0.11885283892E+04  0.50400001928E-02 0.  1.
        1   -1    0    0  501    0  0.00000000000E+00  0.00000000000E+00 -0.92380386617E+03  0.92380386619E+03  0.50400001928E-02 0. -1.
    10030    2    1    2    0    0  0.00000000000E+00  0.00000000000E+00  0.26472452297E+03  0.21123322553E+04  0.20956785259E+04 0.  0.
        3    1    3    3  502    0  0.27378232075E+03  0.39642836886E+03  0.10702700170E+04  0.11737078556E+04  0.10100000352E+00 0.  1.
       -3    1    3    3    0  502 -0.27378232075E+03 -0.39642836886E+03 -0.80554549399E+03  0.93862439979E+03  0.10100000352E+00 0. -1.
</event>
<event>
 5   0  0.5462851E-05  0.2097834E+04  0.7818609E-02  0.8562198E-01
        2   -1    0    0  501    0  0.00000000000E+00  0.00000000000E+00  0.11105122511E+04  0.11105122511E+04  0.25500000920E-02 0. -1.
       -2   -1    0    0    0  501  0.00000000000E+00  0.00000000000E+00 -0.99073851374E+03  0.99073851374E+03  0.25500000920E-02 0.  1.
    10030    2    1    2    0    0  0.00000000000E+00  0.00000000000E+00  0.11977373736E+03  0.21012507648E+04  0.20978343663E+04 0.  0.
        1    1    3    3  502    0  0.73670497677E+03  0.50394962161E+03 -0.49194392971E+03  0.10191703851E+04  0.50400001928E-02 0.  1.
       -1    1    3    3    0  502 -0.73670497677E+03 -0.50394962161E+03  0.61171766708E+03  0.10820803797E+04  0.50400001928E-02 0. -1.
</event>
<event>
 5   0  0.2789662E-05  0.2096026E+04  0.7818609E-02  0.8562996E-01
       -1   -1    0    0    0  501  0.00000000000E+00  0.00000000000E+00  0.81263576612E+03  0.81263576613E+03  0.50400001928E-02 0. -1.
        1   -1    0    0  501    0  0.00000000000E+00  0.00000000000E+00 -0.13515661265E+04  0.13515661265E+04  0.50400001928E-02 0.  1.
    10030    2    1    2    0    0  0.00000000000E+00  0.00000000000E+00 -0.53893036042E+03  0.21642018927E+04  0.20960257391E+04 0.  0.
        4    1    3    3  502    0 -0.24408066798E+02 -0.60973224201E+03 -0.11492117197E+04  0.13011757569E+04  0.12699999809E+01 0.  1.
       -4    1    3    3    0  502  0.24408066798E+02  0.60973224201E+03  0.61028135929E+03  0.86302613580E+03  0.12699999809E+01 0. -1.
</event>
<event>
 5   0  0.2789662E-05  0.2104995E+04  0.7818609E-02  0.8559046E-01
        1   -1    0    0  501    0  0.00000000000E+00  0.00000000000E+00  0.92869282118E+03  0.92869282119E+03  0.50400001928E-02 0. -1.
       -1   -1    0    0    0  501  0.00000000000E+00  0.00000000000E+00 -0.11928062696E+04  0.11928062696E+04  0.50400001928E-02 0.  1.
    10030    2    1    2    0    0  0.00000000000E+00  0.00000000000E+00 -0.26411344846E+03  0.21214990908E+04  0.21049946505E+04 0.  0.
        4    1    3    3  502    0  0.46478580347E+03  0.76413298735E+03 -0.69122567838E+03  0.11303626041E+04  0.12699999809E+01 0.  1.
       -4    1    3    3    0  502 -0.46478580347E+03 -0.76413298735E+03  0.42711222992E+03  0.99113648672E+03  0.12699999809E+01 0. -1.
</event>
<event>
 5   0  0.2604390E-05  0.2099242E+04  0.7818609E-02  0.8561577E-01
       -1   -1    0    0    0  501  0.00000000000E+00  0.00000000000E+00  0.12427140048E+04  0.12427140048E+04  0.50400001928E-02 0.  1.
        1   -1    0    0  501    0  0.00000000000E+00  0.00000000000E+00 -0.88653080082E+03  0.88653080084E+03  0.50400001928E-02 0. -1.
    10030    2    1    2    0    0  0.00000000000E+00  0.00000000000E+00  0.35618320401E+03  0.21292448057E+04  0.20992419984E+04 0.  0.
        5    1    3    3  502    0 -0.28944372035E+03 -0.71333937242E+03 -0.54558397905E+03  0.94356488685E+03  0.46999998093E+01 0. -1.
       -5    1    3    3    0  502  0.28944372035E+03  0.71333937242E+03  0.90176718306E+03  0.11856799188E+04  0.46999998093E+01 0.  1.
</event>
<event>
 5   0  0.5954140E-05  0.2096117E+04  0.7818609E-02  0.8562956E-01
        2   -1    0    0  501    0  0.00000000000E+00  0.00000000000E+00  0.11943086616E+04  0.11943086616E+04  0.25500000920E-02 0. -1.
       -2   -1    0    0    0  501  0.00000000000E+00  0.00000000000E+00 -0.91971754778E+03  0.91971754778E+03  0.25500000920E-02 0.  1.
    10030    2    1    2    0    0  0.00000000000E+00  0.00000000000E+00  0.27459111379E+03  0.21140262094E+04  0.20961170135E+04 0.  0.
        2    1    3    3  502    0  0.38202084181E+03 -0.36453212532E+03 -0.77575878173E+03  0.93841636889E+03  0.25500000920E-02 0.  1.
       -2    1    3    3    0  502 -0.38202084181E+03  0.36453212532E+03  0.10503498955E+04  0.11756098405E+04  0.25500000920E-02 0. -1.
</event>
<event>
 5   0  0.5967046E-05  0.2097521E+04  0.7818609E-02  0.8562336E-01
        2   -1    0    0  501    0  0.00000000000E+00  0.00000000000E+00  0.48518971316E+03  0.48518971317E+03  0.25500000920E-02 0. -1.
       -2   -1    0    0    0  501  0.00000000000E+00  0.00000000000E+00 -0.22669444115E+04  0.22669444115E+04  0.25500000920E-02 0.  1.
    10030    2    1    2    0    0  0.00000000000E+00  0.00000000000E+00 -0.17817546983E+04  0.27521341247E+04  0.20975205446E+04 0.  0.
        4    1    3    3  502    0 -0.28344756907E+03 -0.12020936790E+03 -0.22063105633E+04  0.22276895500E+04  0.12699999809E+01 0.  1.
       -4    1    3    3    0  502  0.28344756907E+03  0.12020936790E+03  0.42455586495E+03  0.52444457468E+03  0.12699999809E+01 0. -1.
</event>
<event>
 5   0  0.5866610E-05  0.2106592E+04  0.7818609E-02  0.8558345E-01
       -2   -1    0    0    0  501  0.00000000000E+00  0.00000000000E+00  0.17676074433E+04  0.17676074433E+04  0.25500000920E-02 0. -1.
        2   -1    0    0  501    0  0.00000000000E+00  0.00000000000E+00 -0.62764662404E+03  0.62764662405E+03  0.25500000920E-02 0.  1.
    10030    2    1    2    0    0  0.00000000000E+00  0.00000000000E+00  0.11399608193E+04  0.23952540674E+04  0.21065923616E+04 0.  0.
        5    1    3    3  502    0 -0.37477496197E+03 -0.23965113328E+03  0.16555423660E+04  0.17142728935E+04  0.46999998093E+01 0. -1.
       -5    1    3    3    0  502  0.37477496197E+03  0.23965113328E+03 -0.51558154674E+03  0.68098117385E+03  0.46999998093E+01 0.  1.
</event>
<event>
 5   0  0.5506332E-05  0.2127093E+04  0.7818609E-02  0.8549402E-01
       -2   -1    0    0    0  501  0.00000000000E+00  0.00000000000E+00  0.82585506872E+03  0.82585506872E+03  0.25500000920E-02 0.  1.
        2   -1    0    0  501    0  0.00000000000E+00  0.00000000000E+00 -0.13696490924E+04  0.13696490924E+04  0.25500000920E-02 0. -1.
    10030    2    1    2    0    0  0.00000000000E+00  0.00000000000E+00 -0.54379402372E+03  0.21955041612E+04  0.21270934586E+04 0.  0.
        3    1    3    3  502    0  0.10572628728E+04 -0.10328406375E+03 -0.32512348499E+03  0.11109354935E+04  0.10100000352E+00 0.  1.
       -3    1    3    3    0  502 -0.10572628728E+04  0.10328406375E+03 -0.21867053874E+03  0.10845686676E+04  0.10100000352E+00 0. -1.
</event>
<event>
 5   0  0.5866610E-05  0.2088282E+04  0.7818609E-02  0.8566423E-01
       -2   -1    0    0    0  501  0.00000000000E+00  0.00000000000E+00  0.13268094158E+04  0.13268094158E+04  0.25500000920E-02 0.  1.
        2   -1    0    0  501    0  0.00000000000E+00  0.00000000000E+00 -0.82169354675E+03  0.82169354675E+03  0.25500000920E-02 0. -1.
    10030    2    1    2    0    0  0.00000000000E+00  0.00000000000E+00  0.50511586904E+03  0.21485029625E+04  0.20882822939E+04 0.  0.
        5    1    3    3  502    0 -0.75160524578E+03 -0.18452638348E+03 -0.46854496603E+03  0.90471924202E+03  0.46999998093E+01 0. -1.
       -5    1    3    3    0  502  0.75160524578E+03  0.18452638348E+03  0.97366083507E+03  0.12437837205E+04  0.46999998093E+01 0.  1.
</event>
<event>
 5   0  0.5954140E-05  0.2127778E+04  0.7818609E-02  0.8549105E-01
       -2   -1    0    0    0  501  0.00000000000E+00  0.00000000000E+00  0.76468409398E+03  0.76468409398E+03  0.25500000920E-02 0.  1.
        2   -1    0    0  501    0  0.00000000000E+00  0.00000000000E+00 -0.14801669842E+04  0.14801669842E+04  0.25500000920E-02 0. -1.
    10030    2    1    2    0    0  0.00000000000E+00  0.00000000000E+00 -0.71548289020E+03  0.22448510782E+04  0.21277783242E+04 0.  0.
        2    1    3    3  502    0  0.82426793172E+02  0.88115897935E+03 -0.98067297074E+03  0.13209673723E+04  0.25500000920E-02 0. -1.
       -2    1    3    3    0  502 -0.82426793172E+02 -0.88115897935E+03  0.26519008055E+03  0.92388370586E+03  0.25500000920E-02 0.  1.
</event>
<event>
 5   0  0.2602060E-05  0.2095187E+04  0.7818609E-02  0.8563366E-01
       -1   -1    0    0    0  501  0.00000000000E+00  0.00000000000E+00  0.57589741377E+03  0.57589741379E+03  0.50400001928E-02 0. -1.
        1   -1    0    0  501    0  0.00000000000E+00  0.00000000000E+00 -0.19056389686E+04  0.19056389686E+04  0.50400001928E-02 0.  1.
    10030    2    1    2    0    0  0.00000000000E+00  0.00000000000E+00 -0.13297415548E+04  0.24815363824E+04  0.20951873936E+04 0.  0.
        1    1    3    3  502    0 -0.96534206349E+02  0.33357215603E+03 -0.18354873690E+04  0.18680479432E+04  0.50400001928E-02 0.  1.
       -1    1    3    3    0  502  0.96534206349E+02 -0.33357215603E+03  0.50574581425E+03  0.61348843912E+03  0.50400001928E-02 0. -1.
</event>
<event>
 5   0  0.2789662E-05  0.2098276E+04  0.7818609E-02  0.8562003E-01
        1   -1    0    0  501    0  0.00000000000E+00  0.00000000000E+00  0.18809298228E+04  0.18809298228E+04  0.50400001928E-02 0. -1.
       -1   -1    0    0    0  501  0.00000000000E+00  0.00000000000E+00 -0.58518433465E+03  0.58518433467E+03  0.50400001928E-02 0.  1.
    10030    2    1    2    0    0  0.00000000000E+00  0.00000000000E+00  0.12957454881E+04  0.24661141575E+04  0.20982761181E+04 0.  0.
        4    1    3    3  502    0 -0.10026785198E+04  0.22037854662E+03  0.39372916966E+03  0.10995249838E+04  0.12699999809E+01 0. -1.
       -4    1    3    3    0  502  0.10026785198E+04 -0.22037854662E+03  0.90201631848E+03  0.13665891737E+04  0.12699999809E+01 0.  1.
</event>
<event>
 5   0  0.5462851E-05  0.2070605E+04  0.7818609E-02  0.8574304E-01
        2   -1    0    0  501    0  0.00000000000E+00  0.00000000000E+00  0.19582581326E+04  0.19582581326E+04  0.25500000920E-02 0.  1.
       -2   -1    0    0    0  501  0.00000000000E+00  0.00000000000E+00 -0.54734947430E+03  0.54734947431E+03  0.25500000920E-02 0. -1.
    10030    2    1    2    0    0  0.00000000000E+00  0.00000000000E+00  0.14109086583E+04  0.25056076069E+04  0.20706052829E+04 0.  0.
        1    1    3    3  502    0  0.60461457756E+03  0.83891110623E+03  0.76621127709E+03  0.12870160655E+04  0.50400001928E-02 0.  1.
       -1    1    3    3    0  502 -0.60461457756E+03 -0.83891110623E+03  0.64469738120E+03  0.12185915415E+04  0.50400001928E-02 0. -1.
</event>
<event>
 5   0  0.5967046E-05  0.2114339E+04  0.7818609E-02  0.8554953E-01
       -2   -1    0    0    0  501  0.00000000000E+00  0.00000000000E+00  0.16043918196E+04  0.16043918196E+04  0.25500000920E-02 0.  1.
        2   -1    0    0  501    0  0.00000000000E+00  0.00000000000E+00 -0.69659271703E+03  0.69659271704E+03  0.25500000920E-02 0. -1.
    10030    2    1    2    0    0  0.00000000000E+00  0.00000000000E+00  0.90779910254E+03  0.23009845366E+04  0.21143392886E+04 0.  0.
        4    1    3    3  502    0 -0.52089618468E+03 -0.24016660732E+03  0.14203187226E+04  0.15317701267E+04  0.12699999809E+01 0.  1.
       -4    1    3    3    0  502  0.52089618468E+03  0.24016660732E+03 -0.51251962008E+03  0.76921440986E+03  0.12699999809E+01 0. -1.
</event>
<event>
 5   0  0.2699285E-05  0.2133285E+04  0.7818609E-02  0.8546721E-01
        1   -1    0    0  501    0  0.00000000000E+00  0.00000000000E+00  0.23077585958E+04  0.23077585958E+04  0.50400001928E-02 0.  1.
       -1   -1    0    0    0  501  0.00000000000E+00  0.00000000000E+00 -0.49300055810E+03  0.49300055812E+03  0.50400001928E-02 0. -1.
    10030    2    1    2    0    0  0.00000000000E+00  0.00000000000E+00  0.18147580377E+04  0.28007591540E+04  0.21332850496E+04 0.  0.
        2    1    3    3  502    0 -0.43481675720E+03 -0.33503152593E+03  0.21080877295E+04  0.21783814200E+04  0.25500000920E-02 0.  1.
       -2    1    3    3    0  502  0.43481675720E+03  0.33503152593E+03 -0.29332969174E+03  0.62237773399E+03  0.25500000920E-02 0. -1.
</event>
<event>
 5   0  0.2699285E-05  0.2112989E+04  0.7818609E-02  0.8555543E-01
       -1   -1    0    0    0  501  0.00000000000E+00  0.00000000000E+00  0.12917952540E+04  0.12917952540E+04  0.50400001928E-02 0. -1.
        1   -1    0    0  501    0  0.00000000000E+00  0.00000000000E+00 -0.86405412177E+03  0.86405412178E+03  0.50400001928E-02 0.  1.
    10030    2    1    2    0    0  0.00000000000E+00  0.00000000000E+00  0.42774113225E+03  0.21558493758E+04  0.21129893646E+04 0.  0.
        2    1    3    3  502    0  0.19964263433E+03 -0.48628340068E+03  0.11488941342E+04  0.12634423053E+04  0.25500000920E-02 0. -1.
       -2    1    3    3    0  502 -0.19964263433E+03  0.48628340068E+03 -0.72115300197E+03  0.89240707049E+03  0.25500000920E-02 0.  1.
</event>
<event>
 5   0  0.5954140E-05  0.2070037E+04  0.7818609E-02  0.8574558E-01
        2   -1    0    0  501    0  0.00000000000E+00  0.00000000000E+00  0.16952052385E+04  0.16952052385E+04  0.25500000920E-02 0. -1.
       -2   -1    0    0    0  501  0.00000000000E+00  0.00000000000E+00 -0.63193747422E+03  0.63193747422E+03  0.25500000920E-02 0.  1.
    10030    2    1    2    0    0  0.00000000000E+00  0.00000000000E+00  0.10632677643E+04  0.23271427127E+04  0.20700374071E+04 0.  0.
        2    1    3    3  502    0 -0.35037272513E+03 -0.14029176304E+03  0.16150887156E+04  0.16586001280E+04  0.25500000920E-02 0. -1.
       -2    1    3    3    0  502  0.35037272513E+03  0.14029176304E+03 -0.55182095132E+03  0.66854258474E+03  0.25500000920E-02 0.  1.
</event>
<event>
 5   0  0.5506332E-05  0.2096716E+04  0.7818609E-02  0.8562691E-01
        2   -1    0    0  501    0  0.00000000000E+00  0.00000000000E+00  0.11493649483E+04  0.11493649483E+04  0.25500000920E-02 0.  1.
       -2   -1    0    0    0  501  0.00000000000E+00  0.00000000000E+00 -0.95622754517E+03  0.95622754517E+03  0.25500000920E-02 0. -1.
    10030    2    1    2    0    0  0.00000000000E+00  0.00000000000E+00  0.19313740309E+03  0.21055924934E+04  0.20967159302E+04 0.  0.
        3    1    3    3  502    0  0.58001561633E+02 -0.36794804211E+01 -0.95460851806E+03  0.95637605192E+03  0.10100000352E+00 0. -1.
       -3    1    3    3    0  502 -0.58001561633E+02  0.36794804211E+01  0.11477459211E+04  0.11492164415E+04  0.10100000352E+00 0.  1.
</event>
<event>
 5   0  0.5954140E-05  0.2089156E+04  0.7818609E-02  0.8566035E-01
        2   -1    0    0  501    0  0.00000000000E+00  0.00000000000E+00  0.78354746991E+03  0.78354746991E+03  0.25500000920E-02 0. -1.
       -2   -1    0    0    0  501  0.00000000000E+00  0.00000000000E+00 -0.13925680613E+04  0.13925680613E+04  0.25500000920E-02 0.  1.
    10030    2    1    2    0    0  0.00000000000E+00  0.00000000000E+00 -0.60902059136E+03  0.21761155312E+04  0.20891559837E+04 0.  0.
        2    1    3    3  502    0 -0.43537093039E+03 -0.50505095316E+03 -0.11420428246E+04  0.13224545836E+04  0.25500000920E-02 0.  1.
       -2    1    3    3    0  502  0.43537093039E+03  0.50505095316E+03  0.53302223327E+03  0.85366094761E+03  0.25500000920E-02 0. -1.
</event>
<event>
 5   0  0.5462851E-05  0.2163272E+04  0.7818609E-02  0.8533872E-01
       -2   -1    0    0    0  501  0.00000000000E+00  0.00000000000E+00  0.63572189689E+03  0.63572189689E+03  0.25500000920E-02 0. -1.
        2   -1    0    0  501    0  0.00000000000E+00  0.00000000000E+00 -0.18403282052E+04  0.18403282052E+04  0.25500000920E-02 0.  1.
    10030    2    1    2    0    0  0.00000000000E+00  0.00000000000E+00 -0.12046063083E+04  0.24760501021E+04  0.21632724632E+04 0.  0.
        1    1    3    3  502    0  0.40276345237E+03  0.32967744179E+03  0.48296139772E+03  0.71004036920E+03  0.50400001928E-02 0. -1.
       -1    1    3    3    0  502 -0.40276345237E+03 -0.32967744179E+03 -0.16875677061E+04  0.17660097329E+04  0.50400001928E-02 0.  1.
</event>
<event>
 5   0  0.2604390E-05  0.2099728E+04  0.7818609E-02  0.8561363E-01
       -1   -1    0    0    0  501  0.00000000000E+00  0.00000000000E+00  0.10696671518E+04  0.10696671518E+04  0.50400001928E-02 0. -1.
        1   -1    0    0  501    0  0.00000000000E+00  0.00000000000E+00 -0.10304270531E+04  0.10304270531E+04  0.50400001928E-02 0.  1.
    10030    2    1    2    0    0  0.00000000000E+00  0.00000000000E+00  0.39240098667E+02  0.21000942049E+04  0.20997275738E+04 0.  0.
        5    1    3    3  502    0 -0.80426470824E+03  0.67454369544E+03  0.38088458733E+02  0.10503921833E+04  0.46999998093E+01 0. -1.
       -5    1    3    3    0  502  0.80426470824E+03 -0.67454369544E+03  0.11516399343E+01  0.10497020216E+04  0.46999998093E+01 0.  1.
</event>
<event>
 5   0  0.5866610E-05  0.2156768E+04  0.7818609E-02  0.8536641E-01
        2   -1    0    0  501    0  0.00000000000E+00  0.00000000000E+00  0.20819885123E+04  0.20819885123E+04  0.25500000920E-02 0. -1.
       -2   -1    0    0    0  501  0.00000000000E+00  0.00000000000E+00 -0.55855855130E+03  0.55855855130E+03  0.25500000920E-02 0.  1.
    10030    2    1    2    0    0  0.00000000000E+00  0.00000000000E+00  0.15234299610E+04  0.26405470636E+04  0.21567684041E+04 0.  0.
        5    1    3    3  502    0  0.12314663206E+02 -0.10640384451E+04  0.97574451602E+03  0.14437551434E+04  0.46999998093E+01 0. -1.
       -5    1    3    3    0  502 -0.12314663206E+02  0.10640384451E+04  0.54768544495E+03  0.11967919202E+04  0.46999998093E+01 0.  1.
</event>
<event>
 5   0  0.5967046E-05  0.2112087E+04  0.7818609E-02  0.8555938E-01
       -2   -1    0    0    0  501  0.00000000000E+00  0.00000000000E+00  0.61859892052E+03  0.61859892052E+03  0.25500000920E-02 0. -1.
        2   -1    0    0  501    0  0.00000000000E+00  0.00000000000E+00 -0.18028286143E+04  0.18028286143E+04  0.25500000920E-02 0.  1.
    10030    2    1    2    0    0  0.00000000000E+00  0.00000000000E+00 -0.11842296938E+04  0.24214275348E+04  0.21120869629E+04 0.  0.
        4    1    3    3  502    0 -0.57961716231E+03 -0.46810783876E+02  0.41851528838E+03  0.71645234583E+03  0.12699999809E+01 0. -1.
       -4    1    3    3    0  502  0.57961716231E+03  0.46810783876E+02 -0.16027449822E+04  0.17049751890E+04  0.12699999809E+01 0.  1.
</event>
<event>
 5   0  0.5954140E-05  0.2088112E+04  0.7818609E-02  0.8566498E-01
       -2   -1    0    0    0  501  0.00000000000E+00  0.00000000000E+00  0.13536600167E+04  0.13536600167E+04  0.25500000920E-02 0.  1.
        2   -1    0    0  501    0  0.00000000000E+00  0.00000000000E+00 -0.80526364688E+03  0.80526364688E+03  0.25500000920E-02 0. -1.
    10030    2    1    2    0    0  0.00000000000E+00  0.00000000000E+00  0.54839636983E+03  0.21589236636E+04  0.20881122591E+04 0.  0.
        2    1    3    3  502    0  0.12470499930E+03  0.63089165427E+03 -0.57617615932E+03  0.86345502654E+03  0.25500000920E-02 0. -1.
       -2    1    3    3    0  502 -0.12470499930E+03 -0.63089165427E+03  0.11245725291E+04  0.12954686371E+04  0.25500000920E-02 0.  1.
</event>
<event>
 5   0  0.2604390E-05  0.2095263E+04  0.7818609E-02  0.8563333E-01
       -1   -1    0    0    0  501  0.00000000000E+00  0.00000000000E+00  0.50641915481E+03  0.50641915484E+03  0.50400001928E-02 0.  1.
        1   -1    0    0  501    0  0.00000000000E+00  0.00000000000E+00 -0.21672398949E+04  0.21672398949E+04  0.50400001928E-02 0. -1.
    10030    2    1    2    0    0  0.00000000000E+00  0.00000000000E+00 -0.16608207401E+04  0.26736590497E+04  0.20952630344E+04 0.  0.
        5    1    3    3  502    0  0.64818881865E+03 -0.91036556530E+02  0.21335846409E+03  0.68846228905E+03  0.46999998093E+01 0.  1.
       -5    1    3    3    0  502 -0.64818881865E+03  0.91036556530E+02 -0.18741792042E+04  0.19851967607E+04  0.46999998093E+01 0. -1.
</event>
<event>
 5   0  0.2604390E-05  0.2100998E+04  0.7818609E-02  0.8560804E-01
       -1   -1    0    0    0  501  0.00000000000E+00  0.00000000000E+00  0.60038338441E+03  0.60038338443E+03  0.50400001928E-02 0.  1.
        1   -1    0    0  501    0  0.00000000000E+00  0.00000000000E+00 -0.18380729141E+04  0.18380729141E+04  0.50400001928E-02 0. -1.
    10030    2    1    2    0    0  0.00000000000E+00  0.00000000000E+00 -0.12376895297E+04  0.24384562986E+04  0.21009982742E+04 0.  0.
        5    1    3    3  502    0 -0.51454624171E+03  0.82066053185E+03 -0.10906967039E+04  0.14587264765E+04  0.46999998093E+01 0. -1.
       -5    1    3    3    0  502  0.51454624171E+03 -0.82066053185E+03 -0.14699282583E+03  0.97972982206E+03  0.46999998093E+01 0.  1.
</event>
<event>
 5   0  0.5462851E-05  0.2066396E+04  0.7818609E-02  0.8576192E-01
        2   -1    0    0  501    0  0.00000000000E+00  0.00000000000E+00  0.12643941142E+04  0.12643941142E+04  0.25500000920E-02 0. -1.
       -2   -1    0    0    0  501  0.00000000000E+00  0.00000000000E+00 -0.84427647223E+03  0.84427647223E+03  0.25500000920E-02 0.  1.
    10030    2    1    2    0    0  0.00000000000E+00  0.00000000000E+00  0.42011764199E+03  0.21086705864E+04  0.20663960920E+04 0.  0.
        1    1    3    3  502    0 -0.94990833576E+03 -0.38033623135E+03  0.63891934375E+02  0.10252139652E+04  0.50400001928E-02 0.  1.
       -1    1    3    3    0  502  0.94990833576E+03  0.38033623135E+03  0.35622570761E+03  0.10834566212E+04  0.50400001928E-02 0. -1.
</event>
<event>
 5   0  0.5866610E-05  0.2141676E+04  0.7818609E-02  0.8543104E-01
       -2   -1    0    0    0  501  0.00000000000E+00  0.00000000000E+00  0.11578454329E+04  0.11578454329E+04  0.25500000920E-02 0. -1.
        2   -1    0    0  501    0  0.00000000000E+00  0.00000000000E+00 -0.99036896553E+03  0.99036896554E+03  0.25500000920E-02 0.  1.
    10030    2    1    2    0    0  0.00000000000E+00  0.00000000000E+00  0.16747646737E+03  0.21482143984E+04  0.21416761507E+04 0.  0.
        5    1    3    3  502    0  0.71797893611E+03  0.39268296718E+03 -0.60900643426E+03  0.10201002855E+04  0.46999998093E+01 0.  1.
       -5    1    3    3    0  502 -0.71797893611E+03 -0.39268296718E+03  0.77648290163E+03  0.11281141130E+04  0.46999998093E+01 0. -1.
</event>
<event>
 5   0  0.5866610E-05  0.2115978E+04  0.7818609E-02  0.8554237E-01
       -2   -1    0    0    0  501  0.00000000000E+00  0.00000000000E+00  0.16692472154E+04  0.16692472154E+04  0.25500000920E-02 0. -1.
        2   -1    0    0  501    0  0.00000000000E+00  0.00000000000E+00 -0.67056617071E+03  0.67056617072E+03  0.25500000920E-02 0.  1.
    10030    2    1    2    0    0  0.00000000000E+00  0.00000000000E+00  0.99868104466E+03  0.23398133861E+04  0.21159779897E+04 0.  0.
        5    1    3    3  502    0 -0.86696275696E+03 -0.60635993214E+03  0.49417355108E+03  0.11677013222E+04  0.46999998093E+01 0. -1.
       -5    1    3    3    0  502  0.86696275696E+03  0.60635993214E+03  0.50450749359E+03  0.11721120639E+04  0.46999998093E+01 0.  1.
</event>
<event>
 5   0  0.2789662E-05  0.2100232E+04  0.7818609E-02  0.8561141E-01
       -1   -1    0    0    0  501  0.00000000000E+00  0.00000000000E+00  0.41682886472E+03  0.41682886475E+03  0.50400001928E-02 0. -1.
        1   -1    0    0  501    0  0.00000000000E+00  0.00000000000E+00 -0.26455539508E+04  0.26455539508E+04  0.50400001928E-02 0.  1.
    10030    2    1    2    0    0  0.00000000000E+00  0.00000000000E+00 -0.22287250861E+04  0.30623828156E+04  0.21002316538E+04 0.  0.
        4    1    3    3  502    0  0.19449267364E+03  0.57498622325E+03 -0.23638461014E+04  0.24405340729E+04  0.12699999809E+01 0.  1.
       -4    1    3    3    0  502 -0.19449267364E+03 -0.57498622325E+03  0.13512101534E+03  0.62184874263E+03  0.12699999809E+01 0. -1.
</event>
<event>
 5   0  0.2789662E-05  0.2100430E+04  0.7818609E-02  0.8561054E-01
        1   -1    0    0  501    0  0.00000000000E+00  0.00000000000E+00  0.10592194807E+04  0.10592194807E+04  0.50400001928E-02 0. -1.
       -1   -1    0    0    0  501  0.00000000000E+00  0.00000000000E+00 -0.10412872843E+04  0.10412872843E+04  0.50400001928E-02 0.  1.
    10030    2    1    2    0    0  0.00000000000E+00  0.00000000000E+00  0.17932196456E+02  0.21005067650E+04  0.21004302193E+04 0.  0.
        4    1    3    3  502    0 -0.31861791088E+03 -0.36334870521E+03  0.94142192974E+03  0.10582138335E+04  0.12699999809E+01 0. -1.
       -4    1    3    3    0  502  0.31861791088E+03  0.36334870521E+03 -0.92348973328E+03  0.10422929315E+04  0.12699999809E+01 0.  1.
</event>
<event>
 5   0  0.2699285E-05  0.2099915E+04  0.7818609E-02  0.8561281E-01
        1   -1    0    0  501    0  0.00000000000E+00  0.00000000000E+00  0.20320484198E+04  0.20320484198E+04  0.50400001928E-02 0.  1.
       -1   -1    0    0    0  501  0.00000000000E+00  0.00000000000E+00 -0.54251229292E+03  0.54251229295E+03  0.50400001928E-02 0. -1.
    10030    2    1    2    0    0  0.00000000000E+00  0.00000000000E+00  0.14895361269E+04  0.25745607127E+04  0.20999154722E+04 0.  0.
        2    1    3    3  502    0 -0.96530433533E+03  0.41294433953E+03  0.75543947640E+03  0.12934544019E+04  0.25500000920E-02 0. -1.
       -2    1    3    3    0  502  0.96530433533E+03 -0.41294433953E+03  0.73409665045E+03  0.12811063108E+04  0.25500000920E-02 0.  1.
</event>
<event>
 5   0  0.5462851E-05  0.2099365E+04  0.7818609E-02  0.8561523E-01
       -2   -1    0    0    0  501  0.00000000000E+00  0.00000000000E+00  0.58572746683E+03  0.58572746683E+03  0.25500000920E-02 0.  1.
        2   -1    0    0  501    0  0.00000000000E+00  0.00000000000E+00 -0.18811368964E+04  0.18811368964E+04  0.25500000920E-02 0. -1.
    10030    2    1    2    0    0  0.00000000000E+00  0.00000000000E+00 -0.12954094296E+04  0.24668643633E+04  0.20993651889E+04 0.  0.
        1    1    3    3  502    0 -0.45842023629E+03 -0.41576896919E+03  0.34854345593E+03  0.71027845911E+03  0.50400001928E-02 0.  1.
       -1    1    3    3    0  502  0.45842023629E+03  0.41576896919E+03 -0.16439528855E+04  0.17565859041E+04  0.50400001928E-02 0. -1.
</event>
<event>
 5   0  0.5866610E-05  0.2094117E+04  0.7818609E-02  0.8563839E-01
       -2   -1    0    0    0  501  0.00000000000E+00  0.00000000000E+00  0.55702881776E+03  0.55702881776E+03  0.25500000920E-02 0.  1.
        2   -1    0    0  501    0  0.00000000000E+00  0.00000000000E+00 -0.19681780113E+04  0.19681780113E+04  0.25500000920E-02 0. -1.
    10030    2    1    2    0    0  0.00000000000E+00  0.00000000000E+00 -0.14111491936E+04  0.25252068291E+04  0.20941173518E+04 0.  0.
        5    1    3    3  502    0 -0.89973051210E+03 -0.43096210594E+03 -0.10889281073E+04  0.14768310141E+04  0.46999998093E+01 0. -1.
       -5    1    3    3    0  502  0.89973051210E+03  0.43096210594E+03 -0.32222108625E+03  0.10483758150E+04  0.46999998093E+01 0.  1.
</event>
<event>
 5   0  0.5506332E-05  0.2143505E+04  0.7818609E-02  0.8542318E-01
       -2   -1    0    0    0  501  0.00000000000E+00  0.00000000000E+00  0.15651194685E+04  0.15651194685E+04  0.25500000920E-02 0.  1.
        2   -1    0    0  501    0  0.00000000000E+00  0.00000000000E+00 -0.73390788114E+03  0.73390788114E+03  0.25500000920E-02 0. -1.
    10030    2    1    2    0    0  0.00000000000E+00  0.00000000000E+00  0.83121158739E+03  0.22990273497E+04  0.21435050855E+04 0.  0.
        3    1    3    3  502    0  0.55733069486E+03 -0.68179086596E+03  0.10708283145E+04  0.13864088782E+04  0.10100000352E+00 0.  1.
       -3    1    3    3    0  502 -0.55733069486E+03  0.68179086596E+03 -0.23961672708E+03  0.91261847145E+03  0.10100000352E+00 0. -1.
</event>
<event>
 5   0  0.2602060E-05  0.2099954E+04  0.7818609E-02  0.8561264E-01
       -1   -1    0    0    0  501  0.00000000000E+00  0.00000000000E+00  0.79751425998E+03  0.79751425999E+03  0.50400001928E-02 0. -1.
        1   -1    0    0  501    0  0.00000000000E+00  0.00000000000E+00 -0.13823602364E+04  0.13823602364E+04  0.50400001928E-02 0.  1.
    10030    2    1    2    0    0  0.00000000000E+00  0.00000000000E+00 -0.58484597643E+03  0.21798744964E+04  0.20999542862E+04 0.  0.
        1    1    3    3  502    0 -0.65811019567E+03  0.70496210700E+03 -0.72340014617E+03  0.12055655824E+04  0.50400001928E-02 0.  1.
       -1    1    3    3    0  502  0.65811019567E+03 -0.70496210700E+03  0.13855416974E+03  0.97430891401E+03  0.50400001928E-02 0. -1.
</event>
<event>
 5   0  0.5462851E-05  0.2107336E+04  0.7818609E-02  0.8558019E-01
       -2   -1    0    0    0  501  0.00000000000E+00  0.00000000000E+00  0.49228482430E+03  0.49228482430E+03  0.25500000920E-02 0.  1.
        2   -1    0    0  501    0  0.00000000000E+00  0.00000000000E+00 -0.22552316058E+04  0.22552316058E+04  0.25500000920E-02 0. -1.
    10030    2    1    2    0    0  0.00000000000E+00  0.00000000000E+00 -0.17629467815E+04  0.27475164301E+04  0.21073360385E+04 0.  0.
        1    1    3    3  502    0 -0.66800108459E+03 -0.60990148809E+03 -0.17693262840E+03  0.92168890045E+03  0.50400001928E-02 0.  1.
       -1    1    3    3    0  502  0.66800108459E+03  0.60990148809E+03 -0.15860141531E+04  0.18258275297E+04  0.50400001928E-02 0. -1.
</event>
<event>
 5   0  0.2789662E-05  0.2118351E+04  0.7818609E-02  0.8553202E-01
       -1   -1    0    0    0  501  0.00000000000E+00  0.00000000000E+00  0.95200638841E+03  0.95200638842E+03  0.50400001928E-02 0. -1.
        1   -1    0    0  501    0  0.00000000000E+00  0.00000000000E+00 -0.11784087642E+04  0.11784087643E+04  0.50400001928E-02 0.  1.
    10030    2    1    2    0    0  0.00000000000E+00  0.00000000000E+00 -0.22640237583E+03  0.21304151527E+04  0.21183509357E+04 0.  0.
        4    1    3    3  502    0 -0.23876362179E+03 -0.34080536299E+03  0.86635549019E+03  0.96110863632E+03  0.12699999809E+01 0. -1.
       -4    1    3    3    0  502  0.23876362179E+03  0.34080536299E+03 -0.10927578660E+04  0.11693065164E+04  0.12699999809E+01 0.  1.
</event>
<event>
 5   0  0.5506332E-05  0.2076149E+04  0.7818609E-02  0.8571823E-01
       -2   -1    0    0    0  501  0.00000000000E+00  0.00000000000E+00  0.14880860756E+04  0.14880860756E+04  0.25500000920E-02 0.  1.
        2   -1    0    0  501    0  0.00000000000E+00  0.00000000000E+00 -0.72415051292E+03  0.72415051293E+03  0.25500000920E-02 0. -1.
    10030    2    1    2    0    0  0.00000000000E+00  0.00000000000E+00  0.76393556263E+03  0.22122365885E+04  0.20761486410E+04 0.  0.
        3    1    3    3  502    0 -0.17714530593E+03 -0.90782685777E+03 -0.12016241002E+03  0.93272132928E+03  0.10100000352E+00 0. -1.
       -3    1    3    3    0  502  0.17714530593E+03  0.90782685777E+03  0.88409797265E+03  0.12795152592E+04  0.10100000352E+00 0.  1.
</event>
<event>
 5   0  0.5967046E-05  0.2059526E+04  0.7818609E-02  0.8579285E-01
       -2   -1    0    0    0  501  0.00000000000E+00  0.00000000000E+00  0.14955451725E+04  0.14955451725E+04  0.25500000920E-02 0.  1.
        2   -1    0    0  501    0  0.00000000000E+00  0.00000000000E+00 -0.70904714774E+03  0.70904714774E+03  0.25500000920E-02 0. -1.
    10030    2    1    2    0    0  0.00000000000E+00  0.00000000000E+00  0.78649802480E+03  0.22045923203E+04  0.20595261969E+04 0.  0.
        4    1    3    3  502    0 -0.83368468276E+03  0.57224969095E+03  0.18482818801E+03  0.10279411126E+04  0.12699999809E+01 0.  1.
       -4    1    3    3    0  502  0.83368468276E+03 -0.57224969095E+03  0.60166983679E+03  0.11766512077E+04  0.12699999809E+01 0. -1.
</event>
<event>
 5   0  0.2602060E-05  0.2094228E+04  0.7818609E-02  0.8563790E-01
        1   -1    0    0  501    0  0.00000000000E+00  0.00000000000E+00  0.18324943440E+04  0.18324943440E+04  0.50400001928E-02 0.  1.
       -1   -1    0    0    0  501  0.00000000000E+00  0.00000000000E+00 -0.59833643910E+03  0.59833643912E+03  0.50400001928E-02 0. -1.
    10030    2    1    2    0    0  0.00000000000E+00  0.00000000000E+00  0.12341579049E+04  0.24308307831E+04  0.20942283930E+04 0.  0.
        1    1    3    3  502    0 -0.48316936336E+03  0.66421078987E+01 -0.46118193054E+03  0.66797120025E+03  0.50400001928E-02 0. -1.
       -1    1    3    3    0  502  0.48316936336E+03 -0.66421078987E+01  0.16953398355E+04  0.17628595829E+04  0.50400001928E-02 0.  1.
</event>
<event>
 5   0  0.5462851E-05  0.2097680E+04  0.7818609E-02  0.8562266E-01
       -2   -1    0    0    0  501  0.00000000000E+00  0.00000000000E+00  0.60050945493E+03  0.60050945493E+03  0.25500000920E-02 0.  1.
        2   -1    0    0  501    0  0.00000000000E+00  0.00000000000E+00 -0.18318864415E+04  0.18318864415E+04  0.25500000920E-02 0. -1.
    10030    2    1    2    0    0  0.00000000000E+00  0.00000000000E+00 -0.12313769866E+04  0.24323958964E+04  0.20976797930E+04 0.  0.
        1    1    3    3  502    0 -0.27679692870E+03 -0.96821999087E+03 -0.95573698588E+03  0.13883442212E+04  0.50400001928E-02 0. -1.
       -1    1    3    3    0  502  0.27679692870E+03  0.96821999087E+03 -0.27564000070E+03  0.10440516752E+04  0.50400001928E-02 0.  1.
</event>
<event>
 5   0  0.2604390E-05  0.2084814E+04  0.7818609E-02  0.8567963E-01
       -1   -1    0    0    0  501  0.00000000000E+00  0.00000000000E+00  0.82221059391E+03  0.82221059393E+03  0.50400001928E-02 0. -1.
        1   -1    0    0  501    0  0.00000000000E+00  0.00000000000E+00 -0.13215741797E+04  0.13215741797E+04  0.50400001928E-02 0.  1.
    10030    2    1    2    0    0  0.00000000000E+00  0.00000000000E+00 -0.49936358582E+03  0.21437847737E+04  0.20848139401E+04 0.  0.
        5    1    3    3  502    0  0.13949419350E+02  0.57036585977E+03 -0.11467564303E+04  0.12808529192E+04  0.46999998093E+01 0.  1.
       -5    1    3    3    0  502 -0.13949419350E+02 -0.57036585977E+03  0.64739284448E+03  0.86293185443E+03  0.46999998093E+01 0. -1.
</event>
<event>
 5   0  0.2604390E-05  0.2098072E+04  0.7818609E-02  0.8562093E-01
       -1   -1    0    0    0  501  0.00000000000E+00  0.00000000000E+00  0.13067793042E+04  0.13067793043E+04  0.50400001928E-02 0.  1.
        1   -1    0    0  501    0  0.00000000000E+00  0.00000000000E+00 -0.84212913389E+03  0.84212913390E+03  0.50400001928E-02 0. -1.
    10030    2    1    2    0    0  0.00000000000E+00  0.00000000000E+00  0.46465017036E+03  0.21489084382E+04  0.20980723760E+04 0.  0.
        5    1    3    3  502    0  0.60605531789E+03 -0.64911420574E+03 -0.33959752375E+03  0.95078960269E+03  0.46999998093E+01 0. -1.
       -5    1    3    3    0  502 -0.60605531789E+03  0.64911420574E+03  0.80424769411E+03  0.11981188355E+04  0.46999998093E+01 0.  1.
</event>
<event>
 5   0  0.2602060E-05  0.2116873E+04  0.7818609E-02  0.8553847E-01
       -1   -1    0    0    0  501  0.00000000000E+00  0.00000000000E+00  0.97554770311E+03  0.97554770312E+03  0.50400001928E-02 0.  1.
        1   -1    0    0  501    0  0.00000000000E+00  0.00000000000E+00 -0.11483675992E+04  0.11483675992E+04  0.50400001928E-02 0. -1.
    10030    2    1    2    0    0  0.00000000000E+00  0.00000000000E+00 -0.17281989605E+03  0.21239153023E+04  0.21168725741E+04 0.  0.
        1    1    3    3  502    0 -0.77285155503E+03  0.46335640316E+03 -0.64349470403E+03  0.11072868267E+04  0.50400001928E-02 0. -1.
       -1    1    3    3    0  502  0.77285155503E+03 -0.46335640316E+03  0.47067480798E+03  0.10166284756E+04  0.50400001928E-02 0.  1.
</event>
<event>
 5   0  0.2732159E-05  0.2101472E+04  0.7818609E-02  0.8560595E-01
        1   -1    0    0  501    0  0.00000000000E+00  0.00000000000E+00  0.69330013860E+03  0.69330013862E+03  0.50400001928E-02 0. -1.
       -1   -1    0    0    0  501  0.00000000000E+00  0.00000000000E+00 -0.15924500820E+04  0.15924500821E+04  0.50400001928E-02 0.  1.
    10030    2    1    2    0    0  0.00000000000E+00  0.00000000000E+00 -0.89914994345E+03  0.22857502207E+04  0.21014717344E+04 0.  0.
        3    1    3    3  502    0 -0.81647152296E+03 -0.37321530706E+03  0.14431826199E+03  0.90925419118E+03  0.10100000352E+00 0. -1.
       -3    1    3    3    0  502  0.81647152296E+03  0.37321530706E+03 -0.10434682054E+04  0.13764960295E+04  0.10100000352E+00 0.  1.
</event>
<event>
 5   0  0.2732159E-05  0.2100804E+04  0.7818609E-02  0.8560889E-01
        1   -1    0    0  501    0  0.00000000000E+00  0.00000000000E+00  0.10829810267E+04  0.10829810267E+04  0.50400001928E-02 0. -1.
       -1   -1    0    0    0  501  0.00000000000E+00  0.00000000000E+00 -0.10188032783E+04  0.10188032783E+04  0.50400001928E-02 0.  1.
    10030    2    1    2    0    0  0.00000000000E+00  0.00000000000E+00  0.64177748386E+02  0.21017843051E+04  0.21008042464E+04 0.  0.
        3    1    3    3  502    0 -0.12631218272E+03 -0.65116767985E+03 -0.78276668701E+03  0.10260106292E+04  0.10100000352E+00 0.  1.
       -3    1    3    3    0  502  0.12631218272E+03  0.65116767985E+03  0.84694443539E+03  0.10757736758E+04  0.10100000352E+00 0. -1.
</event>
<event>
 5   0  0.2789662E-05  0.2101380E+04  0.7818609E-02  0.8560636E-01
        1   -1    0    0  501    0  0.00000000000E+00  0.00000000000E+00  0.14214243513E+04  0.14214243514E+04  0.50400001928E-02 0. -1.
       -1   -1    0    0    0  501  0.00000000000E+00  0.00000000000E+00 -0.77664990522E+03  0.77664990524E+03  0.50400001928E-02 0.  1.
    10030    2    1    2    0    0  0.00000000000E+00  0.00000000000E+00  0.64477444613E+03  0.21980742566E+04  0.21013796304E+04 0.  0.
        4    1    3    3  502    0  0.58060120927E+03  0.11128540819E+03  0.12309552880E+04  0.13655529064E+04  0.12699999809E+01 0.  1.
       -4    1    3    3    0  502 -0.58060120927E+03 -0.11128540819E+03 -0.58618084185E+03  0.83252135019E+03  0.12699999809E+01 0. -1.
</event>
<event>
 5   0  0.2732159E-05  0.2117710E+04  0.7818609E-02  0.8553482E-01
       -1   -1    0    0    0  501  0.00000000000E+00  0.00000000000E+00  0.74913480218E+03  0.74913480219E+03  0.50400001928E-02 0. -1.
        1   -1    0    0  501    0  0.00000000000E+00  0.00000000000E+00 -0.14966252888E+04  0.14966252888E+04  0.50400001928E-02 0.  1.
    10030    2    1    2    0    0  0.00000000000E+00  0.00000000000E+00 -0.74749048662E+03  0.22457600910E+04  0.21177101687E+04 0.  0.
        3    1    3    3  502    0  0.61282368675E+03 -0.69883479103E+03  0.16412249351E+03  0.94385334628E+03  0.10100000352E+00 0. -1.
       -3    1    3    3    0  502 -0.61282368675E+03  0.69883479103E+03 -0.91161298013E+03  0.13019067447E+04  0.10100000352E+00 0.  1.
</event>
<event>
 5   0  0.2602060E-05  0.2099043E+04  0.7818609E-02  0.8561665E-01
        1   -1    0    0  501    0  0.00000000000E+00  0.00000000000E+00  0.24222690492E+04  0.24222690492E+04  0.50400001928E-02 0. -1.
       -1   -1    0    0    0  501  0.00000000000E+00  0.00000000000E+00 -0.45473708371E+03  0.45473708374E+03  0.50400001928E-02 0.  1.
    10030    2    1    2    0    0  0.00000000000E+00  0.00000000000E+00  0.19675319655E+04  0.28770061329E+04  0.20990431758E+04 0.  0.
        1    1    3    3  502    0  0.70179480141E+03  0.60311480503E+03  0.16625132915E+04  0.19026859582E+04  0.50400001928E-02 0.  1.
       -1    1    3    3    0  502 -0.70179480141E+03 -0.60311480503E+03  0.30501867403E+03  0.97432017472E+03  0.50400001928E-02 0. -1.
</event>
<event>
 5   0  0.2604390E-05  0.2105342E+04  0.7818609E-02  0.8558894E-01
        1   -1    0    0  501    0  0.00000000000E+00  0.00000000000E+00  0.12276238656E+04  0.12276238656E+04  0.50400001928E-02 0. -1.
       -1   -1    0    0    0  501  0.00000000000E+00  0.00000000000E+00 -0.90265124133E+03  0.90265124134E+03  0.50400001928E-02 0.  1.
    10030    2    1    2    0    0  0.00000000000E+00  0.00000000000E+00  0.32497262427E+03  0.21302751069E+04  0.21053419734E+04 0.  0.
        5    1    3    3  502    0  0.34464895229E+03  0.79137063703E+03 -0.44718044380E+03  0.97213313120E+03  0.46999998093E+01 0.  1.
       -5    1    3    3    0  502 -0.34464895229E+03 -0.79137063703E+03  0.77215306807E+03  0.11581419757E+04  0.46999998093E+01 0. -1.
</event>
<event>
 5   0  0.5506332E-05  0.2091598E+04  0.7818609E-02  0.8564953E-01
        2   -1    0    0  501    0  0.00000000000E+00  0.00000000000E+00  0.15978077340E+04  0.15978077340E+04  0.25500000920E-02 0. -1.
       -2   -1    0    0    0  501  0.00000000000E+00  0.00000000000E+00 -0.68449771261E+03  0.68449771261E+03  0.25500000920E-02 0.  1.
    10030    2    1    2    0    0  0.00000000000E+00  0.00000000000E+00  0.91331002142E+03  0.22823054466E+04  0.20915981824E+04 0.  0.
        3    1    3    3  502    0 -0.94877048614E+03 -0.66355367636E+02  0.93119473637E+03  0.13310492543E+04  0.10100000352E+00 0. -1.
       -3    1    3    3    0  502  0.94877048614E+03  0.66355367636E+02 -0.17884714955E+02  0.95125619232E+03  0.10100000352E+00 0.  1.
</event>
<event>
 5   0  0.5954140E-05  0.2110039E+04  0.7818609E-02  0.8556834E-01
        2   -1    0    0  501    0  0.00000000000E+00  0.00000000000E+00  0.12776180360E+04  0.12776180360E+04  0.25500000920E-02 0. -1.
       -2   -1    0    0    0  501  0.00000000000E+00  0.00000000000E+00 -0.87120433980E+03  0.87120433980E+03  0.25500000920E-02 0.  1.
    10030    2    1    2    0    0  0.00000000000E+00  0.00000000000E+00  0.40641369617E+03  0.21488223758E+04  0.21100392201E+04 0.  0.
        2    1    3    3  502    0 -0.37979451083E+00  0.81049314549E+03  0.89102236166E+03  0.12044999511E+04  0.25500000920E-02 0. -1.
       -2    1    3    3    0  502  0.37979451083E+00 -0.81049314549E+03 -0.48460866549E+03  0.94432242471E+03  0.25500000920E-02 0.  1.
</event>
<event>
 5   0  0.2604390E-05  0.2106151E+04  0.7818609E-02  0.8558539E-01
       -1   -1    0    0    0  501  0.00000000000E+00  0.00000000000E+00  0.17191391193E+04  0.17191391193E+04  0.50400001928E-02 0.  1.
        1   -1    0    0  501    0  0.00000000000E+00  0.00000000000E+00 -0.64507156331E+03  0.64507156333E+03  0.50400001928E-02 0. -1.
    10030    2    1    2    0    0  0.00000000000E+00  0.00000000000E+00  0.10740675560E+04  0.23642106826E+04  0.21061507631E+04 0.  0.
        5    1    3    3  502    0 -0.90795058860E+03 -0.34347877232E+03  0.78864413428E+02  0.97395771165E+03  0.46999998093E+01 0. -1.
       -5    1    3    3    0  502  0.90795058860E+03  0.34347877232E+03  0.99520314254E+03  0.13902529710E+04  0.46999998093E+01 0.  1.
</event>
<event>
 5   0  0.5506332E-05  0.2130854E+04  0.7818609E-02  0.8547773E-01
       -2   -1    0    0    0  501  0.00000000000E+00  0.00000000000E+00  0.11790836349E+04  0.11790836349E+04  0.25500000920E-02 0. -1.
        2   -1    0    0  501    0  0.00000000000E+00  0.00000000000E+00 -0.96272602948E+03  0.96272602948E+03  0.25500000920E-02 0.  1.
    10030    2    1    2    0    0  0.00000000000E+00  0.00000000000E+00  0.21635760543E+03  0.21418096644E+04  0.21308538254E+04 0.  0.
        3    1    3    3  502    0 -0.10479545181E+04  0.79762890689E+02  0.28390245327E+03  0.10886557785E+04  0.10100000352E+00 0. -1.
       -3    1    3    3    0  502  0.10479545181E+04 -0.79762890689E+02 -0.67544847837E+02  0.10531538859E+04  0.10100000352E+00 0.  1.
</event>
<event>
 5   0  0.5462851E-05  0.2095414E+04  0.7818609E-02  0.8563266E-01
       -2   -1    0    0    0  501  0.00000000000E+00  0.00000000000E+00  0.62435257240E+03  0.62435257240E+03  0.25500000920E-02 0.  1.
        2   -1    0    0  501    0  0.00000000000E+00  0.00000000000E+00 -0.17581255980E+04  0.17581255980E+04  0.25500000920E-02 0. -1.
    10030    2    1    2    0    0  0.00000000000E+00  0.00000000000E+00 -0.11337730256E+04  0.23824781704E+04  0.20954142690E+04 0.  0.
        1    1    3    3  502    0  0.16780041962E+03 -0.65475682042E+03  0.34329781715E+03  0.75810082838E+03  0.50400001928E-02 0.  1.
       -1    1    3    3    0  502 -0.16780041962E+03  0.65475682042E+03 -0.14770708427E+04  0.16243773420E+04  0.50400001928E-02 0. -1.
</event>
<event>
 5   0  0.5967046E-05  0.2103911E+04  0.7818609E-02  0.8559522E-01
        2   -1    0    0  501    0  0.00000000000E+00  0.00000000000E+00  0.64566240279E+03  0.64566240280E+03  0.25500000920E-02 0.  1.
       -2   -1    0    0    0  501  0.00000000000E+00  0.00000000000E+00 -0.17139151457E+04  0.17139151457E+04  0.25500000920E-02 0. -1.
    10030    2    1    2    0    0  0.00000000000E+00  0.00000000000E+00 -0.10682527429E+04  0.23595775485E+04  0.21039111874E+04 0.  0.
        4    1    3    3  502    0  0.84732279374E+03 -0.59921730817E+02  0.16181463115E+03  0.86471505039E+03  0.12699999809E+01 0.  1.
       -4    1    3    3    0  502 -0.84732279374E+03  0.59921730817E+02 -0.12300673741E+04  0.14948624981E+04  0.12699999809E+01 0. -1.
</event>
<event>
 5   0  0.5954140E-05  0.2087276E+04  0.7818609E-02  0.8566869E-01
       -2   -1    0    0    0  501  0.00000000000E+00  0.00000000000E+00  0.10394631956E+04  0.10394631956E+04  0.25500000920E-02 0.  1.
        2   -1    0    0  501    0  0.00000000000E+00  0.00000000000E+00 -0.10478294419E+04  0.10478294419E+04  0.25500000920E-02 0. -1.
    10030    2    1    2    0    0  0.00000000000E+00  0.00000000000E+00 -0.83662463315E+01  0.20872926375E+04  0.20872758707E+04 0.  0.
        2    1    3    3  502    0 -0.42270560195E+03 -0.32469590287E+03 -0.90144875774E+03  0.10472427217E+04  0.25500000920E-02 0. -1.
       -2    1    3    3    0  502  0.42270560195E+03  0.32469590287E+03  0.89308251141E+03  0.10400499158E+04  0.25500000920E-02 0.  1.
</event>
<event>
 5   0  0.2604390E-05  0.2096192E+04  0.7818609E-02  0.8562922E-01
       -1   -1    0    0    0  501  0.00000000000E+00  0.00000000000E+00  0.95564797293E+03  0.95564797294E+03  0.50400001928E-02 0.  1.
        1   -1    0    0  501    0  0.00000000000E+00  0.00000000000E+00 -0.11494877996E+04  0.11494877996E+04  0.50400001928E-02 0. -1.
    10030    2    1    2    0    0  0.00000000000E+00  0.00000000000E+00 -0.19383982668E+03  0.21051357726E+04  0.20961924393E+04 0.  0.
        5    1    3    3  502    0  0.95472323474E+03  0.27394860905E+03 -0.43292066969E+03  0.10835066643E+04  0.46999998093E+01 0. -1.
       -5    1    3    3    0  502 -0.95472323474E+03 -0.27394860905E+03  0.23908084301E+03  0.10216291083E+04  0.46999998093E+01 0.  1.
</event>
<event>
 5   0  0.5954140E-05  0.2080436E+04  0.7818609E-02  0.8569911E-01
       -2   -1    0    0    0  501  0.00000000000E+00  0.00000000000E+00  0.42998740316E+03  0.42998740317E+03  0.25500000920E-02 0.  1.
        2   -1    0    0  501    0  0.00000000000E+00  0.00000000000E+00 -0.25164772674E+04  0.25164772674E+04  0.25500000920E-02 0. -1.
    10030    2    1    2    0    0  0.00000000000E+00  0.00000000000E+00 -0.20864898643E+04  0.29464646706E+04  0.20804360364E+04 0.  0.
        2    1    3    3  502    0  0.38128378795E+03  0.70324415842E+03 -0.10153133122E+03  0.80637353908E+03  0.25500000920E-02 0.  1.
       -2    1    3    3    0  502 -0.38128378795E+03 -0.70324415842E+03 -0.19849585330E+04  0.21400911315E+04  0.25500000920E-02 0. -1.
</event>
<event>
 5   0  0.2604390E-05  0.2104076E+04  0.7818609E-02  0.8559450E-01
        1   -1    0    0  501    0  0.00000000000E+00  0.00000000000E+00  0.69773623118E+03  0.69773623120E+03  0.50400001928E-02 0. -1.
       -1   -1    0    0    0  501  0.00000000000E+00  0.00000000000E+00 -0.15862496435E+04  0.15862496435E+04  0.50400001928E-02 0.  1.
    10030    2    1    2    0    0  0.00000000000E+00  0.00000000000E+00 -0.88851341228E+03  0.22839858747E+04  0.21040758997E+04 0.  0.
        5    1    3    3  502    0 -0.57560678166E+03 -0.63112682638E+03  0.22235105583E+03  0.88266999501E+03  0.46999998093E+01 0. -1.
       -5    1    3    3    0  502  0.57560678166E+03  0.63112682638E+03 -0.11108644681E+04  0.14013158797E+04  0.46999998093E+01 0.  1.
</event>
<event>
 5   0  0.2789662E-05  0.2112700E+04  0.7818609E-02  0.8555669E-01
        1   -1    0    0  501    0  0.00000000000E+00  0.00000000000E+00  0.10133853245E+04  0.10133853245E+04  0.50400001928E-02 0.  1.
       -1   -1    0    0    0  501  0.00000000000E+00  0.00000000000E+00 -0.11011364284E+04  0.11011364284E+04  0.50400001928E-02 0. -1.
    10030    2    1    2    0    0  0.00000000000E+00  0.00000000000E+00 -0.87751103919E+02  0.21145217530E+04  0.21127001651E+04 0.  0.
        4    1    3    3  502    0  0.31375841251E+03 -0.13498447751E+02  0.96558086074E+03  0.10153691748E+04  0.12699999809E+01 0.  1.
       -4    1    3    3    0  502 -0.31375841251E+03  0.13498447751E+02 -0.10533319647E+04  0.10991525782E+04  0.12699999809E+01 0. -1.
</event>
<event>
 5   0  0.2699285E-05  0.2009276E+04  0.7818609E-02  0.8602296E-01
        1   -1    0    0  501    0  0.00000000000E+00  0.00000000000E+00  0.60900292102E+03  0.60900292104E+03  0.50400001928E-02 0. -1.
       -1   -1    0    0    0  501  0.00000000000E+00  0.00000000000E+00 -0.16572946324E+04  0.16572946324E+04  0.50400001928E-02 0.  1.
    10030    2    1    2    0    0  0.00000000000E+00  0.00000000000E+00 -0.10482917114E+04  0.22662975535E+04  0.20092757622E+04 0.  0.
        2    1    3    3  502    0 -0.49174381142E+03 -0.80315326891E+03 -0.91880441572E+03  0.13157008413E+04  0.25500000920E-02 0.  1.
       -2    1    3    3    0  502  0.49174381142E+03  0.80315326891E+03 -0.12948729567E+03  0.95059671217E+03  0.25500000920E-02 0. -1.
</event>
<event>
 5   0  0.2789662E-05  0.2135388E+04  0.7818609E-02  0.8545813E-01
       -1   -1    0    0    0  501  0.00000000000E+00  0.00000000000E+00  0.11022935770E+04  0.11022935771E+04  0.50400001928E-02 0. -1.
        1   -1    0    0  501    0  0.00000000000E+00  0.00000000000E+00 -0.10341806892E+04  0.10341806893E+04  0.50400001928E-02 0.  1.
    10030    2    1    2    0    0  0.00000000000E+00  0.00000000000E+00  0.68112887800E+02  0.21364742663E+04  0.21353882376E+04 0.  0.
        4    1    3    3  502    0 -0.93285927120E+03  0.47793135440E+03 -0.16933078195E+03  0.10617529496E+04  0.12699999809E+01 0.  1.
       -4    1    3    3    0  502  0.93285927120E+03 -0.47793135440E+03  0.23744366975E+03  0.10747213167E+04  0.12699999809E+01 0. -1.
</event>
<event>
 5   0  0.5462851E-05  0.2009775E+04  0.7818609E-02  0.8602064E-01
        2   -1    0    0  501    0  0.00000000000E+00  0.00000000000E+00  0.12478284873E+04  0.12478284873E+04  0.25500000920E-02 0.  1.
       -2   -1    0    0    0  501  0.00000000000E+00  0.00000000000E+00 -0.80924518729E+03  0.80924518729E+03  0.25500000920E-02 0. -1.
    10030    2    1    2    0    0  0.00000000000E+00  0.00000000000E+00  0.43858330001E+03  0.20570736746E+04  0.20097753087E+04 0.  0.
        1    1    3    3  502    0 -0.40937620729E+03  0.43585309935E+01 -0.72001570077E+03  0.82826957283E+03  0.50400001928E-02 0. -1.
       -1    1    3    3    0  502  0.40937620729E+03 -0.43585309935E+01  0.11585990008E+04  0.12288041018E+04  0.50400001928E-02 0.  1.
</event>
<event>
 5   0  0.5967046E-05  0.2080319E+04  0.7818609E-02  0.8569963E-01
        2   -1    0    0  501    0  0.00000000000E+00  0.00000000000E+00  0.72986223242E+03  0.72986223243E+03  0.25500000920E-02 0. -1.
       -2   -1    0    0    0  501  0.00000000000E+00  0.00000000000E+00 -0.14823787458E+04  0.14823787458E+04  0.25500000920E-02 0.  1.
    10030    2    1    2    0    0  0.00000000000E+00  0.00000000000E+00 -0.75251651342E+03  0.22122409783E+04  0.20803194570E+04 0.  0.
        4    1    3    3  502    0  0.18698365968E+03  0.23725160280E+02  0.71154981986E+03  0.73609138784E+03  0.12699999809E+01 0. -1.
       -4    1    3    3    0  502 -0.18698365968E+03 -0.23725160280E+02 -0.14640663333E+04  0.14761495904E+04  0.12699999809E+01 0.  1.
</event>
<event>
 5   0  0.2732159E-05  0.2143561E+04  0.7818609E-02  0.8542293E-01
        1   -1    0    0  501    0  0.00000000000E+00  0.00000000000E+00  0.10164597297E+04  0.10164597297E+04  0.50400001928E-02 0. -1.
       -1   -1    0    0    0  501  0.00000000000E+00  0.00000000000E+00 -0.11301122089E+04  0.11301122089E+04  0.50400001928E-02 0.  1.
    10030    2    1    2    0    0  0.00000000000E+00  0.00000000000E+00 -0.11365247919E+03  0.21465719386E+04  0.21435611028E+04 0.  0.
        3    1    3    3  502    0  0.61277267694E+03  0.39505499355E+03 -0.84352164539E+03  0.11149383741E+04  0.10100000352E+00 0.  1.
       -3    1    3    3    0  502 -0.61277267694E+03 -0.39505499355E+03  0.72986916621E+03  0.10316335645E+04  0.10100000352E+00 0. -1.
</event>
<event>
 5   0  0.5506332E-05  0.2095577E+04  0.7818609E-02  0.8563194E-01
       -2   -1    0    0    0  501  0.00000000000E+00  0.00000000000E+00  0.73858975244E+03  0.73858975244E+03  0.25500000920E-02 0. -1.
        2   -1    0    0  501    0  0.00000000000E+00  0.00000000000E+00 -0.14864289033E+04  0.14864289033E+04  0.25500000920E-02 0.  1.
    10030    2    1    2    0    0  0.00000000000E+00  0.00000000000E+00 -0.74783915085E+03  0.22250186557E+04  0.20955773960E+04 0.  0.
        3    1    3    3  502    0 -0.86200173447E+03 -0.59438530385E+03 -0.33252058785E+03  0.10985949350E+04  0.10100000352E+00 0.  1.
       -3    1    3    3    0  502  0.86200173447E+03  0.59438530385E+03 -0.41531856300E+03  0.11264237207E+04  0.10100000352E+00 0. -1.
</event>
<event>
 5   0  0.2732159E-05  0.2118002E+04  0.7818609E-02  0.8553355E-01
       -1   -1    0    0    0  501  0.00000000000E+00  0.00000000000E+00  0.50659662631E+03  0.50659662634E+03  0.50400001928E-02 0.  1.
        1   -1    0    0  501    0  0.00000000000E+00  0.00000000000E+00 -0.22137591349E+04  0.22137591349E+04  0.50400001928E-02 0. -1.
    10030    2    1    2    0    0  0.00000000000E+00  0.00000000000E+00 -0.17071625086E+04  0.27203557613E+04  0.21180018029E+04 0.  0.
        3    1    3    3  502    0  0.56791373938E+03  0.12710281206E+02  0.29435332269E+03  0.63979016514E+03  0.10100000352E+00 0.  1.
       -3    1    3    3    0  502 -0.56791373938E+03 -0.12710281206E+02 -0.20015158313E+04  0.20805655961E+04  0.10100000352E+00 0. -1.
</event>
<event>
 5   0  0.2699285E-05  0.2103775E+04  0.7818609E-02  0.8559582E-01
        1   -1    0    0  501    0  0.00000000000E+00  0.00000000000E+00  0.10012634983E+04  0.10012634983E+04  0.50400001928E-02 0.  1.
       -1   -1    0    0    0  501  0.00000000000E+00  0.00000000000E+00 -0.11050715709E+04  0.11050715710E+04  0.50400001928E-02 0. -1.
    10030    2    1    2    0    0  0.00000000000E+00  0.00000000000E+00 -0.10380807262E+03  0.21063350693E+04  0.21037754890E+04 0.  0.
        2    1    3    3  502    0  0.48669809200E+03 -0.93251672939E+03 -0.54218490468E+02  0.10532815996E+04  0.25500000920E-02 0. -1.
       -2    1    3    3    0  502 -0.48669809200E+03  0.93251672939E+03 -0.49589582152E+02  0.10530534697E+04  0.25500000920E-02 0.  1.
</event>
<event>
 5   0  0.5954140E-05  0.2085831E+04  0.7818609E-02  0.8567511E-01
       -2   -1    0    0    0  501  0.00000000000E+00  0.00000000000E+00  0.88267507799E+03  0.88267507800E+03  0.25500000920E-02 0. -1.
        2   -1    0    0  501    0  0.00000000000E+00  0.00000000000E+00 -0.12322463174E+04  0.12322463174E+04  0.25500000920E-02 0.  1.
    10030    2    1    2    0    0  0.00000000000E+00  0.00000000000E+00 -0.34957123941E+03  0.21149213954E+04  0.20858313588E+04 0.  0.
        2    1    3    3  502    0  0.10287922538E+04  0.15037669661E+03 -0.25744845486E+03  0.10711238768E+04  0.25500000920E-02 0. -1.
       -2    1    3    3    0  502 -0.10287922538E+04 -0.15037669661E+03 -0.92122784546E+02  0.10437975186E+04  0.25500000920E-02 0.  1.
</event>
<event>
 5   0  0.2017750E-05  0.2094266E+04  0.7818609E-02  0.8563773E-01
        3   -1    0    0  501    0  0.00000000000E+00  0.00000000000E+00  0.78137816331E+03  0.78137816984E+03  0.10100000352E+00 0.  1.
       -3   -1    0    0    0  501  0.00000000000E+00  0.00000000000E+00 -0.14032740893E+04  0.14032740929E+04  0.10100000352E+00 0. -1.
    10030    2    1    2    0    0  0.00000000000E+00  0.00000000000E+00 -0.62189592600E+03  0.21846522628E+04  0.20942662120E+04 0.  0.
        4    1    3    3  502    0  0.30724739959E+03  0.18564562262E+03 -0.13370795242E+04  0.13844307598E+04  0.12699999809E+01 0. -1.
       -4    1    3    3    0  502 -0.30724739959E+03 -0.18564562262E+03  0.71518359822E+03  0.80022150297E+03  0.12699999809E+01 0.  1.
</event>
<event>
 5   0  0.2602060E-05  0.2100176E+04  0.7818609E-02  0.8561166E-01
        1   -1    0    0  501    0  0.00000000000E+00  0.00000000000E+00  0.19251680153E+04  0.19251680153E+04  0.50400001928E-02 0. -1.
       -1   -1    0    0    0  501  0.00000000000E+00  0.00000000000E+00 -0.57277342835E+03  0.57277342837E+03  0.50400001928E-02 0.  1.
    10030    2    1    2    0    0  0.00000000000E+00  0.00000000000E+00  0.13523945870E+04  0.24979414437E+04  0.21001762634E+04 0.  0.
        1    1    3    3  502    0  0.84441471741E+03  0.45680670049E+03  0.17021233167E+03  0.97502862238E+03  0.50400001928E-02 0.  1.
       -1    1    3    3    0  502 -0.84441471741E+03 -0.45680670049E+03  0.11821822553E+04  0.15229128213E+04  0.50400001928E-02 0. -1.
</event>
<event>
 5   0  0.5967046E-05  0.2105417E+04  0.7818609E-02  0.8558861E-01
        2   -1    0    0  501    0  0.00000000000E+00  0.00000000000E+00  0.19028924785E+04  0.19028924785E+04  0.25500000920E-02 0.  1.
       -2   -1    0    0    0  501  0.00000000000E+00  0.00000000000E+00 -0.58237404272E+03  0.58237404273E+03  0.25500000920E-02 0. -1.
    10030    2    1    2    0    0  0.00000000000E+00  0.00000000000E+00  0.13205184358E+04  0.24852665212E+04  0.21054169996E+04 0.  0.
        4    1    3    3  502    0 -0.97401223678E+03 -0.15756345407E+03  0.22708137699E+03  0.10124690831E+04  0.12699999809E+01 0. -1.
       -4    1    3    3    0  502  0.97401223678E+03  0.15756345407E+03  0.10934370588E+04  0.14727974382E+04  0.12699999809E+01 0.  1.
</event>
<event>
 5   0  0.2602060E-05  0.2118516E+04  0.7818609E-02  0.8553130E-01
        1   -1    0    0  501    0  0.00000000000E+00  0.00000000000E+00  0.87660691760E+03  0.87660691761E+03  0.50400001928E-02 0.  1.
       -1   -1    0    0    0  501  0.00000000000E+00  0.00000000000E+00 -0.12799668134E+04  0.12799668134E+04  0.50400001928E-02 0. -1.
    10030    2    1    2    0    0  0.00000000000E+00  0.00000000000E+00 -0.40335989581E+03  0.21565737310E+04  0.21185162383E+04 0.  0.
        1    1    3    3  502    0 -0.73139835671E+03  0.66942303734E+03 -0.58114582988E+03  0.11492611691E+04  0.50400001928E-02 0. -1.
       -1    1    3    3    0  502  0.73139835671E+03 -0.66942303734E+03  0.17778593406E+03  0.10073125620E+04  0.50400001928E-02 0.  1.
</event>
<event>
 5   0  0.5462851E-05  0.2096635E+04  0.7818609E-02  0.8562727E-01
        2   -1    0    0  501    0  0.00000000000E+00  0.00000000000E+00  0.96023098757E+03  0.96023098758E+03  0.25500000920E-02 0. -1.
       -2   -1    0    0    0  501  0.00000000000E+00  0.00000000000E+00 -0.11444848522E+04  0.11444848522E+04  0.25500000920E-02 0.  1.
    10030    2    1    2    0    0  0.00000000000E+00  0.00000000000E+00 -0.18425386463E+03  0.21047158398E+04  0.20966352281E+04 0.  0.
        1    1    3    3  502    0  0.43259235886E+03 -0.94922044171E+03  0.12265320743E+02  0.10432190729E+04  0.50400001928E-02 0.  1.
       -1    1    3    3    0  502 -0.43259235886E+03  0.94922044171E+03 -0.19651918537E+03  0.10614967669E+04  0.50400001928E-02 0. -1.
</event>
<event>
 5   0  0.5866610E-05  0.2103281E+04  0.7818609E-02  0.8559799E-01
        2   -1    0    0  501    0  0.00000000000E+00  0.00000000000E+00  0.16872012344E+04  0.16872012344E+04  0.25500000920E-02 0. -1.
       -2   -1    0    0    0  501  0.00000000000E+00  0.00000000000E+00 -0.65549255095E+03  0.65549255096E+03  0.25500000920E-02 0.  1.
    10030    2    1    2    0    0  0.00000000000E+00  0.00000000000E+00  0.10317086835E+04  0.23426937854E+04  0.21032810950E+04 0.  0.
        5    1    3    3  502    0  0.37994023659E+03 -0.39508312280E+03 -0.48379048092E+03  0.73110914146E+03  0.46999998093E+01 0.  1.
       -5    1    3    3    0  502 -0.37994023659E+03  0.39508312280E+03  0.15154991644E+04  0.16115846439E+04  0.46999998093E+01 0. -1.
</event>
<event>
 5   0  0.2789662E-05  0.2152189E+04  0.7818609E-02  0.8538596E-01
        1   -1    0    0  501    0  0.00000000000E+00  0.00000000000E+00  0.44717886783E+03  0.44717886786E+03  0.50400001928E-02 0.  1.
       -1   -1    0    0    0  501  0.00000000000E+00  0.00000000000E+00 -0.25895226483E+04  0.25895226483E+04  0.50400001928E-02 0. -1.
    10030    2    1    2    0    0  0.00000000000E+00  0.00000000000E+00 -0.21423437805E+04  0.30367015162E+04  0.21521894026E+04 0.  0.
        4    1    3    3  502    0  0.65206561925E+03 -0.68702358409E+03 -0.17917229596E+04  0.20266878778E+04  0.12699999809E+01 0. -1.
       -4    1    3    3    0  502 -0.65206561925E+03  0.68702358409E+03 -0.35062082088E+03  0.10100136384E+04  0.12699999809E+01 0.  1.
</event>
<event>
 5   0  0.5866610E-05  0.2097995E+04  0.7818609E-02  0.8562127E-01
        2   -1    0    0  501    0  0.00000000000E+00  0.00000000000E+00  0.12848625523E+04  0.12848625523E+04  0.25500000920E-02 0. -1.
       -2   -1    0    0    0  501  0.00000000000E+00  0.00000000000E+00 -0.85643097852E+03  0.85643097852E+03  0.25500000920E-02 0.  1.
    10030    2    1    2    0    0  0.00000000000E+00  0.00000000000E+00  0.42843157376E+03  0.21412935308E+04  0.20979953221E+04 0.  0.
        5    1    3    3  502    0  0.83136880100E+03 -0.40663003268E+02  0.86578452843E+03  0.12010131152E+04  0.46999998093E+01 0. -1.
       -5    1    3    3    0  502 -0.83136880100E+03  0.40663003268E+02 -0.43735295467E+03  0.94028041565E+03  0.46999998093E+01 0.  1.
</event>
<event>
 5   0  0.2699285E-05  0.2107472E+04  0.7818609E-02  0.8557959E-01
       -1   -1    0    0    0  501  0.00000000000E+00  0.00000000000E+00  0.11991875682E+04  0.11991875683E+04  0.50400001928E-02 0.  1.
        1   -1    0    0  501    0  0.00000000000E+00  0.00000000000E+00 -0.92592628512E+03  0.92592628513E+03  0.50400001928E-02 0. -1.
    10030    2    1    2    0    0  0.00000000000E+00  0.00000000000E+00  0.27326128312E+03  0.21251138534E+04  0.21074717462E+04 0.  0.
        2    1    3    3  502    0 -0.59098028754E+03  0.75560267398E+03 -0.30310036822E+03  0.10060133868E+04  0.25500000920E-02 0. -1.
       -2    1    3    3    0  502  0.59098028754E+03 -0.75560267398E+03  0.57636165135E+03  0.11191004666E+04  0.25500000920E-02 0.  1.
</event>
<event>
 5   0  0.5954140E-05  0.2113011E+04  0.7818609E-02  0.8555534E-01
       -2   -1    0    0    0  501  0.00000000000E+00  0.00000000000E+00  0.45061873810E+03  0.45061873811E+03  0.25500000920E-02 0. -1.
        2   -1    0    0  501    0  0.00000000000E+00  0.00000000000E+00 -0.24770466201E+04  0.24770466201E+04  0.25500000920E-02 0.  1.
    10030    2    1    2    0    0  0.00000000000E+00  0.00000000000E+00 -0.20264278820E+04  0.29276653582E+04  0.21130107640E+04 0.  0.
        2    1    3    3  502    0  0.11574561299E+03 -0.18032655805E+03  0.42019542141E+03  0.47167669716E+03  0.25500000920E-02 0. -1.
       -2    1    3    3    0  502 -0.11574561299E+03  0.18032655805E+03 -0.24466233034E+04  0.24559886611E+04  0.25500000920E-02 0.  1.
</event>
<event>
 5   0  0.2604390E-05  0.2103192E+04  0.7818609E-02  0.8559838E-01
       -1   -1    0    0    0  501  0.00000000000E+00  0.00000000000E+00  0.11902657824E+04  0.11902657824E+04  0.50400001928E-02 0.  1.
        1   -1    0    0  501    0  0.00000000000E+00  0.00000000000E+00 -0.92908202108E+03  0.92908202109E+03  0.50400001928E-02 0. -1.
    10030    2    1    2    0    0  0.00000000000E+00  0.00000000000E+00  0.26118376132E+03  0.21193478035E+04  0.21031923723E+04 0.  0.
        5    1    3    3  502    0  0.62391747834E+03  0.46336351563E+03  0.84444981868E+03  0.11476481837E+04  0.46999998093E+01 0.  1.
       -5    1    3    3    0  502 -0.62391747834E+03 -0.46336351563E+03 -0.58326605736E+03  0.97169961976E+03  0.46999998093E+01 0. -1.
</event>
</LesHouchesEvents>
